# vtk DataFile Version 2.0
Pressure Field Data 
ASCII 
DATASET UNSTRUCTURED_GRID 

POINTS 7441 double 

    0.0000000000000000E+00     0.0000000000000000E+00     0.0000000000000000E+00 
    1.0000000000000000E+00     0.0000000000000000E+00     0.0000000000000000E+00 
    1.0000000000000000E+00     1.0000000000000000E+00     0.0000000000000000E+00 
    0.0000000000000000E+00     1.0000000000000000E+00     0.0000000000000000E+00 
    2.6388888888826079E-01     0.0000000000000000E+00     0.0000000000000000E+00 
    4.8611111110983568E-01     0.0000000000000000E+00     0.0000000000000000E+00 
    4.5833333333213888E-01     0.0000000000000000E+00     0.0000000000000000E+00 
    4.3055555555444203E-01     0.0000000000000000E+00     0.0000000000000000E+00 
    4.0277777777674523E-01     0.0000000000000000E+00     0.0000000000000000E+00 
    3.7499999999904832E-01     0.0000000000000000E+00     0.0000000000000000E+00 
    3.4722222222135152E-01     0.0000000000000000E+00     0.0000000000000000E+00 
    3.1944444444365461E-01     0.0000000000000000E+00     0.0000000000000000E+00 
    2.9166666666595781E-01     0.0000000000000000E+00     0.0000000000000000E+00 
    5.1388888888760953E-01     0.0000000000000000E+00     0.0000000000000000E+00 
    2.3611111111056399E-01     0.0000000000000000E+00     0.0000000000000000E+00 
    2.0833333333286691E-01     0.0000000000000000E+00     0.0000000000000000E+00 
    1.8055555555516931E-01     0.0000000000000000E+00     0.0000000000000000E+00 
    1.5277777777747251E-01     0.0000000000000000E+00     0.0000000000000000E+00 
    1.2499999999976660E-01     0.0000000000000000E+00     0.0000000000000000E+00 
    9.7222222222041035E-02     0.0000000000000000E+00     0.0000000000000000E+00 
    6.9444444444307585E-02     0.0000000000000000E+00     0.0000000000000000E+00 
    4.1666666666583550E-02     0.0000000000000000E+00     0.0000000000000000E+00 
    7.6388888888826756E-01     0.0000000000000000E+00     0.0000000000000000E+00 
    9.8611111111107452E-01     0.0000000000000000E+00     0.0000000000000000E+00 
    9.5833333333322368E-01     0.0000000000000000E+00     0.0000000000000000E+00 
    9.3055555555537284E-01     0.0000000000000000E+00     0.0000000000000000E+00 
    9.0277777777752188E-01     0.0000000000000000E+00     0.0000000000000000E+00 
    8.7499999999967093E-01     0.0000000000000000E+00     0.0000000000000000E+00 
    8.4722222222182020E-01     0.0000000000000000E+00     0.0000000000000000E+00 
    8.1944444444396924E-01     0.0000000000000000E+00     0.0000000000000000E+00 
    7.9166666666611840E-01     0.0000000000000000E+00     0.0000000000000000E+00 
    1.3888888888862600E-02     0.0000000000000000E+00     0.0000000000000000E+00 
    7.3611111111041660E-01     0.0000000000000000E+00     0.0000000000000000E+00 
    7.0833333333256565E-01     0.0000000000000000E+00     0.0000000000000000E+00 
    6.8055555555471492E-01     0.0000000000000000E+00     0.0000000000000000E+00 
    6.5277777777686397E-01     0.0000000000000000E+00     0.0000000000000000E+00 
    6.2499999999901323E-01     0.0000000000000000E+00     0.0000000000000000E+00 
    5.9722222222116228E-01     0.0000000000000000E+00     0.0000000000000000E+00 
    5.6944444444331144E-01     0.0000000000000000E+00     0.0000000000000000E+00 
    5.4166666666546048E-01     0.0000000000000000E+00     0.0000000000000000E+00 
    2.7777777777710932E-01     0.0000000000000000E+00     0.0000000000000000E+00 
    4.9999999999868411E-01     0.0000000000000000E+00     0.0000000000000000E+00 
    4.7222222222098731E-01     0.0000000000000000E+00     0.0000000000000000E+00 
    4.4444444444329051E-01     0.0000000000000000E+00     0.0000000000000000E+00 
    4.1666666666559360E-01     0.0000000000000000E+00     0.0000000000000000E+00 
    3.8888888888789669E-01     0.0000000000000000E+00     0.0000000000000000E+00 
    3.6111111111019989E-01     0.0000000000000000E+00     0.0000000000000000E+00 
    3.3333333333250298E-01     0.0000000000000000E+00     0.0000000000000000E+00 
    3.0555555555480618E-01     0.0000000000000000E+00     0.0000000000000000E+00 
    5.2777777777653501E-01     0.0000000000000000E+00     0.0000000000000000E+00 
    2.4999999999941239E-01     0.0000000000000000E+00     0.0000000000000000E+00 
    2.2222222222171559E-01     0.0000000000000000E+00     0.0000000000000000E+00 
    1.9444444444401809E-01     0.0000000000000000E+00     0.0000000000000000E+00 
    1.6666666666632060E-01     0.0000000000000000E+00     0.0000000000000000E+00 
    1.3888888888862441E-01     0.0000000000000000E+00     0.0000000000000000E+00 
    1.1111111111090879E-01     0.0000000000000000E+00     0.0000000000000000E+00 
    8.3333333333173276E-02     0.0000000000000000E+00     0.0000000000000000E+00 
    5.5555555555441907E-02     0.0000000000000000E+00     0.0000000000000000E+00 
    7.4999999999934208E-01     0.0000000000000000E+00     0.0000000000000000E+00 
    9.7222222222214916E-01     0.0000000000000000E+00     0.0000000000000000E+00 
    9.4444444444429820E-01     0.0000000000000000E+00     0.0000000000000000E+00 
    9.1666666666644736E-01     0.0000000000000000E+00     0.0000000000000000E+00 
    8.8888888888859641E-01     0.0000000000000000E+00     0.0000000000000000E+00 
    8.6111111111074556E-01     0.0000000000000000E+00     0.0000000000000000E+00 
    8.3333333333289472E-01     0.0000000000000000E+00     0.0000000000000000E+00 
    8.0555555555504388E-01     0.0000000000000000E+00     0.0000000000000000E+00 
    7.7777777777719292E-01     0.0000000000000000E+00     0.0000000000000000E+00 
    2.7777777777725190E-02     0.0000000000000000E+00     0.0000000000000000E+00 
    7.2222222222149113E-01     0.0000000000000000E+00     0.0000000000000000E+00 
    6.9444444444364029E-01     0.0000000000000000E+00     0.0000000000000000E+00 
    6.6666666666578944E-01     0.0000000000000000E+00     0.0000000000000000E+00 
    6.3888888888793860E-01     0.0000000000000000E+00     0.0000000000000000E+00 
    6.1111111111008776E-01     0.0000000000000000E+00     0.0000000000000000E+00 
    5.8333333333223691E-01     0.0000000000000000E+00     0.0000000000000000E+00 
    5.5555555555438596E-01     0.0000000000000000E+00     0.0000000000000000E+00 
    1.0000000000000000E+00     2.6388888888826079E-01     0.0000000000000000E+00 
    1.0000000000000000E+00     4.8611111110983568E-01     0.0000000000000000E+00 
    1.0000000000000000E+00     4.5833333333213888E-01     0.0000000000000000E+00 
    1.0000000000000000E+00     4.3055555555444203E-01     0.0000000000000000E+00 
    1.0000000000000000E+00     4.0277777777674523E-01     0.0000000000000000E+00 
    1.0000000000000000E+00     3.7499999999904832E-01     0.0000000000000000E+00 
    1.0000000000000000E+00     3.4722222222135152E-01     0.0000000000000000E+00 
    1.0000000000000000E+00     3.1944444444365461E-01     0.0000000000000000E+00 
    1.0000000000000000E+00     2.9166666666595781E-01     0.0000000000000000E+00 
    1.0000000000000000E+00     5.1388888888760953E-01     0.0000000000000000E+00 
    1.0000000000000000E+00     2.3611111111056399E-01     0.0000000000000000E+00 
    1.0000000000000000E+00     2.0833333333286691E-01     0.0000000000000000E+00 
    1.0000000000000000E+00     1.8055555555516931E-01     0.0000000000000000E+00 
    1.0000000000000000E+00     1.5277777777747251E-01     0.0000000000000000E+00 
    1.0000000000000000E+00     1.2499999999976660E-01     0.0000000000000000E+00 
    1.0000000000000000E+00     9.7222222222041035E-02     0.0000000000000000E+00 
    1.0000000000000000E+00     6.9444444444307585E-02     0.0000000000000000E+00 
    1.0000000000000000E+00     4.1666666666583550E-02     0.0000000000000000E+00 
    1.0000000000000000E+00     7.6388888888826756E-01     0.0000000000000000E+00 
    1.0000000000000000E+00     9.8611111111107452E-01     0.0000000000000000E+00 
    1.0000000000000000E+00     9.5833333333322368E-01     0.0000000000000000E+00 
    1.0000000000000000E+00     9.3055555555537284E-01     0.0000000000000000E+00 
    1.0000000000000000E+00     9.0277777777752188E-01     0.0000000000000000E+00 
    1.0000000000000000E+00     8.7499999999967093E-01     0.0000000000000000E+00 
    1.0000000000000000E+00     8.4722222222182020E-01     0.0000000000000000E+00 
    1.0000000000000000E+00     8.1944444444396924E-01     0.0000000000000000E+00 
    1.0000000000000000E+00     7.9166666666611840E-01     0.0000000000000000E+00 
    1.0000000000000000E+00     1.3888888888862600E-02     0.0000000000000000E+00 
    1.0000000000000000E+00     7.3611111111041660E-01     0.0000000000000000E+00 
    1.0000000000000000E+00     7.0833333333256565E-01     0.0000000000000000E+00 
    1.0000000000000000E+00     6.8055555555471492E-01     0.0000000000000000E+00 
    1.0000000000000000E+00     6.5277777777686397E-01     0.0000000000000000E+00 
    1.0000000000000000E+00     6.2499999999901323E-01     0.0000000000000000E+00 
    1.0000000000000000E+00     5.9722222222116228E-01     0.0000000000000000E+00 
    1.0000000000000000E+00     5.6944444444331144E-01     0.0000000000000000E+00 
    1.0000000000000000E+00     5.4166666666546048E-01     0.0000000000000000E+00 
    1.0000000000000000E+00     2.7777777777710932E-01     0.0000000000000000E+00 
    1.0000000000000000E+00     4.9999999999868411E-01     0.0000000000000000E+00 
    1.0000000000000000E+00     4.7222222222098731E-01     0.0000000000000000E+00 
    1.0000000000000000E+00     4.4444444444329051E-01     0.0000000000000000E+00 
    1.0000000000000000E+00     4.1666666666559360E-01     0.0000000000000000E+00 
    1.0000000000000000E+00     3.8888888888789669E-01     0.0000000000000000E+00 
    1.0000000000000000E+00     3.6111111111019989E-01     0.0000000000000000E+00 
    1.0000000000000000E+00     3.3333333333250298E-01     0.0000000000000000E+00 
[...]
CELL_DATA 14592 
SCALARS Pressure double 1 
LOOKUP_TABLE default 

    8.6184671615787656E-01 
    8.5715840983021208E-01 
    8.4753534314261469E-01 
    8.6195075134858556E-01 
    8.4294180659762608E-01 
    8.4798278579664099E-01 
    8.4348723381179225E-01 
    8.5744524936173461E-01 
    8.3321438656299029E-01 
    8.2881173515273687E-01 
    8.1930682314742664E-01 
    8.3393542471576954E-01 
    8.6230381796104638E-01 
    8.5792162534079308E-01 
    8.4849463142925963E-01 
    8.6289596380027234E-01 
    8.1467899028741675E-01 
    8.1999515188453442E-01 
    8.1572806813528220E-01 
    8.2948395198296088E-01 
    8.2065358779938757E-01 
    8.3000951385198762E-01 
    8.3494561571679693E-01 
    8.3450360754510799E-01 
    8.1632083439105441E-01 
    8.2057721522071780E-01 
    8.1558890159414144E-01 
    8.3027830213417808E-01 
    8.4403534509521794E-01 
    8.4909203044623915E-01 
    8.4462377758711349E-01 
    8.5860517431852401E-01 
    8.0444301092397974E-01 
    8.0098050560028777E-01 
    7.9759422010852943E-01 
    8.0645552679454602E-01 
    7.9484008220409641E-01 
    7.9523800723176219E-01 
    7.9316753902879888E-01 
    8.0316467617924614E-01 
    7.9406130221545812E-01 
    7.9305010873400184E-01 
    7.9206774001016877E-01 
    7.9116193806930757E-01 
    8.0792159132098962E-01 
    8.0438489103306920E-01 
    7.9718146561227476E-01 
    8.0791657357178071E-01 
    8.6377238896810327E-01 
    8.5956552775404904E-01 
    8.4984832086856132E-01 
    8.6502807401485304E-01 
    8.4535031895734325E-01 
    8.5081967502882139E-01 
    8.4630038787218220E-01 
    8.6092650465170339E-01 
    8.3527943710963881E-01 
    8.3042529317542768E-01 
    8.2189628408767657E-01 
    8.3722424589455102E-01 
    8.6676715718185937E-01 
    8.6282212215481502E-01 
    8.5343377182293012E-01 
    8.7014395044383375E-01 
    3.3059336412173623E-01 
    3.3096936837386914E-01 
    3.3921897780727461E-01 
    3.2274059042350989E-01 
    3.4004381222842311E-01 
    3.3358200718241804E-01 
    3.3592642591341149E-01 
    3.2378641197786201E-01 
    3.4680987663868129E-01 
    3.4672362898101727E-01 
    3.4866827843782705E-01 
    3.4217511217964086E-01 
    3.1470857992809143E-01 
    3.1617337115024391E-01 
    3.2835537259678627E-01 
    3.0580736638662026E-01 
    3.4668642065167399E-01 
    3.4587530956390627E-01 
    3.4318392983590718E-01 
    3.4088219474532133E-01 
    3.4219118491228673E-01 
    3.3332393195074528E-01 
    3.2454051783541671E-01 
    3.3404586087122479E-01 
    3.3889931381204891E-01 
    3.2988684993097261E-01 
    3.2728576546145399E-01 
    3.2237959812249384E-01 
    3.2788691302335848E-01 
    3.1875978950460604E-01 
    3.1850384635689205E-01 
    3.0688902316723404E-01 
    3.5001845110313640E-01 
    3.4956540994485436E-01 
    3.5442561812161644E-01 
    3.4492858504097995E-01 
    3.5402309139167665E-01 
    3.4779036273412822E-01 
    3.4671780467992502E-01 
    3.4290710987582890E-01 
    3.6022878833944438E-01 
    3.5984225240898482E-01 
    3.6677212881550636E-01 
    3.5276468978012621E-01 
    3.3694455214145341E-01 
    3.3348082091035669E-01 
    3.3973945375108849E-01 
    3.3153725620724289E-01 
    2.9624342588666469E-01 
    2.9750381576618751E-01 
    3.0810333039652782E-01 
    2.8578304104731073E-01 
    3.0497511450589915E-01 
    2.9348279366828789E-01 
    2.9087483904126782E-01 
    2.8467207853256710E-01 
    3.1275566230858531E-01 
    3.1072808256990370E-01 
    3.1923072690514470E-01 
    3.0000011226516965E-01 
    2.7208777998534489E-01 
    2.6920393516628327E-01 
    2.7897685104849146E-01 
    2.5611050117199313E-01 
    7.5255510225395905E-01 
    7.5922123132607022E-01 
    7.6657054743751962E-01 
    7.5842697505044698E-01 
    7.7330807914074540E-01 
    7.7249480220163336E-01 
    7.7886198668645978E-01 
    7.6553417917494959E-01 
    7.8090774726565182E-01 
    7.8754060305022744E-01 
    7.9553111758840123E-01 
    7.8620579322804218E-01 
    7.6617828014809530E-01 
    7.7176522428979499E-01 
    7.7804348100454113E-01 
    7.7096510266482277E-01 
    8.0210161644528544E-01 
    8.0015116485143811E-01 
    8.0608645830193559E-01 
    7.9229275939475330E-01 
    8.0355693674970941E-01 
    7.9601033154179013E-01 
    7.9402379371960230E-01 
    7.9058298141437289E-01 
    8.0868885779108579E-01 
    8.0570608407061950E-01 
    8.0988970428110063E-01 
    7.9888767422876694E-01 
    7.8351170006241944E-01 
    7.8181553547996752E-01 
    7.8746162073292103E-01 
    7.7499361840284653E-01 
    8.1059561699306770E-01 
    8.1719078512254195E-01 
    8.2630608486906487E-01 
    8.1457703634855527E-01 
    8.3305206672070309E-01 
    8.2972091826978589E-01 
    8.3559129939517751E-01 
    8.2042738777620827E-01 
    8.4293178379662614E-01 
    8.5000587617195900E-01 
    8.6106296700861784E-01 
    8.4601722216827058E-01 
    8.1693848963898341E-01 
    8.2177480469832875E-01 
    8.3116749620359631E-01 
    8.1745717025043696E-01 
    7.7965580918208166E-01 
    7.8309603163235530E-01 
    7.8703082325325302E-01 
    7.8694834245931700E-01 
    7.9106663976896063E-01 
    7.8891263277112333E-01 
    7.9116193806930757E-01 
    7.8902841033120441E-01 
    7.9725945535421250E-01 
    8.0143237132592926E-01 
    8.0735464940697654E-01 
    7.9553473750883485E-01 
    7.8976514076638482E-01 
    7.9116193806930757E-01 
    7.9116193806930757E-01 
    7.8916662586408015E-01 
    2.6779385376777376E-01 
    2.7305698753310848E-01 
    2.6685395184010152E-01 
    2.8328327045985602E-01 
    2.7408112058740353E-01 
    2.9103816965484364E-01 
    2.9628320324009000E-01 
    2.8860970583874090E-01 
    2.6528683778854206E-01 
    2.7154188847617444E-01 
    2.6250688206471962E-01 
    2.8714443835944764E-01 
    2.9717709233133394E-01 
    3.0244575648958705E-01 
    2.9916344075777623E-01 
    3.1178705943938523E-01 
    2.6835797197193800E-01 
    2.8316174065112515E-01 
    2.8869561787231768E-01 
    2.9235526362211273E-01 
    3.0313992625707659E-01 
    3.1160989690132973E-01 
    3.1414405512634641E-01 
    3.0666907922524428E-01 
    3.0786612236561622E-01 
    3.2111998761354565E-01 
    3.2552213552381931E-01 
    3.1879980165520300E-01 
    3.0425830838410639E-01 
    3.1278867227738094E-01 
    3.1742953759638259E-01 
    3.1678459577097018E-01 
    2.5944457667366472E-01 
    2.6526988686003433E-01 
    2.5650812554888325E-01 
    2.7980267153761323E-01 
    2.6248153017271098E-01 
    2.7692391947346667E-01 
    2.8275267133867504E-01 
    2.8537093767200700E-01 
    2.5387984429244809E-01 
    2.6013782869366542E-01 
    2.5164555058009314E-01 
    2.7470426557014799E-01 
    2.9925539293537401E-01 
    3.0436089325632409E-01 
    2.9641720783192815E-01 
    3.1727099128559910E-01 
    3.2590750860559803E-01 
    3.3040790472932979E-01 
    3.2602423626504584E-01 
    3.3940167727843190E-01 
    3.3030492349168511E-01 
    3.3860580051930533E-01 
    3.4227158205613234E-01 
    3.4342197528793428E-01 
    3.2643846297941076E-01 
    3.3031876986502262E-01 
    3.2755771983273180E-01 
    3.3769430712757559E-01 
    3.5240735916609889E-01 
    3.5598878096148834E-01 
    3.5070772881972062E-01 
    3.6499691388991518E-01 
    4.2927846933573954E-01 
    4.3610344857474448E-01 
    4.4865507493292006E-01 
    4.2759396649561432E-01 
    4.5036304560399215E-01 
    4.4107899635715619E-01 
    4.4341919619541159E-01 
    4.2932461832954150E-01 
    4.6114159869565047E-01 
    4.6266507712176741E-01 
    4.7199515438793233E-01 
    4.5457877546799536E-01 
    4.1885706900827785E-01 
    4.2183935764726088E-01 
    4.3436719678697061E-01 
    4.1213754231990596E-01 
    4.7382205049897919E-01 
    4.6771353785534775E-01 
    4.7125947442203264E-01 
    4.5736815748255466E-01 
    4.6496495733194482E-01 
    4.5323794797993561E-01 
    4.4579044529284917E-01 
    4.4948550325374731E-01 
    4.6160723620223548E-01 
    4.5448410089518348E-01 
    4.5692370474502547E-01 
    4.5066412017551816E-01 
    4.3761772949961242E-01 
    4.2875901806746264E-01 
    4.3272245264768749E-01 
    4.1573908572947466E-01 
    4.8192190370574434E-01 
    4.7976387626264505E-01 
    4.8719768529615681E-01 
    4.7434969936532162E-01 
    4.8989680940629438E-01 
    4.8521451715479041E-01 
    4.8862128046456649E-01 
    4.7686136971636400E-01 
    4.9693654105559015E-01 
    5.0087562814244979E-01 
    5.0792315314921133E-01 
    4.9712565593085312E-01 
    4.7103625310034519E-01 
    4.7389315448176011E-01 
    4.8326467126493888E-01 
    4.6712246567084909E-01 
    4.0624504042340520E-01 
    4.0994653783289403E-01 
    4.2334182673083975E-01 
    4.0033931385002486E-01 
    4.2731377905395385E-01 
    4.1626857353149416E-01 
    4.1830505270723828E-01 
    4.0356802423301480E-01 
    4.4296722981008951E-01 
    4.3895947936565072E-01 
    4.4931921830976984E-01 
    4.3083483978883774E-01 
    3.9437412659122584E-01 
    3.9714511054667906E-01 
    4.0830673354371438E-01 
    3.8900595295540069E-01 
    6.6265222121137413E-01 
    6.6477951721638573E-01 
    6.5662867462925978E-01 
    6.7503728214783709E-01 
    6.5870415651952818E-01 
    6.6910198598159865E-01 
    6.7132142572276843E-01 
    6.7722274202410215E-01 
    6.5032033719523519E-01 
    6.5237227148277155E-01 
    6.4370141080934429E-01 
    6.6300872115999054E-01 
    6.8750303171259586E-01 
    6.8979618261960152E-01 
    6.8178635085460426E-01 
    7.0003423682241994E-01 
    6.4573054154665577E-01 
    6.5666852477851556E-01 
    6.5891991830958807E-01 
    6.6524769270785178E-01 
    6.6997040981750977E-01 
    6.7841365749786375E-01 
    6.8919968902449913E-01 
    6.7597428179469721E-01 
    6.7246254233503078E-01 
    6.8358981639403493E-01 
    6.8633808955920295E-01 
    6.9184741242538550E-01 
    6.8417117639623160E-01 
    6.9467500744042177E-01 
    6.9724594974522391E-01 
    7.0252879874865659E-01 
    6.3671534261582541E-01 
    6.3870640454573602E-01 
    6.2927045873649323E-01 
    6.5000552323186711E-01 
    6.3119424650081313E-01 
    6.4292516844457437E-01 
    6.4516292914722539E-01 
    6.5225849793506985E-01 
    6.2123003687090772E-01 
    6.2305234335939752E-01 
    6.1236824190637873E-01 
    6.3532111891871779E-01 
    6.6370348868548157E-01 
    6.6624520250929631E-01 
    6.5707474794953569E-01 
    6.7780098614928252E-01 
    7.1278419919337044E-01 
    7.1550520541633889E-01 
    7.0778409100414830E-01 
    7.2587075143017288E-01 
    7.1053231926436056E-01 
    7.2109656049862458E-01 
    7.2396374044116918E-01 
    7.2876425611568485E-01 
    7.0265625688583644E-01 
    7.0550465247435801E-01 
    6.9749197329235135E-01 
    7.1627773005439044E-01 
    7.3931957849278673E-01 
    7.4217836756110356E-01 
    7.3449951179437678E-01 
    7.5278384413173816E-01 
    8.7756624406613026E-02 
    9.2230533336163725E-02 
    9.0408951082035741E-02 
    9.8368945267104338E-02 
    9.4945124632632369E-02 
    1.0161627655116386E-01 
    1.0654000912565267E-01 
    1.0319519443085225E-01 
    9.2632440522205220E-02 
    9.7247665695007535E-02 
    9.4411728813260140E-02 
    1.0453125485900147E-01 
    1.0945714548941859E-01 
    1.1460598002899673E-01 
    1.1329715173275978E-01 
    1.2094276836468019E-01 
    9.8607250654647621E-02 
    1.0688396310405823E-01 
    1.1196192324344505E-01 
    1.0957574840075641E-01 
    1.2101365460589895E-01 
    1.2261358978876330E-01 
    1.2976367733157038E-01 
    1.1700328226309063E-01 
    1.2562103595978721E-01 
    1.3448563728157015E-01 
    1.3923707032832236E-01 
    1.3561009968548624E-01 
    1.1859192118238610E-01 
    1.2532994088644756E-01 
    1.3092176391986549E-01 
    1.2636669407412940E-01 
    9.3807969429336224E-02 
    9.7969321782533619E-02 
    1.1973750941245864E-01 
    1.0713684164035382E-01 
    1.3433602511764370E-01 
    1.3527741691151793E-01 
    1.4925208660459072E-01 
    1.2320254117439135E-01 
    1.4771446009439382E-01 
    1.6039281926078400E-01 
    1.7227085597781172E-01 
    1.6109483036097522E-01 
    1.3034888125434133E-01 
    1.4277039235434713E-01 
    1.5199448049905437E-01 
    1.4686478714286233E-01 
    1.3273700393277532E-01 
    1.3837333455159762E-01 
    1.3757927732418679E-01 
    1.4474956840790848E-01 
    1.4337401147033660E-01 
    1.4992232009842715E-01 
    1.5584290415893465E-01 
    1.5052241312821643E-01 
    1.4256199082253276E-01 
    1.4857942210325861E-01 
    1.4775879377135298E-01 
    1.5538805585592153E-01 
    1.5688707112614514E-01 
    1.6269536353898173E-01 
    1.6220900781362799E-01 
    1.6905266642292716E-01 
    7.4746452030851018E-01 
    7.4367729884892619E-01 
    7.5206049214657011E-01 
    7.3135873890344649E-01 
    7.4864097970463539E-01 
    7.3648783980160970E-01 
    7.3302659306657514E-01 
    7.2758972883670725E-01 
    7.5706315862585927E-01 
    7.5428293627482235E-01 
    7.6038071659748419E-01 
    7.4252373329003096E-01 
    7.1476668651193886E-01 
    7.1077612420932845E-01 
    7.2014550115896381E-01 
    6.9727132460153940E-01 
    7.5352237989017778E-01 
    7.4184940299212643E-01 
    7.3493208125310239E-01 
    7.3707856296160523E-01 
    7.2248869018111617E-01 
    7.1668244605806897E-01 
    7.0307302875594635E-01 
    7.2416973062164647E-01 
    7.1556499569172094E-01 
    7.0251178060206387E-01 
    6.9578470024616879E-01 
    6.9599544925467660E-01 
    7.1644832747511433E-01 
    7.0262648884552714E-01 
    6.9655422122228305E-01 
    6.9280311474453848E-01 
    7.5782409232125991E-01 
    7.5168960683823038E-01 
    7.5680654161796568E-01 
    7.4019236343796446E-01 
    7.5098026654939443E-01 
    7.3930803346312624E-01 
    7.3310490507317405E-01 
    7.3371652485295391E-01 
    7.5675177085849354E-01 
    7.5093428243784544E-01 
    7.5709983802168057E-01 
    7.3898763685603808E-01 
    7.2146349686695521E-01 
    7.1492148498299934E-01 
    7.2093013704204068E-01 
    7.0221372536808135E-01 
    6.7864799683689270E-01 
    6.7357508840335012E-01 
    6.8212833426823183E-01 
    6.5887583494283342E-01 
    6.7500842240322756E-01 
    6.6049294101521139E-01 
    6.5389994608095336E-01 
    6.5257001177746510E-01 
    6.8221752793690338E-01 
    6.7546240325489582E-01 
    6.8246341779417152E-01 
    6.6155064703239508E-01 
    6.3766932443426905E-01 
    6.3135439005243388E-01 
    6.3956298587050198E-01 
    6.1650467259674979E-01 
    2.3814841974288958E-01 
    2.3332726852929284E-01 
    2.2819153941229570E-01 
    2.3925990307476691E-01 
    2.2260033502945908E-01 
    2.2340758046780407E-01 
    2.1609893243530420E-01 
    2.3164743909418084E-01 
    2.1592418312157374E-01 
    2.1013184054015308E-01 
    2.0529565279185411E-01 
    2.0929247848619531E-01 
    2.3167937413333561E-01 
    2.2360309460498468E-01 
    2.1559598595040297E-01 
    2.2370087142910705E-01 
    1.9902743674167778E-01 
    1.9616658076867854E-01 
    1.8799835108550833E-01 
    2.0173297437707929E-01 
    1.8458862497444239E-01 
    1.9103848224068390E-01 
    1.8886891814611403E-01 
    1.9991583679988381E-01 
    1.7502963220622283E-01 
    1.7155083311884900E-01 
    1.6097948521615865E-01 
    1.7900004733440661E-01 
    2.0717777151891478E-01 
    2.0618108877671054E-01 
    1.9681798243058357E-01 
    2.1472187182135913E-01 
    1.9582806468505431E-01 
    1.9082334296331427E-01 
    1.8940113872110223E-01 
    1.8354019746738209E-01 
    1.8274335616342716E-01 
    1.7659339015524331E-01 
    1.6925767924343638E-01 
    1.7763834803974626E-01 
    1.8221499751556619E-01 
    1.7543895869063222E-01 
    1.7542646542231430E-01 
    1.6876948028983577E-01 
    1.6932580651590709E-01 
    1.6277031282697638E-01 
    1.6230104316178559E-01 
    1.5363607739571394E-01 
    2.1441757326449698E-01 
    2.0467278943369382E-01 
    1.9560153726041790E-01 
    2.0413402453878909E-01 
    1.8549726838204078E-01 
    1.8425632958401128E-01 
    1.7359751011066687E-01 
    1.9393808135757962E-01 
    1.7685202664420005E-01 
    1.6627662974664525E-01 
    1.5814345618271280E-01 
    1.6404002694086753E-01 
    1.9362662744920628E-01 
    1.8326064746934351E-01 
    1.7284916384872606E-01 
    1.8351384935448534E-01 
    4.8930723537183496E-01 
    4.8588045274526281E-01 
    4.7368959280334455E-01 
    4.9434417032255562E-01 
    4.7046938704938335E-01 
    4.7939879169230393E-01 
    4.7634181551175059E-01 
    4.9103121372748670E-01 
    4.5800357408760961E-01 
    4.5494838362940282E-01 
    4.4205330774259893E-01 
    4.6444574440196867E-01 
    4.9902424673632373E-01 
    4.9580497695264369E-01 
    4.8480684369375437E-01 
    5.0324932732698002E-01 
    4.3910044068652387E-01 
    4.4932736501387005E-01 
    4.4675587960493823E-01 
    4.6163966119378325E-01 
    4.5662615336074180E-01 
    4.6811989133655496E-01 
    4.7654485325660256E-01 
    4.7070365510899642E-01 
    4.5441459681241025E-01 
    4.6355847420515822E-01 
    4.6158119529089003E-01 
    4.7410936189436120E-01 
    4.8189293217913010E-01 
    4.8977141881465502E-01 
    4.8695453246826004E-01 
    5.0008441101888945E-01 
    4.2550365322571382E-01 
    4.2262326299997999E-01 
    4.0731253224429120E-01 
    4.3376404794389656E-01 
    4.0985948582806953E-01 
    4.1738978039637209E-01 
    4.1996933663021796E-01 
    4.3146061097785593E-01 
    4.0147974214492377E-01 
    4.0055754277189914E-01 
    3.9123361952609076E-01 
    4.0945073433537815E-01 
    4.4239718047132570E-01 
    4.4067953053852732E-01 
    4.2751795027354395E-01 
    4.5093088961147426E-01 
    5.0690374191507015E-01 
    5.0373790385433359E-01 
    4.9415457595192869E-01 
    5.0980413731823404E-01 
    4.9138682659166749E-01 
    4.9783661549846897E-01 
    4.9509750879146974E-01 
    5.0661021410154994E-01 
    4.8177262632949902E-01 
    4.7940668052665442E-01 
    4.6971451317313162E-01 
    4.8631090134941596E-01 
    5.1172898765421038E-01 
    5.0860612119262016E-01 
    5.0072221235885583E-01 
    5.1255241586838252E-01 
    6.6171327709789873E-01 
    6.5213149998760123E-01 
    6.5272997020213330E-01 
    6.4189673732256469E-01 
    6.4338752247097108E-01 
    6.3330981070913661E-01 
    6.2408782630370396E-01 
    6.3237532426494492E-01 
    6.4403819637128923E-01 
    6.3499524240703908E-01 
    6.3565359666942067E-01 
    6.2516589472863004E-01 
    6.2184371382930836E-01 
    6.1243350728294421E-01 
    6.1370909110869420E-01 
    6.0167686604096082E-01 
    6.2701843621888542E-01 
    6.1760082260040949E-01 
    6.0929335617794045E-01 
    6.1630734712578827E-01 
    5.9928126847605789E-01 
    5.9720339080260287E-01 
    5.8626481744379011E-01 
    6.0603854111224598E-01 
    5.9116898361624148E-01 
    5.7967263255117207E-01 
    5.7112208022524524E-01 
    5.7703953512268880E-01 
    6.0454939190340007E-01 
    5.9387064113823174E-01 
    5.8465920745475064E-01 
    5.9241010800518823E-01 
    6.2762264451518368E-01 
    6.1938848507609667E-01 
    6.1961388511226190E-01 
    6.1076873850598190E-01 
    6.1118965094264288E-01 
    6.0372868628059118E-01 
    6.0348288747947798E-01 
    6.0325197675795184E-01 
    6.1800126442390224E-01 
    6.1208665599206169E-01 
    6.1441455082963636E-01 
    6.0373541498966909E-01 
    5.9411177469850296E-01 
    5.8774619613605394E-01 
    5.9577034163244447E-01 