# vtk DataFile Version 2.0
Pressure Field Data 
ASCII 
DATASET UNSTRUCTURED_GRID 

POINTS 289 double 

    0.0000000000000000E+00     0.0000000000000000E+00     0.0000000000000000E+00 
    1.0000000000000000E+00     0.0000000000000000E+00     0.0000000000000000E+00 
    1.0000000000000000E+00     1.0000000000000000E+00     0.0000000000000000E+00 
    0.0000000000000000E+00     1.0000000000000000E+00     0.0000000000000000E+00 
    6.2499999999872928E-02     0.0000000000000000E+00     0.0000000000000000E+00 
    1.2499999999977310E-01     0.0000000000000000E+00     0.0000000000000000E+00 
    1.8749999999959341E-01     0.0000000000000000E+00     0.0000000000000000E+00 
    2.4999999999941089E-01     0.0000000000000000E+00     0.0000000000000000E+00 
    3.1249999999922851E-01     0.0000000000000000E+00     0.0000000000000000E+00 
    3.7499999999904610E-01     0.0000000000000000E+00     0.0000000000000000E+00 
    4.3749999999886358E-01     0.0000000000000000E+00     0.0000000000000000E+00 
    4.9999999999869210E-01     0.0000000000000000E+00     0.0000000000000000E+00 
    5.6249999999884603E-01     0.0000000000000000E+00     0.0000000000000000E+00 
    6.2499999999901090E-01     0.0000000000000000E+00     0.0000000000000000E+00 
    6.8749999999917577E-01     0.0000000000000000E+00     0.0000000000000000E+00 
    7.4999999999934064E-01     0.0000000000000000E+00     0.0000000000000000E+00 
    8.1249999999950551E-01     0.0000000000000000E+00     0.0000000000000000E+00 
    8.7499999999967026E-01     0.0000000000000000E+00     0.0000000000000000E+00 
    9.3749999999983513E-01     0.0000000000000000E+00     0.0000000000000000E+00 
    1.0000000000000000E+00     6.2499999999872928E-02     0.0000000000000000E+00 
    1.0000000000000000E+00     1.2499999999977310E-01     0.0000000000000000E+00 
    1.0000000000000000E+00     1.8749999999959341E-01     0.0000000000000000E+00 
    1.0000000000000000E+00     2.4999999999941089E-01     0.0000000000000000E+00 
    1.0000000000000000E+00     3.1249999999922851E-01     0.0000000000000000E+00 
    1.0000000000000000E+00     3.7499999999904610E-01     0.0000000000000000E+00 
    1.0000000000000000E+00     4.3749999999886358E-01     0.0000000000000000E+00 
    1.0000000000000000E+00     4.9999999999869210E-01     0.0000000000000000E+00 
    1.0000000000000000E+00     5.6249999999884603E-01     0.0000000000000000E+00 
    1.0000000000000000E+00     6.2499999999901090E-01     0.0000000000000000E+00 
    1.0000000000000000E+00     6.8749999999917577E-01     0.0000000000000000E+00 
    1.0000000000000000E+00     7.4999999999934064E-01     0.0000000000000000E+00 
    1.0000000000000000E+00     8.1249999999950551E-01     0.0000000000000000E+00 
    1.0000000000000000E+00     8.7499999999967026E-01     0.0000000000000000E+00 
    1.0000000000000000E+00     9.3749999999983513E-01     0.0000000000000000E+00 
    9.3749999999973976E-01     1.0000000000000000E+00     0.0000000000000000E+00 
    8.7499999999950118E-01     1.0000000000000000E+00     0.0000000000000000E+00 
    8.1249999999991318E-01     1.0000000000000000E+00     0.0000000000000000E+00 
    7.5000000000034706E-01     1.0000000000000000E+00     0.0000000000000000E+00 
    6.8750000000078049E-01     1.0000000000000000E+00     0.0000000000000000E+00 
    6.2500000000121403E-01     1.0000000000000000E+00     0.0000000000000000E+00 
    5.6250000000164757E-01     1.0000000000000000E+00     0.0000000000000000E+00 
    5.0000000000205946E-01     1.0000000000000000E+00     0.0000000000000000E+00 
    4.3750000000182099E-01     1.0000000000000000E+00     0.0000000000000000E+00 
    3.7500000000156092E-01     1.0000000000000000E+00     0.0000000000000000E+00 
    3.1250000000130068E-01     1.0000000000000000E+00     0.0000000000000000E+00 
    2.5000000000104050E-01     1.0000000000000000E+00     0.0000000000000000E+00 
    1.8750000000078040E-01     1.0000000000000000E+00     0.0000000000000000E+00 
    1.2500000000052031E-01     1.0000000000000000E+00     0.0000000000000000E+00 
    6.2500000000260125E-02     1.0000000000000000E+00     0.0000000000000000E+00 
    0.0000000000000000E+00     9.3749999999973976E-01     0.0000000000000000E+00 
    0.0000000000000000E+00     8.7499999999950118E-01     0.0000000000000000E+00 
    0.0000000000000000E+00     8.1249999999991318E-01     0.0000000000000000E+00 
    0.0000000000000000E+00     7.5000000000034706E-01     0.0000000000000000E+00 
    0.0000000000000000E+00     6.8750000000078049E-01     0.0000000000000000E+00 
    0.0000000000000000E+00     6.2500000000121403E-01     0.0000000000000000E+00 
    0.0000000000000000E+00     5.6250000000164757E-01     0.0000000000000000E+00 
    0.0000000000000000E+00     5.0000000000205946E-01     0.0000000000000000E+00 
    0.0000000000000000E+00     4.3750000000182099E-01     0.0000000000000000E+00 
    0.0000000000000000E+00     3.7500000000156092E-01     0.0000000000000000E+00 
    0.0000000000000000E+00     3.1250000000130068E-01     0.0000000000000000E+00 
    0.0000000000000000E+00     2.5000000000104050E-01     0.0000000000000000E+00 
    0.0000000000000000E+00     1.8750000000078040E-01     0.0000000000000000E+00 
    0.0000000000000000E+00     1.2500000000052031E-01     0.0000000000000000E+00 
    0.0000000000000000E+00     6.2500000000260125E-02     0.0000000000000000E+00 
    6.2499999999897131E-02     6.2500000000235922E-02     0.0000000000000000E+00 
    6.2499999999921327E-02     1.2500000000047351E-01     0.0000000000000000E+00 
    6.2499999999945530E-02     1.8750000000070621E-01     0.0000000000000000E+00 
    6.2499999999969733E-02     2.5000000000093858E-01     0.0000000000000000E+00 
    6.2499999999993928E-02     3.1250000000117117E-01     0.0000000000000000E+00 
    6.2500000000018124E-02     3.7500000000140382E-01     0.0000000000000000E+00 
    6.2500000000042327E-02     4.3750000000163619E-01     0.0000000000000000E+00 
    6.2500000000066530E-02     5.0000000000184897E-01     0.0000000000000000E+00 
    6.2500000000090733E-02     5.6250000000147260E-01     0.0000000000000000E+00 
    6.2500000000114922E-02     6.2500000000107636E-01     0.0000000000000000E+00 
    6.2500000000139125E-02     6.8750000000068034E-01     0.0000000000000000E+00 
    6.2500000000163328E-02     7.5000000000028411E-01     0.0000000000000000E+00 
    6.2500000000187531E-02     8.1249999999988787E-01     0.0000000000000000E+00 
    6.2500000000211720E-02     8.7499999999951172E-01     0.0000000000000000E+00 
    6.2500000000235922E-02     9.3749999999974565E-01     0.0000000000000000E+00 
    1.2499999999981980E-01     6.2500000000211733E-02     0.0000000000000000E+00 
    1.2499999999986650E-01     1.2500000000042691E-01     0.0000000000000000E+00 
    1.2499999999991319E-01     1.8750000000063199E-01     0.0000000000000000E+00 
    1.2499999999995989E-01     2.5000000000083678E-01     0.0000000000000000E+00 
    1.2500000000000661E-01     3.1250000000104172E-01     0.0000000000000000E+00 
    1.2500000000005329E-01     3.7500000000124661E-01     0.0000000000000000E+00 
    1.2500000000010000E-01     4.3750000000145117E-01     0.0000000000000000E+00 
    1.2500000000014669E-01     5.0000000000163858E-01     0.0000000000000000E+00 
    1.2500000000019340E-01     5.6250000000129741E-01     0.0000000000000000E+00 
    1.2500000000024011E-01     6.2500000000093847E-01     0.0000000000000000E+00 
    1.2500000000028680E-01     6.8750000000057998E-01     0.0000000000000000E+00 
    1.2500000000033351E-01     7.5000000000022127E-01     0.0000000000000000E+00 
    1.2500000000038020E-01     8.1249999999986211E-01     0.0000000000000000E+00 
    1.2500000000042691E-01     8.7499999999952238E-01     0.0000000000000000E+00 
    1.2500000000047359E-01     9.3749999999975164E-01     0.0000000000000000E+00 
    1.8749999999966760E-01     6.2500000000187531E-02     0.0000000000000000E+00 
    1.8749999999974179E-01     1.2500000000038020E-01     0.0000000000000000E+00 
    1.8749999999981601E-01     1.8750000000055780E-01     0.0000000000000000E+00 
    1.8749999999989009E-01     2.5000000000073502E-01     0.0000000000000000E+00 
    1.8749999999996431E-01     3.1250000000091221E-01     0.0000000000000000E+00 
    1.8750000000003850E-01     3.7500000000108941E-01     0.0000000000000000E+00 
    1.8750000000011269E-01     4.3750000000126649E-01     0.0000000000000000E+00 
    1.8750000000018691E-01     5.0000000000142808E-01     0.0000000000000000E+00 
    1.8750000000026110E-01     5.6250000000112244E-01     0.0000000000000000E+00 
    1.8750000000033529E-01     6.2500000000080080E-01     0.0000000000000000E+00 
    1.8750000000040951E-01     6.8750000000047962E-01     0.0000000000000000E+00 
    1.8750000000048361E-01     7.5000000000015843E-01     0.0000000000000000E+00 
    1.8750000000055780E-01     8.1249999999983680E-01     0.0000000000000000E+00 
    1.8750000000063199E-01     8.7499999999953304E-01     0.0000000000000000E+00 
    1.8750000000070621E-01     9.3749999999975764E-01     0.0000000000000000E+00 
    2.4999999999951281E-01     6.2500000000163314E-02     0.0000000000000000E+00 
    2.4999999999961461E-01     1.2500000000033351E-01     0.0000000000000000E+00 
    2.4999999999971650E-01     1.8750000000048361E-01     0.0000000000000000E+00 
    2.4999999999981831E-01     2.5000000000063310E-01     0.0000000000000000E+00 
    2.4999999999992020E-01     3.1250000000078260E-01     0.0000000000000000E+00 
    2.5000000000002198E-01     3.7500000000093209E-01     0.0000000000000000E+00 
    2.5000000000012390E-01     4.3750000000108180E-01     0.0000000000000000E+00 
    2.5000000000022571E-01     5.0000000000121769E-01     0.0000000000000000E+00 
    2.5000000000032763E-01     5.6250000000094724E-01     0.0000000000000000E+00 
    2.5000000000042938E-01     6.2500000000066314E-01     0.0000000000000000E+00 
    2.5000000000053119E-01     6.8750000000037925E-01     0.0000000000000000E+00 
[...]
CELL_DATA 256 
SCALARS Pressure double 1 
LOOKUP_TABLE default 

    2.4059168642828066E+00 
    2.3012015372554750E+00 
    2.2326067299252155E+00 
    2.1768964129570056E+00 
    2.1261602446768699E+00 
    2.0790836246982609E+00 
    2.0344292470559768E+00 
    1.9924066453385061E+00 
    1.9535323032963641E+00 
    1.9177209447380770E+00 
    1.8821307188346486E+00 
    1.8444534381481763E+00 
    1.8117899722505371E+00 
    1.7881271532234810E+00 
    1.7722512469612948E+00 
    1.7642876488621493E+00 
    2.3012167481331391E+00 
    2.2574230065646113E+00 
    2.2092872779305472E+00 
    2.1612685756055074E+00 
    2.1146341754873439E+00 
    2.0697072377552628E+00 
    2.0262416387089854E+00 
    1.9850302740178796E+00 
    1.9466420472968895E+00 
    1.9109793126386976E+00 
    1.8749968767180913E+00 
    1.8368882392102737E+00 
    1.8041847964785054E+00 
    1.7803527384349946E+00 
    1.7643525587154569E+00 
    1.7563272265391037E+00 
    2.2326508781876218E+00 
    2.2093153085515351E+00 
    2.1745503944161917E+00 
    2.1350592508182999E+00 
    2.0938646399245386E+00 
    2.0520120093735668E+00 
    2.0105499791717087E+00 
    1.9706911337113260E+00 
    1.9330801032874627E+00 
    1.8976562725823565E+00 
    1.8608379287828627E+00 
    1.8218115268653361E+00 
    1.7889668211518390E+00 
    1.7647768048608536E+00 
    1.7485145953981531E+00 
    1.7403535109490900E+00 
    2.1769795735946698E+00 
    2.1613301306673005E+00 
    2.1350899467201949E+00 
    2.1025709322255319E+00 
    2.0661325960027419E+00 
    2.0275080678187614E+00 
    1.9884020039218511E+00 
    1.9501086394726377E+00 
    1.9133310243480679E+00 
    1.8779943036973155E+00 
    1.8397641946857035E+00 
    1.7992584023926541E+00 
    1.7660722799946056E+00 
    1.7413034577390867E+00 
    1.7246152347257349E+00 
    1.7162284538618418E+00 
    2.1262730110946957E+00 
    2.1147190813071086E+00 
    2.0939210378750936E+00 
    2.0661611059266352E+00 
    2.0334992051608509E+00 
    1.9979178017918198E+00 
    1.9611107881593803E+00 
    1.9242269160572829E+00 
    1.8879790954212354E+00 
    1.8521576522784227E+00 
    1.8116927180421860E+00 
    1.7691908485630157E+00 
    1.7353827963847630E+00 
    1.7097815472723463E+00 
    1.6924600654109079E+00 
    1.6837288410063849E+00 
    2.0792086383812767E+00 
    2.0698136368359981E+00 
    2.0520957575368501E+00 
    2.0275663056753013E+00 
    1.9979485746744123E+00 
    1.9649540186379948E+00 
    1.9299719003988225E+00 
    1.8939692918365953E+00 
    1.8576281356380737E+00 
    1.8201435128784211E+00 
    1.7762577113411040E+00 
    1.7315659451886665E+00 
    1.6967743474383892E+00 
    1.6700096554578268E+00 
    1.6517603528398452E+00 
    1.6425135594337530E+00 
    2.0345791689685648E+00 
    2.0263767865035072E+00 
    2.0106633004422787E+00 
    1.9884886444852274E+00 
    1.9611674196494335E+00 
    1.9299980071217095E+00 
    1.8960543586255441E+00 
    1.8601584513557736E+00 
    1.8228088976024803E+00 
    1.7817192250695864E+00 
    1.7330879359656297E+00 
    1.6865846796358741E+00 
    1.6502273108378129E+00 
    1.6217427770713029E+00 
    1.6020843641619951E+00 
    1.5920448644969083E+00 
    1.9925791441151559E+00 
    1.9851874408527721E+00 
    1.9708271886872659E+00 
    1.9502195945009737E+00 
    1.9243096933748352E+00 
    1.8940223716407758E+00 
    1.8601843102196314E+00 
    1.8233907506558227E+00 
    1.7833181070311697E+00 
    1.7361620197058731E+00 
    1.6826733718844100E+00 
    1.6348779515636083E+00 
    1.5958562580042046E+00 
    1.5646862353742488E+00 
    1.5428290262882105E+00 
    1.5315422820302202E+00 
    1.9537225369953797E+00 
    1.9468182943983614E+00 
    1.9332378729503363E+00 
    1.9134651956818081E+00 
    1.8880856062916915E+00 
    1.8577051782428684E+00 
    1.8228606568940573E+00 
    1.7833433043498346E+00 
    1.7372714219860070E+00 
    1.6824531360868178E+00 
    1.6262721193716683E+00 
    1.5767614188109513E+00 
    1.5336475370564160E+00 
    1.4983294842736579E+00 
    1.4730254332875603E+00 
    1.4597567180830093E+00 
    1.9179247866918070E+00 
    1.9111724851514775E+00 
    1.8978330505072079E+00 
    1.8781485444568280E+00 
    1.8522847538879095E+00 
    1.8202412224042035E+00 
    1.7817911567007527E+00 
    1.7362079050660246E+00 
    1.6824759424664077E+00 
    1.6236978669330568E+00 
    1.5664332817435938E+00 
    1.5128014441712623E+00 
    1.4636391713636592E+00 
    1.4219579248056191E+00 
    1.3911968147977498E+00 
    1.3747077943745323E+00 
    1.8823473885617401E+00 
    1.8752032187980392E+00 
    1.8610276895351516E+00 
    1.8399322856896840E+00 
    1.8118351535720096E+00 
    1.7763734133044999E+00 
    1.7331799006309314E+00 
    1.6827449577207099E+00 
    1.6263228175910625E+00 
    1.5664604278490710E+00 
    1.5053847301186842E+00 
    1.4443591779708711E+00 
    1.3861323521853304E+00 
    1.3346488990212113E+00 
    1.2950769596854297E+00 
    1.2731571619874680E+00 
    1.8446859465387853E+00 
    1.8371104507625799E+00 
    1.8220178787002543E+00 
    1.7994451368067648E+00 
    1.7693557417407324E+00 
    1.7317087946989154E+00 
    1.6867064885280807E+00 
    1.6349799368703952E+00 
    1.5768402232507823E+00 
    1.5128543019922613E+00 
    1.4443842266118272E+00 
    1.3731492189519676E+00 
    1.3019237905019965E+00 
    1.2354726788341888E+00 
    1.1813499842441006E+00 
    1.1497107893277925E+00 
    1.8120396440033546E+00 
    1.8044260631234295E+00 
    1.7891946287262270E+00 
    1.7662823789552418E+00 
    1.7355723016137876E+00 
    1.6969419964786041E+00 
    1.6503727831737787E+00 
    1.5959803684156824E+00 
    1.5337481883496484E+00 
    1.4637141853988129E+00 
    1.3861797863257419E+00 
    1.3019462714987915E+00 
    1.2129609530228669E+00 
    1.1239853719942563E+00 
    1.0451648999962102E+00 
    9.9463750374630688E-01 
    1.7883868739219602E+00 
    1.7806047205703948E+00 
    1.7650163528871730E+00 
    1.7415267237944416E+00 
    1.7099860226790493E+00 
    1.6701938567943635E+00 
    1.6219053056243016E+00 
    1.5648269836307231E+00 
    1.4984467278015572E+00 
    1.4220499757300515E+00 
    1.3347139583388030E+00 
    1.2355130780461907E+00 
    1.1240035202285770E+00 
    1.0023534242733640E+00 
    8.8070687579133000E-01 
    7.8904571587718564E-01 
    1.7725139643168708E+00 
    1.7646082054469552E+00 
    1.7487587739161405E+00 
    1.7248443255545287E+00 
    1.6926716837502180E+00 
    1.6519530697250417E+00 
    1.6022559830881880E+00 
    1.5429787307628353E+00 
    1.4731518258224392E+00 
    1.3912987331900095E+00 
    1.2951527912497669E+00 
    1.1814017592073967E+00 
    1.0451950392514175E+00 
    8.8071930588196168E-01 
    6.8626198014672202E-01 
    4.9178292810557966E-01 
    1.7645445919685117E+00 
    1.7565781032048529E+00 
    1.7405940098057204E+00 
    1.7164548951826011E+00 
    1.6839386648513428E+00 
    1.6427053819108428E+00 
    1.5922160069723372E+00 
    1.5316915431471771E+00 
    1.4598829306945142E+00 
    1.3748101423255361E+00 
    1.2732347037240064E+00 
    1.1497653694384051E+00 
    9.9467165007799008E-01 
    7.8906327177362079E-01 
    4.9178883593538608E-01 
    0.0000000000000000E+00 

SCALARS Saturarion double 1 
LOOKUP_TABLE default 

    1.0000000000000018E+00 
    9.6687925191270385E-01 
    9.1203272634692800E-01 
    8.2204586332291207E-01 
    7.4702886594858142E-01 
    6.8288976427333292E-01 
    6.2831583513825306E-01 
    5.8335717730531844E-01 
    5.4626321422485891E-01 
    5.0703513434299408E-01 
    4.2398637301346354E-01 
    1.0897559757737410E-01 
    1.0000035902713096E-06 
    1.0000000000032363E-06 
    9.9999999999999995E-07 
    9.9999999999999995E-07 
    9.6687756193067487E-01 
    9.3525857288816783E-01 
    8.7929756089307376E-01 
    8.0370881036262054E-01 
    7.3549711163156362E-01 
    6.7537947789413522E-01 
    6.2354957175280223E-01 
    5.8066195825855815E-01 
    5.4483166313805709E-01 
    5.0553471647879744E-01 
    4.1794332470094508E-01 
    9.6386698422582351E-02 
    4.1545954360461827E-06 
    1.0000015510384457E-06 
    1.0000000000004044E-06 
    9.9999999999999995E-07 
    9.1202757975939031E-01 
    8.7929408980174395E-01 
    8.2486300612224317E-01 
    7.6581610634723329E-01 
    7.0938684306668276E-01 
    6.5743146843966571E-01 
    6.1222585320057654E-01 
    5.7468849344920458E-01 
    5.4116200819561200E-01 
    5.0108443094909694E-01 
    4.0655975828377755E-01 
    7.4734561409801004E-02 
    1.2763553503516607E-05 
    1.0000094454726086E-06 
    1.0000000000015799E-06 
    9.9999999999999995E-07 
    8.2202568608559423E-01 
    8.0369198376184359E-01 
    7.6580496794628361E-01 
    7.2147587207842589E-01 
    6.7619941645416182E-01 
    6.3375835888262622E-01 
    5.9764270733918423E-01 
    5.6663672634225548E-01 
    5.3548325517924156E-01 
    4.9511953624336369E-01 
    3.8578227659814557E-01 
    4.7728455272694724E-02 
    1.3294904681172329E-05 
    1.0000195562152865E-06 
    9.9999999999999974E-07 
    9.9999999999999995E-07 
    7.4699976017116199E-01 
    7.3547747982521938E-01 
    7.0937101543228376E-01 
    6.7618958973488841E-01 
    6.4142940812208304E-01 
    6.0965524391190429E-01 
    5.8282992961583979E-01 
    5.5655366507795867E-01 
    5.2743997277206012E-01 
    4.8630611027791271E-01 
    3.5076045124978755E-01 
    2.1140457841330323E-02 
    6.4018714544509363E-06 
    1.0000029068609460E-06 
    9.9999999999999995E-07 
    9.9999999999999995E-07 
    6.8289658915210172E-01 
    6.7537676478303921E-01 
    6.5742373379148067E-01 
    6.3375042800881143E-01 
    6.0964919717067212E-01 
    5.8827271250005009E-01 
    5.6688151408414489E-01 
    5.4283754460972000E-01 
    5.1620086962787248E-01 
    4.7273131236565086E-01 
    2.9482329553168540E-01 
    5.6260660322611424E-03 
    1.6413948941906933E-06 
    1.0000001065082769E-06 
    9.9999999999999995E-07 
    9.9999999999999995E-07 
    6.2833095278579287E-01 
    6.2355083106821574E-01 
    6.1221771379691858E-01 
    5.9763329064006498E-01 
    5.8281990353583235E-01 
    5.6687445011386572E-01 
    5.4735362860744230E-01 
    5.2594518171034144E-01 
    5.0128735173291805E-01 
    4.4798953869075614E-01 
    2.0810774985141134E-01 
    5.9853289628041624E-04 
    1.0171117642843577E-06 
    1.0000000013450421E-06 
    9.9999999999999995E-07 
    9.9999999999999995E-07 
    5.8336060139386969E-01 
    5.8065631536139095E-01 
    5.7467376736657039E-01 
    5.6662027326722986E-01 
    5.5653796774878339E-01 
    5.4282482944122334E-01 
    5.2593840753315868E-01 
    5.0646961647373645E-01 
    4.7876764695917479E-01 
    3.9336986188366363E-01 
    8.9671066005808625E-02 
    1.5670992368763974E-04 
    1.0043678752161809E-06 
    1.0000000000000010E-06 
    9.9999999999999995E-07 
    9.9999999999999995E-07 
    5.4625697727844780E-01 
    5.4481794336128153E-01 
    5.4114027545714105E-01 
    5.3545644218326860E-01 
    5.2741383586932677E-01 
    5.1617532712927128E-01 
    5.0126481743877849E-01 
    4.7874714581433797E-01 
    4.3135182669724903E-01 
    2.4876464382301477E-01 
    7.2182542478543615E-03 
    2.3692926896674784E-06 
    1.0000001590139470E-06 
    1.0000000000000010E-06 
    9.9999999999999995E-07 
    9.9999999999999995E-07 
    5.0704081375365861E-01 
    5.0552069853549886E-01 
    5.0104861650670918E-01 
    4.9506932326923658E-01 
    4.8624048941168119E-01 
    4.7265763673001815E-01 
    4.4789383409469619E-01 
    3.9320182485060196E-01 
    2.4859187143253922E-01 
    4.3162155790770679E-02 
    7.2241600109018144E-05 
    1.0003444870626951E-06 
    1.0000000000000637E-06 
    9.9999999999999995E-07 
    9.9999999999999995E-07 
    9.9999999999999995E-07 
    4.2398849732821853E-01 
    4.1788031691019384E-01 
    4.0641568188673327E-01 
    3.8553831469525579E-01 
    3.5041088869065568E-01 
    2.9439475894258443E-01 
    2.0770679982008994E-01 
    8.9337229832715595E-02 
    7.1727080791365730E-03 
    7.2177622512980993E-05 
    1.0007828272044495E-06 
    1.0000000000412405E-06 
    9.9999999999999995E-07 
    9.9999999999999995E-07 
    9.9999999999999995E-07 
    9.9999999999999995E-07 
    1.0894069622416881E-01 
    9.6228824803536478E-02 
    7.4473522748335158E-02 
    4.7452125924910715E-02 
    2.0949527083816675E-02 
    5.5599681305646504E-03 
    5.9206166115659980E-04 
    1.5609574743051291E-04 
    2.3495246508749291E-06 
    1.0003438362825545E-06 
    1.0000000000413881E-06 
    9.9999999999999995E-07 
    9.9999999999999995E-07 
    9.9999999999999995E-07 
    9.9999999999999995E-07 
    9.9999999999999995E-07 
    1.0000036611792004E-06 
    4.1985259997888008E-06 
    1.2797450915213527E-05 
    1.3215945285326973E-05 
    6.3254565790609906E-06 
    1.6264828718931912E-06 
    1.0168307870231733E-06 
    1.0043017619926203E-06 
    1.0000001559163655E-06 
    1.0000000000000266E-06 
    9.9999999999999995E-07 
    9.9999999999999995E-07 
    9.9999999999999995E-07 
    9.9999999999999995E-07 
    9.9999999999999995E-07 
    9.9999999999999995E-07 
    1.0000000000032947E-06 
    1.0000015768857986E-06 
    1.0000094532848469E-06 
    1.0000192300025837E-06 
    1.0000028339671411E-06 
    1.0000001034075787E-06 
    1.0000000013085145E-06 
    9.9999999999999995E-07 
    1.0000000000000012E-06 
    9.9999999999999995E-07 
    9.9999999999999995E-07 
    9.9999999999999995E-07 
    9.9999999999999995E-07 
    9.9999999999999995E-07 
    9.9999999999999995E-07 
    9.9999999999999995E-07 
    9.9999999999999995E-07 
    1.0000000000004086E-06 
    1.0000000000015748E-06 
    9.9999999999999974E-07 
    9.9999999999999995E-07 
    9.9999999999999995E-07 
    9.9999999999999995E-07 
    9.9999999999999995E-07 
    9.9999999999999995E-07 
    9.9999999999999995E-07 
    9.9999999999999995E-07 
    9.9999999999999995E-07 
    9.9999999999999995E-07 
    9.9999999999999995E-07 
    9.9999999999999995E-07 
    9.9999999999999995E-07 
    9.9999999999999995E-07 
    9.9999999999999995E-07 
    9.9999999999999995E-07 
    9.9999999999999995E-07 
    9.9999999999999995E-07 
    9.9999999999999995E-07 
    9.9999999999999995E-07 
    9.9999999999999995E-07 
    9.9999999999999995E-07 
    9.9999999999999995E-07 
    9.9999999999999995E-07 
    9.9999999999999995E-07 
    9.9999999999999995E-07 
    9.9999999999999995E-07 
    9.9999999999999995E-07 
    1.0000003177435001E-06 
