# vtk DataFile Version 2.0
Pressure Field Data 
ASCII 
DATASET UNSTRUCTURED_GRID 

POINTS 289 double 

    0.0000000000000000E+00     0.0000000000000000E+00     0.0000000000000000E+00 
    1.0000000000000000E+00     0.0000000000000000E+00     0.0000000000000000E+00 
    1.0000000000000000E+00     1.0000000000000000E+00     0.0000000000000000E+00 
    0.0000000000000000E+00     1.0000000000000000E+00     0.0000000000000000E+00 
    6.2499999999872928E-02     0.0000000000000000E+00     0.0000000000000000E+00 
    1.2499999999977310E-01     0.0000000000000000E+00     0.0000000000000000E+00 
    1.8749999999959341E-01     0.0000000000000000E+00     0.0000000000000000E+00 
    2.4999999999941089E-01     0.0000000000000000E+00     0.0000000000000000E+00 
    3.1249999999922851E-01     0.0000000000000000E+00     0.0000000000000000E+00 
    3.7499999999904610E-01     0.0000000000000000E+00     0.0000000000000000E+00 
    4.3749999999886358E-01     0.0000000000000000E+00     0.0000000000000000E+00 
    4.9999999999869210E-01     0.0000000000000000E+00     0.0000000000000000E+00 
    5.6249999999884603E-01     0.0000000000000000E+00     0.0000000000000000E+00 
    6.2499999999901090E-01     0.0000000000000000E+00     0.0000000000000000E+00 
    6.8749999999917577E-01     0.0000000000000000E+00     0.0000000000000000E+00 
    7.4999999999934064E-01     0.0000000000000000E+00     0.0000000000000000E+00 
    8.1249999999950551E-01     0.0000000000000000E+00     0.0000000000000000E+00 
    8.7499999999967026E-01     0.0000000000000000E+00     0.0000000000000000E+00 
    9.3749999999983513E-01     0.0000000000000000E+00     0.0000000000000000E+00 
    1.0000000000000000E+00     6.2499999999872928E-02     0.0000000000000000E+00 
    1.0000000000000000E+00     1.2499999999977310E-01     0.0000000000000000E+00 
    1.0000000000000000E+00     1.8749999999959341E-01     0.0000000000000000E+00 
    1.0000000000000000E+00     2.4999999999941089E-01     0.0000000000000000E+00 
    1.0000000000000000E+00     3.1249999999922851E-01     0.0000000000000000E+00 
    1.0000000000000000E+00     3.7499999999904610E-01     0.0000000000000000E+00 
    1.0000000000000000E+00     4.3749999999886358E-01     0.0000000000000000E+00 
    1.0000000000000000E+00     4.9999999999869210E-01     0.0000000000000000E+00 
    1.0000000000000000E+00     5.6249999999884603E-01     0.0000000000000000E+00 
    1.0000000000000000E+00     6.2499999999901090E-01     0.0000000000000000E+00 
    1.0000000000000000E+00     6.8749999999917577E-01     0.0000000000000000E+00 
    1.0000000000000000E+00     7.4999999999934064E-01     0.0000000000000000E+00 
    1.0000000000000000E+00     8.1249999999950551E-01     0.0000000000000000E+00 
    1.0000000000000000E+00     8.7499999999967026E-01     0.0000000000000000E+00 
    1.0000000000000000E+00     9.3749999999983513E-01     0.0000000000000000E+00 
    9.3749999999973976E-01     1.0000000000000000E+00     0.0000000000000000E+00 
    8.7499999999950118E-01     1.0000000000000000E+00     0.0000000000000000E+00 
    8.1249999999991318E-01     1.0000000000000000E+00     0.0000000000000000E+00 
    7.5000000000034706E-01     1.0000000000000000E+00     0.0000000000000000E+00 
    6.8750000000078049E-01     1.0000000000000000E+00     0.0000000000000000E+00 
    6.2500000000121403E-01     1.0000000000000000E+00     0.0000000000000000E+00 
    5.6250000000164757E-01     1.0000000000000000E+00     0.0000000000000000E+00 
    5.0000000000205946E-01     1.0000000000000000E+00     0.0000000000000000E+00 
    4.3750000000182099E-01     1.0000000000000000E+00     0.0000000000000000E+00 
    3.7500000000156092E-01     1.0000000000000000E+00     0.0000000000000000E+00 
    3.1250000000130068E-01     1.0000000000000000E+00     0.0000000000000000E+00 
    2.5000000000104050E-01     1.0000000000000000E+00     0.0000000000000000E+00 
    1.8750000000078040E-01     1.0000000000000000E+00     0.0000000000000000E+00 
    1.2500000000052031E-01     1.0000000000000000E+00     0.0000000000000000E+00 
    6.2500000000260125E-02     1.0000000000000000E+00     0.0000000000000000E+00 
    0.0000000000000000E+00     9.3749999999973976E-01     0.0000000000000000E+00 
    0.0000000000000000E+00     8.7499999999950118E-01     0.0000000000000000E+00 
    0.0000000000000000E+00     8.1249999999991318E-01     0.0000000000000000E+00 
    0.0000000000000000E+00     7.5000000000034706E-01     0.0000000000000000E+00 
    0.0000000000000000E+00     6.8750000000078049E-01     0.0000000000000000E+00 
    0.0000000000000000E+00     6.2500000000121403E-01     0.0000000000000000E+00 
    0.0000000000000000E+00     5.6250000000164757E-01     0.0000000000000000E+00 
    0.0000000000000000E+00     5.0000000000205946E-01     0.0000000000000000E+00 
    0.0000000000000000E+00     4.3750000000182099E-01     0.0000000000000000E+00 
    0.0000000000000000E+00     3.7500000000156092E-01     0.0000000000000000E+00 
    0.0000000000000000E+00     3.1250000000130068E-01     0.0000000000000000E+00 
    0.0000000000000000E+00     2.5000000000104050E-01     0.0000000000000000E+00 
    0.0000000000000000E+00     1.8750000000078040E-01     0.0000000000000000E+00 
    0.0000000000000000E+00     1.2500000000052031E-01     0.0000000000000000E+00 
    0.0000000000000000E+00     6.2500000000260125E-02     0.0000000000000000E+00 
    6.2499999999897131E-02     6.2500000000235922E-02     0.0000000000000000E+00 
    6.2499999999921327E-02     1.2500000000047351E-01     0.0000000000000000E+00 
    6.2499999999945530E-02     1.8750000000070621E-01     0.0000000000000000E+00 
    6.2499999999969733E-02     2.5000000000093858E-01     0.0000000000000000E+00 
    6.2499999999993928E-02     3.1250000000117117E-01     0.0000000000000000E+00 
    6.2500000000018124E-02     3.7500000000140382E-01     0.0000000000000000E+00 
    6.2500000000042327E-02     4.3750000000163619E-01     0.0000000000000000E+00 
    6.2500000000066530E-02     5.0000000000184897E-01     0.0000000000000000E+00 
    6.2500000000090733E-02     5.6250000000147260E-01     0.0000000000000000E+00 
    6.2500000000114922E-02     6.2500000000107636E-01     0.0000000000000000E+00 
    6.2500000000139125E-02     6.8750000000068034E-01     0.0000000000000000E+00 
    6.2500000000163328E-02     7.5000000000028411E-01     0.0000000000000000E+00 
    6.2500000000187531E-02     8.1249999999988787E-01     0.0000000000000000E+00 
    6.2500000000211720E-02     8.7499999999951172E-01     0.0000000000000000E+00 
    6.2500000000235922E-02     9.3749999999974565E-01     0.0000000000000000E+00 
    1.2499999999981980E-01     6.2500000000211733E-02     0.0000000000000000E+00 
    1.2499999999986650E-01     1.2500000000042691E-01     0.0000000000000000E+00 
    1.2499999999991319E-01     1.8750000000063199E-01     0.0000000000000000E+00 
    1.2499999999995989E-01     2.5000000000083678E-01     0.0000000000000000E+00 
    1.2500000000000661E-01     3.1250000000104172E-01     0.0000000000000000E+00 
    1.2500000000005329E-01     3.7500000000124661E-01     0.0000000000000000E+00 
    1.2500000000010000E-01     4.3750000000145117E-01     0.0000000000000000E+00 
    1.2500000000014669E-01     5.0000000000163858E-01     0.0000000000000000E+00 
    1.2500000000019340E-01     5.6250000000129741E-01     0.0000000000000000E+00 
    1.2500000000024011E-01     6.2500000000093847E-01     0.0000000000000000E+00 
    1.2500000000028680E-01     6.8750000000057998E-01     0.0000000000000000E+00 
    1.2500000000033351E-01     7.5000000000022127E-01     0.0000000000000000E+00 
    1.2500000000038020E-01     8.1249999999986211E-01     0.0000000000000000E+00 
    1.2500000000042691E-01     8.7499999999952238E-01     0.0000000000000000E+00 
    1.2500000000047359E-01     9.3749999999975164E-01     0.0000000000000000E+00 
    1.8749999999966760E-01     6.2500000000187531E-02     0.0000000000000000E+00 
    1.8749999999974179E-01     1.2500000000038020E-01     0.0000000000000000E+00 
    1.8749999999981601E-01     1.8750000000055780E-01     0.0000000000000000E+00 
    1.8749999999989009E-01     2.5000000000073502E-01     0.0000000000000000E+00 
    1.8749999999996431E-01     3.1250000000091221E-01     0.0000000000000000E+00 
    1.8750000000003850E-01     3.7500000000108941E-01     0.0000000000000000E+00 
    1.8750000000011269E-01     4.3750000000126649E-01     0.0000000000000000E+00 
    1.8750000000018691E-01     5.0000000000142808E-01     0.0000000000000000E+00 
    1.8750000000026110E-01     5.6250000000112244E-01     0.0000000000000000E+00 
    1.8750000000033529E-01     6.2500000000080080E-01     0.0000000000000000E+00 
    1.8750000000040951E-01     6.8750000000047962E-01     0.0000000000000000E+00 
    1.8750000000048361E-01     7.5000000000015843E-01     0.0000000000000000E+00 
    1.8750000000055780E-01     8.1249999999983680E-01     0.0000000000000000E+00 
    1.8750000000063199E-01     8.7499999999953304E-01     0.0000000000000000E+00 
    1.8750000000070621E-01     9.3749999999975764E-01     0.0000000000000000E+00 
    2.4999999999951281E-01     6.2500000000163314E-02     0.0000000000000000E+00 
    2.4999999999961461E-01     1.2500000000033351E-01     0.0000000000000000E+00 
    2.4999999999971650E-01     1.8750000000048361E-01     0.0000000000000000E+00 
    2.4999999999981831E-01     2.5000000000063310E-01     0.0000000000000000E+00 
    2.4999999999992020E-01     3.1250000000078260E-01     0.0000000000000000E+00 
    2.5000000000002198E-01     3.7500000000093209E-01     0.0000000000000000E+00 
    2.5000000000012390E-01     4.3750000000108180E-01     0.0000000000000000E+00 
    2.5000000000022571E-01     5.0000000000121769E-01     0.0000000000000000E+00 
    2.5000000000032763E-01     5.6250000000094724E-01     0.0000000000000000E+00 
    2.5000000000042938E-01     6.2500000000066314E-01     0.0000000000000000E+00 
    2.5000000000053119E-01     6.8750000000037925E-01     0.0000000000000000E+00 
[...]
CELL_DATA 256 
SCALARS Pressure double 1 
LOOKUP_TABLE default 

    3.2011220784661987E+00 
    2.9865154855131903E+00 
    2.7792195115060663E+00 
    2.5714574837246613E+00 
    2.4139543783820909E+00 
    2.2889333070172264E+00 
    2.1857393377508259E+00 
    2.0989925422293751E+00 
    2.0254392234107454E+00 
    1.9630916026519794E+00 
    1.9107225756792605E+00 
    1.8676113766592304E+00 
    1.8333500112365466E+00 
    1.8077360588399973E+00 
    1.7906857596112173E+00 
    1.7821730029243927E+00 
    2.9865288711406723E+00 
    2.8697596819461131E+00 
    2.6986942374540317E+00 
    2.5222681858370644E+00 
    2.3828486682027146E+00 
    2.2671887990552855E+00 
    2.1693883476600222E+00 
    2.0858819483608202E+00 
    2.0143123579653159E+00 
    1.9531695346395590E+00 
    1.9015141708191414E+00 
    1.8588000488413077E+00 
    1.8247329471007874E+00 
    1.7991950983111593E+00 
    1.7821644891216506E+00 
    1.7736613281937179E+00 
    2.7792555302304991E+00 
    2.6987177702791230E+00 
    2.5716494105253820E+00 
    2.4424116014238986E+00 
    2.3285981772628226E+00 
    2.2276686535593528E+00 
    2.1388347018135225E+00 
    2.0609089516249437E+00 
    1.9928286296554267E+00 
    1.9338328619648699E+00 
    1.8834391650874389E+00 
    1.8414059125266737E+00 
    1.8076491418428806E+00 
    1.7822087801732061E+00 
    1.7651799490025903E+00 
    1.7566652388762447E+00 
    2.5715338530437606E+00 
    2.5223302885082974E+00 
    2.4424477961349815E+00 
    2.3519337983144282E+00 
    2.2615773460799207E+00 
    2.1761245309619639E+00 
    2.0974565855268508E+00 
    2.0261641640156265E+00 
    1.9623371630463580E+00 
    1.9059665157563284E+00 
    1.8570796890323216E+00 
    1.8157971296883204E+00 
    1.7823106351831932E+00 
    1.7568758563653311E+00 
    1.7397543785208751E+00 
    1.7311672379491680E+00 
    2.4140778379552930E+00 
    2.3829549315838183E+00 
    2.3286769885013534E+00 
    2.2616195979238953E+00 
    2.1897243781459377E+00 
    2.1178594410432696E+00 
    2.0487825584856858E+00 
    1.9840273307374521E+00 
    1.9244643010711797E+00 
    1.8706856121169892E+00 
    1.8231850042612636E+00 
    1.7824475064162772E+00 
    1.7489790966145238E+00 
    1.7232974929872240E+00 
    1.7058783409705949E+00 
    1.6970997731177937E+00 
    2.2891012802343940E+00 
    2.2673404086636380E+00 
    2.2277923035174907E+00 
    2.1762112982017054E+00 
    2.1179040053362383E+00 
    2.0568667368594293E+00 
    1.9958597989579008E+00 
    1.9367677767352240E+00 
    1.8808772193300318E+00 
    1.8291934955787252E+00 
    1.7825778274387061E+00 
    1.7418730102872795E+00 
    1.7079100620797516E+00 
    1.6815171448218107E+00 
    1.6634445945373388E+00 
    1.6542786190196503E+00 
    2.1859521127952628E+00 
    2.1695848337110553E+00 
    2.1390026891702836E+00 
    2.0975868523732855E+00 
    2.0488699828654506E+00 
    1.9959037551585215E+00 
    1.9411273444186012E+00 
    1.8863896241361839E+00 
    1.8331581212344836E+00 
    1.7826724802249776E+00 
    1.7361040802424268E+00 
    1.6945873376780973E+00 
    1.6593073630253397E+00 
    1.6314564379259677E+00 
    1.6121478002784704E+00 
    1.6022724736265492E+00 
    2.0992523982945999E+00 
    2.0861255381307569E+00 
    2.0611235494325104E+00 
    2.0263405991541670E+00 
    1.9841608696925932E+00 
    1.9368580678978189E+00 
    1.8864361927236570E+00 
    1.8345829785956165E+00 
    1.7827600328044531E+00 
    1.7323273708161739E+00 
    1.6846466241557503E+00 
    1.6411389719330007E+00 
    1.6033467417864629E+00 
    1.5729233129008653E+00 
    1.5514888631031838E+00 
    1.5403985326572769E+00 
    2.0257482364396480E+00 
    2.0146052651039850E+00 
    1.9930920727173524E+00 
    1.9625621678029599E+00 
    1.9246460817379487E+00 
    1.8810156554022668E+00 
    1.8332551396403758E+00 
    1.7828108521721844E+00 
    1.7310378742040964E+00 
    1.6793024200243190E+00 
    1.6290769397148279E+00 
    1.5820062066887048E+00 
    1.5400399654067112E+00 
    1.5054245740716345E+00 
    1.4805225319273199E+00 
    1.4674379640430677E+00 
    1.9634518551511668E+00 
    1.9535125677456049E+00 
    1.9341470682282369E+00 
    1.9062431083224458E+00 
    1.8709194322129086E+00 
    1.8293840362062639E+00 
    1.7828244972585381E+00 
    1.7324327835463940E+00 
    1.6793565043031207E+00 
    1.6248557703931230E+00 
    1.5703882179780566E+00 
    1.5177738984273161E+00 
    1.4693773900694738E+00 
    1.4282086766664559E+00 
    1.3977518072887556E+00 
    1.3814013548368602E+00 
    1.9111313397722056E+00 
    1.9019068821576781E+00 
    1.8838050141881488E+00 
    1.8574104916795990E+00 
    1.8234758804695521E+00 
    1.7828269352842585E+00 
    1.7363113419523610E+00 
    1.6848074045578965E+00 
    1.6291876346170266E+00 
    1.5704451247209805E+00 
    1.5098580354744686E+00 
    1.4492951872554853E+00 
    1.3914567726431704E+00 
    1.3402443393458821E+00 
    1.3008322617937313E+00 
    1.2789894851656971E+00 
    1.8680632674431070E+00 
    1.8592375035952151E+00 
    1.8418186167963622E+00 
    1.8161768768029722E+00 
    1.7827888315202061E+00 
    1.7421732574699462E+00 
    1.6948454457837827E+00 
    1.6413508069096299E+00 
    1.5821676556015367E+00 
    1.5178814479281164E+00 
    1.4493472940054088E+00 
    1.3781598537313793E+00 
    1.3069926190185301E+00 
    1.2405674030912233E+00 
    1.1864347675297480E+00 
    1.1547820846342989E+00 
    1.8338357009205153E+00 
    1.8252056210048710E+00 
    1.8080988864782759E+00 
    1.7827293101115309E+00 
    1.7493609889177713E+00 
    1.7082519641587925E+00 
    1.6596078697353651E+00 
    1.6036014020032028E+00 
    1.5402446407988071E+00 
    1.4695286744618941E+00 
    1.3915529875087300E+00 
    1.3070369576359933E+00 
    1.2178249973690440E+00 
    1.1286349839882339E+00 
    1.0496096489309810E+00 
    9.9894239485082659E-01 
    1.8082431256597475E+00 
    1.7996904256395028E+00 
    1.7826828377973247E+00 
    1.7573207120255634E+00 
    1.7237073823073790E+00 
    1.6818885317112375E+00 
    1.6317874809481026E+00 
    1.5732091250453895E+00 
    1.5056609052758478E+00 
    1.4283919836891816E+00 
    1.3403732447591432E+00 
    1.2406453555939418E+00 
    1.1286691972710217E+00 
    1.0065633747529712E+00 
    8.8446433465660912E-01 
    7.9244797873159134E-01 
    1.7911993711430367E+00 
    1.7826674837040171E+00 
    1.7656632199591971E+00 
    1.7402102992072885E+00 
    1.7063011362318701E+00 
    1.6638303914389927E+00 
    1.6124941466140643E+00 
    1.5517906402497059E+00 
    1.4807755252871222E+00 
    1.3979522432394063E+00 
    1.3009796696926215E+00 
    1.1865330804597141E+00 
    1.0496656632517163E+00 
    8.8448699075160508E-01 
    6.8922482440170618E-01 
    4.9391598070059584E-01 
    1.7826768176649890E+00 
    1.7741554769513872E+00 
    1.7571410491388959E+00 
    1.7316173734674853E+00 
    1.6975184396641378E+00 
    1.6546616068841100E+00 
    1.6026161597373183E+00 
    1.5406981391961767E+00 
    1.4676896409951192E+00 
    1.3816014241770980E+00 
    1.2791392788833535E+00 
    1.1548857594241770E+00 
    9.9900621964406566E-01 
    7.9248033149908237E-01 
    4.9392677642430527E-01 
    0.0000000000000000E+00 

SCALARS Saturarion double 1 
LOOKUP_TABLE default 

    8.4046394771917277E-01 
    6.6690829734757695E-01 
    4.3347734934357957E-01 
    6.1038808554485464E-02 
    1.1887762439445458E-06 
    1.0000000888991831E-06 
    1.0000000000000002E-06 
    9.9999999999999995E-07 
    9.9999999999999995E-07 
    9.9999999999999995E-07 
    9.9999999999999995E-07 
    9.9999999999999995E-07 
    9.9999999999999995E-07 
    9.9999999999999995E-07 
    9.9999999999999995E-07 
    9.9999999999999995E-07 
    6.6690406527393220E-01 
    5.5031869305833547E-01 
    2.8934723531708606E-01 
    8.9794536356924762E-03 
    3.6419982379665809E-06 
    1.0000002268761380E-06 
    1.0000000000000063E-06 
    9.9999999999999995E-07 
    9.9999999999999995E-07 
    9.9999999999999995E-07 
    9.9999999999999995E-07 
    9.9999999999999995E-07 
    9.9999999999999995E-07 
    9.9999999999999995E-07 
    9.9999999999999995E-07 
    9.9999999999999995E-07 
    4.3344975842632105E-01 
    2.8932156618486388E-01 
    4.2332392958127130E-02 
    5.6334322350547079E-05 
    1.0001627342736697E-06 
    1.0000000000000900E-06 
    9.9999999999999995E-07 
    9.9999999999999995E-07 
    9.9999999999999995E-07 
    9.9999999999999995E-07 
    9.9999999999999995E-07 
    9.9999999999999995E-07 
    9.9999999999999995E-07 
    9.9999999999999995E-07 
    9.9999999999999995E-07 
    9.9999999999999995E-07 
    6.0997688032604955E-02 
    8.9710286396351008E-03 
    5.6316994228476255E-05 
    1.0002580307576557E-06 
    1.0000000000107005E-06 
    9.9999999999999995E-07 
    9.9999999999999995E-07 
    9.9999999999999995E-07 
    9.9999999999999995E-07 
    9.9999999999999995E-07 
    9.9999999999999995E-07 
    9.9999999999999995E-07 
    9.9999999999999995E-07 
    9.9999999999999995E-07 
    9.9999999999999995E-07 
    9.9999999999999995E-07 
    1.1885292166726945E-06 
    3.6358480158327208E-06 
    1.0001625786182682E-06 
    1.0000000000106961E-06 
    9.9999999999999995E-07 
    9.9999999999999995E-07 
    9.9999999999999995E-07 
    9.9999999999999995E-07 
    9.9999999999999995E-07 
    9.9999999999999995E-07 
    9.9999999999999995E-07 
    9.9999999999999995E-07 
    9.9999999999999995E-07 
    9.9999999999999995E-07 
    9.9999999999999995E-07 
    9.9999999999999995E-07 
    1.0000000887642840E-06 
    1.0000002261162997E-06 
    1.0000000000000895E-06 
    9.9999999999999995E-07 
    9.9999999999999995E-07 
    9.9999999999999995E-07 
    9.9999999999999995E-07 
    9.9999999999999995E-07 
    9.9999999999999995E-07 
    9.9999999999999995E-07 
    9.9999999999999995E-07 
    9.9999999999999995E-07 
    9.9999999999999995E-07 
    9.9999999999999995E-07 
    9.9999999999999995E-07 
    9.9999999999999995E-07 
    1.0000000000000002E-06 
    1.0000000000000065E-06 
    9.9999999999999995E-07 
    9.9999999999999995E-07 
    9.9999999999999995E-07 
    9.9999999999999995E-07 
    9.9999999999999995E-07 
    9.9999999999999995E-07 
    9.9999999999999995E-07 
    9.9999999999999995E-07 
    9.9999999999999995E-07 
    9.9999999999999995E-07 
    9.9999999999999995E-07 
    9.9999999999999995E-07 
    9.9999999999999995E-07 
    9.9999999999999995E-07 
    9.9999999999999995E-07 
    9.9999999999999995E-07 
    9.9999999999999995E-07 
    9.9999999999999995E-07 
    9.9999999999999995E-07 
    9.9999999999999995E-07 
    9.9999999999999995E-07 
    9.9999999999999995E-07 
    9.9999999999999995E-07 
    9.9999999999999995E-07 
    9.9999999999999995E-07 
    9.9999999999999995E-07 
    9.9999999999999995E-07 
    9.9999999999999995E-07 
    9.9999999999999995E-07 
    9.9999999999999995E-07 
    9.9999999999999995E-07 
    9.9999999999999995E-07 
    9.9999999999999995E-07 
    9.9999999999999995E-07 
    9.9999999999999995E-07 
    9.9999999999999995E-07 
    9.9999999999999995E-07 
    9.9999999999999995E-07 
    9.9999999999999995E-07 
    9.9999999999999995E-07 
    9.9999999999999995E-07 
    9.9999999999999995E-07 
    9.9999999999999995E-07 
    9.9999999999999995E-07 
    9.9999999999999995E-07 
    9.9999999999999995E-07 
    9.9999999999999995E-07 
    9.9999999999999995E-07 
    9.9999999999999995E-07 
    9.9999999999999995E-07 
    9.9999999999999995E-07 
    9.9999999999999995E-07 
    9.9999999999999995E-07 
    9.9999999999999995E-07 
    9.9999999999999995E-07 
    9.9999999999999995E-07 
    9.9999999999999995E-07 
    9.9999999999999995E-07 
    9.9999999999999995E-07 
    9.9999999999999995E-07 
    9.9999999999999995E-07 
    9.9999999999999995E-07 
    9.9999999999999995E-07 
    9.9999999999999995E-07 
    9.9999999999999995E-07 
    9.9999999999999995E-07 
    9.9999999999999995E-07 
    9.9999999999999995E-07 
    9.9999999999999995E-07 
    9.9999999999999995E-07 
    9.9999999999999995E-07 
    9.9999999999999995E-07 
    9.9999999999999995E-07 
    9.9999999999999995E-07 
    9.9999999999999995E-07 
    9.9999999999999995E-07 
    9.9999999999999995E-07 
    9.9999999999999995E-07 
    9.9999999999999995E-07 
    9.9999999999999995E-07 
    9.9999999999999995E-07 
    9.9999999999999995E-07 
    9.9999999999999995E-07 
    9.9999999999999995E-07 
    9.9999999999999995E-07 
    9.9999999999999995E-07 
    9.9999999999999995E-07 
    9.9999999999999995E-07 
    9.9999999999999995E-07 
    9.9999999999999995E-07 
    9.9999999999999995E-07 
    9.9999999999999995E-07 
    9.9999999999999995E-07 
    9.9999999999999995E-07 
    9.9999999999999995E-07 
    9.9999999999999995E-07 
    9.9999999999999995E-07 
    9.9999999999999995E-07 
    9.9999999999999995E-07 
    9.9999999999999995E-07 
    9.9999999999999995E-07 
    9.9999999999999995E-07 
    9.9999999999999995E-07 
    9.9999999999999995E-07 
    9.9999999999999995E-07 
    9.9999999999999995E-07 
    9.9999999999999995E-07 
    9.9999999999999995E-07 
    9.9999999999999995E-07 
    9.9999999999999995E-07 
    9.9999999999999995E-07 
    9.9999999999999995E-07 
    9.9999999999999995E-07 
    9.9999999999999995E-07 
    9.9999999999999995E-07 
    9.9999999999999995E-07 
    9.9999999999999995E-07 
    9.9999999999999995E-07 
    9.9999999999999995E-07 
    9.9999999999999995E-07 
    9.9999999999999995E-07 
    9.9999999999999995E-07 
    9.9999999999999995E-07 
    9.9999999999999995E-07 
    9.9999999999999995E-07 
    9.9999999999999995E-07 
    9.9999999999999995E-07 
    9.9999999999999995E-07 
    9.9999999999999995E-07 
    9.9999999999999995E-07 
    9.9999999999999995E-07 
    9.9999999999999995E-07 
    9.9999999999999995E-07 
    9.9999999999999995E-07 
    9.9999999999999995E-07 
    9.9999999999999995E-07 
    9.9999999999999995E-07 
    9.9999999999999995E-07 
    9.9999999999999995E-07 
    9.9999999999999995E-07 
    9.9999999999999995E-07 
    9.9999999999999995E-07 
    9.9999999999999995E-07 
    9.9999999999999995E-07 
    9.9999999999999995E-07 
    9.9999999999999995E-07 
    9.9999999999999995E-07 
    9.9999999999999995E-07 
    9.9999999999999995E-07 
    9.9999999999999995E-07 
    9.9999999999999995E-07 
    9.9999999999999995E-07 
    9.9999999999999995E-07 
    9.9999999999999995E-07 
    9.9999999999999995E-07 
    9.9999999999999995E-07 
    9.9999999999999995E-07 
    1.0000000176677742E-06 
