# vtk DataFile Version 2.0
Pressure Field Data 
ASCII 
DATASET UNSTRUCTURED_GRID 

POINTS 289 double 

    0.0000000000000000E+00     0.0000000000000000E+00     0.0000000000000000E+00 
    1.0000000000000000E+00     0.0000000000000000E+00     0.0000000000000000E+00 
    1.0000000000000000E+00     1.0000000000000000E+00     0.0000000000000000E+00 
    0.0000000000000000E+00     1.0000000000000000E+00     0.0000000000000000E+00 
    6.2499999999872928E-02     0.0000000000000000E+00     0.0000000000000000E+00 
    1.2499999999977310E-01     0.0000000000000000E+00     0.0000000000000000E+00 
    1.8749999999959341E-01     0.0000000000000000E+00     0.0000000000000000E+00 
    2.4999999999941089E-01     0.0000000000000000E+00     0.0000000000000000E+00 
    3.1249999999922851E-01     0.0000000000000000E+00     0.0000000000000000E+00 
    3.7499999999904610E-01     0.0000000000000000E+00     0.0000000000000000E+00 
    4.3749999999886358E-01     0.0000000000000000E+00     0.0000000000000000E+00 
    4.9999999999869210E-01     0.0000000000000000E+00     0.0000000000000000E+00 
    5.6249999999884603E-01     0.0000000000000000E+00     0.0000000000000000E+00 
    6.2499999999901090E-01     0.0000000000000000E+00     0.0000000000000000E+00 
    6.8749999999917577E-01     0.0000000000000000E+00     0.0000000000000000E+00 
    7.4999999999934064E-01     0.0000000000000000E+00     0.0000000000000000E+00 
    8.1249999999950551E-01     0.0000000000000000E+00     0.0000000000000000E+00 
    8.7499999999967026E-01     0.0000000000000000E+00     0.0000000000000000E+00 
    9.3749999999983513E-01     0.0000000000000000E+00     0.0000000000000000E+00 
    1.0000000000000000E+00     6.2499999999872928E-02     0.0000000000000000E+00 
    1.0000000000000000E+00     1.2499999999977310E-01     0.0000000000000000E+00 
    1.0000000000000000E+00     1.8749999999959341E-01     0.0000000000000000E+00 
    1.0000000000000000E+00     2.4999999999941089E-01     0.0000000000000000E+00 
    1.0000000000000000E+00     3.1249999999922851E-01     0.0000000000000000E+00 
    1.0000000000000000E+00     3.7499999999904610E-01     0.0000000000000000E+00 
    1.0000000000000000E+00     4.3749999999886358E-01     0.0000000000000000E+00 
    1.0000000000000000E+00     4.9999999999869210E-01     0.0000000000000000E+00 
    1.0000000000000000E+00     5.6249999999884603E-01     0.0000000000000000E+00 
    1.0000000000000000E+00     6.2499999999901090E-01     0.0000000000000000E+00 
    1.0000000000000000E+00     6.8749999999917577E-01     0.0000000000000000E+00 
    1.0000000000000000E+00     7.4999999999934064E-01     0.0000000000000000E+00 
    1.0000000000000000E+00     8.1249999999950551E-01     0.0000000000000000E+00 
    1.0000000000000000E+00     8.7499999999967026E-01     0.0000000000000000E+00 
    1.0000000000000000E+00     9.3749999999983513E-01     0.0000000000000000E+00 
    9.3749999999973976E-01     1.0000000000000000E+00     0.0000000000000000E+00 
    8.7499999999950118E-01     1.0000000000000000E+00     0.0000000000000000E+00 
    8.1249999999991318E-01     1.0000000000000000E+00     0.0000000000000000E+00 
    7.5000000000034706E-01     1.0000000000000000E+00     0.0000000000000000E+00 
    6.8750000000078049E-01     1.0000000000000000E+00     0.0000000000000000E+00 
    6.2500000000121403E-01     1.0000000000000000E+00     0.0000000000000000E+00 
    5.6250000000164757E-01     1.0000000000000000E+00     0.0000000000000000E+00 
    5.0000000000205946E-01     1.0000000000000000E+00     0.0000000000000000E+00 
    4.3750000000182099E-01     1.0000000000000000E+00     0.0000000000000000E+00 
    3.7500000000156092E-01     1.0000000000000000E+00     0.0000000000000000E+00 
    3.1250000000130068E-01     1.0000000000000000E+00     0.0000000000000000E+00 
    2.5000000000104050E-01     1.0000000000000000E+00     0.0000000000000000E+00 
    1.8750000000078040E-01     1.0000000000000000E+00     0.0000000000000000E+00 
    1.2500000000052031E-01     1.0000000000000000E+00     0.0000000000000000E+00 
    6.2500000000260125E-02     1.0000000000000000E+00     0.0000000000000000E+00 
    0.0000000000000000E+00     9.3749999999973976E-01     0.0000000000000000E+00 
    0.0000000000000000E+00     8.7499999999950118E-01     0.0000000000000000E+00 
    0.0000000000000000E+00     8.1249999999991318E-01     0.0000000000000000E+00 
    0.0000000000000000E+00     7.5000000000034706E-01     0.0000000000000000E+00 
    0.0000000000000000E+00     6.8750000000078049E-01     0.0000000000000000E+00 
    0.0000000000000000E+00     6.2500000000121403E-01     0.0000000000000000E+00 
    0.0000000000000000E+00     5.6250000000164757E-01     0.0000000000000000E+00 
    0.0000000000000000E+00     5.0000000000205946E-01     0.0000000000000000E+00 
    0.0000000000000000E+00     4.3750000000182099E-01     0.0000000000000000E+00 
    0.0000000000000000E+00     3.7500000000156092E-01     0.0000000000000000E+00 
    0.0000000000000000E+00     3.1250000000130068E-01     0.0000000000000000E+00 
    0.0000000000000000E+00     2.5000000000104050E-01     0.0000000000000000E+00 
    0.0000000000000000E+00     1.8750000000078040E-01     0.0000000000000000E+00 
    0.0000000000000000E+00     1.2500000000052031E-01     0.0000000000000000E+00 
    0.0000000000000000E+00     6.2500000000260125E-02     0.0000000000000000E+00 
    6.2499999999897131E-02     6.2500000000235922E-02     0.0000000000000000E+00 
    6.2499999999921327E-02     1.2500000000047351E-01     0.0000000000000000E+00 
    6.2499999999945530E-02     1.8750000000070621E-01     0.0000000000000000E+00 
    6.2499999999969733E-02     2.5000000000093858E-01     0.0000000000000000E+00 
    6.2499999999993928E-02     3.1250000000117117E-01     0.0000000000000000E+00 
    6.2500000000018124E-02     3.7500000000140382E-01     0.0000000000000000E+00 
    6.2500000000042327E-02     4.3750000000163619E-01     0.0000000000000000E+00 
    6.2500000000066530E-02     5.0000000000184897E-01     0.0000000000000000E+00 
    6.2500000000090733E-02     5.6250000000147260E-01     0.0000000000000000E+00 
    6.2500000000114922E-02     6.2500000000107636E-01     0.0000000000000000E+00 
    6.2500000000139125E-02     6.8750000000068034E-01     0.0000000000000000E+00 
    6.2500000000163328E-02     7.5000000000028411E-01     0.0000000000000000E+00 
    6.2500000000187531E-02     8.1249999999988787E-01     0.0000000000000000E+00 
    6.2500000000211720E-02     8.7499999999951172E-01     0.0000000000000000E+00 
    6.2500000000235922E-02     9.3749999999974565E-01     0.0000000000000000E+00 
    1.2499999999981980E-01     6.2500000000211733E-02     0.0000000000000000E+00 
    1.2499999999986650E-01     1.2500000000042691E-01     0.0000000000000000E+00 
    1.2499999999991319E-01     1.8750000000063199E-01     0.0000000000000000E+00 
    1.2499999999995989E-01     2.5000000000083678E-01     0.0000000000000000E+00 
    1.2500000000000661E-01     3.1250000000104172E-01     0.0000000000000000E+00 
    1.2500000000005329E-01     3.7500000000124661E-01     0.0000000000000000E+00 
    1.2500000000010000E-01     4.3750000000145117E-01     0.0000000000000000E+00 
    1.2500000000014669E-01     5.0000000000163858E-01     0.0000000000000000E+00 
    1.2500000000019340E-01     5.6250000000129741E-01     0.0000000000000000E+00 
    1.2500000000024011E-01     6.2500000000093847E-01     0.0000000000000000E+00 
    1.2500000000028680E-01     6.8750000000057998E-01     0.0000000000000000E+00 
    1.2500000000033351E-01     7.5000000000022127E-01     0.0000000000000000E+00 
    1.2500000000038020E-01     8.1249999999986211E-01     0.0000000000000000E+00 
    1.2500000000042691E-01     8.7499999999952238E-01     0.0000000000000000E+00 
    1.2500000000047359E-01     9.3749999999975164E-01     0.0000000000000000E+00 
    1.8749999999966760E-01     6.2500000000187531E-02     0.0000000000000000E+00 
    1.8749999999974179E-01     1.2500000000038020E-01     0.0000000000000000E+00 
    1.8749999999981601E-01     1.8750000000055780E-01     0.0000000000000000E+00 
    1.8749999999989009E-01     2.5000000000073502E-01     0.0000000000000000E+00 
    1.8749999999996431E-01     3.1250000000091221E-01     0.0000000000000000E+00 
    1.8750000000003850E-01     3.7500000000108941E-01     0.0000000000000000E+00 
    1.8750000000011269E-01     4.3750000000126649E-01     0.0000000000000000E+00 
    1.8750000000018691E-01     5.0000000000142808E-01     0.0000000000000000E+00 
    1.8750000000026110E-01     5.6250000000112244E-01     0.0000000000000000E+00 
    1.8750000000033529E-01     6.2500000000080080E-01     0.0000000000000000E+00 
    1.8750000000040951E-01     6.8750000000047962E-01     0.0000000000000000E+00 
    1.8750000000048361E-01     7.5000000000015843E-01     0.0000000000000000E+00 
    1.8750000000055780E-01     8.1249999999983680E-01     0.0000000000000000E+00 
    1.8750000000063199E-01     8.7499999999953304E-01     0.0000000000000000E+00 
    1.8750000000070621E-01     9.3749999999975764E-01     0.0000000000000000E+00 
    2.4999999999951281E-01     6.2500000000163314E-02     0.0000000000000000E+00 
    2.4999999999961461E-01     1.2500000000033351E-01     0.0000000000000000E+00 
    2.4999999999971650E-01     1.8750000000048361E-01     0.0000000000000000E+00 
    2.4999999999981831E-01     2.5000000000063310E-01     0.0000000000000000E+00 
    2.4999999999992020E-01     3.1250000000078260E-01     0.0000000000000000E+00 
    2.5000000000002198E-01     3.7500000000093209E-01     0.0000000000000000E+00 
    2.5000000000012390E-01     4.3750000000108180E-01     0.0000000000000000E+00 
    2.5000000000022571E-01     5.0000000000121769E-01     0.0000000000000000E+00 
    2.5000000000032763E-01     5.6250000000094724E-01     0.0000000000000000E+00 
    2.5000000000042938E-01     6.2500000000066314E-01     0.0000000000000000E+00 
    2.5000000000053119E-01     6.8750000000037925E-01     0.0000000000000000E+00 
[...]
CELL_DATA 256 
SCALARS Pressure double 1 
LOOKUP_TABLE default 

    2.4972424035581393E+00 
    2.3909889069722250E+00 
    2.3191580645617025E+00 
    2.2585692462095861E+00 
    2.2019291336722326E+00 
    2.1483861303232761E+00 
    2.0975497135656247E+00 
    2.0500365320178564E+00 
    2.0048322227330884E+00 
    1.9544770125988913E+00 
    1.9021646014264733E+00 
    1.8605289414098634E+00 
    1.8273305384321548E+00 
    1.8024041976593148E+00 
    1.7857613977776157E+00 
    1.7774356086779166E+00 
    2.3910056763568197E+00 
    2.3455225472120356E+00 
    2.2940440911497011E+00 
    2.2413728101277237E+00 
    2.1890201173194401E+00 
    2.1377721613113945E+00 
    2.0884149270452896E+00 
    2.0418807248059854E+00 
    1.9969822265235033E+00 
    1.9461580446954565E+00 
    1.8936375186331877E+00 
    1.8522177642302815E+00 
    1.8190708433773959E+00 
    1.7941327331271701E+00 
    1.7774581861529148E+00 
    1.7691131998071787E+00 
    2.3192038502262649E+00 
    2.2940716757162289E+00 
    2.2561556190066616E+00 
    2.2122803418891683E+00 
    2.1654957766468677E+00 
    2.1177528007854480E+00 
    2.0709399838381941E+00 
    2.0259671879843419E+00 
    1.9811616727708399E+00 
    1.9293661214404627E+00 
    1.8768293945722294E+00 
    1.8357295412312362E+00 
    1.8026306070341298E+00 
    1.7776276347282429E+00 
    1.7608607896837891E+00 
    1.7524576214968890E+00 
    2.2586473839606769E+00 
    2.2414273083070380E+00 
    2.2123060210428918E+00 
    2.1755137682007741E+00 
    2.1339125147066174E+00 
    2.0902156023895104E+00 
    2.0464052339200753E+00 
    2.0030567585391865E+00 
    1.9574206884362866E+00 
    1.9040015849010428E+00 
    1.8521510747391996E+00 
    1.8112872322551861E+00 
    1.7781204234909278E+00 
    1.7529162979796125E+00 
    1.7359390312790084E+00 
    1.7274083278228327E+00 
    2.2020268698977783E+00 
    2.1890912175062387E+00 
    2.1655431886366663E+00 
    2.1339369705433473E+00 
    2.0970316057042853E+00 
    2.0573021033458687E+00 
    2.0162110547121190E+00 
    1.9738501657825069E+00 
    1.9258838360679977E+00 
    1.8704750556279652E+00 
    1.8200816902257444E+00 
    1.7791708933259831E+00 
    1.7456708022834424E+00 
    1.7200095363716392E+00 
    1.7026157584250763E+00 
    1.6938401847502076E+00 
    2.1484934426995013E+00 
    2.1378633695115963E+00 
    2.1178248948655298E+00 
    2.0902654231374065E+00 
    2.0573277227308209E+00 
    2.0207100873382209E+00 
    1.9813091446684648E+00 
    1.9380107916143809E+00 
    1.8859367301358458E+00 
    1.8296426625539313E+00 
    1.7809653111629893E+00 
    1.7396590953441375E+00 
    1.7054017459257165E+00 
    1.6788645098034540E+00 
    1.6607193645828839E+00 
    1.6515116166239432E+00 
    2.0976805811996719E+00 
    2.0885316334134072E+00 
    2.0710365504365567E+00 
    2.0464772554865465E+00 
    2.0162561856219217E+00 
    1.9813291545492491E+00 
    1.9415623138920808E+00 
    1.8941318631081610E+00 
    1.8379117446608388E+00 
    1.7830906450983204E+00 
    1.7353115671641590E+00 
    1.6931075111245197E+00 
    1.6574274060551317E+00 
    1.6293475080767523E+00 
    1.6099111684736298E+00 
    1.5999682193283826E+00 
    2.0501863618741605E+00 
    2.0420152559483409E+00 
    2.0260813999918508E+00 
    2.0031468490445388E+00 
    1.9739140256546597E+00 
    1.9380490226707008E+00 
    1.8941491310888072E+00 
    1.8413733340785015E+00 
    1.7852454221352174E+00 
    1.7326729476105494E+00 
    1.6841635834273816E+00 
    1.6400684247936972E+00 
    1.6018885888373315E+00 
    1.5712230769091458E+00 
    1.5496481630464363E+00 
    1.5384869483379948E+00 
    2.0049957922634367E+00 
    1.9971306324195097E+00 
    1.9812893057217862E+00 
    1.9575230854626884E+00 
    1.9259603767087903E+00 
    1.8859896641439928E+00 
    1.8379491231185807E+00 
    1.7852666232816501E+00 
    1.7318414969841860E+00 
    1.6794342106877826E+00 
    1.6286404824021403E+00 
    1.5811284398997545E+00 
    1.5388460082318798E+00 
    1.5040203216222989E+00 
    1.4789928060048254E+00 
    1.4658478381375626E+00 
    1.9546522341204573E+00 
    1.9463204651402117E+00 
    1.9295090009637157E+00 
    1.9041216623070052E+00 
    1.8705737205796509E+00 
    1.8297224569240371E+00 
    1.7831567894223430E+00 
    1.7327204831891503E+00 
    1.6794591832546124E+00 
    1.6246471545397971E+00 
    1.5698560681428986E+00 
    1.5169582226326530E+00 
    1.4683426609360888E+00 
    1.4270187078952958E+00 
    1.3964647590948605E+00 
    1.3800688678622626E+00 
    1.9023600087523245E+00 
    1.8938225199569907E+00 
    1.8769993055301311E+00 
    1.8523031784506485E+00 
    1.8202145187593535E+00 
    1.7810782584975540E+00 
    1.7354051159376680E+00 
    1.6842369311659005E+00 
    1.6286915146360750E+00 
    1.5698827629031746E+00 
    1.5091803147440441E+00 
    1.4484856700605782E+00 
    1.3905311189013829E+00 
    1.3392303213522536E+00 
    1.2997595948163365E+00 
    1.2778812143795537E+00 
    1.8607450134310088E+00 
    1.8524247482864677E+00 
    1.8359231313714930E+00 
    1.8114642730425421E+00 
    1.7793294574689715E+00 
    1.7397980005467180E+00 
    1.6932256369192615E+00 
    1.6401661894385353E+00 
    1.5812037923178073E+00 
    1.5170090226714228E+00 
    1.4485098748478129E+00 
    1.3773034690964197E+00 
    1.3061065905314766E+00 
    1.2396549365672278E+00 
    1.1855055595200044E+00 
    1.1538385506645157E+00 
    1.8275626148100517E+00 
    1.8192951377442970E+00 
    1.8028429786326237E+00 
    1.7783174912732851E+00 
    1.7458502701747292E+00 
    1.7055619820978130E+00 
    1.6575670727930349E+00 
    1.6020077411986251E+00 
    1.5389426469894842E+00 
    1.4684148359284430E+00 
    1.3905769110571267E+00 
    1.3061282747878888E+00 
    1.2169564167093370E+00 
    1.1277939362360243E+00 
    1.0487935938521926E+00 
    9.9814081036300417E-01 
    1.8026467483635353E+00 
    1.7943685750023071E+00 
    1.7778527810767475E+00 
    1.7531273964633554E+00 
    1.7202042034111549E+00 
    1.6790408670751886E+00 
    1.6295036459609480E+00 
    1.5713584293297382E+00 
    1.5041331087873717E+00 
    1.4271073626934723E+00 
    1.3392930835555168E+00 
    1.2396938970802120E+00 
    1.1278114364370542E+00 
    1.0057808010786446E+00 
    8.8375361659604357E-01 
    7.9179896819391393E-01 
    1.7860074636794865E+00 
    1.7776985072941698E+00 
    1.7610915417193060E+00 
    1.7361569308764178E+00 
    1.7028183161141968E+00 
    1.6609045303640124E+00 
    1.6100763600645513E+00 
    1.5497922919195386E+00 
    1.4791144644375240E+00 
    1.3965629417642045E+00 
    1.2998326864563063E+00 
    1.1855554579307448E+00 
    1.0488226289712772E+00 
    8.8376557957190927E-01 
    6.8863978781519619E-01 
    4.9349289542367786E-01 
    1.7776768523324606E+00 
    1.7693496630103454E+00 
    1.7526854780919880E+00 
    1.7276241973881534E+00 
    1.6940413339273204E+00 
    1.6516958975089033E+00 
    1.6001328331805371E+00 
    1.5386305331605237E+00 
    1.4659692284726327E+00 
    1.3801674189454676E+00 
    1.2779558643937494E+00 
    1.1538910924925716E+00 
    9.9817366284798847E-01 
    7.9181584370024882E-01 
    4.9349856962284011E-01 
    0.0000000000000000E+00 

SCALARS Saturarion double 1 
LOOKUP_TABLE default 

    1.0000000000000036E+00 
    9.5780127262333203E-01 
    8.8609258178569128E-01 
    7.8151742799518320E-01 
    6.9973819285959948E-01 
    6.3387573538416908E-01 
    5.8297132403504359E-01 
    5.4271898469462410E-01 
    4.9469274738787333E-01 
    3.6335672436553701E-01 
    2.6456867947780089E-02 
    1.0000056229842565E-06 
    1.0000000000020398E-06 
    9.9999999999999995E-07 
    9.9999999999999995E-07 
    9.9999999999999995E-07 
    9.5779942237731297E-01 
    9.1836240151977555E-01 
    8.4835830354722519E-01 
    7.6158429667177985E-01 
    6.8762324842286204E-01 
    6.2658990009170090E-01 
    5.7928138907664939E-01 
    5.4049615043210864E-01 
    4.9059081404651417E-01 
    3.4097935135543045E-01 
    1.5155171058829851E-02 
    1.6393980727920225E-06 
    1.0000000590555989E-06 
    1.0000000000000025E-06 
    9.9999999999999995E-07 
    9.9999999999999995E-07 
    8.8608772777607980E-01 
    8.4835422612822919E-01 
    7.8594555978462499E-01 
    7.1992764710208390E-01 
    6.6007411711271147E-01 
    6.1021463796170727E-01 
    5.7149542999025937E-01 
    5.3487059517656332E-01 
    4.8122965109598070E-01 
    2.9228791147310684E-01 
    4.4835892773212836E-03 
    1.2781902860172729E-06 
    1.0000000398880825E-06 
    9.9999999999999995E-07 
    9.9999999999999995E-07 
    9.9999999999999995E-07 
    7.8149775403385902E-01 
    7.6156745152294159E-01 
    7.1991631655054455E-01 
    6.7202373049295705E-01 
    6.2708571160601023E-01 
    5.9152281955412200E-01 
    5.6083491891619563E-01 
    5.2530911550682258E-01 
    4.6389859623904639E-01 
    2.1310048111652957E-01 
    4.6862995144938556E-04 
    1.0080411491272684E-06 
    1.0000000009123002E-06 
    9.9999999999999995E-07 
    9.9999999999999995E-07 
    9.9999999999999995E-07 
    6.9971300624963362E-01 
    6.8760464889666395E-01 
    6.6005929836598032E-01 
    6.2707762281675594E-01 
    5.9810584823476787E-01 
    5.7349047291845578E-01 
    5.4526832215592380E-01 
    5.0977284592703609E-01 
    4.2725602631546350E-01 
    1.2167090196390558E-01 
    1.1523163926937487E-04 
    1.0051783144576064E-06 
    1.0000000002946770E-06 
    9.9999999999999995E-07 
    9.9999999999999995E-07 
    9.9999999999999995E-07 
    6.3387930536128556E-01 
    6.2658447736082856E-01 
    6.1020542855635784E-01 
    5.9151440699985358E-01 
    5.7348450342122170E-01 
    5.5104434291297755E-01 
    5.2363695568650670E-01 
    4.8337298553520663E-01 
    3.3329699407961982E-01 
    2.5763991665778137E-02 
    2.6165738109611193E-05 
    1.0000403114786420E-06 
    1.0000000000000012E-06 
    9.9999999999999995E-07 
    9.9999999999999995E-07 
    9.9999999999999995E-07 
    5.8297882240979715E-01 
    5.7927690684104360E-01 
    5.7148385924171030E-01 
    5.6082245029824074E-01 
    5.4525661615748955E-01 
    5.2362932398527617E-01 
    4.9400557675420653E-01 
    4.2274716693573267E-01 
    1.5562467868351385E-01 
    3.6766350377130349E-04 
    1.0315520109744832E-06 
    1.0000000009521501E-06 
    9.9999999999999995E-07 
    9.9999999999999995E-07 
    9.9999999999999995E-07 
    9.9999999999999995E-07 
    5.4271553678306583E-01 
    5.4048552160071228E-01 
    5.3485094790952592E-01 
    5.2528517346694847E-01 
    5.0974430095768575E-01 
    4.8334072052905946E-01 
    4.2269200690168646E-01 
    2.3362825475534471E-01 
    1.2384506235214603E-02 
    4.2992060079829205E-06 
    1.0000009608968521E-06 
    1.0000000000000186E-06 
    9.9999999999999995E-07 
    9.9999999999999995E-07 
    9.9999999999999995E-07 
    9.9999999999999995E-07 
    4.9466892762310477E-01 
    4.9055964128082269E-01 
    4.8117391072866600E-01 
    4.6381575278711645E-01 
    4.2712156778479865E-01 
    3.3306098877454698E-01 
    1.5542778704628990E-01 
    1.2353543691021649E-02 
    8.9477440794453303E-06 
    1.0000050388752222E-06 
    1.0000000000001668E-06 
    9.9999999999999995E-07 
    9.9999999999999995E-07 
    9.9999999999999995E-07 
    9.9999999999999995E-07 
    9.9999999999999995E-07 
    3.6329297563799012E-01 
    3.4078041391357117E-01 
    2.9196812269796529E-01 
    2.1276101048371593E-01 
    1.2134699619740986E-01 
    2.5625246099527092E-02 
    3.6537866103019100E-04 
    4.2812727526567735E-06 
    1.0000049961813471E-06 
    1.0000000000000853E-06 
    9.9999999999999995E-07 
    9.9999999999999995E-07 
    9.9999999999999995E-07 
    9.9999999999999995E-07 
    9.9999999999999995E-07 
    9.9999999999999995E-07 
    2.6415224410487805E-02 
    1.5089368062179757E-02 
    4.4445013871270995E-03 
    4.6289337153748310E-04 
    1.1526409815869683E-04 
    2.5874782266295452E-05 
    1.0311141652585828E-06 
    1.0000009511417907E-06 
    1.0000000000001668E-06 
    9.9999999999999995E-07 
    9.9999999999999995E-07 
    9.9999999999999995E-07 
    9.9999999999999995E-07 
    9.9999999999999995E-07 
    9.9999999999999995E-07 
    9.9999999999999995E-07 
    1.0000056704736737E-06 
    1.6396500801660188E-06 
    1.2738771375756444E-06 
    1.0078896072644852E-06 
    1.0051516824749909E-06 
    1.0000393459464959E-06 
    1.0000000010120127E-06 
    1.0000000000000186E-06 
    9.9999999999999995E-07 
    9.9999999999999995E-07 
    9.9999999999999995E-07 
    9.9999999999999995E-07 
    9.9999999999999995E-07 
    9.9999999999999995E-07 
    9.9999999999999995E-07 
    9.9999999999999995E-07 
    1.0000000000020536E-06 
    1.0000000589603187E-06 
    1.0000000391171826E-06 
    1.0000000008978932E-06 
    1.0000000002879931E-06 
    1.0000000000000012E-06 
    9.9999999999999995E-07 
    9.9999999999999995E-07 
    9.9999999999999995E-07 
    9.9999999999999995E-07 
    9.9999999999999995E-07 
    9.9999999999999995E-07 
    9.9999999999999995E-07 
    9.9999999999999995E-07 
    9.9999999999999995E-07 
    9.9999999999999995E-07 
    9.9999999999999995E-07 
    1.0000000000000025E-06 
    9.9999999999999995E-07 
    1.0000000000000002E-06 
    9.9999999999999995E-07 
    9.9999999999999995E-07 
    9.9999999999999995E-07 
    9.9999999999999995E-07 
    9.9999999999999995E-07 
    9.9999999999999995E-07 
    9.9999999999999995E-07 
    9.9999999999999995E-07 
    9.9999999999999995E-07 
    9.9999999999999995E-07 
    9.9999999999999995E-07 
    9.9999999999999995E-07 
    9.9999999999999995E-07 
    9.9999999999999995E-07 
    9.9999999999999995E-07 
    9.9999999999999995E-07 
    9.9999999999999995E-07 
    9.9999999999999995E-07 
    9.9999999999999995E-07 
    9.9999999999999995E-07 
    9.9999999999999995E-07 
    9.9999999999999995E-07 
    9.9999999999999995E-07 
    9.9999999999999995E-07 
    9.9999999999999995E-07 
    9.9999999999999995E-07 
    9.9999999999999995E-07 
    9.9999999999999995E-07 
    9.9999999999999995E-07 
    9.9999999999999995E-07 
    9.9999999999999995E-07 
    9.9999999999999995E-07 
    9.9999999999999995E-07 
    9.9999999999999995E-07 
    9.9999999999999995E-07 
    9.9999999999999995E-07 
    9.9999999999999995E-07 
    9.9999999999999995E-07 
    9.9999999999999995E-07 
    9.9999999999999995E-07 
    9.9999999999999995E-07 
    9.9999999999999995E-07 
    9.9999999999999995E-07 
    1.0000002335340872E-06 
