# vtk DataFile Version 2.0
Pressure Field Data 
ASCII 
DATASET UNSTRUCTURED_GRID 

POINTS 289 double 

    0.0000000000000000E+00     0.0000000000000000E+00     0.0000000000000000E+00 
    1.0000000000000000E+00     0.0000000000000000E+00     0.0000000000000000E+00 
    1.0000000000000000E+00     1.0000000000000000E+00     0.0000000000000000E+00 
    0.0000000000000000E+00     1.0000000000000000E+00     0.0000000000000000E+00 
    6.2499999999872928E-02     0.0000000000000000E+00     0.0000000000000000E+00 
    1.2499999999977310E-01     0.0000000000000000E+00     0.0000000000000000E+00 
    1.8749999999959341E-01     0.0000000000000000E+00     0.0000000000000000E+00 
    2.4999999999941089E-01     0.0000000000000000E+00     0.0000000000000000E+00 
    3.1249999999922851E-01     0.0000000000000000E+00     0.0000000000000000E+00 
    3.7499999999904610E-01     0.0000000000000000E+00     0.0000000000000000E+00 
    4.3749999999886358E-01     0.0000000000000000E+00     0.0000000000000000E+00 
    4.9999999999869210E-01     0.0000000000000000E+00     0.0000000000000000E+00 
    5.6249999999884603E-01     0.0000000000000000E+00     0.0000000000000000E+00 
    6.2499999999901090E-01     0.0000000000000000E+00     0.0000000000000000E+00 
    6.8749999999917577E-01     0.0000000000000000E+00     0.0000000000000000E+00 
    7.4999999999934064E-01     0.0000000000000000E+00     0.0000000000000000E+00 
    8.1249999999950551E-01     0.0000000000000000E+00     0.0000000000000000E+00 
    8.7499999999967026E-01     0.0000000000000000E+00     0.0000000000000000E+00 
    9.3749999999983513E-01     0.0000000000000000E+00     0.0000000000000000E+00 
    1.0000000000000000E+00     6.2499999999872928E-02     0.0000000000000000E+00 
    1.0000000000000000E+00     1.2499999999977310E-01     0.0000000000000000E+00 
    1.0000000000000000E+00     1.8749999999959341E-01     0.0000000000000000E+00 
    1.0000000000000000E+00     2.4999999999941089E-01     0.0000000000000000E+00 
    1.0000000000000000E+00     3.1249999999922851E-01     0.0000000000000000E+00 
    1.0000000000000000E+00     3.7499999999904610E-01     0.0000000000000000E+00 
    1.0000000000000000E+00     4.3749999999886358E-01     0.0000000000000000E+00 
    1.0000000000000000E+00     4.9999999999869210E-01     0.0000000000000000E+00 
    1.0000000000000000E+00     5.6249999999884603E-01     0.0000000000000000E+00 
    1.0000000000000000E+00     6.2499999999901090E-01     0.0000000000000000E+00 
    1.0000000000000000E+00     6.8749999999917577E-01     0.0000000000000000E+00 
    1.0000000000000000E+00     7.4999999999934064E-01     0.0000000000000000E+00 
    1.0000000000000000E+00     8.1249999999950551E-01     0.0000000000000000E+00 
    1.0000000000000000E+00     8.7499999999967026E-01     0.0000000000000000E+00 
    1.0000000000000000E+00     9.3749999999983513E-01     0.0000000000000000E+00 
    9.3749999999973976E-01     1.0000000000000000E+00     0.0000000000000000E+00 
    8.7499999999950118E-01     1.0000000000000000E+00     0.0000000000000000E+00 
    8.1249999999991318E-01     1.0000000000000000E+00     0.0000000000000000E+00 
    7.5000000000034706E-01     1.0000000000000000E+00     0.0000000000000000E+00 
    6.8750000000078049E-01     1.0000000000000000E+00     0.0000000000000000E+00 
    6.2500000000121403E-01     1.0000000000000000E+00     0.0000000000000000E+00 
    5.6250000000164757E-01     1.0000000000000000E+00     0.0000000000000000E+00 
    5.0000000000205946E-01     1.0000000000000000E+00     0.0000000000000000E+00 
    4.3750000000182099E-01     1.0000000000000000E+00     0.0000000000000000E+00 
    3.7500000000156092E-01     1.0000000000000000E+00     0.0000000000000000E+00 
    3.1250000000130068E-01     1.0000000000000000E+00     0.0000000000000000E+00 
    2.5000000000104050E-01     1.0000000000000000E+00     0.0000000000000000E+00 
    1.8750000000078040E-01     1.0000000000000000E+00     0.0000000000000000E+00 
    1.2500000000052031E-01     1.0000000000000000E+00     0.0000000000000000E+00 
    6.2500000000260125E-02     1.0000000000000000E+00     0.0000000000000000E+00 
    0.0000000000000000E+00     9.3749999999973976E-01     0.0000000000000000E+00 
    0.0000000000000000E+00     8.7499999999950118E-01     0.0000000000000000E+00 
    0.0000000000000000E+00     8.1249999999991318E-01     0.0000000000000000E+00 
    0.0000000000000000E+00     7.5000000000034706E-01     0.0000000000000000E+00 
    0.0000000000000000E+00     6.8750000000078049E-01     0.0000000000000000E+00 
    0.0000000000000000E+00     6.2500000000121403E-01     0.0000000000000000E+00 
    0.0000000000000000E+00     5.6250000000164757E-01     0.0000000000000000E+00 
    0.0000000000000000E+00     5.0000000000205946E-01     0.0000000000000000E+00 
    0.0000000000000000E+00     4.3750000000182099E-01     0.0000000000000000E+00 
    0.0000000000000000E+00     3.7500000000156092E-01     0.0000000000000000E+00 
    0.0000000000000000E+00     3.1250000000130068E-01     0.0000000000000000E+00 
    0.0000000000000000E+00     2.5000000000104050E-01     0.0000000000000000E+00 
    0.0000000000000000E+00     1.8750000000078040E-01     0.0000000000000000E+00 
    0.0000000000000000E+00     1.2500000000052031E-01     0.0000000000000000E+00 
    0.0000000000000000E+00     6.2500000000260125E-02     0.0000000000000000E+00 
    6.2499999999897131E-02     6.2500000000235922E-02     0.0000000000000000E+00 
    6.2499999999921327E-02     1.2500000000047351E-01     0.0000000000000000E+00 
    6.2499999999945530E-02     1.8750000000070621E-01     0.0000000000000000E+00 
    6.2499999999969733E-02     2.5000000000093858E-01     0.0000000000000000E+00 
    6.2499999999993928E-02     3.1250000000117117E-01     0.0000000000000000E+00 
    6.2500000000018124E-02     3.7500000000140382E-01     0.0000000000000000E+00 
    6.2500000000042327E-02     4.3750000000163619E-01     0.0000000000000000E+00 
    6.2500000000066530E-02     5.0000000000184897E-01     0.0000000000000000E+00 
    6.2500000000090733E-02     5.6250000000147260E-01     0.0000000000000000E+00 
    6.2500000000114922E-02     6.2500000000107636E-01     0.0000000000000000E+00 
    6.2500000000139125E-02     6.8750000000068034E-01     0.0000000000000000E+00 
    6.2500000000163328E-02     7.5000000000028411E-01     0.0000000000000000E+00 
    6.2500000000187531E-02     8.1249999999988787E-01     0.0000000000000000E+00 
    6.2500000000211720E-02     8.7499999999951172E-01     0.0000000000000000E+00 
    6.2500000000235922E-02     9.3749999999974565E-01     0.0000000000000000E+00 
    1.2499999999981980E-01     6.2500000000211733E-02     0.0000000000000000E+00 
    1.2499999999986650E-01     1.2500000000042691E-01     0.0000000000000000E+00 
    1.2499999999991319E-01     1.8750000000063199E-01     0.0000000000000000E+00 
    1.2499999999995989E-01     2.5000000000083678E-01     0.0000000000000000E+00 
    1.2500000000000661E-01     3.1250000000104172E-01     0.0000000000000000E+00 
    1.2500000000005329E-01     3.7500000000124661E-01     0.0000000000000000E+00 
    1.2500000000010000E-01     4.3750000000145117E-01     0.0000000000000000E+00 
    1.2500000000014669E-01     5.0000000000163858E-01     0.0000000000000000E+00 
    1.2500000000019340E-01     5.6250000000129741E-01     0.0000000000000000E+00 
    1.2500000000024011E-01     6.2500000000093847E-01     0.0000000000000000E+00 
    1.2500000000028680E-01     6.8750000000057998E-01     0.0000000000000000E+00 
    1.2500000000033351E-01     7.5000000000022127E-01     0.0000000000000000E+00 
    1.2500000000038020E-01     8.1249999999986211E-01     0.0000000000000000E+00 
    1.2500000000042691E-01     8.7499999999952238E-01     0.0000000000000000E+00 
    1.2500000000047359E-01     9.3749999999975164E-01     0.0000000000000000E+00 
    1.8749999999966760E-01     6.2500000000187531E-02     0.0000000000000000E+00 
    1.8749999999974179E-01     1.2500000000038020E-01     0.0000000000000000E+00 
    1.8749999999981601E-01     1.8750000000055780E-01     0.0000000000000000E+00 
    1.8749999999989009E-01     2.5000000000073502E-01     0.0000000000000000E+00 
    1.8749999999996431E-01     3.1250000000091221E-01     0.0000000000000000E+00 
    1.8750000000003850E-01     3.7500000000108941E-01     0.0000000000000000E+00 
    1.8750000000011269E-01     4.3750000000126649E-01     0.0000000000000000E+00 
    1.8750000000018691E-01     5.0000000000142808E-01     0.0000000000000000E+00 
    1.8750000000026110E-01     5.6250000000112244E-01     0.0000000000000000E+00 
    1.8750000000033529E-01     6.2500000000080080E-01     0.0000000000000000E+00 
    1.8750000000040951E-01     6.8750000000047962E-01     0.0000000000000000E+00 
    1.8750000000048361E-01     7.5000000000015843E-01     0.0000000000000000E+00 
    1.8750000000055780E-01     8.1249999999983680E-01     0.0000000000000000E+00 
    1.8750000000063199E-01     8.7499999999953304E-01     0.0000000000000000E+00 
    1.8750000000070621E-01     9.3749999999975764E-01     0.0000000000000000E+00 
    2.4999999999951281E-01     6.2500000000163314E-02     0.0000000000000000E+00 
    2.4999999999961461E-01     1.2500000000033351E-01     0.0000000000000000E+00 
    2.4999999999971650E-01     1.8750000000048361E-01     0.0000000000000000E+00 
    2.4999999999981831E-01     2.5000000000063310E-01     0.0000000000000000E+00 
    2.4999999999992020E-01     3.1250000000078260E-01     0.0000000000000000E+00 
    2.5000000000002198E-01     3.7500000000093209E-01     0.0000000000000000E+00 
    2.5000000000012390E-01     4.3750000000108180E-01     0.0000000000000000E+00 
    2.5000000000022571E-01     5.0000000000121769E-01     0.0000000000000000E+00 
    2.5000000000032763E-01     5.6250000000094724E-01     0.0000000000000000E+00 
    2.5000000000042938E-01     6.2500000000066314E-01     0.0000000000000000E+00 
    2.5000000000053119E-01     6.8750000000037925E-01     0.0000000000000000E+00 
[...]
CELL_DATA 256 
SCALARS Pressure double 1 
LOOKUP_TABLE default 

    2.3230587493834651E+00 
    2.2193114748958558E+00 
    2.1526606209845358E+00 
    2.0999795695792236E+00 
    2.0529596978381841E+00 
    2.0100931384078402E+00 
    1.9699164875033590E+00 
    1.9321192903170255E+00 
    1.8970737480624602E+00 
    1.8652052220334376E+00 
    1.8366657029118305E+00 
    1.8097527400318580E+00 
    1.7823807683195614E+00 
    1.7597108331688327E+00 
    1.7451684562091658E+00 
    1.7378592661168970E+00 
    2.2193292206620554E+00 
    2.1765535091129928E+00 
    2.1304772954902256E+00 
    2.0853678760168597E+00 
    2.0422950689837260E+00 
    2.0015608104171858E+00 
    1.9624460828168810E+00 
    1.9253139176252989E+00 
    1.8906408175325837E+00 
    1.8589090038582712E+00 
    1.8303560413899849E+00 
    1.8032052624911044E+00 
    1.7755273153569120E+00 
    1.7526626967274679E+00 
    1.7379499406600074E+00 
    1.7305532445599636E+00 
    2.1527096734918176E+00 
    2.1305081878439194E+00 
    2.0977435511366358E+00 
    2.0609504468159088E+00 
    2.0232651407174105E+00 
    1.9854958835522802E+00 
    1.9481304401519528E+00 
    1.9120892551847952E+00 
    1.8779919011204520E+00 
    1.8464928390471178E+00 
    1.8178467124779880E+00 
    1.7901645460232460E+00 
    1.7618341278890228E+00 
    1.7385347865816232E+00 
    1.7234536464911936E+00 
    1.7158628667635043E+00 
    2.1000724387704439E+00 
    2.0854382127966216E+00 
    2.0609871098970216E+00 
    2.0311076027869115E+00 
    1.9981138118074402E+00 
    1.9632798854320943E+00 
    1.9278886269151068E+00 
    1.8930590017100681E+00 
    1.8596005924761732E+00 
    1.8282607834156537E+00 
    1.7993142224903063E+00 
    1.7707087148722185E+00 
    1.7412675004100011E+00 
    1.7172093434524984E+00 
    1.7015097998965538E+00 
    1.6935914287422529E+00 
    2.0530901719107564E+00 
    2.0423965916073463E+00 
    2.0233340713215733E+00 
    1.9981485886265118E+00 
    1.9686343866739220E+00 
    1.9363777277533607E+00 
    1.9028225398765604E+00 
    1.8690881051713903E+00 
    1.8360845664717644E+00 
    1.8046081215199519E+00 
    1.7750016011970806E+00 
    1.7449056512768433E+00 
    1.7137310459540331E+00 
    1.6884802159590460E+00 
    1.6718337524614724E+00 
    1.6634136896566545E+00 
    2.0102409615124088E+00 
    2.0016882558358606E+00 
    1.9855966371462921E+00 
    1.9633497155531683E+00 
    1.9364145022936547E+00 
    1.9062356362107804E+00 
    1.8741114686324065E+00 
    1.8410930596401660E+00 
    1.8081053528716227E+00 
    1.7759959822113489E+00 
    1.7451500222470753E+00 
    1.7127689332731464E+00 
    1.6790400881722534E+00 
    1.6520086986475520E+00 
    1.6339799551959784E+00 
    1.6248311085729321E+00 
    1.9700919521315312E+00 
    1.9626059234289550E+00 
    1.9482652193837160E+00 
    1.9279919760365885E+00 
    1.9028906851681100E+00 
    1.8741434667249530E+00 
    1.8428543129544002E+00 
    1.8099507455047965E+00 
    1.7763377701229033E+00 
    1.7428824103334655E+00 
    1.7099806589181128E+00 
    1.6742221892745859E+00 
    1.6368338288605928E+00 
    1.6072495848475559E+00 
    1.5872740537780163E+00 
    1.5770922465484893E+00 
    1.9323219216609109E+00 
    1.9255003445017360E+00 
    1.9122509182448304E+00 
    1.8931912746629749E+00 
    1.8691879126409716E+00 
    1.8411582475877410E+00 
    1.8099827994269444E+00 
    1.7764710373436576E+00 
    1.7414353302114511E+00 
    1.7057310217252870E+00 
    1.6696524036224019E+00 
    1.6290022387275214E+00 
    1.5865484534508734E+00 
    1.5534777102601902E+00 
    1.5308161628856889E+00 
    1.5191778590722504E+00 
    1.8972978468791262E+00 
    1.8908495726265655E+00 
    1.8781788851384651E+00 
    1.8597609936332895E+00 
    1.8362141541269053E+00 
    1.8082011231165374E+00 
    1.7764024003404457E+00 
    1.7414677456034422E+00 
    1.7040747645685028E+00 
    1.6649450808954851E+00 
    1.6239711557671848E+00 
    1.5762494970473637E+00 
    1.5273194169793747E+00 
    1.4897283579123837E+00 
    1.4633586546921529E+00 
    1.4496296708147969E+00 
    1.8654480353422238E+00 
    1.8591391517910754E+00 
    1.8467042000083937E+00 
    1.8284474525469858E+00 
    1.8047658310542418E+00 
    1.7761222487217616E+00 
    1.7429790190753220E+00 
    1.7057953586751309E+00 
    1.6649769527497051E+00 
    1.6208526167337600E+00 
    1.5721104225504541E+00 
    1.5146271152245798E+00 
    1.4584929997009615E+00 
    1.4149876585541321E+00 
    1.3832709365758915E+00 
    1.3663586503013800E+00 
    1.8369265408336342E+00 
    1.8306062431406898E+00 
    1.8180795457242855E+00 
    1.7995238089106331E+00 
    1.7751838539585163E+00 
    1.7453031292187919E+00 
    1.7101033150278970E+00 
    1.6697427179255799E+00 
    1.6240273027826715E+00 
    1.5721343462460566E+00 
    1.5119350108658021E+00 
    1.4442214352273790E+00 
    1.3808994352224619E+00 
    1.3285118592924818E+00 
    1.2883574368370814E+00 
    1.2661629164987014E+00 
    1.8100261477697552E+00 
    1.8034679065007695E+00 
    1.7904096034953267E+00 
    1.7709309188624545E+00 
    1.7451015434550246E+00 
    1.7129359304141347E+00 
    1.6743579161287445E+00 
    1.6291065135550216E+00 
    1.5763210281009699E+00 
    1.5146695645512691E+00 
    1.4442422987556052E+00 
    1.3694438827398019E+00 
    1.2965723456042402E+00 
    1.2298609938433205E+00 
    1.1755339923086090E+00 
    1.1438002719869349E+00 
    1.7826688879525174E+00 
    1.7758049678039345E+00 
    1.7620946224218945E+00 
    1.7415058715693081E+00 
    1.7139439313901399E+00 
    1.6792249142139788E+00 
    1.6369888622415254E+00 
    1.5866742243483569E+00 
    1.5274158718661219E+00 
    1.4585633809473968E+00 
    1.3809463400428190E+00 
    1.2965960490649229E+00 
    1.2077133268813460E+00 
    1.1188485256907728E+00 
    1.0401463019407204E+00 
    9.8971799646335235E-01 
    1.7600132587246811E+00 
    1.7529559470703220E+00 
    1.7388129612159264E+00 
    1.7174677207153051E+00 
    1.6887153982851930E+00 
    1.6522180480780266E+00 
    1.6074306101812337E+00 
    1.5536300846417666E+00 
    1.4898514187588092E+00 
    1.4150823076783394E+00 
    1.3285787817736494E+00 
    1.2299029486184800E+00 
    1.1188673963687492E+00 
    9.9768552208745520E-01 
    8.7650760618083057E-01 
    7.8521706471467434E-01 
    1.7454749032225156E+00 
    1.7382478484913875E+00 
    1.7237374731753317E+00 
    1.7017749657961834E+00 
    1.6720769764930474E+00 
    1.6341989408226303E+00 
    1.5874657847045843E+00 
    1.5309799366041086E+00 
    1.4634939995253193E+00 
    1.3833783806227316E+00 
    1.2884368063557901E+00 
    1.1755880773562002E+00 
    1.0401777494153603E+00 
    8.7652057104283820E-01 
    6.8297968934097086E-01 
    4.8941415762834506E-01 
    1.7381589828577142E+00 
    1.7308454920091281E+00 
    1.7161422339932668E+00 
    1.6938532292481006E+00 
    1.6636544707902075E+00 
    1.6250487683195283E+00 
    1.5772834651399568E+00 
    1.5193416962915340E+00 
    1.4497657675651687E+00 
    1.3664675922596479E+00 
    1.2662447209046372E+00 
    1.1438575745140098E+00 
    9.8975375484738126E-01 
    7.8523542776709832E-01 
    4.8942033511135768E-01 
    0.0000000000000000E+00 

SCALARS Saturarion double 1 
LOOKUP_TABLE default 

    1.0000000000000007E+00 
    9.7273476434215267E-01 
    9.2785715597293195E-01 
    8.5068252585701520E-01 
    7.8071076694613351E-01 
    7.1999514484548177E-01 
    6.6614877133219086E-01 
    6.1880480264387761E-01 
    5.7808373892214016E-01 
    5.4294055454951495E-01 
    5.0527534600756852E-01 
    4.2213588758532433E-01 
    1.0352629484100051E-01 
    1.0000004872176334E-06 
    1.0000000000003735E-06 
    9.9999999999999995E-07 
    9.7273306087069045E-01 
    9.4633470042277079E-01 
    8.9991938019043505E-01 
    8.3296008303375701E-01 
    7.6996644591671259E-01 
    7.1277218153649280E-01 
    6.6135496817838746E-01 
    6.1570975355344004E-01 
    5.7634496860738194E-01 
    5.4215112389681708E-01 
    5.0463179361087795E-01 
    4.1944256075155134E-01 
    9.8445414490298408E-02 
    2.0652427331080658E-06 
    1.0000003240590160E-06 
    1.0000000000000599E-06 
    9.2785011356227920E-01 
    8.9991592191111347E-01 
    8.5125168030899023E-01 
    7.9790962525668685E-01 
    7.4542388580326158E-01 
    6.9548513367722264E-01 
    6.4937486115501775E-01 
    6.0809403127177974E-01 
    5.7226068570425870E-01 
    5.3977838941486966E-01 
    5.0225412846337825E-01 
    4.1509845751722663E-01 
    8.9536042317786960E-02 
    4.5520617178998522E-06 
    1.0000015485504586E-06 
    1.0000000000002450E-06 
    8.5066075906431027E-01 
    8.3294135618334209E-01 
    7.9789730905930556E-01 
    7.5688468327142122E-01 
    7.1413950078948396E-01 
    6.7209553983046844E-01 
    6.3272454426037483E-01 
    5.9764169242489862E-01 
    5.6653149858240626E-01 
    5.3612484663944548E-01 
    4.9917313245167361E-01 
    4.0891127148013662E-01 
    7.9430977722232066E-02 
    5.3394855409145372E-06 
    1.0000030155751140E-06 
    1.0000000000001143E-06 
    7.8067653217148614E-01 
    7.6994447751503059E-01 
    7.4540688075316774E-01 
    7.1412861454279930E-01 
    6.8018873346696762E-01 
    6.4599607559401240E-01 
    6.1418831998270351E-01 
    5.8622328006956270E-01 
    5.5958873081936489E-01 
    5.3145972777803252E-01 
    4.9532673854747944E-01 
    4.0052127895342687E-01 
    6.6659572477706791E-02 
    8.9978079310835909E-06 
    1.0000044355767723E-06 
    1.0000000000004148E-06 
    7.2000731990137024E-01 
    7.1277107398973405E-01 
    6.9547714487467560E-01 
    6.7208628317120711E-01 
    6.4598871295436078E-01 
    6.2010660295553643E-01 
    5.9632913098304985E-01 
    5.7423720258235045E-01 
    5.5081171183341204E-01 
    5.2526274671323847E-01 
    4.9034709274231109E-01 
    3.8957837734101275E-01 
    5.3219058917921870E-02 
    6.2116336009541156E-06 
    1.0000049319238482E-06 
    9.9999999999999974E-07 
    6.6617054473250636E-01 
    6.6135926688651681E-01 
    6.4936784931146330E-01 
    6.3271518342500321E-01 
    6.1417774929285185E-01 
    5.9632085533123180E-01 
    5.7906380566144089E-01 
    5.6021110676844088E-01 
    5.3947152966437906E-01 
    5.1720998605184476E-01 
    4.8423952211341981E-01 
    3.7758952134674850E-01 
    4.3151024720320744E-02 
    5.8781132772955758E-06 
    1.0000039821490227E-06 
    9.9999999999999995E-07 
    6.1881065485399289E-01 
    6.1570517024245164E-01 
    6.0807881727507540E-01 
    5.9762429684142382E-01 
    5.8620657269400644E-01 
    5.7422196791524338E-01 
    5.6020222117673035E-01 
    5.4365831475626780E-01 
    5.2624794853570123E-01 
    5.0732768300037701E-01 
    4.7608667298805563E-01 
    3.6199992534857706E-01 
    3.0993789040162610E-02 
    6.3688620492364188E-06 
    1.0000034030546594E-06 
    9.9999999999999995E-07 
    5.7807969468913534E-01 
    5.7633178954925901E-01 
    5.7223708208125101E-01 
    5.6650423093449842E-01 
    5.5956163303333328E-01 
    5.5078747855753307E-01 
    5.3945515797715538E-01 
    5.2624044586018681E-01 
    5.1189240566575123E-01 
    4.9507344116942742E-01 
    4.6351489497961945E-01 
    3.2891624285359777E-01 
    1.6182144838605736E-02 
    4.6160309674358727E-06 
    1.0000013341859582E-06 
    1.0000000000000002E-06 
    5.4295898571409240E-01 
    5.4214417624748901E-01 
    5.3975573622686768E-01 
    5.3609199267883356E-01 
    5.3142263582303428E-01 
    5.2522684156265542E-01 
    5.1718190384716478E-01 
    5.0730777088375734E-01 
    4.9505985486686049E-01 
    4.7808103440121141E-01 
    4.4177617180010348E-01 
    2.6307281625894596E-01 
    3.4034968468431514E-03 
    1.2756822087844471E-06 
    1.0000000349882057E-06 
    1.0000000000000004E-06 
    5.0529800799258406E-01 
    5.0462923123410108E-01 
    5.0222415146199118E-01 
    4.9912071473874697E-01 
    4.9526181268098296E-01 
    4.9028005626329768E-01 
    4.8416939703744050E-01 
    4.7601698607055792E-01 
    4.6345447033862941E-01 
    4.4170123726687022E-01 
    3.8429017159531825E-01 
    1.4482396761575844E-01 
    2.4636231755480490E-04 
    1.0286936715365596E-06 
    1.0000000000000376E-06 
    9.9999999999999995E-07 
    4.2211285029843881E-01 
    4.1936974669380045E-01 
    4.1495441145797313E-01 
    4.0870369762445269E-01 
    4.0024782490702149E-01 
    3.8925615392627089E-01 
    3.7724780562086885E-01 
    3.6160482513650760E-01 
    3.2845427167565999E-01 
    2.6259714589801203E-01 
    1.4460351053164738E-01 
    8.7202209003083356E-03 
    2.5698476024425299E-06 
    1.0000001102285902E-06 
    1.0000000000000146E-06 
    9.9999999999999995E-07 
    1.0339727269623311E-01 
    9.8224245157911644E-02 
    8.9212064147401376E-02 
    7.9032232950230139E-02 
    6.6236875298633535E-02 
    5.2808746753613377E-02 
    4.2771761895556301E-02 
    3.0693017495713910E-02 
    1.5978224069298490E-02 
    3.3478672793666479E-03 
    2.4469336199373369E-04 
    2.5686617518260624E-06 
    1.0000003955252077E-06 
    1.0000000000002090E-06 
    9.9999999999999995E-07 
    9.9999999999999995E-07 
    1.0000005012582785E-06 
    2.0885402329588670E-06 
    4.5853744740433746E-06 
    5.3486625292315450E-06 
    8.9553574650224616E-06 
    6.1582320152189271E-06 
    5.8227203734388718E-06 
    6.2717233605078721E-06 
    4.5364748956288159E-06 
    1.2667629023146071E-06 
    1.0284696364679888E-06 
    1.0000001095472464E-06 
    1.0000000000002077E-06 
    9.9999999999999995E-07 
    9.9999999999999995E-07 
    9.9999999999999995E-07 
    1.0000000000003822E-06 
    1.0000003310139928E-06 
    1.0000015604754427E-06 
    1.0000030987849774E-06 
    1.0000043698545222E-06 
    1.0000048111234400E-06 
    1.0000038877039691E-06 
    1.0000033228875837E-06 
    1.0000012836391184E-06 
    1.0000000335529689E-06 
    1.0000000000000262E-06 
    1.0000000000000146E-06 
    9.9999999999999995E-07 
    9.9999999999999995E-07 
    9.9999999999999995E-07 
    9.9999999999999995E-07 
    9.9999999999999995E-07 
    1.0000000000000607E-06 
    1.0000000000002458E-06 
    1.0000000000001103E-06 
    1.0000000000003942E-06 
    9.9999999999999974E-07 
    9.9999999999999995E-07 
    9.9999999999999995E-07 
    1.0000000000000002E-06 
    9.9999999999999995E-07 
    9.9999999999999995E-07 
    9.9999999999999995E-07 
    9.9999999999999995E-07 
    9.9999999999999995E-07 
    9.9999999999999995E-07 
    1.0000004039586184E-06 
