# vtk DataFile Version 2.0
Pressure Field Data 
ASCII 
DATASET UNSTRUCTURED_GRID 

POINTS 289 double 

    0.0000000000000000E+00     0.0000000000000000E+00     0.0000000000000000E+00 
    1.0000000000000000E+00     0.0000000000000000E+00     0.0000000000000000E+00 
    1.0000000000000000E+00     1.0000000000000000E+00     0.0000000000000000E+00 
    0.0000000000000000E+00     1.0000000000000000E+00     0.0000000000000000E+00 
    6.2499999999872928E-02     0.0000000000000000E+00     0.0000000000000000E+00 
    1.2499999999977310E-01     0.0000000000000000E+00     0.0000000000000000E+00 
    1.8749999999959341E-01     0.0000000000000000E+00     0.0000000000000000E+00 
    2.4999999999941089E-01     0.0000000000000000E+00     0.0000000000000000E+00 
    3.1249999999922851E-01     0.0000000000000000E+00     0.0000000000000000E+00 
    3.7499999999904610E-01     0.0000000000000000E+00     0.0000000000000000E+00 
    4.3749999999886358E-01     0.0000000000000000E+00     0.0000000000000000E+00 
    4.9999999999869210E-01     0.0000000000000000E+00     0.0000000000000000E+00 
    5.6249999999884603E-01     0.0000000000000000E+00     0.0000000000000000E+00 
    6.2499999999901090E-01     0.0000000000000000E+00     0.0000000000000000E+00 
    6.8749999999917577E-01     0.0000000000000000E+00     0.0000000000000000E+00 
    7.4999999999934064E-01     0.0000000000000000E+00     0.0000000000000000E+00 
    8.1249999999950551E-01     0.0000000000000000E+00     0.0000000000000000E+00 
    8.7499999999967026E-01     0.0000000000000000E+00     0.0000000000000000E+00 
    9.3749999999983513E-01     0.0000000000000000E+00     0.0000000000000000E+00 
    1.0000000000000000E+00     6.2499999999872928E-02     0.0000000000000000E+00 
    1.0000000000000000E+00     1.2499999999977310E-01     0.0000000000000000E+00 
    1.0000000000000000E+00     1.8749999999959341E-01     0.0000000000000000E+00 
    1.0000000000000000E+00     2.4999999999941089E-01     0.0000000000000000E+00 
    1.0000000000000000E+00     3.1249999999922851E-01     0.0000000000000000E+00 
    1.0000000000000000E+00     3.7499999999904610E-01     0.0000000000000000E+00 
    1.0000000000000000E+00     4.3749999999886358E-01     0.0000000000000000E+00 
    1.0000000000000000E+00     4.9999999999869210E-01     0.0000000000000000E+00 
    1.0000000000000000E+00     5.6249999999884603E-01     0.0000000000000000E+00 
    1.0000000000000000E+00     6.2499999999901090E-01     0.0000000000000000E+00 
    1.0000000000000000E+00     6.8749999999917577E-01     0.0000000000000000E+00 
    1.0000000000000000E+00     7.4999999999934064E-01     0.0000000000000000E+00 
    1.0000000000000000E+00     8.1249999999950551E-01     0.0000000000000000E+00 
    1.0000000000000000E+00     8.7499999999967026E-01     0.0000000000000000E+00 
    1.0000000000000000E+00     9.3749999999983513E-01     0.0000000000000000E+00 
    9.3749999999973976E-01     1.0000000000000000E+00     0.0000000000000000E+00 
    8.7499999999950118E-01     1.0000000000000000E+00     0.0000000000000000E+00 
    8.1249999999991318E-01     1.0000000000000000E+00     0.0000000000000000E+00 
    7.5000000000034706E-01     1.0000000000000000E+00     0.0000000000000000E+00 
    6.8750000000078049E-01     1.0000000000000000E+00     0.0000000000000000E+00 
    6.2500000000121403E-01     1.0000000000000000E+00     0.0000000000000000E+00 
    5.6250000000164757E-01     1.0000000000000000E+00     0.0000000000000000E+00 
    5.0000000000205946E-01     1.0000000000000000E+00     0.0000000000000000E+00 
    4.3750000000182099E-01     1.0000000000000000E+00     0.0000000000000000E+00 
    3.7500000000156092E-01     1.0000000000000000E+00     0.0000000000000000E+00 
    3.1250000000130068E-01     1.0000000000000000E+00     0.0000000000000000E+00 
    2.5000000000104050E-01     1.0000000000000000E+00     0.0000000000000000E+00 
    1.8750000000078040E-01     1.0000000000000000E+00     0.0000000000000000E+00 
    1.2500000000052031E-01     1.0000000000000000E+00     0.0000000000000000E+00 
    6.2500000000260125E-02     1.0000000000000000E+00     0.0000000000000000E+00 
    0.0000000000000000E+00     9.3749999999973976E-01     0.0000000000000000E+00 
    0.0000000000000000E+00     8.7499999999950118E-01     0.0000000000000000E+00 
    0.0000000000000000E+00     8.1249999999991318E-01     0.0000000000000000E+00 
    0.0000000000000000E+00     7.5000000000034706E-01     0.0000000000000000E+00 
    0.0000000000000000E+00     6.8750000000078049E-01     0.0000000000000000E+00 
    0.0000000000000000E+00     6.2500000000121403E-01     0.0000000000000000E+00 
    0.0000000000000000E+00     5.6250000000164757E-01     0.0000000000000000E+00 
    0.0000000000000000E+00     5.0000000000205946E-01     0.0000000000000000E+00 
    0.0000000000000000E+00     4.3750000000182099E-01     0.0000000000000000E+00 
    0.0000000000000000E+00     3.7500000000156092E-01     0.0000000000000000E+00 
    0.0000000000000000E+00     3.1250000000130068E-01     0.0000000000000000E+00 
    0.0000000000000000E+00     2.5000000000104050E-01     0.0000000000000000E+00 
    0.0000000000000000E+00     1.8750000000078040E-01     0.0000000000000000E+00 
    0.0000000000000000E+00     1.2500000000052031E-01     0.0000000000000000E+00 
    0.0000000000000000E+00     6.2500000000260125E-02     0.0000000000000000E+00 
    6.2499999999897131E-02     6.2500000000235922E-02     0.0000000000000000E+00 
    6.2499999999921327E-02     1.2500000000047351E-01     0.0000000000000000E+00 
    6.2499999999945530E-02     1.8750000000070621E-01     0.0000000000000000E+00 
    6.2499999999969733E-02     2.5000000000093858E-01     0.0000000000000000E+00 
    6.2499999999993928E-02     3.1250000000117117E-01     0.0000000000000000E+00 
    6.2500000000018124E-02     3.7500000000140382E-01     0.0000000000000000E+00 
    6.2500000000042327E-02     4.3750000000163619E-01     0.0000000000000000E+00 
    6.2500000000066530E-02     5.0000000000184897E-01     0.0000000000000000E+00 
    6.2500000000090733E-02     5.6250000000147260E-01     0.0000000000000000E+00 
    6.2500000000114922E-02     6.2500000000107636E-01     0.0000000000000000E+00 
    6.2500000000139125E-02     6.8750000000068034E-01     0.0000000000000000E+00 
    6.2500000000163328E-02     7.5000000000028411E-01     0.0000000000000000E+00 
    6.2500000000187531E-02     8.1249999999988787E-01     0.0000000000000000E+00 
    6.2500000000211720E-02     8.7499999999951172E-01     0.0000000000000000E+00 
    6.2500000000235922E-02     9.3749999999974565E-01     0.0000000000000000E+00 
    1.2499999999981980E-01     6.2500000000211733E-02     0.0000000000000000E+00 
    1.2499999999986650E-01     1.2500000000042691E-01     0.0000000000000000E+00 
    1.2499999999991319E-01     1.8750000000063199E-01     0.0000000000000000E+00 
    1.2499999999995989E-01     2.5000000000083678E-01     0.0000000000000000E+00 
    1.2500000000000661E-01     3.1250000000104172E-01     0.0000000000000000E+00 
    1.2500000000005329E-01     3.7500000000124661E-01     0.0000000000000000E+00 
    1.2500000000010000E-01     4.3750000000145117E-01     0.0000000000000000E+00 
    1.2500000000014669E-01     5.0000000000163858E-01     0.0000000000000000E+00 
    1.2500000000019340E-01     5.6250000000129741E-01     0.0000000000000000E+00 
    1.2500000000024011E-01     6.2500000000093847E-01     0.0000000000000000E+00 
    1.2500000000028680E-01     6.8750000000057998E-01     0.0000000000000000E+00 
    1.2500000000033351E-01     7.5000000000022127E-01     0.0000000000000000E+00 
    1.2500000000038020E-01     8.1249999999986211E-01     0.0000000000000000E+00 
    1.2500000000042691E-01     8.7499999999952238E-01     0.0000000000000000E+00 
    1.2500000000047359E-01     9.3749999999975164E-01     0.0000000000000000E+00 
    1.8749999999966760E-01     6.2500000000187531E-02     0.0000000000000000E+00 
    1.8749999999974179E-01     1.2500000000038020E-01     0.0000000000000000E+00 
    1.8749999999981601E-01     1.8750000000055780E-01     0.0000000000000000E+00 
    1.8749999999989009E-01     2.5000000000073502E-01     0.0000000000000000E+00 
    1.8749999999996431E-01     3.1250000000091221E-01     0.0000000000000000E+00 
    1.8750000000003850E-01     3.7500000000108941E-01     0.0000000000000000E+00 
    1.8750000000011269E-01     4.3750000000126649E-01     0.0000000000000000E+00 
    1.8750000000018691E-01     5.0000000000142808E-01     0.0000000000000000E+00 
    1.8750000000026110E-01     5.6250000000112244E-01     0.0000000000000000E+00 
    1.8750000000033529E-01     6.2500000000080080E-01     0.0000000000000000E+00 
    1.8750000000040951E-01     6.8750000000047962E-01     0.0000000000000000E+00 
    1.8750000000048361E-01     7.5000000000015843E-01     0.0000000000000000E+00 
    1.8750000000055780E-01     8.1249999999983680E-01     0.0000000000000000E+00 
    1.8750000000063199E-01     8.7499999999953304E-01     0.0000000000000000E+00 
    1.8750000000070621E-01     9.3749999999975764E-01     0.0000000000000000E+00 
    2.4999999999951281E-01     6.2500000000163314E-02     0.0000000000000000E+00 
    2.4999999999961461E-01     1.2500000000033351E-01     0.0000000000000000E+00 
    2.4999999999971650E-01     1.8750000000048361E-01     0.0000000000000000E+00 
    2.4999999999981831E-01     2.5000000000063310E-01     0.0000000000000000E+00 
    2.4999999999992020E-01     3.1250000000078260E-01     0.0000000000000000E+00 
    2.5000000000002198E-01     3.7500000000093209E-01     0.0000000000000000E+00 
    2.5000000000012390E-01     4.3750000000108180E-01     0.0000000000000000E+00 
    2.5000000000022571E-01     5.0000000000121769E-01     0.0000000000000000E+00 
    2.5000000000032763E-01     5.6250000000094724E-01     0.0000000000000000E+00 
    2.5000000000042938E-01     6.2500000000066314E-01     0.0000000000000000E+00 
    2.5000000000053119E-01     6.8750000000037925E-01     0.0000000000000000E+00 
[...]
CELL_DATA 256 
SCALARS Pressure double 1 
LOOKUP_TABLE default 

    2.2676818537898265E+00 
    2.1644094516482451E+00 
    2.0987108519886704E+00 
    2.0475558084701091E+00 
    2.0023995926747333E+00 
    1.9616202630212132E+00 
    1.9237569862611117E+00 
    1.8882580822953743E+00 
    1.8553844553573060E+00 
    1.8254627888032491E+00 
    1.7989357932240118E+00 
    1.7757059116947516E+00 
    1.7525506525726402E+00 
    1.7314999113263916E+00 
    1.7178686487875181E+00 
    1.7110277260811724E+00 
    2.1644279792763887E+00 
    2.1221529207359313E+00 
    2.0771160539944256E+00 
    2.0334866648424295E+00 
    1.9921700192154086E+00 
    1.9535128538796445E+00 
    1.9166664486784681E+00 
    1.8817838530556685E+00 
    1.8492426233531496E+00 
    1.8194312974571980E+00 
    1.7929067776115042E+00 
    1.7695814972285451E+00 
    1.7462071393501686E+00 
    1.7249071815469861E+00 
    1.7111138947763613E+00 
    1.7041896350348025E+00 
    2.0987619498451431E+00 
    2.0771484220537260E+00 
    2.0454223035072121E+00 
    2.0099753411126056E+00 
    1.9739874822538057E+00 
    1.9382700569143374E+00 
    1.9030897012322414E+00 
    1.8692243388923417E+00 
    1.8371643318125617E+00 
    1.8075315422715668E+00 
    1.7809528582523730E+00 
    1.7573652348246855E+00 
    1.7335154246075171E+00 
    1.7116919724334938E+00 
    1.6975505050147262E+00 
    1.6904402650252424E+00 
    2.0476536425452148E+00 
    2.0335617184517285E+00 
    2.0100150176664053E+00 
    1.9814092904272265E+00 
    1.9501049038089873E+00 
    1.9172419917455950E+00 
    1.8839196829148612E+00 
    1.8511299837279906E+00 
    1.8195709645139970E+00 
    1.7900405612710397E+00 
    1.7632038954605365E+00 
    1.7390875215367552E+00 
    1.7144314637125804E+00 
    1.6917514322409701E+00 
    1.6770205584110018E+00 
    1.6695909571727239E+00 
    2.0025398133500643E+00 
    1.9922804018872082E+00 
    1.9740626446629104E+00 
    1.9501426854783732E+00 
    1.9222495452250437E+00 
    1.8918168029823563E+00 
    1.8601619016433812E+00 
    1.8282825439572659E+00 
    1.7970387734400262E+00 
    1.7673212870579351E+00 
    1.7398845304804955E+00 
    1.7148512070267969E+00 
    1.6889270253111517E+00 
    1.6649206779411867E+00 
    1.6492565020215231E+00 
    1.6413246558970567E+00 
    1.9617806052535607E+00 
    1.9536510809941003E+00 
    1.9383789564281659E+00 
    1.9173170032356925E+00 
    1.8918560001161937E+00 
    1.8633178189096835E+00 
    1.8328870049181873E+00 
    1.8015274715641914E+00 
    1.7701939810250731E+00 
    1.7398268441588443E+00 
    1.7112708476492091E+00 
    1.6847428227017409E+00 
    1.6568827750235438E+00 
    1.6308943289694526E+00 
    1.6138281134665899E+00 
    1.6051421215085535E+00 
    1.9239455388839897E+00 
    1.9168381512384949E+00 
    1.9032341996310320E+00 
    1.8840299401667384E+00 
    1.8602342924133126E+00 
    1.8329211564628685E+00 
    1.8031067736290733E+00 
    1.7717163873361457E+00 
    1.7397163328833343E+00 
    1.7080309031084595E+00 
    1.6775981801349640E+00 
    1.6487273276995662E+00 
    1.6180225826737389E+00 
    1.5891898596375531E+00 
    1.5700709893442537E+00 
    1.5602650509180875E+00 
    1.8884763408978704E+00 
    1.8819850341148900E+00 
    1.8693983471243698E+00 
    1.8512716337280049E+00 
    1.8283891923706477E+00 
    1.8015975269330899E+00 
    1.7717511055354922E+00 
    1.7397033742291961E+00 
    1.7063030416223965E+00 
    1.6724473560310802E+00 
    1.6391346632834236E+00 
    1.6068154198553615E+00 
    1.5720804563037873E+00 
    1.5392075978241617E+00 
    1.5170584973562533E+00 
    1.5055871011286619E+00 
    1.8556275465674650E+00 
    1.8494693179776536E+00 
    1.8373666357690297E+00 
    1.8197439452693169E+00 
    1.7971784959593391E+00 
    1.7702976800393986E+00 
    1.7397867034845509E+00 
    1.7063384792929033E+00 
    1.6706691697519329E+00 
    1.6336330089844620E+00 
    1.5962763651571279E+00 
    1.5591459473572640E+00 
    1.5187842634571718E+00 
    1.4800561332816033E+00 
    1.4533785696703834E+00 
    1.4394415188587875E+00 
    1.8257289823913543E+00 
    1.8196832924577846E+00 
    1.8077625163337487E+00 
    1.7902442831202272E+00 
    1.7674932814071131E+00 
    1.7399645882723400E+00 
    1.7081369634870589E+00 
    1.6725185328582510E+00 
    1.6336689038220109E+00 
    1.5923737510164440E+00 
    1.5496105926998944E+00 
    1.5059295419328360E+00 
    1.4576024861018755E+00 
    1.4103333748997191E+00 
    1.3769717004024473E+00 
    1.3593639877328132E+00 
    1.7992250931340421E+00 
    1.7931842736744943E+00 
    1.7812111564456858E+00 
    1.7634365095782594E+00 
    1.7400868516017425E+00 
    1.7114410377811122E+00 
    1.6777353610856289E+00 
    1.6392379457312085E+00 
    1.5963446541743564E+00 
    1.5496441815626438E+00 
    1.4997910239313310E+00 
    1.4471082319362021E+00 
    1.3873468678223451E+00 
    1.3279293590143786E+00 
    1.2849024755925185E+00 
    1.2616669568274672E+00 
    1.7760121797525992E+00 
    1.7698772047668987E+00 
    1.7576433011480856E+00 
    1.7393417981107040E+00 
    1.7150772408041552E+00 
    1.6849377171577151E+00 
    1.6488883609511154E+00 
    1.6069430885652305E+00 
    1.5592394649030423E+00 
    1.5059888135110677E+00 
    1.4471336546373397E+00 
    1.3820231630252462E+00 
    1.3060877839548857E+00 
    1.2304311617887205E+00 
    1.1733741452315889E+00 
    1.1407643893491202E+00 
    1.7528684340698735E+00 
    1.7465150756165195E+00 
    1.7338062944250425E+00 
    1.7146990513030875E+00 
    1.6891665168091368E+00 
    1.6570904411276040E+00 
    1.6181953240910436E+00 
    1.5722178380061627E+00 
    1.5188849326231457E+00 
    1.4576666877837956E+00 
    1.3873771236533576E+00 
    1.3060950679482450E+00 
    1.2116203963829357E+00 
    1.1169784626548900E+00 
    1.0378642138449490E+00 
    9.8726760582265416E-01 
    1.7318274633373834E+00 
    1.7252253099208388E+00 
    1.7119936260801101E+00 
    1.6920305477530546E+00 
    1.6651724081897974E+00 
    1.6311145945507894E+00 
    1.5893745884098163E+00 
    1.5393554851489817E+00 
    1.4801664736685982E+00 
    1.4104084140572983E+00 
    1.3279733314626869E+00 
    1.2304541186922928E+00 
    1.1169894480958276E+00 
    9.9439805150860194E-01 
    8.7414399417496036E-01 
    7.8318454183841224E-01 
    1.7182007839680824E+00 
    1.7114373762471857E+00 
    1.6978587173729061E+00 
    1.6773076871768116E+00 
    1.6495177836488844E+00 
    1.6140594573056730E+00 
    1.5702679248760896E+00 
    1.5172201752632231E+00 
    1.4535057170146650E+00 
    1.3770676929774073E+00 
    1.2849701045363335E+00 
    1.1734191808506484E+00 
    1.0378906177625928E+00 
    8.7415500392911383E-01 
    6.8115569029299439E-01 
    4.8812959189387745E-01 
    1.7113529643348036E+00 
    1.7045071085499353E+00 
    1.6907435226254570E+00 
    1.6698741417780765E+00 
    1.6415828301636044E+00 
    1.6053713233261107E+00 
    1.5604611766277725E+00 
    1.5057494866056955E+00 
    1.4395710577553569E+00 
    1.3594638356136639E+00 
    1.2617391170617840E+00 
    1.1408136767801869E+00 
    9.8729808581407230E-01 
    7.8320018292376425E-01 
    4.8813485901732950E-01 
    0.0000000000000000E+00 

SCALARS Saturarion double 1 
LOOKUP_TABLE default 

    1.0000000000000004E+00 
    9.7565889031426301E-01 
    9.3551134523073765E-01 
    8.6569156213351606E-01 
    7.9867550569909129E-01 
    7.4020635521959977E-01 
    6.8755950145695832E-01 
    6.4019740933631231E-01 
    5.9789030160697476E-01 
    5.6089988820521519E-01 
    5.2700599720100727E-01 
    4.7896601499029090E-01 
    3.0332346881926886E-01 
    4.5952473239524337E-03 
    1.0000000026324943E-06 
    1.0000000000000004E-06 
    9.7565717435422750E-01 
    9.5192470197560597E-01 
    9.1038992027559928E-01 
    8.4836583169566626E-01 
    7.8838388020461980E-01 
    7.3323098548199173E-01 
    6.8287627424244157E-01 
    6.3708697317832430E-01 
    5.9601513157652619E-01 
    5.6002359792134415E-01 
    5.2666114448809176E-01 
    4.7842389161463622E-01 
    3.0026689378166510E-01 
    4.1663379067208208E-03 
    1.0025125771151608E-06 
    1.0000000000794938E-06 
    9.3550362057439385E-01 
    9.1038640792301595E-01 
    8.6493228387374166E-01 
    8.1482923167850685E-01 
    7.6479391975819488E-01 
    7.1648320642331986E-01 
    6.7108409630829824E-01 
    6.2913911544625434E-01 
    5.9132860925306685E-01 
    5.5761814973291535E-01 
    5.2509907248548193E-01 
    4.7686831203046942E-01 
    2.9499271539901883E-01 
    3.5732368074984848E-03 
    1.0074285479644741E-06 
    1.0000000002375438E-06 
    8.6566857855522705E-01 
    8.4834626263862556E-01 
    8.1481615410909103E-01 
    7.7576287756912854E-01 
    7.3467976925105594E-01 
    6.9381331015562675E-01 
    6.5446494871319993E-01 
    6.1781125264166059E-01 
    5.8472357821308740E-01 
    5.5406514412296082E-01 
    5.2259567972224374E-01 
    4.7479766124064726E-01 
    2.8865081356964856E-01 
    2.7684574126871438E-03 
    1.0056398750973835E-06 
    1.0000000004386635E-06 
    7.9863788518983092E-01 
    7.8835969725682564E-01 
    7.6477579885278213E-01 
    7.3466825482473719E-01 
    7.0182645123126808E-01 
    6.6810487371651117E-01 
    6.3516005229389116E-01 
    6.0487723581770603E-01 
    5.7718825970182730E-01 
    5.4987586593678750E-01 
    5.2038043124881783E-01 
    4.7370106210345014E-01 
    2.9314057799752979E-01 
    4.0393970238030959E-03 
    1.0065743016968359E-06 
    1.0000000003440605E-06 
    7.4022075169406076E-01 
    7.3323065257564790E-01 
    7.1647488581038576E-01 
    6.9380319965137915E-01 
    6.6809662822444660E-01 
    6.4144606502366830E-01 
    6.1541170630202313E-01 
    5.9170553963431805E-01 
    5.6880639068061101E-01 
    5.4440555376477873E-01 
    5.1716875614612479E-01 
    4.7197381283459355E-01 
    2.9142788632179750E-01 
    3.6217909749567128E-03 
    1.0116682962742608E-06 
    1.0000000006203713E-06 
    6.8758565339133426E-01 
    6.8288209950014500E-01 
    6.7107701041152323E-01 
    6.5445475246907692E-01 
    6.3514832663719245E-01 
    6.1540251337514007E-01 
    5.9662048230091258E-01 
    5.7838184660534897E-01 
    5.5875019783280244E-01 
    5.3716030064038522E-01 
    5.1281615904816880E-01 
    4.6970322891033206E-01 
    2.9375140655581194E-01 
    3.9022850687450449E-03 
    1.0002954756124236E-06 
    1.0000000000716140E-06 
    6.4020489846760442E-01 
    6.3708281123772770E-01 
    6.2912346586354495E-01 
    6.1779284152205982E-01 
    6.0485963110491670E-01 
    5.9168912147411989E-01 
    5.7837145276000690E-01 
    5.6344542321481728E-01 
    5.4649027717483434E-01 
    5.2837762795794241E-01 
    5.0751767429032124E-01 
    4.6768075767608513E-01 
    3.0302432335836216E-01 
    5.2655147111374942E-03 
    1.0011500159964046E-06 
    1.0000000001086184E-06 
    5.9788601222265203E-01 
    5.9600095324579905E-01 
    5.9130301329396051E-01 
    5.8469383001330455E-01 
    5.7715885528235999E-01 
    5.6877920712994801E-01 
    5.5873052337467854E-01 
    5.4648067799213740E-01 
    5.3278530153921855E-01 
    5.1838965722716368E-01 
    5.0138570772924640E-01 
    4.6634593405940061E-01 
    3.2633173182042885E-01 
    1.4571622782280375E-02 
    1.3008106657345802E-06 
    1.0000000150440973E-06 
    5.6092765893786367E-01 
    5.6002022154769637E-01 
    5.5759426901221409E-01 
    5.5403154491541817E-01 
    5.4983727781919478E-01 
    5.4436729473891587E-01 
    5.3713053388149312E-01 
    5.2835916311453512E-01 
    5.1838106848563281E-01 
    5.0705166900546761E-01 
    4.9302637666305682E-01 
    4.6383461909052004E-01 
    3.4289614774987781E-01 
    2.2616825638911570E-02 
    1.1307872206795299E-06 
    1.0000000262394450E-06 
    5.2703820940743495E-01 
    5.2666417249604025E-01 
    5.2507868556315285E-01 
    5.2255752925863175E-01 
    5.2033425489753182E-01 
    5.1712322582998216E-01 
    5.1277438475697090E-01 
    5.0748043010220822E-01 
    5.0135743668423927E-01 
    4.9301080036265371E-01 
    4.8105061212394351E-01 
    4.5526223914107361E-01 
    3.4846519747236282E-01 
    2.9528353530382922E-02 
    1.5855159441879531E-06 
    1.0000000989880282E-06 
    4.7896855953574097E-01 
    4.7840722097228972E-01 
    4.7681255574850639E-01 
    4.7470773502598423E-01 
    4.7359183624634366E-01 
    4.7185472904972681E-01 
    4.6958103814467395E-01 
    4.6756404559138154E-01 
    4.6624312310280019E-01 
    4.6375487476181765E-01 
    4.5520192127775505E-01 
    4.3550354968753852E-01 
    3.3367017231918811E-01 
    2.8796287165924205E-02 
    5.7793951893792534E-06 
    1.0000008981408178E-06 
    3.0304722770616738E-01 
    2.9991051954744319E-01 
    2.9452949066988321E-01 
    2.8807772947993288E-01 
    2.9247603008120965E-01 
    2.9071885383239188E-01 
    2.9301717561323948E-01 
    3.0232856986148288E-01 
    3.2575058440532834E-01 
    3.4239316943714010E-01 
    3.4802917807518313E-01 
    3.3336169649842401E-01 
    2.1831379371213450E-01 
    7.4062983992073082E-03 
    2.6728305423620025E-06 
    1.0000002145095497E-06 
    4.5483372222355481E-03 
    4.1142504008993405E-03 
    3.5214242831906870E-03 
    2.7163323199302270E-03 
    3.9567600714427581E-03 
    3.5466948192556160E-03 
    3.8187139594004970E-03 
    5.1452717972635805E-03 
    1.4329022774070685E-02 
    2.2275258305042699E-02 
    2.9188530979484765E-02 
    2.8538552632846173E-02 
    7.3565224926286192E-03 
    1.1250883954037841E-05 
    1.0000045344279864E-06 
    1.0000000000002001E-06 
    1.0000000027447912E-06 
    1.0025423417389652E-06 
    1.0074055223133723E-06 
    1.0055423259618115E-06 
    1.0064769837973156E-06 
    1.0112946099427856E-06 
    1.0002809066621690E-06 
    1.0011260569769791E-06 
    1.2882892428640081E-06 
    1.1274709474570801E-06 
    1.5642437463726368E-06 
    5.6764958287662373E-06 
    2.6477076303440191E-06 
    1.0000044184931916E-06 
    1.0000000000012377E-06 
    9.9999999999999995E-07 
    1.0000000000000004E-06 
    1.0000000000798216E-06 
    1.0000000002354948E-06 
    1.0000000004284536E-06 
    1.0000000003318027E-06 
    1.0000000005996813E-06 
    1.0000000000680273E-06 
    1.0000000001047659E-06 
    1.0000000142643747E-06 
    1.0000000253403191E-06 
    1.0000000950803394E-06 
    1.0000008654400720E-06 
    1.0000002101736198E-06 
    1.0000000000002011E-06 
    9.9999999999999995E-07 
    1.0000004633397420E-06 
