# vtk DataFile Version 2.0
Pressure Field Data 
ASCII 
DATASET UNSTRUCTURED_GRID 

POINTS 289 double 

    0.0000000000000000E+00     0.0000000000000000E+00     0.0000000000000000E+00 
    1.0000000000000000E+00     0.0000000000000000E+00     0.0000000000000000E+00 
    1.0000000000000000E+00     1.0000000000000000E+00     0.0000000000000000E+00 
    0.0000000000000000E+00     1.0000000000000000E+00     0.0000000000000000E+00 
    6.2499999999872928E-02     0.0000000000000000E+00     0.0000000000000000E+00 
    1.2499999999977310E-01     0.0000000000000000E+00     0.0000000000000000E+00 
    1.8749999999959341E-01     0.0000000000000000E+00     0.0000000000000000E+00 
    2.4999999999941089E-01     0.0000000000000000E+00     0.0000000000000000E+00 
    3.1249999999922851E-01     0.0000000000000000E+00     0.0000000000000000E+00 
    3.7499999999904610E-01     0.0000000000000000E+00     0.0000000000000000E+00 
    4.3749999999886358E-01     0.0000000000000000E+00     0.0000000000000000E+00 
    4.9999999999869210E-01     0.0000000000000000E+00     0.0000000000000000E+00 
    5.6249999999884603E-01     0.0000000000000000E+00     0.0000000000000000E+00 
    6.2499999999901090E-01     0.0000000000000000E+00     0.0000000000000000E+00 
    6.8749999999917577E-01     0.0000000000000000E+00     0.0000000000000000E+00 
    7.4999999999934064E-01     0.0000000000000000E+00     0.0000000000000000E+00 
    8.1249999999950551E-01     0.0000000000000000E+00     0.0000000000000000E+00 
    8.7499999999967026E-01     0.0000000000000000E+00     0.0000000000000000E+00 
    9.3749999999983513E-01     0.0000000000000000E+00     0.0000000000000000E+00 
    1.0000000000000000E+00     6.2499999999872928E-02     0.0000000000000000E+00 
    1.0000000000000000E+00     1.2499999999977310E-01     0.0000000000000000E+00 
    1.0000000000000000E+00     1.8749999999959341E-01     0.0000000000000000E+00 
    1.0000000000000000E+00     2.4999999999941089E-01     0.0000000000000000E+00 
    1.0000000000000000E+00     3.1249999999922851E-01     0.0000000000000000E+00 
    1.0000000000000000E+00     3.7499999999904610E-01     0.0000000000000000E+00 
    1.0000000000000000E+00     4.3749999999886358E-01     0.0000000000000000E+00 
    1.0000000000000000E+00     4.9999999999869210E-01     0.0000000000000000E+00 
    1.0000000000000000E+00     5.6249999999884603E-01     0.0000000000000000E+00 
    1.0000000000000000E+00     6.2499999999901090E-01     0.0000000000000000E+00 
    1.0000000000000000E+00     6.8749999999917577E-01     0.0000000000000000E+00 
    1.0000000000000000E+00     7.4999999999934064E-01     0.0000000000000000E+00 
    1.0000000000000000E+00     8.1249999999950551E-01     0.0000000000000000E+00 
    1.0000000000000000E+00     8.7499999999967026E-01     0.0000000000000000E+00 
    1.0000000000000000E+00     9.3749999999983513E-01     0.0000000000000000E+00 
    9.3749999999973976E-01     1.0000000000000000E+00     0.0000000000000000E+00 
    8.7499999999950118E-01     1.0000000000000000E+00     0.0000000000000000E+00 
    8.1249999999991318E-01     1.0000000000000000E+00     0.0000000000000000E+00 
    7.5000000000034706E-01     1.0000000000000000E+00     0.0000000000000000E+00 
    6.8750000000078049E-01     1.0000000000000000E+00     0.0000000000000000E+00 
    6.2500000000121403E-01     1.0000000000000000E+00     0.0000000000000000E+00 
    5.6250000000164757E-01     1.0000000000000000E+00     0.0000000000000000E+00 
    5.0000000000205946E-01     1.0000000000000000E+00     0.0000000000000000E+00 
    4.3750000000182099E-01     1.0000000000000000E+00     0.0000000000000000E+00 
    3.7500000000156092E-01     1.0000000000000000E+00     0.0000000000000000E+00 
    3.1250000000130068E-01     1.0000000000000000E+00     0.0000000000000000E+00 
    2.5000000000104050E-01     1.0000000000000000E+00     0.0000000000000000E+00 
    1.8750000000078040E-01     1.0000000000000000E+00     0.0000000000000000E+00 
    1.2500000000052031E-01     1.0000000000000000E+00     0.0000000000000000E+00 
    6.2500000000260125E-02     1.0000000000000000E+00     0.0000000000000000E+00 
    0.0000000000000000E+00     9.3749999999973976E-01     0.0000000000000000E+00 
    0.0000000000000000E+00     8.7499999999950118E-01     0.0000000000000000E+00 
    0.0000000000000000E+00     8.1249999999991318E-01     0.0000000000000000E+00 
    0.0000000000000000E+00     7.5000000000034706E-01     0.0000000000000000E+00 
    0.0000000000000000E+00     6.8750000000078049E-01     0.0000000000000000E+00 
    0.0000000000000000E+00     6.2500000000121403E-01     0.0000000000000000E+00 
    0.0000000000000000E+00     5.6250000000164757E-01     0.0000000000000000E+00 
    0.0000000000000000E+00     5.0000000000205946E-01     0.0000000000000000E+00 
    0.0000000000000000E+00     4.3750000000182099E-01     0.0000000000000000E+00 
    0.0000000000000000E+00     3.7500000000156092E-01     0.0000000000000000E+00 
    0.0000000000000000E+00     3.1250000000130068E-01     0.0000000000000000E+00 
    0.0000000000000000E+00     2.5000000000104050E-01     0.0000000000000000E+00 
    0.0000000000000000E+00     1.8750000000078040E-01     0.0000000000000000E+00 
    0.0000000000000000E+00     1.2500000000052031E-01     0.0000000000000000E+00 
    0.0000000000000000E+00     6.2500000000260125E-02     0.0000000000000000E+00 
    6.2499999999897131E-02     6.2500000000235922E-02     0.0000000000000000E+00 
    6.2499999999921327E-02     1.2500000000047351E-01     0.0000000000000000E+00 
    6.2499999999945530E-02     1.8750000000070621E-01     0.0000000000000000E+00 
    6.2499999999969733E-02     2.5000000000093858E-01     0.0000000000000000E+00 
    6.2499999999993928E-02     3.1250000000117117E-01     0.0000000000000000E+00 
    6.2500000000018124E-02     3.7500000000140382E-01     0.0000000000000000E+00 
    6.2500000000042327E-02     4.3750000000163619E-01     0.0000000000000000E+00 
    6.2500000000066530E-02     5.0000000000184897E-01     0.0000000000000000E+00 
    6.2500000000090733E-02     5.6250000000147260E-01     0.0000000000000000E+00 
    6.2500000000114922E-02     6.2500000000107636E-01     0.0000000000000000E+00 
    6.2500000000139125E-02     6.8750000000068034E-01     0.0000000000000000E+00 
    6.2500000000163328E-02     7.5000000000028411E-01     0.0000000000000000E+00 
    6.2500000000187531E-02     8.1249999999988787E-01     0.0000000000000000E+00 
    6.2500000000211720E-02     8.7499999999951172E-01     0.0000000000000000E+00 
    6.2500000000235922E-02     9.3749999999974565E-01     0.0000000000000000E+00 
    1.2499999999981980E-01     6.2500000000211733E-02     0.0000000000000000E+00 
    1.2499999999986650E-01     1.2500000000042691E-01     0.0000000000000000E+00 
    1.2499999999991319E-01     1.8750000000063199E-01     0.0000000000000000E+00 
    1.2499999999995989E-01     2.5000000000083678E-01     0.0000000000000000E+00 
    1.2500000000000661E-01     3.1250000000104172E-01     0.0000000000000000E+00 
    1.2500000000005329E-01     3.7500000000124661E-01     0.0000000000000000E+00 
    1.2500000000010000E-01     4.3750000000145117E-01     0.0000000000000000E+00 
    1.2500000000014669E-01     5.0000000000163858E-01     0.0000000000000000E+00 
    1.2500000000019340E-01     5.6250000000129741E-01     0.0000000000000000E+00 
    1.2500000000024011E-01     6.2500000000093847E-01     0.0000000000000000E+00 
    1.2500000000028680E-01     6.8750000000057998E-01     0.0000000000000000E+00 
    1.2500000000033351E-01     7.5000000000022127E-01     0.0000000000000000E+00 
    1.2500000000038020E-01     8.1249999999986211E-01     0.0000000000000000E+00 
    1.2500000000042691E-01     8.7499999999952238E-01     0.0000000000000000E+00 
    1.2500000000047359E-01     9.3749999999975164E-01     0.0000000000000000E+00 
    1.8749999999966760E-01     6.2500000000187531E-02     0.0000000000000000E+00 
    1.8749999999974179E-01     1.2500000000038020E-01     0.0000000000000000E+00 
    1.8749999999981601E-01     1.8750000000055780E-01     0.0000000000000000E+00 
    1.8749999999989009E-01     2.5000000000073502E-01     0.0000000000000000E+00 
    1.8749999999996431E-01     3.1250000000091221E-01     0.0000000000000000E+00 
    1.8750000000003850E-01     3.7500000000108941E-01     0.0000000000000000E+00 
    1.8750000000011269E-01     4.3750000000126649E-01     0.0000000000000000E+00 
    1.8750000000018691E-01     5.0000000000142808E-01     0.0000000000000000E+00 
    1.8750000000026110E-01     5.6250000000112244E-01     0.0000000000000000E+00 
    1.8750000000033529E-01     6.2500000000080080E-01     0.0000000000000000E+00 
    1.8750000000040951E-01     6.8750000000047962E-01     0.0000000000000000E+00 
    1.8750000000048361E-01     7.5000000000015843E-01     0.0000000000000000E+00 
    1.8750000000055780E-01     8.1249999999983680E-01     0.0000000000000000E+00 
    1.8750000000063199E-01     8.7499999999953304E-01     0.0000000000000000E+00 
    1.8750000000070621E-01     9.3749999999975764E-01     0.0000000000000000E+00 
    2.4999999999951281E-01     6.2500000000163314E-02     0.0000000000000000E+00 
    2.4999999999961461E-01     1.2500000000033351E-01     0.0000000000000000E+00 
    2.4999999999971650E-01     1.8750000000048361E-01     0.0000000000000000E+00 
    2.4999999999981831E-01     2.5000000000063310E-01     0.0000000000000000E+00 
    2.4999999999992020E-01     3.1250000000078260E-01     0.0000000000000000E+00 
    2.5000000000002198E-01     3.7500000000093209E-01     0.0000000000000000E+00 
    2.5000000000012390E-01     4.3750000000108180E-01     0.0000000000000000E+00 
    2.5000000000022571E-01     5.0000000000121769E-01     0.0000000000000000E+00 
    2.5000000000032763E-01     5.6250000000094724E-01     0.0000000000000000E+00 
    2.5000000000042938E-01     6.2500000000066314E-01     0.0000000000000000E+00 
    2.5000000000053119E-01     6.8750000000037925E-01     0.0000000000000000E+00 
[...]
CELL_DATA 256 
SCALARS Pressure double 1 
LOOKUP_TABLE default 

    3.2560622464512958E+00 
    3.0561252934296088E+00 
    2.7735170693197331E+00 
    2.5703449525982758E+00 
    2.4146162444559698E+00 
    2.2897631528407034E+00 
    2.1866306979826264E+00 
    2.0999030355629507E+00 
    2.0263509386313929E+00 
    1.9639959861075884E+00 
    1.9116184252176629E+00 
    1.8684979638529093E+00 
    1.8342281975304779E+00 
    1.8086074913457948E+00 
    1.7915524201216939E+00 
    1.7830368699708208E+00 
    3.0561359228403049E+00 
    2.9113309099045255E+00 
    2.6941691621798247E+00 
    2.5229880477501765E+00 
    2.3838374241458000E+00 
    2.2681279878835925E+00 
    2.1703193985151135E+00 
    2.0868065782079959E+00 
    2.0152279369189126E+00 
    1.9540748362960882E+00 
    1.9024093492367620E+00 
    1.8596849183139199E+00 
    1.8256089028899452E+00 
    1.8000640256541018E+00 
    1.7830284566861694E+00 
    1.7745221863375993E+00 
    2.7735603106872002E+00 
    2.6941970457302364E+00 
    2.5689223071965022E+00 
    2.4436783896021765E+00 
    2.3296994851477533E+00 
    2.2286766110238245E+00 
    2.1397993914765818E+00 
    2.0618475926775623E+00 
    1.9937486136604468E+00 
    1.9347378438823777E+00 
    1.8843313758547504E+00 
    1.8422861535630530E+00 
    1.8085195095417530E+00 
    1.7830715529969969E+00 
    1.7660374240810470E+00 
    1.7575192900726209E+00 
    2.5704273552456169E+00 
    2.5230532871781803E+00 
    2.4437153573034016E+00 
    2.3531828262075951E+00 
    2.2626864642699065E+00 
    2.1771507575467051E+00 
    2.0984334763545691E+00 
    2.0271076844301548E+00 
    1.9632568328221627E+00 
    1.9068676862574154E+00 
    1.8579654353925672E+00 
    1.8166691557627164E+00 
    1.7831716345171458E+00 
    1.7577285365138491E+00 
    1.7406013497313961E+00 
    1.7320105062022007E+00 
    2.4147413680028662E+00 
    2.3839446721285174E+00 
    2.3297784978219029E+00 
    2.2627285490193412E+00 
    2.1907839298015639E+00 
    2.1188691587139545E+00 
    2.0497521242078767E+00 
    1.9849650608076750E+00 
    1.9253772210407547E+00 
    1.8715782611698797E+00 
    1.8240599603852030E+00 
    1.7833072372282968E+00 
    1.7498266112171870E+00 
    1.7241358147693353E+00 
    1.7067103916046682E+00 
    1.6979278285777697E+00 
    2.2899306834924453E+00 
    2.2682789139785799E+00 
    2.2287993380721915E+00 
    2.1772365899073560E+00 
    2.1189131083512223E+00 
    2.0578478478307223E+00 
    1.9968112763018226E+00 
    1.9376917747127786E+00 
    1.8817773585991471E+00 
    1.8300724873562322E+00 
    1.7834377537531059E+00 
    1.7427164162763327E+00 
    1.7087400035627993E+00 
    1.6823367527332793E+00 
    1.6642569883574145E+00 
    1.6550865188037036E+00 
    2.1868408162021438E+00 
    2.1705133177812646E+00 
    2.1399649654617034E+00 
    2.0985616386754784E+00 
    2.0498379579168975E+00 
    1.9968543565584338E+00 
    1.9420554318150438E+00 
    1.8872945454584702E+00 
    1.8340405539578117E+00 
    1.7835338365904487E+00 
    1.7369453543897195E+00 
    1.6954108840932802E+00 
    1.6601159425279002E+00 
    1.6322532834268826E+00 
    1.6129363700425732E+00 
    1.6030560571627275E+00 
    2.1001581843270967E+00 
    2.0870457820770261E+00 
    2.0620582173650379E+00 
    2.0272806970332486E+00 
    1.9850958787966633E+00 
    1.9377801654122402E+00 
    1.8873400898026393E+00 
    1.8354659247855876E+00 
    1.7836213206998828E+00 
    1.7331671886220288E+00 
    1.6854653974759795E+00 
    1.6419381266245268E+00 
    1.6041290010569453E+00 
    1.5736921218762372E+00 
    1.5522482140052676E+00 
    1.5411525015882841E+00 
    2.0266533657649575E+00 
    2.0155147426952871E+00 
    1.9940065069639832E+00 
    1.9634769970369612E+00 
    1.9255550004871487E+00 
    1.8819126924019520E+00 
    1.8341353132487366E+00 
    1.7836709217428752E+00 
    1.7318763892926645E+00 
    1.6801185808788557E+00 
    1.6298701469905499E+00 
    1.5827775401878883E+00 
    1.5407919404352415E+00 
    1.5061607260816183E+00 
    1.4812474107194242E+00 
    1.4681567050048601E+00 
    1.9643480583207538E+00 
    1.9544101022282130E+00 
    1.9350448974775318E+00 
    1.9071379184475521E+00 
    1.8718066253692547E+00 
    1.8302584964237099E+00 
    1.7836821582778650E+00 
    1.7332699862313954E+00 
    1.6801712889335723E+00 
    1.6256464016528502E+00 
    1.5711537308405321E+00 
    1.5185147344208185E+00 
    1.4700956274236034E+00 
    1.4289076544861705E+00 
    1.3984365475024265E+00 
    1.3820784175466729E+00 
    1.9120174150296529E+00 
    1.9027926782107283E+00 
    1.8846884652419280E+00 
    1.8582882867330339E+00 
    1.8243437985065309E+00 
    1.7836807688150800E+00 
    1.7371474971634258E+00 
    1.6856221545778363E+00 
    1.6299780364172720E+00 
    1.5712091670123742E+00 
    1.5105948735159855E+00 
    1.4500041613782020E+00 
    1.3921387168459662E+00 
    1.3409021188373718E+00 
    1.3014713333566978E+00 
    1.2796178017793118E+00 
    1.8689387578313610E+00 
    1.8601116609165067E+00 
    1.8426887543037846E+00 
    1.8170395825482133E+00 
    1.7836401308642349E+00 
    1.7430091901012261E+00 
    1.6956625677051327E+00 
    1.6421446278243554E+00 
    1.5829348625426418E+00 
    1.5186194987729806E+00 
    1.4500549509543317E+00 
    1.3788342850119870E+00 
    1.3076333740706376E+00 
    1.2411764469242044E+00 
    1.1870178766008077E+00 
    1.1553495671953811E+00 
    1.8347017550157116E+00 
    1.8260698070472514E+00 
    1.8089580698029013E+00 
    1.7835798849834141E+00 
    1.7501989529416093E+00 
    1.7090733133574814E+00 
    1.6604088972680315E+00 
    1.6043771938674114E+00 
    1.5409913591039173E+00 
    1.4702430024675297E+00 
    1.3922324811513889E+00 
    1.3076765681871763E+00 
    1.2184218944366538E+00 
    1.1291887401435965E+00 
    1.0501249959242780E+00 
    9.9943269368725407E-01 
    1.8091017391586881E+00 
    1.8005468765145849E+00 
    1.7835336964974462E+00 
    1.7581622085102906E+00 
    1.7245353586662298E+00 
    1.6826987126602193E+00 
    1.6325759166859390E+00 
    1.5739706202232546E+00 
    1.5063909652815120E+00 
    1.4290862032653577E+00 
    1.3410276845328497E+00 
    1.2412523349178708E+00 
    1.1292220188196125E+00 
    1.0070564002970794E+00 
    8.8489726241469802E-01 
    7.9283562238427019E-01 
    1.7920529484526420E+00 
    1.7835186882275900E+00 
    1.7665084582813637E+00 
    1.7410457166722011E+00 
    1.7071224212291545E+00 
    1.6646328923021843E+00 
    1.6132738354433869E+00 
    1.5525422239687794E+00 
    1.4814938516311214E+00 
    1.3986317191038398E+00 
    1.3016148311473537E+00 
    1.1871135119736367E+00 
    1.0501794382974876E+00 
    8.8491926640038243E-01 
    6.8956053041806409E-01 
    4.9415634467094310E-01 
    1.7835278531215621E+00 
    1.7750037778435899E+00 
    1.7579830098532181E+00 
    1.7324491788982295E+00 
    1.6983357855107390E+00 
    1.6554596526978420E+00 
    1.6033909063720286E+00 
    1.5414443804405709E+00 
    1.4684018406619483E+00 
    1.3822731857289690E+00 
    1.2797635720815559E+00 
    1.1554503984352213E+00 
    9.9949473514889420E-01 
    7.9286706046064626E-01 
    4.9416683433307779E-01 
    0.0000000000000000E+00 

SCALARS Saturarion double 1 
LOOKUP_TABLE default 

    5.8941134444976351E-01 
    2.6141795267738682E-01 
    2.2732496642006963E-02 
    9.9999999999988921E-07 
    9.9999999999999995E-07 
    9.9999999999999995E-07 
    9.9999999999999995E-07 
    9.9999999999999995E-07 
    9.9999999999999995E-07 
    9.9999999999999995E-07 
    9.9999999999999995E-07 
    9.9999999999999995E-07 
    9.9999999999999995E-07 
    9.9999999999999995E-07 
    9.9999999999999995E-07 
    9.9999999999999995E-07 
    2.6141164588648230E-01 
    5.1766602731770466E-02 
    6.6496823426797540E-05 
    1.0007704121558118E-06 
    9.9999999999999995E-07 
    9.9999999999999995E-07 
    9.9999999999999995E-07 
    9.9999999999999995E-07 
    9.9999999999999995E-07 
    9.9999999999999995E-07 
    9.9999999999999995E-07 
    9.9999999999999995E-07 
    9.9999999999999995E-07 
    9.9999999999999995E-07 
    9.9999999999999995E-07 
    9.9999999999999995E-07 
    2.2729782399920084E-02 
    6.6490689705590121E-05 
    1.0011271848603752E-06 
    9.9999999999999995E-07 
    9.9999999999999995E-07 
    9.9999999999999995E-07 
    9.9999999999999995E-07 
    9.9999999999999995E-07 
    9.9999999999999995E-07 
    9.9999999999999995E-07 
    9.9999999999999995E-07 
    9.9999999999999995E-07 
    9.9999999999999995E-07 
    9.9999999999999995E-07 
    9.9999999999999995E-07 
    9.9999999999999995E-07 
    9.9999999999988921E-07 
    1.0007700659953649E-06 
    9.9999999999999995E-07 
    9.9999999999999995E-07 
    9.9999999999999995E-07 
    9.9999999999999995E-07 
    9.9999999999999995E-07 
    9.9999999999999995E-07 
    9.9999999999999995E-07 
    9.9999999999999995E-07 
    9.9999999999999995E-07 
    9.9999999999999995E-07 
    9.9999999999999995E-07 
    9.9999999999999995E-07 
    9.9999999999999995E-07 
    9.9999999999999995E-07 
    9.9999999999999995E-07 
    9.9999999999999995E-07 
    9.9999999999999995E-07 
    9.9999999999999995E-07 
    9.9999999999999995E-07 
    9.9999999999999995E-07 
    9.9999999999999995E-07 
    9.9999999999999995E-07 
    9.9999999999999995E-07 
    9.9999999999999995E-07 
    9.9999999999999995E-07 
    9.9999999999999995E-07 
    9.9999999999999995E-07 
    9.9999999999999995E-07 
    9.9999999999999995E-07 
    9.9999999999999995E-07 
    9.9999999999999995E-07 
    9.9999999999999995E-07 
    9.9999999999999995E-07 
    9.9999999999999995E-07 
    9.9999999999999995E-07 
    9.9999999999999995E-07 
    9.9999999999999995E-07 
    9.9999999999999995E-07 
    9.9999999999999995E-07 
    9.9999999999999995E-07 
    9.9999999999999995E-07 
    9.9999999999999995E-07 
    9.9999999999999995E-07 
    9.9999999999999995E-07 
    9.9999999999999995E-07 
    9.9999999999999995E-07 
    9.9999999999999995E-07 
    9.9999999999999995E-07 
    9.9999999999999995E-07 
    9.9999999999999995E-07 
    9.9999999999999995E-07 
    9.9999999999999995E-07 
    9.9999999999999995E-07 
    9.9999999999999995E-07 
    9.9999999999999995E-07 
    9.9999999999999995E-07 
    9.9999999999999995E-07 
    9.9999999999999995E-07 
    9.9999999999999995E-07 
    9.9999999999999995E-07 
    9.9999999999999995E-07 
    9.9999999999999995E-07 
    9.9999999999999995E-07 
    9.9999999999999995E-07 
    9.9999999999999995E-07 
    9.9999999999999995E-07 
    9.9999999999999995E-07 
    9.9999999999999995E-07 
    9.9999999999999995E-07 
    9.9999999999999995E-07 
    9.9999999999999995E-07 
    9.9999999999999995E-07 
    9.9999999999999995E-07 
    9.9999999999999995E-07 
    9.9999999999999995E-07 
    9.9999999999999995E-07 
    9.9999999999999995E-07 
    9.9999999999999995E-07 
    9.9999999999999995E-07 
    9.9999999999999995E-07 
    9.9999999999999995E-07 
    9.9999999999999995E-07 
    9.9999999999999995E-07 
    9.9999999999999995E-07 
    9.9999999999999995E-07 
    9.9999999999999995E-07 
    9.9999999999999995E-07 
    9.9999999999999995E-07 
    9.9999999999999995E-07 
    9.9999999999999995E-07 
    9.9999999999999995E-07 
    9.9999999999999995E-07 
    9.9999999999999995E-07 
    9.9999999999999995E-07 
    9.9999999999999995E-07 
    9.9999999999999995E-07 
    9.9999999999999995E-07 
    9.9999999999999995E-07 
    9.9999999999999995E-07 
    9.9999999999999995E-07 
    9.9999999999999995E-07 
    9.9999999999999995E-07 
    9.9999999999999995E-07 
    9.9999999999999995E-07 
    9.9999999999999995E-07 
    9.9999999999999995E-07 
    9.9999999999999995E-07 
    9.9999999999999995E-07 
    9.9999999999999995E-07 
    9.9999999999999995E-07 
    9.9999999999999995E-07 
    9.9999999999999995E-07 
    9.9999999999999995E-07 
    9.9999999999999995E-07 
    9.9999999999999995E-07 
    9.9999999999999995E-07 
    9.9999999999999995E-07 
    9.9999999999999995E-07 
    9.9999999999999995E-07 
    9.9999999999999995E-07 
    9.9999999999999995E-07 
    9.9999999999999995E-07 
    9.9999999999999995E-07 
    9.9999999999999995E-07 
    9.9999999999999995E-07 
    9.9999999999999995E-07 
    9.9999999999999995E-07 
    9.9999999999999995E-07 
    9.9999999999999995E-07 
    9.9999999999999995E-07 
    9.9999999999999995E-07 
    9.9999999999999995E-07 
    9.9999999999999995E-07 
    9.9999999999999995E-07 
    9.9999999999999995E-07 
    9.9999999999999995E-07 
    9.9999999999999995E-07 
    9.9999999999999995E-07 
    9.9999999999999995E-07 
    9.9999999999999995E-07 
    9.9999999999999995E-07 
    9.9999999999999995E-07 
    9.9999999999999995E-07 
    9.9999999999999995E-07 
    9.9999999999999995E-07 
    9.9999999999999995E-07 
    9.9999999999999995E-07 
    9.9999999999999995E-07 
    9.9999999999999995E-07 
    9.9999999999999995E-07 
    9.9999999999999995E-07 
    9.9999999999999995E-07 
    9.9999999999999995E-07 
    9.9999999999999995E-07 
    9.9999999999999995E-07 
    9.9999999999999995E-07 
    9.9999999999999995E-07 
    9.9999999999999995E-07 
    9.9999999999999995E-07 
    9.9999999999999995E-07 
    9.9999999999999995E-07 
    9.9999999999999995E-07 
    9.9999999999999995E-07 
    9.9999999999999995E-07 
    9.9999999999999995E-07 
    9.9999999999999995E-07 
    9.9999999999999995E-07 
    9.9999999999999995E-07 
    9.9999999999999995E-07 
    9.9999999999999995E-07 
    9.9999999999999995E-07 
    9.9999999999999995E-07 
    9.9999999999999995E-07 
    9.9999999999999995E-07 
    9.9999999999999995E-07 
    9.9999999999999995E-07 
    9.9999999999999995E-07 
    9.9999999999999995E-07 
    9.9999999999999995E-07 
    9.9999999999999995E-07 
    9.9999999999999995E-07 
    9.9999999999999995E-07 
    9.9999999999999995E-07 
    9.9999999999999995E-07 
    9.9999999999999995E-07 
    9.9999999999999995E-07 
    9.9999999999999995E-07 
    9.9999999999999995E-07 
    9.9999999999999995E-07 
    9.9999999999999995E-07 
    9.9999999999999995E-07 
    9.9999999999999995E-07 
    9.9999999999999995E-07 
    9.9999999999999995E-07 
    9.9999999999999995E-07 
    9.9999999999999995E-07 
    9.9999999999999995E-07 
    9.9999999999999995E-07 
    9.9999999999999995E-07 
    9.9999999999999995E-07 
    9.9999999999999995E-07 
    9.9999999999999995E-07 
    9.9999999999999995E-07 
    9.9999999999999995E-07 
    9.9999999999999995E-07 
    1.0000000028992552E-06 
