# vtk DataFile Version 2.0
Pressure Field Data 
ASCII 
DATASET UNSTRUCTURED_GRID 

POINTS 289 double 

    0.0000000000000000E+00     0.0000000000000000E+00     0.0000000000000000E+00 
    1.0000000000000000E+00     0.0000000000000000E+00     0.0000000000000000E+00 
    1.0000000000000000E+00     1.0000000000000000E+00     0.0000000000000000E+00 
    0.0000000000000000E+00     1.0000000000000000E+00     0.0000000000000000E+00 
    6.2499999999872928E-02     0.0000000000000000E+00     0.0000000000000000E+00 
    1.2499999999977310E-01     0.0000000000000000E+00     0.0000000000000000E+00 
    1.8749999999959341E-01     0.0000000000000000E+00     0.0000000000000000E+00 
    2.4999999999941089E-01     0.0000000000000000E+00     0.0000000000000000E+00 
    3.1249999999922851E-01     0.0000000000000000E+00     0.0000000000000000E+00 
    3.7499999999904610E-01     0.0000000000000000E+00     0.0000000000000000E+00 
    4.3749999999886358E-01     0.0000000000000000E+00     0.0000000000000000E+00 
    4.9999999999869210E-01     0.0000000000000000E+00     0.0000000000000000E+00 
    5.6249999999884603E-01     0.0000000000000000E+00     0.0000000000000000E+00 
    6.2499999999901090E-01     0.0000000000000000E+00     0.0000000000000000E+00 
    6.8749999999917577E-01     0.0000000000000000E+00     0.0000000000000000E+00 
    7.4999999999934064E-01     0.0000000000000000E+00     0.0000000000000000E+00 
    8.1249999999950551E-01     0.0000000000000000E+00     0.0000000000000000E+00 
    8.7499999999967026E-01     0.0000000000000000E+00     0.0000000000000000E+00 
    9.3749999999983513E-01     0.0000000000000000E+00     0.0000000000000000E+00 
    1.0000000000000000E+00     6.2499999999872928E-02     0.0000000000000000E+00 
    1.0000000000000000E+00     1.2499999999977310E-01     0.0000000000000000E+00 
    1.0000000000000000E+00     1.8749999999959341E-01     0.0000000000000000E+00 
    1.0000000000000000E+00     2.4999999999941089E-01     0.0000000000000000E+00 
    1.0000000000000000E+00     3.1249999999922851E-01     0.0000000000000000E+00 
    1.0000000000000000E+00     3.7499999999904610E-01     0.0000000000000000E+00 
    1.0000000000000000E+00     4.3749999999886358E-01     0.0000000000000000E+00 
    1.0000000000000000E+00     4.9999999999869210E-01     0.0000000000000000E+00 
    1.0000000000000000E+00     5.6249999999884603E-01     0.0000000000000000E+00 
    1.0000000000000000E+00     6.2499999999901090E-01     0.0000000000000000E+00 
    1.0000000000000000E+00     6.8749999999917577E-01     0.0000000000000000E+00 
    1.0000000000000000E+00     7.4999999999934064E-01     0.0000000000000000E+00 
    1.0000000000000000E+00     8.1249999999950551E-01     0.0000000000000000E+00 
    1.0000000000000000E+00     8.7499999999967026E-01     0.0000000000000000E+00 
    1.0000000000000000E+00     9.3749999999983513E-01     0.0000000000000000E+00 
    9.3749999999973976E-01     1.0000000000000000E+00     0.0000000000000000E+00 
    8.7499999999950118E-01     1.0000000000000000E+00     0.0000000000000000E+00 
    8.1249999999991318E-01     1.0000000000000000E+00     0.0000000000000000E+00 
    7.5000000000034706E-01     1.0000000000000000E+00     0.0000000000000000E+00 
    6.8750000000078049E-01     1.0000000000000000E+00     0.0000000000000000E+00 
    6.2500000000121403E-01     1.0000000000000000E+00     0.0000000000000000E+00 
    5.6250000000164757E-01     1.0000000000000000E+00     0.0000000000000000E+00 
    5.0000000000205946E-01     1.0000000000000000E+00     0.0000000000000000E+00 
    4.3750000000182099E-01     1.0000000000000000E+00     0.0000000000000000E+00 
    3.7500000000156092E-01     1.0000000000000000E+00     0.0000000000000000E+00 
    3.1250000000130068E-01     1.0000000000000000E+00     0.0000000000000000E+00 
    2.5000000000104050E-01     1.0000000000000000E+00     0.0000000000000000E+00 
    1.8750000000078040E-01     1.0000000000000000E+00     0.0000000000000000E+00 
    1.2500000000052031E-01     1.0000000000000000E+00     0.0000000000000000E+00 
    6.2500000000260125E-02     1.0000000000000000E+00     0.0000000000000000E+00 
    0.0000000000000000E+00     9.3749999999973976E-01     0.0000000000000000E+00 
    0.0000000000000000E+00     8.7499999999950118E-01     0.0000000000000000E+00 
    0.0000000000000000E+00     8.1249999999991318E-01     0.0000000000000000E+00 
    0.0000000000000000E+00     7.5000000000034706E-01     0.0000000000000000E+00 
    0.0000000000000000E+00     6.8750000000078049E-01     0.0000000000000000E+00 
    0.0000000000000000E+00     6.2500000000121403E-01     0.0000000000000000E+00 
    0.0000000000000000E+00     5.6250000000164757E-01     0.0000000000000000E+00 
    0.0000000000000000E+00     5.0000000000205946E-01     0.0000000000000000E+00 
    0.0000000000000000E+00     4.3750000000182099E-01     0.0000000000000000E+00 
    0.0000000000000000E+00     3.7500000000156092E-01     0.0000000000000000E+00 
    0.0000000000000000E+00     3.1250000000130068E-01     0.0000000000000000E+00 
    0.0000000000000000E+00     2.5000000000104050E-01     0.0000000000000000E+00 
    0.0000000000000000E+00     1.8750000000078040E-01     0.0000000000000000E+00 
    0.0000000000000000E+00     1.2500000000052031E-01     0.0000000000000000E+00 
    0.0000000000000000E+00     6.2500000000260125E-02     0.0000000000000000E+00 
    6.2499999999897131E-02     6.2500000000235922E-02     0.0000000000000000E+00 
    6.2499999999921327E-02     1.2500000000047351E-01     0.0000000000000000E+00 
    6.2499999999945530E-02     1.8750000000070621E-01     0.0000000000000000E+00 
    6.2499999999969733E-02     2.5000000000093858E-01     0.0000000000000000E+00 
    6.2499999999993928E-02     3.1250000000117117E-01     0.0000000000000000E+00 
    6.2500000000018124E-02     3.7500000000140382E-01     0.0000000000000000E+00 
    6.2500000000042327E-02     4.3750000000163619E-01     0.0000000000000000E+00 
    6.2500000000066530E-02     5.0000000000184897E-01     0.0000000000000000E+00 
    6.2500000000090733E-02     5.6250000000147260E-01     0.0000000000000000E+00 
    6.2500000000114922E-02     6.2500000000107636E-01     0.0000000000000000E+00 
    6.2500000000139125E-02     6.8750000000068034E-01     0.0000000000000000E+00 
    6.2500000000163328E-02     7.5000000000028411E-01     0.0000000000000000E+00 
    6.2500000000187531E-02     8.1249999999988787E-01     0.0000000000000000E+00 
    6.2500000000211720E-02     8.7499999999951172E-01     0.0000000000000000E+00 
    6.2500000000235922E-02     9.3749999999974565E-01     0.0000000000000000E+00 
    1.2499999999981980E-01     6.2500000000211733E-02     0.0000000000000000E+00 
    1.2499999999986650E-01     1.2500000000042691E-01     0.0000000000000000E+00 
    1.2499999999991319E-01     1.8750000000063199E-01     0.0000000000000000E+00 
    1.2499999999995989E-01     2.5000000000083678E-01     0.0000000000000000E+00 
    1.2500000000000661E-01     3.1250000000104172E-01     0.0000000000000000E+00 
    1.2500000000005329E-01     3.7500000000124661E-01     0.0000000000000000E+00 
    1.2500000000010000E-01     4.3750000000145117E-01     0.0000000000000000E+00 
    1.2500000000014669E-01     5.0000000000163858E-01     0.0000000000000000E+00 
    1.2500000000019340E-01     5.6250000000129741E-01     0.0000000000000000E+00 
    1.2500000000024011E-01     6.2500000000093847E-01     0.0000000000000000E+00 
    1.2500000000028680E-01     6.8750000000057998E-01     0.0000000000000000E+00 
    1.2500000000033351E-01     7.5000000000022127E-01     0.0000000000000000E+00 
    1.2500000000038020E-01     8.1249999999986211E-01     0.0000000000000000E+00 
    1.2500000000042691E-01     8.7499999999952238E-01     0.0000000000000000E+00 
    1.2500000000047359E-01     9.3749999999975164E-01     0.0000000000000000E+00 
    1.8749999999966760E-01     6.2500000000187531E-02     0.0000000000000000E+00 
    1.8749999999974179E-01     1.2500000000038020E-01     0.0000000000000000E+00 
    1.8749999999981601E-01     1.8750000000055780E-01     0.0000000000000000E+00 
    1.8749999999989009E-01     2.5000000000073502E-01     0.0000000000000000E+00 
    1.8749999999996431E-01     3.1250000000091221E-01     0.0000000000000000E+00 
    1.8750000000003850E-01     3.7500000000108941E-01     0.0000000000000000E+00 
    1.8750000000011269E-01     4.3750000000126649E-01     0.0000000000000000E+00 
    1.8750000000018691E-01     5.0000000000142808E-01     0.0000000000000000E+00 
    1.8750000000026110E-01     5.6250000000112244E-01     0.0000000000000000E+00 
    1.8750000000033529E-01     6.2500000000080080E-01     0.0000000000000000E+00 
    1.8750000000040951E-01     6.8750000000047962E-01     0.0000000000000000E+00 
    1.8750000000048361E-01     7.5000000000015843E-01     0.0000000000000000E+00 
    1.8750000000055780E-01     8.1249999999983680E-01     0.0000000000000000E+00 
    1.8750000000063199E-01     8.7499999999953304E-01     0.0000000000000000E+00 
    1.8750000000070621E-01     9.3749999999975764E-01     0.0000000000000000E+00 
    2.4999999999951281E-01     6.2500000000163314E-02     0.0000000000000000E+00 
    2.4999999999961461E-01     1.2500000000033351E-01     0.0000000000000000E+00 
    2.4999999999971650E-01     1.8750000000048361E-01     0.0000000000000000E+00 
    2.4999999999981831E-01     2.5000000000063310E-01     0.0000000000000000E+00 
    2.4999999999992020E-01     3.1250000000078260E-01     0.0000000000000000E+00 
    2.5000000000002198E-01     3.7500000000093209E-01     0.0000000000000000E+00 
    2.5000000000012390E-01     4.3750000000108180E-01     0.0000000000000000E+00 
    2.5000000000022571E-01     5.0000000000121769E-01     0.0000000000000000E+00 
    2.5000000000032763E-01     5.6250000000094724E-01     0.0000000000000000E+00 
    2.5000000000042938E-01     6.2500000000066314E-01     0.0000000000000000E+00 
    2.5000000000053119E-01     6.8750000000037925E-01     0.0000000000000000E+00 
[...]
CELL_DATA 256 
SCALARS Pressure double 1 
LOOKUP_TABLE default 

    2.3314345043596472E+00 
    2.2276013424945544E+00 
    2.1607783835205749E+00 
    2.1078262129717746E+00 
    2.0604783188886833E+00 
    2.0172449207958825E+00 
    1.9766645309425301E+00 
    1.9384706612143070E+00 
    1.9030567950975112E+00 
    1.8708458810202651E+00 
    1.8418743584276007E+00 
    1.8139135218997651E+00 
    1.7858440559593043E+00 
    1.7632573194196055E+00 
    1.7485445289117394E+00 
    1.7411499132573787E+00 
    2.2276191588683760E+00 
    2.1847528663392013E+00 
    2.1384915221672784E+00 
    2.0931221559972686E+00 
    2.0497400716260326E+00 
    2.0086394370378167E+00 
    1.9691293073151301E+00 
    1.9316123979520794E+00 
    1.8965848201252864E+00 
    1.8645234152886794E+00 
    1.8355457752938651E+00 
    1.8073133844427343E+00 
    1.7789049746647894E+00 
    1.7561263274521210E+00 
    1.7412411678594808E+00 
    1.7337584976786733E+00 
    2.1608276093488352E+00 
    2.1385224918428110E+00 
    2.1055770093935333E+00 
    2.0685483637118076E+00 
    2.0305616761573435E+00 
    1.9924303835094546E+00 
    1.9546868784594913E+00 
    1.9182826752050555E+00 
    1.8838579565503448E+00 
    1.8520511804219411E+00 
    1.8229926986162783E+00 
    1.7941654153009019E+00 
    1.7650398934809757E+00 
    1.7418302410352391E+00 
    1.7265737458198573E+00 
    1.7188968378301712E+00 
    2.1079192056873648E+00 
    2.0931924832158377E+00 
    2.0685849791912445E+00 
    2.0384799236571491E+00 
    2.0051852728099382E+00 
    1.9700059289184912E+00 
    1.9342634816595718E+00 
    1.8991045371084736E+00 
    1.8653507583438615E+00 
    1.8337272562690015E+00 
    1.8043859226978833E+00 
    1.7745426869064487E+00 
    1.7442077530089826E+00 
    1.7202439943179462E+00 
    1.7043696381581013E+00 
    1.6963680774153518E+00 
    2.0606087152067651E+00 
    2.0498414789196828E+00 
    2.0306305860991150E+00 
    2.0052201007141166E+00 
    1.9754198834510071E+00 
    1.9428487471333895E+00 
    1.9089793042434997E+00 
    1.8749514433422838E+00 
    1.8416762061750820E+00 
    1.8099334997726371E+00 
    1.7799392042815556E+00 
    1.7484753166312277E+00 
    1.7162847292891665E+00 
    1.6911472444237061E+00 
    1.6743417786210595E+00 
    1.6658499497321064E+00 
    2.0173928367370975E+00 
    2.0087670593976239E+00 
    1.9925313906355002E+00 
    1.9700760258365924E+00 
    1.9428856897348450E+00 
    1.9124307727578749E+00 
    1.8800301309871488E+00 
    1.8467416305846087E+00 
    1.8134868921549578E+00 
    1.7811064478441980E+00 
    1.7498341214369213E+00 
    1.7159061764806172E+00 
    1.6810470045045494E+00 
    1.6541867328048707E+00 
    1.6360489495392090E+00 
    1.6268553822930563E+00 
    1.9768405604794081E+00 
    1.9692897160419325E+00 
    1.9548222288066712E+00 
    1.9343673775312797E+00 
    1.9090478571625074E+00 
    1.8800622986436613E+00 
    1.8485209269503970E+00 
    1.8153468476689900E+00 
    1.7814479128338159E+00 
    1.7476780369599976E+00 
    1.7142138994163330E+00 
    1.6766675733880334E+00 
    1.6381138269470499E+00 
    1.6088263141317836E+00 
    1.5888395675887390E+00 
    1.5786598161246042E+00 
    1.9386740523072050E+00 
    1.9317995592402746E+00 
    1.9184451237648883E+00 
    1.8992375604798484E+00 
    1.8750517816582180E+00 
    1.8468070227894644E+00 
    1.8153788871732739E+00 
    1.7815741194653210E+00 
    1.7462096777642013E+00 
    1.7100904335382305E+00 
    1.6730936265668428E+00 
    1.6303196280654899E+00 
    1.5869335524932424E+00 
    1.5543902678667614E+00 
    1.5318653343908757E+00 
    1.5202909758689596E+00 
    1.9032818137972236E+00 
    1.8967945232145229E+00 
    1.8840459602472188E+00 
    1.8655120530594012E+00 
    1.8418063469710870E+00 
    1.8135827698721521E+00 
    1.7815122663023353E+00 
    1.7462417246613866E+00 
    1.7084457475316981E+00 
    1.6687312626214368E+00 
    1.6261105279968229E+00 
    1.5759334642478082E+00 
    1.5268645577585538E+00 
    1.4900519972331165E+00 
    1.4639645345324486E+00 
    1.4503524375348344E+00 
    1.8710896298613853E+00 
    1.8647546410196145E+00 
    1.8522636773160686E+00 
    1.8339148874984319E+00 
    1.8100917246849659E+00 
    1.7812325312861039E+00 
    1.7477736112996718E+00 
    1.7101533348828557E+00 
    1.6687620818639755E+00 
    1.6236988908449419E+00 
    1.5723691581722166E+00 
    1.5128800942515612E+00 
    1.4578556028224565E+00 
    1.4150245085331230E+00 
    1.3835993365667205E+00 
    1.3668082147068497E+00 
    1.8421359991967359E+00 
    1.8357970038810489E+00 
    1.8232267291596698E+00 
    1.8045965653515850E+00 
    1.7801218150822462E+00 
    1.7499861703792630E+00 
    1.7143335904043122E+00 
    1.6731794297226479E+00 
    1.6261624665170729E+00 
    1.5723917255143416E+00 
    1.5096419281093814E+00 
    1.4422037375125447E+00 
    1.3807564939559165E+00 
    1.3285810969384888E+00 
    1.2885789408178843E+00 
    1.2664601889850400E+00 
    1.8141877481615676E+00 
    1.8075769462300912E+00 
    1.7944115200645068E+00 
    1.7747659370199493E+00 
    1.7486718093693148E+00 
    1.7160725774869470E+00 
    1.6768010316398703E+00 
    1.6304206570275015E+00 
    1.5760035952136142E+00 
    1.5129260465540062E+00 
    1.4422279757828642E+00 
    1.3686599644206934E+00 
    1.2967662518812797E+00 
    1.2300167665454000E+00 
    1.1757253725502985E+00 
    1.1440209421837042E+00 
    1.7861325950236608E+00 
    1.7791829101259573E+00 
    1.7653005342857671E+00 
    1.7444461027887730E+00 
    1.7164972483116041E+00 
    1.6812308789248405E+00 
    1.6382675969569360E+00 
    1.5870590916194518E+00 
    1.5269637320831091E+00 
    1.4579316435913692E+00 
    1.3808071947077396E+00 
    1.2967904776812864E+00 
    1.2078965641964685E+00 
    1.1190134304429920E+00 
    1.0403139036411346E+00 
    9.8989129484099991E-01 
    1.7635592007643017E+00 
    1.7564188104545149E+00 
    1.7421073126239828E+00 
    1.7205007980229154E+00 
    1.6913802483127574E+00 
    1.6543933035144294E+00 
    1.6090044402626615E+00 
    1.5545406223810441E+00 
    1.4901749905733033E+00 
    1.4151209999485697E+00 
    1.3286499548982764E+00 
    1.2300596496589482E+00 
    1.1190326657920251E+00 
    9.9783853958666191E-01 
    8.7664841578888308E-01 
    7.8534870942749835E-01 
    1.7488499541895854E+00 
    1.7415378229515373E+00 
    1.7268559929541423E+00 
    1.7046328361305751E+00 
    1.6745826870391018E+00 
    1.6362655064090426E+00 
    1.5890292036656568E+00 
    1.5320278344539149E+00 
    1.4640997984666191E+00 
    1.3837076813708016E+00 
    1.2886594650389420E+00 
    1.1757803045756561E+00 
    1.0403458445080238E+00 
    8.7666157854737436E-01 
    6.8309062438926049E-01 
    4.8949503166360453E-01 
    1.7414483790547552E+00 
    1.7340492976691209E+00 
    1.7191744836697278E+00 
    1.6966278591190707E+00 
    1.6660885170157678E+00 
    1.6270709289037613E+00 
    1.5788493431982882E+00 
    1.5204538272101658E+00 
    1.4504884126843505E+00 
    1.3669176582713132E+00 
    1.2665427829200573E+00 
    1.1440789543619814E+00 
    9.8992754252790949E-01 
    7.8536733216943277E-01 
    4.8950129673346915E-01 
    0.0000000000000000E+00 

SCALARS Saturarion double 1 
LOOKUP_TABLE default 

    1.0000000000000009E+00 
    9.7214954415639698E-01 
    9.2630992913026866E-01 
    8.4772695136185761E-01 
    7.7721887521121025E-01 
    7.1608619662308182E-01 
    6.6206464424448530E-01 
    6.1481862184885105E-01 
    5.7449060173348554E-01 
    5.3954307696404735E-01 
    5.0016373274020320E-01 
    4.0474832161836410E-01 
    7.1695880778055526E-02 
    1.0000004013697996E-06 
    1.0000000000002303E-06 
    9.9999999999999995E-07 
    9.7214784259110421E-01 
    9.4522082853490064E-01 
    8.9783596785432995E-01 
    8.2994627276123456E-01 
    7.6638257531733012E-01 
    7.0882520938594451E-01 
    6.5725594099613049E-01 
    6.1174159832097541E-01 
    5.7278964669418198E-01 
    5.3875761461573801E-01 
    4.9937787383326898E-01 
    4.0105542919021209E-01 
    6.6600361262169755E-02 
    1.8117935269106373E-06 
    1.0000001543026935E-06 
    1.0000000000000216E-06 
    9.2630303885286436E-01 
    8.9783251538379538E-01 
    8.4855899469888052E-01 
    7.9460047679060464E-01 
    7.4166486047866576E-01 
    6.9144407368568217E-01 
    6.4527119433082880E-01 
    6.0424370393202376E-01 
    5.6882609845326393E-01 
    5.3631944923642016E-01 
    4.9674378320046803E-01 
    3.9518274245280577E-01 
    5.7580585071261910E-02 
    3.6178798543947098E-06 
    1.0000006165369800E-06 
    1.0000000000000720E-06 
    8.4770538630678771E-01 
    8.2992772231984979E-01 
    7.9458830440401318E-01 
    7.5321135246778792E-01 
    7.1016155898393163E-01 
    6.6794148159451994E-01 
    6.2869328506205313E-01 
    5.9403718845294784E-01 
    5.6322585123249369E-01 
    5.3258920829895484E-01 
    4.9341975573334557E-01 
    3.8646378778586693E-01 
    4.7811375868905291E-02 
    3.9512975066289675E-06 
    1.0000014223334212E-06 
    1.0000000000000133E-06 
    7.7718526966794077E-01 
    7.6636097050160135E-01 
    7.4164803314003780E-01 
    7.1015078924217567E-01 
    6.7602882309118728E-01 
    6.4185386597427352E-01 
    6.1044372837303107E-01 
    5.8292654732532001E-01 
    5.5628979210916452E-01 
    5.2778982430412680E-01 
    4.8889501700565180E-01 
    3.7337715992250275E-01 
    3.5460677200219816E-02 
    5.1741377190742097E-06 
    1.0000012456076224E-06 
    1.0000000000000296E-06 
    7.1609785245111268E-01 
    7.0882392141305972E-01 
    6.9143613568214379E-01 
    6.6793239160809414E-01 
    6.4184667242181503E-01 
    6.1628300472417819E-01 
    5.9300537046896074E-01 
    5.7099626677762982E-01 
    5.4733302386466709E-01 
    5.2140655065058694E-01 
    4.8324026142919735E-01 
    3.5687021836124261E-01 
    2.4042625068475192E-02 
    3.1273577290118680E-06 
    1.0000007654654754E-06 
    9.9999999999999974E-07 
    6.6208562391568393E-01 
    6.5725994680451605E-01 
    6.4526414366415563E-01 
    6.2868402531677825E-01 
    6.1043331216290719E-01 
    5.9299723799818060E-01 
    5.7581603086331001E-01 
    5.5665191322102392E-01 
    5.3578064602629560E-01 
    5.1311245339614553E-01 
    4.7616734872874866E-01 
    3.3763600392567966E-01 
    1.5884599303321704E-02 
    2.5001345774853473E-06 
    1.0000004175318578E-06 
    9.9999999999999995E-07 
    6.1482417268762535E-01 
    6.1173690174094419E-01 
    6.0422853715045133E-01 
    5.9401994108402256E-01 
    5.8290996506295911E-01 
    5.7098130562353566E-01 
    5.5664335836318124E-01 
    5.3986175884496879E-01 
    5.2240312592913285E-01 
    5.0269757962964801E-01 
    4.6631156080479008E-01 
    3.0915324338791561E-01 
    7.9177001451301663E-03 
    1.7787914075906273E-06 
    1.0000001417076028E-06 
    9.9999999999999995E-07 
    5.7448653954499873E-01 
    5.7277656314464476E-01 
    5.6880286270214531E-01 
    5.6319898417255776E-01 
    5.5626314242742736E-01 
    5.4730936065574165E-01 
    5.3576469462502840E-01 
    5.2239572582239890E-01 
    5.0767875689132791E-01 
    4.8932094205660026E-01 
    4.4965341215431726E-01 
    2.5597437135206486E-01 
    2.3923935828080254E-03 
    1.1296653321407906E-06 
    1.0000000163462633E-06 
    1.0000000000000002E-06 
    5.3955984282056824E-01 
    5.3874999874117624E-01 
    5.3629675960808576E-01 
    5.3255596397267990E-01 
    5.2775263442218689E-01 
    5.2137043547841211E-01 
    5.1308373290684528E-01 
    5.0267570062258060E-01 
    4.8930475295316489E-01 
    4.6896101496170528E-01 
    4.1725505980779071E-01 
    1.6968883053740066E-01 
    2.4204128399777806E-04 
    1.0103090362702703E-06 
    1.0000000000000203E-06 
    9.9999999999999995E-07 
    5.0018440862707525E-01 
    4.9937358531434684E-01 
    4.9670957977288949E-01 
    4.9336206266939187E-01 
    4.8882294219541833E-01 
    4.8316563554111536E-01 
    4.7608632596702605E-01 
    4.6622677324936640E-01 
    4.4957729012226355E-01 
    4.1714885683053787E-01 
    3.1118558889551567E-01 
    4.7167634416801399E-02 
    9.3950683052465331E-05 
    1.0006590621670641E-06 
    1.0000000000000052E-06 
    9.9999999999999995E-07 
    4.0471794294691121E-01 
    4.0096095323005521E-01 
    3.9500112155508360E-01 
    3.8619991359180622E-01 
    3.7302200343557212E-01 
    3.5643893207785310E-01 
    3.3717926829731482E-01 
    3.0864480437687714E-01 
    2.5544535950850339E-01 
    1.6925913947351071E-01 
    4.7033184450816667E-02 
    3.3324799586211608E-04 
    1.0102101350103725E-06 
    1.0000000005080817E-06 
    9.9999999999999995E-07 
    9.9999999999999995E-07 
    7.1592823590872684E-02 
    6.6412044863303571E-02 
    5.7305094931813495E-02 
    4.7486314592048079E-02 
    3.5152336273890292E-02 
    2.3782573785841848E-02 
    1.5677807574140733E-02 
    7.7985286937631172E-03 
    2.3474066102629398E-03 
    2.3889228584885941E-04 
    9.3361879816253966E-05 
    1.0101414970103352E-06 
    1.0000000021089835E-06 
    9.9999999999999995E-07 
    9.9999999999999995E-07 
    9.9999999999999995E-07 
    1.0000004127120256E-06 
    1.8278696520953400E-06 
    3.6338665440614038E-06 
    3.9447128881779191E-06 
    5.1255579100785171E-06 
    3.0886435509637928E-06 
    2.4726070263095051E-06 
    1.7572380346516491E-06 
    1.1251501176695379E-06 
    1.0101035254734351E-06 
    1.0006496947224789E-06 
    1.0000000005025435E-06 
    9.9999999999999995E-07 
    9.9999999999999995E-07 
    9.9999999999999995E-07 
    9.9999999999999995E-07 
    1.0000000000002354E-06 
    1.0000001570626580E-06 
    1.0000006182057630E-06 
    1.0000014497149098E-06 
    1.0000012302916461E-06 
    1.0000007415999153E-06 
    1.0000004055400416E-06 
    1.0000001367118698E-06 
    1.0000000157547471E-06 
    1.0000000000000201E-06 
    1.0000000000000055E-06 
    9.9999999999999995E-07 
    9.9999999999999995E-07 
    9.9999999999999995E-07 
    9.9999999999999995E-07 
    9.9999999999999995E-07 
    9.9999999999999995E-07 
    1.0000000000000220E-06 
    1.0000000000000722E-06 
    1.0000000000000122E-06 
    1.0000000000000273E-06 
    9.9999999999999974E-07 
    9.9999999999999995E-07 
    9.9999999999999995E-07 
    1.0000000000000002E-06 
    9.9999999999999995E-07 
    9.9999999999999995E-07 
    9.9999999999999995E-07 
    9.9999999999999995E-07 
    9.9999999999999995E-07 
    9.9999999999999995E-07 
    1.0000003936290473E-06 
