# vtk DataFile Version 2.0
Pressure Field Data 
ASCII 
DATASET UNSTRUCTURED_GRID 

POINTS 289 double 

    0.0000000000000000E+00     0.0000000000000000E+00     0.0000000000000000E+00 
    1.0000000000000000E+00     0.0000000000000000E+00     0.0000000000000000E+00 
    1.0000000000000000E+00     1.0000000000000000E+00     0.0000000000000000E+00 
    0.0000000000000000E+00     1.0000000000000000E+00     0.0000000000000000E+00 
    6.2499999999872928E-02     0.0000000000000000E+00     0.0000000000000000E+00 
    1.2499999999977310E-01     0.0000000000000000E+00     0.0000000000000000E+00 
    1.8749999999959341E-01     0.0000000000000000E+00     0.0000000000000000E+00 
    2.4999999999941089E-01     0.0000000000000000E+00     0.0000000000000000E+00 
    3.1249999999922851E-01     0.0000000000000000E+00     0.0000000000000000E+00 
    3.7499999999904610E-01     0.0000000000000000E+00     0.0000000000000000E+00 
    4.3749999999886358E-01     0.0000000000000000E+00     0.0000000000000000E+00 
    4.9999999999869210E-01     0.0000000000000000E+00     0.0000000000000000E+00 
    5.6249999999884603E-01     0.0000000000000000E+00     0.0000000000000000E+00 
    6.2499999999901090E-01     0.0000000000000000E+00     0.0000000000000000E+00 
    6.8749999999917577E-01     0.0000000000000000E+00     0.0000000000000000E+00 
    7.4999999999934064E-01     0.0000000000000000E+00     0.0000000000000000E+00 
    8.1249999999950551E-01     0.0000000000000000E+00     0.0000000000000000E+00 
    8.7499999999967026E-01     0.0000000000000000E+00     0.0000000000000000E+00 
    9.3749999999983513E-01     0.0000000000000000E+00     0.0000000000000000E+00 
    1.0000000000000000E+00     6.2499999999872928E-02     0.0000000000000000E+00 
    1.0000000000000000E+00     1.2499999999977310E-01     0.0000000000000000E+00 
    1.0000000000000000E+00     1.8749999999959341E-01     0.0000000000000000E+00 
    1.0000000000000000E+00     2.4999999999941089E-01     0.0000000000000000E+00 
    1.0000000000000000E+00     3.1249999999922851E-01     0.0000000000000000E+00 
    1.0000000000000000E+00     3.7499999999904610E-01     0.0000000000000000E+00 
    1.0000000000000000E+00     4.3749999999886358E-01     0.0000000000000000E+00 
    1.0000000000000000E+00     4.9999999999869210E-01     0.0000000000000000E+00 
    1.0000000000000000E+00     5.6249999999884603E-01     0.0000000000000000E+00 
    1.0000000000000000E+00     6.2499999999901090E-01     0.0000000000000000E+00 
    1.0000000000000000E+00     6.8749999999917577E-01     0.0000000000000000E+00 
    1.0000000000000000E+00     7.4999999999934064E-01     0.0000000000000000E+00 
    1.0000000000000000E+00     8.1249999999950551E-01     0.0000000000000000E+00 
    1.0000000000000000E+00     8.7499999999967026E-01     0.0000000000000000E+00 
    1.0000000000000000E+00     9.3749999999983513E-01     0.0000000000000000E+00 
    9.3749999999973976E-01     1.0000000000000000E+00     0.0000000000000000E+00 
    8.7499999999950118E-01     1.0000000000000000E+00     0.0000000000000000E+00 
    8.1249999999991318E-01     1.0000000000000000E+00     0.0000000000000000E+00 
    7.5000000000034706E-01     1.0000000000000000E+00     0.0000000000000000E+00 
    6.8750000000078049E-01     1.0000000000000000E+00     0.0000000000000000E+00 
    6.2500000000121403E-01     1.0000000000000000E+00     0.0000000000000000E+00 
    5.6250000000164757E-01     1.0000000000000000E+00     0.0000000000000000E+00 
    5.0000000000205946E-01     1.0000000000000000E+00     0.0000000000000000E+00 
    4.3750000000182099E-01     1.0000000000000000E+00     0.0000000000000000E+00 
    3.7500000000156092E-01     1.0000000000000000E+00     0.0000000000000000E+00 
    3.1250000000130068E-01     1.0000000000000000E+00     0.0000000000000000E+00 
    2.5000000000104050E-01     1.0000000000000000E+00     0.0000000000000000E+00 
    1.8750000000078040E-01     1.0000000000000000E+00     0.0000000000000000E+00 
    1.2500000000052031E-01     1.0000000000000000E+00     0.0000000000000000E+00 
    6.2500000000260125E-02     1.0000000000000000E+00     0.0000000000000000E+00 
    0.0000000000000000E+00     9.3749999999973976E-01     0.0000000000000000E+00 
    0.0000000000000000E+00     8.7499999999950118E-01     0.0000000000000000E+00 
    0.0000000000000000E+00     8.1249999999991318E-01     0.0000000000000000E+00 
    0.0000000000000000E+00     7.5000000000034706E-01     0.0000000000000000E+00 
    0.0000000000000000E+00     6.8750000000078049E-01     0.0000000000000000E+00 
    0.0000000000000000E+00     6.2500000000121403E-01     0.0000000000000000E+00 
    0.0000000000000000E+00     5.6250000000164757E-01     0.0000000000000000E+00 
    0.0000000000000000E+00     5.0000000000205946E-01     0.0000000000000000E+00 
    0.0000000000000000E+00     4.3750000000182099E-01     0.0000000000000000E+00 
    0.0000000000000000E+00     3.7500000000156092E-01     0.0000000000000000E+00 
    0.0000000000000000E+00     3.1250000000130068E-01     0.0000000000000000E+00 
    0.0000000000000000E+00     2.5000000000104050E-01     0.0000000000000000E+00 
    0.0000000000000000E+00     1.8750000000078040E-01     0.0000000000000000E+00 
    0.0000000000000000E+00     1.2500000000052031E-01     0.0000000000000000E+00 
    0.0000000000000000E+00     6.2500000000260125E-02     0.0000000000000000E+00 
    6.2499999999897131E-02     6.2500000000235922E-02     0.0000000000000000E+00 
    6.2499999999921327E-02     1.2500000000047351E-01     0.0000000000000000E+00 
    6.2499999999945530E-02     1.8750000000070621E-01     0.0000000000000000E+00 
    6.2499999999969733E-02     2.5000000000093858E-01     0.0000000000000000E+00 
    6.2499999999993928E-02     3.1250000000117117E-01     0.0000000000000000E+00 
    6.2500000000018124E-02     3.7500000000140382E-01     0.0000000000000000E+00 
    6.2500000000042327E-02     4.3750000000163619E-01     0.0000000000000000E+00 
    6.2500000000066530E-02     5.0000000000184897E-01     0.0000000000000000E+00 
    6.2500000000090733E-02     5.6250000000147260E-01     0.0000000000000000E+00 
    6.2500000000114922E-02     6.2500000000107636E-01     0.0000000000000000E+00 
    6.2500000000139125E-02     6.8750000000068034E-01     0.0000000000000000E+00 
    6.2500000000163328E-02     7.5000000000028411E-01     0.0000000000000000E+00 
    6.2500000000187531E-02     8.1249999999988787E-01     0.0000000000000000E+00 
    6.2500000000211720E-02     8.7499999999951172E-01     0.0000000000000000E+00 
    6.2500000000235922E-02     9.3749999999974565E-01     0.0000000000000000E+00 
    1.2499999999981980E-01     6.2500000000211733E-02     0.0000000000000000E+00 
    1.2499999999986650E-01     1.2500000000042691E-01     0.0000000000000000E+00 
    1.2499999999991319E-01     1.8750000000063199E-01     0.0000000000000000E+00 
    1.2499999999995989E-01     2.5000000000083678E-01     0.0000000000000000E+00 
    1.2500000000000661E-01     3.1250000000104172E-01     0.0000000000000000E+00 
    1.2500000000005329E-01     3.7500000000124661E-01     0.0000000000000000E+00 
    1.2500000000010000E-01     4.3750000000145117E-01     0.0000000000000000E+00 
    1.2500000000014669E-01     5.0000000000163858E-01     0.0000000000000000E+00 
    1.2500000000019340E-01     5.6250000000129741E-01     0.0000000000000000E+00 
    1.2500000000024011E-01     6.2500000000093847E-01     0.0000000000000000E+00 
    1.2500000000028680E-01     6.8750000000057998E-01     0.0000000000000000E+00 
    1.2500000000033351E-01     7.5000000000022127E-01     0.0000000000000000E+00 
    1.2500000000038020E-01     8.1249999999986211E-01     0.0000000000000000E+00 
    1.2500000000042691E-01     8.7499999999952238E-01     0.0000000000000000E+00 
    1.2500000000047359E-01     9.3749999999975164E-01     0.0000000000000000E+00 
    1.8749999999966760E-01     6.2500000000187531E-02     0.0000000000000000E+00 
    1.8749999999974179E-01     1.2500000000038020E-01     0.0000000000000000E+00 
    1.8749999999981601E-01     1.8750000000055780E-01     0.0000000000000000E+00 
    1.8749999999989009E-01     2.5000000000073502E-01     0.0000000000000000E+00 
    1.8749999999996431E-01     3.1250000000091221E-01     0.0000000000000000E+00 
    1.8750000000003850E-01     3.7500000000108941E-01     0.0000000000000000E+00 
    1.8750000000011269E-01     4.3750000000126649E-01     0.0000000000000000E+00 
    1.8750000000018691E-01     5.0000000000142808E-01     0.0000000000000000E+00 
    1.8750000000026110E-01     5.6250000000112244E-01     0.0000000000000000E+00 
    1.8750000000033529E-01     6.2500000000080080E-01     0.0000000000000000E+00 
    1.8750000000040951E-01     6.8750000000047962E-01     0.0000000000000000E+00 
    1.8750000000048361E-01     7.5000000000015843E-01     0.0000000000000000E+00 
    1.8750000000055780E-01     8.1249999999983680E-01     0.0000000000000000E+00 
    1.8750000000063199E-01     8.7499999999953304E-01     0.0000000000000000E+00 
    1.8750000000070621E-01     9.3749999999975764E-01     0.0000000000000000E+00 
    2.4999999999951281E-01     6.2500000000163314E-02     0.0000000000000000E+00 
    2.4999999999961461E-01     1.2500000000033351E-01     0.0000000000000000E+00 
    2.4999999999971650E-01     1.8750000000048361E-01     0.0000000000000000E+00 
    2.4999999999981831E-01     2.5000000000063310E-01     0.0000000000000000E+00 
    2.4999999999992020E-01     3.1250000000078260E-01     0.0000000000000000E+00 
    2.5000000000002198E-01     3.7500000000093209E-01     0.0000000000000000E+00 
    2.5000000000012390E-01     4.3750000000108180E-01     0.0000000000000000E+00 
    2.5000000000022571E-01     5.0000000000121769E-01     0.0000000000000000E+00 
    2.5000000000032763E-01     5.6250000000094724E-01     0.0000000000000000E+00 
    2.5000000000042938E-01     6.2500000000066314E-01     0.0000000000000000E+00 
    2.5000000000053119E-01     6.8750000000037925E-01     0.0000000000000000E+00 
[...]
CELL_DATA 256 
SCALARS Pressure double 1 
LOOKUP_TABLE default 

    1.9523343958666890E+00 
    1.7196416602729259E+00 
    1.5878470141960581E+00 
    1.4819855577191754E+00 
    1.3842805404529572E+00 
    1.2888299280588444E+00 
    1.1933237519847228E+00 
    1.0969139826130321E+00 
    9.9955609506159204E-01 
    9.0185837432643023E-01 
    8.0516192765877015E-01 
    7.1166417082030964E-01 
    6.2426539804766534E-01 
    5.4739335414357515E-01 
    5.0441578875369342E-01 
    4.9169662982428602E-01 
    1.8809456200380472E+00 
    1.7236615613938366E+00 
    1.5965710107225171E+00 
    1.4909797869226937E+00 
    1.3933517389060495E+00 
    1.2980257904758472E+00 
    1.2026602860852229E+00 
    1.1063587964874166E+00 
    1.0090186422723777E+00 
    9.1116895264296971E-01 
    8.1404777338528478E-01 
    7.1974942065666281E-01 
    6.3109935470847456E-01 
    5.5202844527750694E-01 
    5.0546694813131987E-01 
    4.9120802762806332E-01 
    1.8255351460320184E+00 
    1.7170192623180645E+00 
    1.6017300058984125E+00 
    1.4986045397839638E+00 
    1.4017613930589012E+00 
    1.3068365218136495E+00 
    1.2117266477757285E+00 
    1.1155683705957653E+00 
    1.0182234251102580E+00 
    9.2013663893887232E-01 
    8.2241970275035925E-01 
    7.2703525427022553E-01 
    6.3676473213443352E-01 
    5.5534935756992942E-01 
    5.0482466909753365E-01 
    4.8930817772361263E-01 
    1.7819541235902416E+00 
    1.7052142912534884E+00 
    1.6036153736379550E+00 
    1.5047583308317045E+00 
    1.4094488002111334E+00 
    1.3152378460198351E+00 
    1.2205202620926610E+00 
    1.1245574013178770E+00 
    1.0272050302255609E+00 
    9.2882300852945432E-01 
    8.3037352672005227E-01 
    7.3364843777705546E-01 
    6.4137268810398596E-01 
    5.5731242451454432E-01 
    5.0237474081708677E-01 
    4.8570059016808137E-01 
    1.7472890776308416E+00 
    1.6914204671964050E+00 
    1.6029678277379558E+00 
    1.5095036670393240E+00 
    1.4163988822364628E+00 
    1.3232212536752257E+00 
    1.2290455070819584E+00 
    1.1333441415885708E+00 
    1.0360002180413419E+00 
    9.3729209033246808E-01 
    8.3801016017266949E-01 
    7.3972550004716342E-01 
    6.4505163476816973E-01 
    5.5789193517588931E-01 
    4.9798374630062642E-01 
    4.8007997450982870E-01 
    1.7194982577170990E+00 
    1.6774423590884897E+00 
    1.6005996961237734E+00 
    1.5130274147802631E+00 
    1.4226460730840915E+00 
    1.3307971511838941E+00 
    1.2373148776069134E+00 
    1.1419504932254112E+00 
    1.0446473110918710E+00 
    9.4560933500652178E-01 
    8.4543521820929135E-01 
    7.4541628390113157E-01 
    6.4795710477162982E-01 
    5.5709854947452320E-01 
    4.9151907034637249E-01 
    4.7210716844416084E-01 
    1.6971285878586935E+00 
    1.6642773720037805E+00 
    1.5972389018462263E+00 
    1.5155876907953885E+00 
    1.4282690746379385E+00 
    1.3379959489238351E+00 
    1.2453497710715735E+00 
    1.1504020431077437E+00 
    1.0531855013970557E+00 
    9.5384021756212434E-01 
    8.5275761030349961E-01 
    7.5088561062995152E-01 
    6.5028179074222558E-01 
    5.5500289247538936E-01 
    4.8285513213782899E-01 
    4.6136921653429619E-01 
    1.6791282023554992E+00 
    1.6524500263515813E+00 
    1.5934799037024601E+00 
    1.5174697890518194E+00 
    1.4333805971041205E+00 
    1.3448670867055335E+00 
    1.2531807490117945E+00 
    1.1587280221375071E+00 
    1.0616541347039834E+00 
    9.6204854857636135E-01 
    8.6008705604059155E-01 
    7.5631267711248085E-01 
    6.5226409009005526E-01 
    5.5175851538053067E-01 
    4.7187463487820408E-01 
    4.4731731537953673E-01 
    1.6647215362679069E+00 
    1.6422107442040654E+00 
    1.5897830325754929E+00 
    1.5189562244984627E+00 
    1.4381158406317895E+00 
    1.3514765324604094E+00 
    1.2608472603558702E+00 
    1.1669611807830926E+00 
    1.0700920325730086E+00 
    9.7029460401775303E-01 
    8.6753051027075523E-01 
    7.6188765009218951E-01 
    6.5419412579325043E-01 
    5.4762702064988600E-01 
    4.5847425693109645E-01 
    4.2917053360516128E-01 
    1.6533250018048022E+00 
    1.6336538062641233E+00 
    1.5864929232052281E+00 
    1.5203094385072997E+00 
    1.4426220916076324E+00 
    1.3579034714760152E+00 
    1.2683969346586557E+00 
    1.1751376151028965E+00 
    1.0785369422210442E+00 
    9.7863325709169735E-01 
    8.7518762805047423E-01 
    7.6780480952595220E-01 
    6.5641535954628616E-01 
    5.4301124729764327E-01 
    4.4259416523553557E-01 
    4.0576985689071710E-01 
    1.6444889959707019E+00 
    1.6267869899276439E+00 
    1.5838620321763728E+00 
    1.5217638919429459E+00 
    1.4470505372955673E+00 
    1.3642368330389485E+00 
    1.2758846252663210E+00 
    1.1832966184500147E+00 
    1.0870252391831159E+00 
    9.8711238606835583E-01 
    8.8314564142365315E-01 
    7.7425170413681177E-01 
    6.5931810838119342E-01 
    5.3849959404086312E-01 
    4.2430880696637868E-01 
    3.7537467401214425E-01 
    1.6378568391112092E+00 
    1.6215721714648272E+00 
    1.5820729870435792E+00 
    1.5235242777982543E+00 
    1.4515504951226701E+00 
    1.3705720951050460E+00 
    1.2833713955853476E+00 
    1.1914806735416998E+00 
    1.0955920545371407E+00 
    9.9577193735533509E-01 
    8.9147437269485086E-01 
    7.8139436067419388E-01 
    6.6331910966110130E-01 
    5.3491435263928333E-01 
    4.0404845453740967E-01 
    3.3544410533326940E-01 
    1.6331339428021314E+00 
    1.6179479086656421E+00 
    1.5812569891528141E+00 
    1.5257669256001432E+00 
    1.4562655195666496E+00 
    1.3770084472799673E+00 
    1.2909235547280864E+00 
    1.1997357396261625E+00 
    1.1042721099688009E+00 
    1.0046442079742182E+00 
    9.0022261279111582E-01 
    7.8935996128542796E-01 
    6.6882014133848455E-01 
    5.3333664096698830E-01 
    3.8303823274892623E-01 
    2.8253355916794359E-01 
    1.6300602949231233E+00 
    1.6158379199850199E+00 
    1.5815050766579453E+00 
    1.5286403475369901E+00 
    1.4613291953473231E+00 
    1.3836452173519018E+00 
    1.2986112568140289E+00 
    1.2081119133801768E+00 
    1.1131019070338382E+00 
    1.0137565893405378E+00 
    9.0941817603215758E-01 
    7.9822115590587650E-01 
    6.7614137118351469E-01 
    5.3504992651400840E-01 
    3.6398009706227341E-01 
    2.1234730801362109E-01 
    1.6283731694521340E+00 
    1.6151355772235005E+00 
    1.5828590248076113E+00 
    1.5322527605692036E+00 
    1.4668517843310858E+00 
    1.3905714882925497E+00 
    1.3065029212102695E+00 
    1.2166634009992545E+00 
    1.1221254331303074E+00 
    1.0231422102693422E+00 
    9.1908022418386415E-01 
    8.0799609272554751E-01 
    6.8544299544283671E-01 
    5.4131320375761161E-01 
    3.5198129237435405E-01 
    1.1944739028611907E-01 
    1.6278687842876125E+00 
    1.6157442603118379E+00 
    1.5853370490614160E+00 
    1.5366890640387059E+00 
    1.4729321924917109E+00 
    1.3978751511222003E+00 
    1.3146716854612588E+00 
    1.2254521408456975E+00 
    1.1313949038149020E+00 
    1.0328385021775610E+00 
    9.2921818746570861E-01 
    8.1864893662639782E-01 
    6.9669242146350185E-01 
    5.5294213450267538E-01 
    3.5685146897056885E-01 
    0.0000000000000000E+00 

SCALARS Saturarion double 1 
LOOKUP_TABLE default 

    1.0000000000000000E+00 
    9.8455829372375947E-01 
    9.6441619372780119E-01 
    9.4249810531866685E-01 
    9.2056949258188303E-01 
    8.9910384983589220E-01 
    8.7807875595435436E-01 
    8.5722542111340194E-01 
    8.3605035012514661E-01 
    8.1367955953572202E-01 
    7.8833725782923092E-01 
    7.5550391656694660E-01 
    6.9903234151876137E-01 
    5.3556225120998757E-01 
    1.1960939830431362E-01 
    4.8428278146720827E-04 
    9.9502920015854923E-01 
    9.8219531016914685E-01 
    9.6350869371322534E-01 
    9.4228506927516631E-01 
    9.2067446641378214E-01 
    8.9938562400473387E-01 
    8.7849224483774824E-01 
    8.5777379854509261E-01 
    8.3677632137477398E-01 
    8.1468207341221277E-01 
    7.8983741586947143E-01 
    7.5810340393486708E-01 
    7.0524435312202871E-01 
    5.6126807784440569E-01 
    1.6324285632389030E-01 
    1.3355599194847568E-03 
    9.9088799382975212E-01 
    9.7874643154171326E-01 
    9.6122199383335227E-01 
    9.4087833676683563E-01 
    9.1979870290687515E-01 
    8.9886072640937476E-01 
    8.7824194837647884E-01 
    8.5777873046858466E-01 
    8.3706106316714179E-01 
    8.1532869198433189E-01 
    7.9104554981491793E-01 
    7.6041458116406657E-01 
    7.1070571402109628E-01 
    5.8122868393096461E-01 
    2.0574988129227376E-01 
    2.9428643890471989E-03 
    9.8599439507408670E-01 
    9.7443042063940277E-01 
    9.5783579887012549E-01 
    9.3838316321147353E-01 
    9.1795609637349584E-01 
    8.9749916369719762E-01 
    8.7727340456570269E-01 
    8.5717110547267306E-01 
    8.3682769206715779E-01 
    8.1554134330660688E-01 
    7.9189059140177787E-01 
    7.6239282075293691E-01 
    7.1559479809889281E-01 
    5.9847221772208159E-01 
    2.5033953942301018E-01 
    5.9191617041479691E-03 
    9.8012247430968980E-01 
    9.6920855561447761E-01 
    9.5345793960354741E-01 
    9.3487849858743211E-01 
    9.1517656457206475E-01 
    8.9530115921881936E-01 
    8.7556942336900068E-01 
    8.5592241390855162E-01 
    8.3603961493584122E-01 
    8.1527784038263040E-01 
    7.9232921325756311E-01 
    7.6400985225640128E-01 
    7.2000780380508578E-01 
    6.1385864617536134E-01 
    2.9541074393377498E-01 
    1.1070855053265348E-02 
    9.7309957159840443E-01 
    9.6298662698327853E-01 
    9.4808720762674137E-01 
    9.3038234209990778E-01 
    9.1145988806852474E-01 
    8.9224958462453685E-01 
    8.7310225683062737E-01 
    8.5399812339186887E-01 
    8.3465700664296261E-01 
    8.1449324851457072E-01 
    7.9231238925635361E-01 
    7.6522171392655036E-01 
    7.2396210142732609E-01 
    6.2776206340534602E-01 
    3.3931455182160558E-01 
    1.9479997408185200E-02 
    9.6475121834155342E-01 
    9.5563431817518107E-01 
    9.4165498644233381E-01 
    9.2485645865118815E-01 
    9.0676803209132850E-01 
    8.8830009731721093E-01 
    8.6982317301629342E-01 
    8.5134716614693950E-01 
    8.3262680870284522E-01 
    8.1313111127255377E-01 
    7.9177835401479191E-01 
    7.6596442221171734E-01 
    7.2742269759678868E-01 
    6.4038387271842179E-01 
    3.8075702312548959E-01 
    3.2500792921166553E-02 
    9.5487437438816147E-01 
    9.4697909887952225E-01 
    9.3403425182131505E-01 
    9.1820569583864653E-01 
    9.0101693920947001E-01 
    8.8337128990304659E-01 
    8.6565277403823238E-01 
    8.4789296007084836E-01 
    8.2987485694495899E-01 
    8.1111715104824356E-01 
    7.9064825455591092E-01 
    7.6615224171550766E-01 
    7.3031507049900490E-01 
    6.5182588775603756E-01 
    4.1909550834718950E-01 
    5.1781347438333437E-02 
    9.4320693035856829E-01 
    9.3678659796481145E-01 
    9.2502875398057716E-01 
    9.1026574225233770E-01 
    8.9406068706525166E-01 
    8.7732801477784239E-01 
    8.6046512732603497E-01 
    8.4351902869512363E-01 
    8.2629332563591096E-01 
    8.0834875432922326E-01 
    7.8881784608421646E-01 
    7.6567167808436143E-01 
    7.3252546895512893E-01 
    6.6210886833198357E-01 
    4.5424107172026418E-01 
    7.9190400907517597E-02 
    9.2937950106528378E-01 
    9.2472213226625288E-01 
    9.1434098140897024E-01 
    9.0077250865370240E-01 
    8.8565989343854878E-01 
    8.6995002245380548E-01 
    8.5405816012415658E-01 
    8.3804219218233400E-01 
    8.2171740059274867E-01 
    8.0467547561367958E-01 
    7.8614170267686567E-01 
    7.6436826781267464E-01 
    7.3388966929700228E-01 
    6.7117042271567962E-01 
    4.8641290255436181E-01 
    1.1662170904256275E-01 
    9.1282478181262461E-01 
    9.1027359276205000E-01 
    9.0150206559919499E-01 
    8.8929504771288370E-01 
    8.7541549421638931E-01 
    8.6086732832233881E-01 
    8.4609258044669944E-01 
    8.3115700831435502E-01 
    8.1587666608564913E-01 
    7.9985811471723134E-01 
    7.8239986082806756E-01 
    7.6201849620579076E-01 
    7.3416500653912908E-01 
    6.7884294997327088E-01 
    5.1588478553066719E-01 
    1.6507313137828972E-01 
    8.9257391942836295E-01 
    8.9257590887873761E-01 
    8.8570844730726328E-01 
    8.7507733212829364E-01 
    8.6261255090011890E-01 
    8.4940697197026827E-01 
    8.3594549481763891E-01 
    8.2230134377541164E-01 
    8.0827703681700569E-01 
    7.9346948574195686E-01 
    7.7721740998059596E-01 
    7.5826381447200109E-01 
    7.3296558566839265E-01 
    6.8479172320168391E-01 
    5.4279923234183636E-01 
    2.2292722885721949E-01 
    8.6667769984279774E-01 
    8.6991707431436338E-01 
    8.6536039941769904E-01 
    8.5658607028592559E-01 
    8.4576768187711238E-01 
    8.3414118881904320E-01 
    8.2227028579825667E-01 
    8.1024613440461657E-01 
    7.9783998379447574E-01 
    7.8459651760030658E-01 
    7.6983180801826412E-01 
    7.5243023997042191E-01 
    7.2959375471410859E-01 
    6.8833911675258741E-01 
    5.6698949651484687E-01 
    2.8467848638040538E-01 
    8.2983668643630093E-01 
    8.3775383776978540E-01 
    8.3621326273909713E-01 
    8.2968015990218169E-01 
    8.2076373541947589E-01 
    8.1098394796273643E-01 
    8.0109797142129047E-01 
    7.9128437891383041E-01 
    7.8128231673469173E-01 
    7.7050479059564569E-01 
    7.5809390069260618E-01 
    7.4284226102359574E-01 
    7.2250893175152398E-01 
    6.8788400369831215E-01 
    5.8762580536321318E-01 
    3.4389517452077206E-01 
    7.5895529408602680E-01 
    7.7632513139653081E-01 
    7.7987258344642729E-01 
    7.7632756483638476E-01 
    7.6942579439246772E-01 
    7.6147603713098644E-01 
    7.5392010646805352E-01 
    7.4751759772628257E-01 
    7.4233557409408679E-01 
    7.3765758357829447E-01 
    7.3195102527327871E-01 
    7.2297782355795637E-01 
    7.0778189526378876E-01 
    6.8033072548332763E-01 
    6.0328295492967865E-01 
    3.9917083384122903E-01 
    4.8153817305970320E-01 
    5.6150980864296030E-01 
    5.8698597073050551E-01 
    5.9185794039148965E-01 
    5.8655693198801007E-01 
    5.7592824904138706E-01 
    5.6278839588524676E-01 
    5.4925370341085011E-01 
    5.3752476333708055E-01 
    5.3021656808051409E-01 
    5.2922450732994630E-01 
    5.3113685063066896E-01 
    5.2006749298591060E-01 
    4.7670503718672214E-01 
    4.5878538684128334E-01 
    3.9494211101322457E-01 
