# vtk DataFile Version 2.0
Pressure Field Data 
ASCII 
DATASET UNSTRUCTURED_GRID 

POINTS 289 double 

    0.0000000000000000E+00     0.0000000000000000E+00     0.0000000000000000E+00 
    1.0000000000000000E+00     0.0000000000000000E+00     0.0000000000000000E+00 
    1.0000000000000000E+00     1.0000000000000000E+00     0.0000000000000000E+00 
    0.0000000000000000E+00     1.0000000000000000E+00     0.0000000000000000E+00 
    6.2499999999872928E-02     0.0000000000000000E+00     0.0000000000000000E+00 
    1.2499999999977310E-01     0.0000000000000000E+00     0.0000000000000000E+00 
    1.8749999999959341E-01     0.0000000000000000E+00     0.0000000000000000E+00 
    2.4999999999941089E-01     0.0000000000000000E+00     0.0000000000000000E+00 
    3.1249999999922851E-01     0.0000000000000000E+00     0.0000000000000000E+00 
    3.7499999999904610E-01     0.0000000000000000E+00     0.0000000000000000E+00 
    4.3749999999886358E-01     0.0000000000000000E+00     0.0000000000000000E+00 
    4.9999999999869210E-01     0.0000000000000000E+00     0.0000000000000000E+00 
    5.6249999999884603E-01     0.0000000000000000E+00     0.0000000000000000E+00 
    6.2499999999901090E-01     0.0000000000000000E+00     0.0000000000000000E+00 
    6.8749999999917577E-01     0.0000000000000000E+00     0.0000000000000000E+00 
    7.4999999999934064E-01     0.0000000000000000E+00     0.0000000000000000E+00 
    8.1249999999950551E-01     0.0000000000000000E+00     0.0000000000000000E+00 
    8.7499999999967026E-01     0.0000000000000000E+00     0.0000000000000000E+00 
    9.3749999999983513E-01     0.0000000000000000E+00     0.0000000000000000E+00 
    1.0000000000000000E+00     6.2499999999872928E-02     0.0000000000000000E+00 
    1.0000000000000000E+00     1.2499999999977310E-01     0.0000000000000000E+00 
    1.0000000000000000E+00     1.8749999999959341E-01     0.0000000000000000E+00 
    1.0000000000000000E+00     2.4999999999941089E-01     0.0000000000000000E+00 
    1.0000000000000000E+00     3.1249999999922851E-01     0.0000000000000000E+00 
    1.0000000000000000E+00     3.7499999999904610E-01     0.0000000000000000E+00 
    1.0000000000000000E+00     4.3749999999886358E-01     0.0000000000000000E+00 
    1.0000000000000000E+00     4.9999999999869210E-01     0.0000000000000000E+00 
    1.0000000000000000E+00     5.6249999999884603E-01     0.0000000000000000E+00 
    1.0000000000000000E+00     6.2499999999901090E-01     0.0000000000000000E+00 
    1.0000000000000000E+00     6.8749999999917577E-01     0.0000000000000000E+00 
    1.0000000000000000E+00     7.4999999999934064E-01     0.0000000000000000E+00 
    1.0000000000000000E+00     8.1249999999950551E-01     0.0000000000000000E+00 
    1.0000000000000000E+00     8.7499999999967026E-01     0.0000000000000000E+00 
    1.0000000000000000E+00     9.3749999999983513E-01     0.0000000000000000E+00 
    9.3749999999973976E-01     1.0000000000000000E+00     0.0000000000000000E+00 
    8.7499999999950118E-01     1.0000000000000000E+00     0.0000000000000000E+00 
    8.1249999999991318E-01     1.0000000000000000E+00     0.0000000000000000E+00 
    7.5000000000034706E-01     1.0000000000000000E+00     0.0000000000000000E+00 
    6.8750000000078049E-01     1.0000000000000000E+00     0.0000000000000000E+00 
    6.2500000000121403E-01     1.0000000000000000E+00     0.0000000000000000E+00 
    5.6250000000164757E-01     1.0000000000000000E+00     0.0000000000000000E+00 
    5.0000000000205946E-01     1.0000000000000000E+00     0.0000000000000000E+00 
    4.3750000000182099E-01     1.0000000000000000E+00     0.0000000000000000E+00 
    3.7500000000156092E-01     1.0000000000000000E+00     0.0000000000000000E+00 
    3.1250000000130068E-01     1.0000000000000000E+00     0.0000000000000000E+00 
    2.5000000000104050E-01     1.0000000000000000E+00     0.0000000000000000E+00 
    1.8750000000078040E-01     1.0000000000000000E+00     0.0000000000000000E+00 
    1.2500000000052031E-01     1.0000000000000000E+00     0.0000000000000000E+00 
    6.2500000000260125E-02     1.0000000000000000E+00     0.0000000000000000E+00 
    0.0000000000000000E+00     9.3749999999973976E-01     0.0000000000000000E+00 
    0.0000000000000000E+00     8.7499999999950118E-01     0.0000000000000000E+00 
    0.0000000000000000E+00     8.1249999999991318E-01     0.0000000000000000E+00 
    0.0000000000000000E+00     7.5000000000034706E-01     0.0000000000000000E+00 
    0.0000000000000000E+00     6.8750000000078049E-01     0.0000000000000000E+00 
    0.0000000000000000E+00     6.2500000000121403E-01     0.0000000000000000E+00 
    0.0000000000000000E+00     5.6250000000164757E-01     0.0000000000000000E+00 
    0.0000000000000000E+00     5.0000000000205946E-01     0.0000000000000000E+00 
    0.0000000000000000E+00     4.3750000000182099E-01     0.0000000000000000E+00 
    0.0000000000000000E+00     3.7500000000156092E-01     0.0000000000000000E+00 
    0.0000000000000000E+00     3.1250000000130068E-01     0.0000000000000000E+00 
    0.0000000000000000E+00     2.5000000000104050E-01     0.0000000000000000E+00 
    0.0000000000000000E+00     1.8750000000078040E-01     0.0000000000000000E+00 
    0.0000000000000000E+00     1.2500000000052031E-01     0.0000000000000000E+00 
    0.0000000000000000E+00     6.2500000000260125E-02     0.0000000000000000E+00 
    6.2499999999897131E-02     6.2500000000235922E-02     0.0000000000000000E+00 
    6.2499999999921327E-02     1.2500000000047351E-01     0.0000000000000000E+00 
    6.2499999999945530E-02     1.8750000000070621E-01     0.0000000000000000E+00 
    6.2499999999969733E-02     2.5000000000093858E-01     0.0000000000000000E+00 
    6.2499999999993928E-02     3.1250000000117117E-01     0.0000000000000000E+00 
    6.2500000000018124E-02     3.7500000000140382E-01     0.0000000000000000E+00 
    6.2500000000042327E-02     4.3750000000163619E-01     0.0000000000000000E+00 
    6.2500000000066530E-02     5.0000000000184897E-01     0.0000000000000000E+00 
    6.2500000000090733E-02     5.6250000000147260E-01     0.0000000000000000E+00 
    6.2500000000114922E-02     6.2500000000107636E-01     0.0000000000000000E+00 
    6.2500000000139125E-02     6.8750000000068034E-01     0.0000000000000000E+00 
    6.2500000000163328E-02     7.5000000000028411E-01     0.0000000000000000E+00 
    6.2500000000187531E-02     8.1249999999988787E-01     0.0000000000000000E+00 
    6.2500000000211720E-02     8.7499999999951172E-01     0.0000000000000000E+00 
    6.2500000000235922E-02     9.3749999999974565E-01     0.0000000000000000E+00 
    1.2499999999981980E-01     6.2500000000211733E-02     0.0000000000000000E+00 
    1.2499999999986650E-01     1.2500000000042691E-01     0.0000000000000000E+00 
    1.2499999999991319E-01     1.8750000000063199E-01     0.0000000000000000E+00 
    1.2499999999995989E-01     2.5000000000083678E-01     0.0000000000000000E+00 
    1.2500000000000661E-01     3.1250000000104172E-01     0.0000000000000000E+00 
    1.2500000000005329E-01     3.7500000000124661E-01     0.0000000000000000E+00 
    1.2500000000010000E-01     4.3750000000145117E-01     0.0000000000000000E+00 
    1.2500000000014669E-01     5.0000000000163858E-01     0.0000000000000000E+00 
    1.2500000000019340E-01     5.6250000000129741E-01     0.0000000000000000E+00 
    1.2500000000024011E-01     6.2500000000093847E-01     0.0000000000000000E+00 
    1.2500000000028680E-01     6.8750000000057998E-01     0.0000000000000000E+00 
    1.2500000000033351E-01     7.5000000000022127E-01     0.0000000000000000E+00 
    1.2500000000038020E-01     8.1249999999986211E-01     0.0000000000000000E+00 
    1.2500000000042691E-01     8.7499999999952238E-01     0.0000000000000000E+00 
    1.2500000000047359E-01     9.3749999999975164E-01     0.0000000000000000E+00 
    1.8749999999966760E-01     6.2500000000187531E-02     0.0000000000000000E+00 
    1.8749999999974179E-01     1.2500000000038020E-01     0.0000000000000000E+00 
    1.8749999999981601E-01     1.8750000000055780E-01     0.0000000000000000E+00 
    1.8749999999989009E-01     2.5000000000073502E-01     0.0000000000000000E+00 
    1.8749999999996431E-01     3.1250000000091221E-01     0.0000000000000000E+00 
    1.8750000000003850E-01     3.7500000000108941E-01     0.0000000000000000E+00 
    1.8750000000011269E-01     4.3750000000126649E-01     0.0000000000000000E+00 
    1.8750000000018691E-01     5.0000000000142808E-01     0.0000000000000000E+00 
    1.8750000000026110E-01     5.6250000000112244E-01     0.0000000000000000E+00 
    1.8750000000033529E-01     6.2500000000080080E-01     0.0000000000000000E+00 
    1.8750000000040951E-01     6.8750000000047962E-01     0.0000000000000000E+00 
    1.8750000000048361E-01     7.5000000000015843E-01     0.0000000000000000E+00 
    1.8750000000055780E-01     8.1249999999983680E-01     0.0000000000000000E+00 
    1.8750000000063199E-01     8.7499999999953304E-01     0.0000000000000000E+00 
    1.8750000000070621E-01     9.3749999999975764E-01     0.0000000000000000E+00 
    2.4999999999951281E-01     6.2500000000163314E-02     0.0000000000000000E+00 
    2.4999999999961461E-01     1.2500000000033351E-01     0.0000000000000000E+00 
    2.4999999999971650E-01     1.8750000000048361E-01     0.0000000000000000E+00 
    2.4999999999981831E-01     2.5000000000063310E-01     0.0000000000000000E+00 
    2.4999999999992020E-01     3.1250000000078260E-01     0.0000000000000000E+00 
    2.5000000000002198E-01     3.7500000000093209E-01     0.0000000000000000E+00 
    2.5000000000012390E-01     4.3750000000108180E-01     0.0000000000000000E+00 
    2.5000000000022571E-01     5.0000000000121769E-01     0.0000000000000000E+00 
    2.5000000000032763E-01     5.6250000000094724E-01     0.0000000000000000E+00 
    2.5000000000042938E-01     6.2500000000066314E-01     0.0000000000000000E+00 
    2.5000000000053119E-01     6.8750000000037925E-01     0.0000000000000000E+00 
[...]
CELL_DATA 256 
SCALARS Pressure double 1 
LOOKUP_TABLE default 

    1.3832088975333774E+00 
    1.1461397808009917E+00 
    1.0091419845448222E+00 
    8.9815780726226702E-01 
    7.9522152270748270E-01 
    6.9439003025311385E-01 
    6.0883243839683610E-01 
    5.5134855803411420E-01 
    5.0194414517890928E-01 
    4.5142076282199939E-01 
    4.0195941351165509E-01 
    3.5580368503143694E-01 
    3.1558152268712369E-01 
    2.8430457697674222E-01 
    2.6451735628740947E-01 
    2.5657199910705913E-01 
    1.3098381319565684E+00 
    1.1495244648644936E+00 
    1.0175525677941195E+00 
    9.0692661565179844E-01 
    8.0406425755503863E-01 
    7.0288458224383954E-01 
    6.1609503707267310E-01 
    5.5710773700875338E-01 
    5.0712721526998228E-01 
    4.5635219224042634E-01 
    4.0648083566812238E-01 
    3.5964306953635533E-01 
    3.1841936991321568E-01 
    2.8589021341087262E-01 
    2.6487616369044908E-01 
    2.5621452468288664E-01 
    1.2514884759891260E+00 
    1.1411504408129085E+00 
    1.0215424338678061E+00 
    9.1357805693992622E-01 
    8.1154403496868865E-01 
    7.1043136624854997E-01 
    6.2346003120896798E-01 
    5.6334820084313364E-01 
    5.1254203784433927E-01 
    4.6127980203242519E-01 
    4.1082645800993339E-01 
    3.6311153965373633E-01 
    3.2063872191864756E-01 
    2.8659324977029410E-01 
    2.6419634344863985E-01 
    2.5492840337166706E-01 
    1.2043434202524401E+00 
    1.1267422435365499E+00 
    1.0214365293439900E+00 
    9.1801558139481787E-01 
    8.1761235346966177E-01 
    7.1695963611352520E-01 
    6.3088542712965456E-01 
    5.7003376435342690E-01 
    5.1819830600706118E-01 
    4.6625108096022538E-01 
    4.1506084653954733E-01 
    3.6628978316735550E-01 
    3.2231971161744805E-01 
    2.8644948200071618E-01 
    2.6241545632066082E-01 
    2.5253719850656658E-01 
    1.1656123151933941E+00 
    1.1096235343293996E+00 
    1.0180374783740440E+00 
    9.2031832374643197E-01 
    8.2226006313843980E-01 
    7.2252134900407194E-01 
    6.3835781304130679E-01 
    5.7711578439224498E-01 
    5.2408787252473599E-01 
    4.7130293350543934E-01 
    4.1924688914957126E-01 
    3.6926324742147271E-01 
    3.2355275460359140E-01 
    2.8550420792454156E-01 
    2.5946809439157464E-01 
    2.4885732181592621E-01 
    1.1333512404596793E+00 
    1.0917211977950216E+00 
    1.0122285859085987E+00 
    9.2069794037039587E-01 
    8.2550733478040295E-01 
    7.2731900120215609E-01 
    6.4588649557672684E-01 
    5.8452586739533374E-01 
    5.3018868364009419E-01 
    4.7646222784847675E-01 
    4.2344461621302859E-01 
    3.7212243573131465E-01 
    3.2444270235586359E-01 
    2.8382014696419233E-01 
    2.5528931844983116E-01 
    2.4368546180833150E-01 
    1.1061932153732259E+00 
    1.0741380407197754E+00 
    1.0048102285547893E+00 
    9.1944395433953474E-01 
    8.2737798086332170E-01 
    7.3172696477451582E-01 
    6.5350153373834763E-01 
    5.9215979795178586E-01 
    5.3646823675271949E-01 
    4.8174649989972579E-01 
    4.2771001404384096E-01 
    3.7496253616112779E-01 
    3.2511274288580344E-01 
    2.8148728514307886E-01 
    2.4982064613389876E-01 
    2.3678438277227989E-01 
    1.0831639119761107E+00 
    1.0574914142051852E+00 
    9.9644590566095126E-01 
    9.1687966249703978E-01 
    8.2791909027367083E-01 
    7.3622667169774902E-01 
    6.6126342276024574E-01 
    5.9987859559511758E-01 
    5.4288631902941931E-01 
    4.8716467686724435E-01 
    4.3209365151021606E-01 
    3.7788207609242414E-01 
    3.2570757840853276E-01 
    2.7863521640414046E-01 
    2.4302069539138424E-01 
    2.2786534848456169E-01 
    1.0635554834619023E+00 
    1.0421124858921118E+00 
    9.8765615797439921E-01 
    9.1331461652345480E-01 
    8.2744067725791859E-01 
    7.4123275014606227E-01 
    6.6924562519744757E-01 
    6.0755135572361307E-01 
    5.4939887291334255E-01 
    4.9271787330246730E-01 
    4.3663902724347897E-01 
    3.8098024434736277E-01 
    3.2639503414454901E-01 
    2.7544831770441397E-01 
    2.3488385462493441E-01 
    2.1656486760097299E-01 
    1.0468359812110897E+00 
    1.0281597206336397E+00 
    9.7883131532527956E-01 
    9.0893824063792217E-01 
    8.2693719477322936E-01 
    7.4693993585314467E-01 
    6.7740103930725371E-01 
    6.1510341729407292E-01 
    5.5596377236429373E-01 
    4.9840037671933896E-01 
    4.4138065810804705E-01 
    3.8435254699236032E-01 
    3.2736475181830393E-01 
    2.7218346102377927E-01 
    2.2547252169795709E-01 
    2.0241248420479074E-01 
    1.0325735840953725E+00 
    1.0156716062975184E+00 
    9.7023734110688653E-01 
    9.0391705908959508E-01 
    8.2767475986802630E-01 
    7.5334660558038502E-01 
    6.8546392049591676E-01 
    6.2250656857445252E-01 
    5.6254466903272626E-01 
    5.0420065118272861E-01 
    4.4634204836509350E-01 
    3.8808461938674976E-01 
    3.2882202839497227E-01 
    2.6918850592635041E-01 
    2.1497211427354507E-01 
    1.8478474210668672E-01 
    1.0203411829987896E+00 
    1.0045553085199306E+00 
    9.6183202059574913E-01 
    9.0016000819738995E-01 
    8.3049639504994088E-01 
    7.6023591289701831E-01 
    6.9319353057552691E-01 
    6.2974299448320958E-01 
    5.6911067166170171E-01 
    5.1010207131486840E-01 
    4.5153381396563641E-01 
    3.9224438703928316E-01 
    3.3097432653977310E-01 
    2.6691673266158833E-01 
    2.0378419813408574E-01 
    1.6283789117194356E-01 
    1.0096469252939100E+00 
    9.9443700468073504E-01 
    9.5547543775753896E-01 
    8.9968906831927009E-01 
    8.3495981634939542E-01 
    7.6715622870365507E-01 
    7.0056083265616786E-01 
    6.3679794180399418E-01 
    5.7563473111802455E-01 
    5.1608344291589225E-01 
    4.5695239507740820E-01 
    3.9687344004945924E-01 
    3.3400793510060917E-01 
    2.6592618502551346E-01 
    1.9268338970361390E-01 
    1.3540781189549680E-01 
    1.0038831672640864E+00 
    9.8917970667736155E-01 
    9.5364072082185314E-01 
    9.0195113070360355E-01 
    8.4014723542941017E-01 
    7.7382985573451879E-01 
    7.0762845968957988E-01 
    6.4366555863122110E-01 
    5.8209285031443725E-01 
    5.2211959569325794E-01 
    4.6257988836412883E-01 
    4.0197948229750885E-01 
    3.3805371602244094E-01 
    2.6684087095213899E-01 
    1.8308100685574391E-01 
    1.0085908278261638E-01 
    1.0016268194242244E+00 
    9.8783452691828633E-01 
    9.5473056867342354E-01 
    9.0556669149861946E-01 
    8.4557565742974705E-01 
    7.8032806226836104E-01 
    7.1445335893275552E-01 
    6.5034734120062254E-01 
    5.8846355706816189E-01 
    5.2818218377521275E-01 
    4.6838542035192793E-01 
    4.0753280436246125E-01 
    3.4314608445420403E-01 
    2.7022795673045513E-01 
    1.7746758007509225E-01 
    5.6854582207846616E-02 
    1.0010591682011865E+00 
    9.8842299508817733E-01 
    9.5730136831026291E-01 
    9.0994950048041268E-01 
    8.5128251902655616E-01 
    7.8677269689012075E-01 
    7.2108939787712267E-01 
    6.5684823455638475E-01 
    5.9472710557551478E-01 
    5.3424061486688024E-01 
    4.7432806369187230E-01 
    4.1346997956088127E-01 
    3.4919303651875028E-01 
    2.7630251119121624E-01 
    1.8015545156669688E-01 
    0.0000000000000000E+00 

SCALARS Saturarion double 1 
LOOKUP_TABLE default 

    1.0000000000000000E+00 
    9.5802321770581667E-01 
    9.0528918667819647E-01 
    8.4537193176188064E-01 
    7.7541987060773543E-01 
    6.7226833810755215E-01 
    3.9280691096687170E-01 
    2.9119433033499769E-02 
    1.3514715146290424E-05 
    9.3456271495538764E-14 
    2.3647532385558404E-33 
    7.3942643568241517E-80 
   3.7387603578752023E-189 
    0.0000000000000000E+00 
    0.0000000000000000E+00 
    0.0000000000000000E+00 
    9.8587837430588854E-01 
    9.5193250096312421E-01 
    9.0336945194944029E-01 
    8.4560673245915241E-01 
    7.7719223934868142E-01 
    6.7762594040448343E-01 
    4.1275611634407428E-01 
    3.5272269293800673E-02 
    2.1161814893138373E-05 
    2.4955418667495532E-13 
    1.9235910769686836E-32 
    5.4996368117841569E-78 
   1.8763942080138909E-185 
    0.0000000000000000E+00 
    0.0000000000000000E+00 
    0.0000000000000000E+00 
    9.7465628148554784E-01 
    9.4329365295908296E-01 
    8.9834742560208747E-01 
    8.4331507457676402E-01 
    7.7663390363639961E-01 
    6.7819612401712670E-01 
    4.1145571790881974E-01 
    3.4475910306443147E-02 
    1.9042975865518874E-05 
    1.6851006899771030E-13 
    5.3094173109137902E-33 
    1.0986378177252467E-79 
   2.1115028049212428E-190 
    0.0000000000000000E+00 
    0.0000000000000000E+00 
    0.0000000000000000E+00 
    9.6199671292913091E-01 
    9.3287918262516289E-01 
    8.9100386066506354E-01 
    8.3872405738154099E-01 
    7.7372675725334283E-01 
    6.7449849638887882E-01 
    3.9393146063135231E-01 
    2.8440749722340876E-02 
    1.0837762861242470E-05 
    3.4717881620276678E-14 
    7.0523313848000150E-35 
    1.0518935473225308E-84 
   1.0779889730310339E-203 
    0.0000000000000000E+00 
    0.0000000000000000E+00 
    0.0000000000000000E+00 
    9.4755490292322908E-01 
    9.2079851941954072E-01 
    8.8174523345877809E-01 
    8.3208195686052233E-01 
    7.6851946732772547E-01 
    6.6602008985237315E-01 
    3.5844391393407082E-01 
    1.9133059051074867E-02 
    3.5484218336036441E-06 
    1.6701138406787950E-15 
    2.1834527349323088E-38 
    6.5639853387376627E-94 
   8.7245225290847971E-228 
    0.0000000000000000E+00 
    0.0000000000000000E+00 
    0.0000000000000000E+00 
    9.3117860373115457E-01 
    9.0703978925835826E-01 
    8.7073716638134502E-01 
    8.2352743719963473E-01 
    7.6095267249449039E-01 
    6.5106603563995169E-01 
    3.0283149364318956E-01 
    9.7571357062904759E-03 
    5.4406817738159319E-07 
    1.0608651598018162E-17 
    3.2480694686792875E-44 
   2.9192492650995133E-109 
   3.5478663169031038E-268 
    0.0000000000000000E+00 
    0.0000000000000000E+00 
    0.0000000000000000E+00 
    9.1272548197567904E-01 
    8.9151178523681596E-01 
    8.5799283629008460E-01 
    8.1306690598156062E-01 
    7.5074562841016523E-01 
    6.2549537149541024E-01 
    2.2620162471226241E-01 
    3.2637016692834589E-03 
    2.6025092944153801E-08 
    2.8696370640260242E-21 
    8.2160278985510120E-54 
   5.4054976175976512E-135 
    0.0000000000000000E+00 
    0.0000000000000000E+00 
    0.0000000000000000E+00 
    0.0000000000000000E+00 
    8.9195144064615539E-01 
    8.7400581079621742E-01 
    8.4337351790261028E-01 
    8.0052566184541318E-01 
    7.3711934399681345E-01 
    5.7858876677041449E-01 
    1.3404173934775249E-01 
    5.3500320165183264E-04 
    1.6887588360276847E-10 
    2.5228800572374117E-27 
    1.7824028480540258E-70 
   4.1357507033071782E-180 
    0.0000000000000000E+00 
    0.0000000000000000E+00 
    0.0000000000000000E+00 
    0.0000000000000000E+00 
    8.6834607884342896E-01 
    8.5408317087185603E-01 
    8.2650210581086048E-01 
    7.8541184831426714E-01 
    7.1797271790361628E-01 
    4.8319485288287733E-01 
    4.9524491444956041E-02 
    2.3090752918435498E-05 
    1.8448578453234246E-14 
    1.3964332810043187E-38 
   7.6343396851765116E-102 
   2.3043978822583888E-272 
    0.0000000000000000E+00 
    0.0000000000000000E+00 
    0.0000000000000000E+00 
    0.0000000000000000E+00 
    8.4076891400563303E-01 
    8.3078880352852857E-01 
    8.0648699426214798E-01 
    7.6647153139517066E-01 
    6.8690887961575364E-01 
    3.0940867874666322E-01 
    6.6041682339150615E-03 
    3.9042435784846418E-08 
    1.4004312534491458E-22 
    4.1172577219892436E-63 
   1.0191644740792708E-178 
    0.0000000000000000E+00 
    0.0000000000000000E+00 
    0.0000000000000000E+00 
    0.0000000000000000E+00 
    0.0000000000000000E+00 
    8.0634932328898368E-01 
    8.0176383231884385E-01 
    7.8103174701541112E-01 
    7.3998337102019296E-01 
    6.0861819603344347E-01 
    9.0449784289524396E-02 
    4.9183487860646432E-05 
    6.5113749793767492E-15 
    2.6771904567502785E-45 
   4.3946419998174579E-136 
    0.0000000000000000E+00 
    0.0000000000000000E+00 
    0.0000000000000000E+00 
    0.0000000000000000E+00 
    0.0000000000000000E+00 
    0.0000000000000000E+00 
    7.5593433879076288E-01 
    7.5964462939383826E-01 
    7.4275786865143201E-01 
    6.8911498232191271E-01 
    2.5763632426044153E-01 
    1.0438044306703537E-03 
    4.1430428587526130E-12 
    3.3345241791891692E-39 
   7.3299024177877383E-124 
    0.0000000000000000E+00 
    0.0000000000000000E+00 
    0.0000000000000000E+00 
    0.0000000000000000E+00 
    0.0000000000000000E+00 
    0.0000000000000000E+00 
    0.0000000000000000E+00 
    6.4277973830667878E-01 
    6.6976141882500750E-01 
    6.4693825544499695E-01 
    3.1407656090409575E-01 
    1.7527561276482330E-03 
    1.0260438136849321E-11 
    2.2200245669896839E-38 
   1.2585492774812822E-122 
    0.0000000000000000E+00 
    0.0000000000000000E+00 
    0.0000000000000000E+00 
    0.0000000000000000E+00 
    0.0000000000000000E+00 
    0.0000000000000000E+00 
    0.0000000000000000E+00 
    0.0000000000000000E+00 
    2.1365308285948298E-01 
    3.2345335127119768E-01 
    1.4466416329934545E-01 
    9.7213222047088602E-04 
    5.0325458983883489E-12 
    4.8504683991995151E-39 
   4.6253284272452403E-124 
    0.0000000000000000E+00 
    0.0000000000000000E+00 
    0.0000000000000000E+00 
    0.0000000000000000E+00 
    0.0000000000000000E+00 
    0.0000000000000000E+00 
    0.0000000000000000E+00 
    0.0000000000000000E+00 
    0.0000000000000000E+00 
    1.4614532627642237E-03 
    6.1674202741228840E-03 
    1.0912450680810725E-04 
    1.0193062756590132E-12 
    9.1728759267803082E-40 
   2.1658345781608991E-125 
    0.0000000000000000E+00 
    0.0000000000000000E+00 
    0.0000000000000000E+00 
    0.0000000000000000E+00 
    0.0000000000000000E+00 
    0.0000000000000000E+00 
    0.0000000000000000E+00 
    0.0000000000000000E+00 
    0.0000000000000000E+00 
    0.0000000000000000E+00 
    8.1196336363005330E-10 
    1.9745549217172920E-08 
    1.3363513332179261E-14 
    3.4282658971298690E-41 
   1.2431145575914214E-126 
    0.0000000000000000E+00 
    0.0000000000000000E+00 
    0.0000000000000000E+00 
    0.0000000000000000E+00 
    0.0000000000000000E+00 
    0.0000000000000000E+00 
    0.0000000000000000E+00 
    0.0000000000000000E+00 
    0.0000000000000000E+00 
    0.0000000000000000E+00 
    0.0000000000000000E+00 
