# vtk DataFile Version 2.0
Pressure Field Data 
ASCII 
DATASET UNSTRUCTURED_GRID 

POINTS 289 double 

    0.0000000000000000E+00     0.0000000000000000E+00     0.0000000000000000E+00 
    1.0000000000000000E+00     0.0000000000000000E+00     0.0000000000000000E+00 
    1.0000000000000000E+00     1.0000000000000000E+00     0.0000000000000000E+00 
    0.0000000000000000E+00     1.0000000000000000E+00     0.0000000000000000E+00 
    6.2499999999872928E-02     0.0000000000000000E+00     0.0000000000000000E+00 
    1.2499999999977310E-01     0.0000000000000000E+00     0.0000000000000000E+00 
    1.8749999999959341E-01     0.0000000000000000E+00     0.0000000000000000E+00 
    2.4999999999941089E-01     0.0000000000000000E+00     0.0000000000000000E+00 
    3.1249999999922851E-01     0.0000000000000000E+00     0.0000000000000000E+00 
    3.7499999999904610E-01     0.0000000000000000E+00     0.0000000000000000E+00 
    4.3749999999886358E-01     0.0000000000000000E+00     0.0000000000000000E+00 
    4.9999999999869210E-01     0.0000000000000000E+00     0.0000000000000000E+00 
    5.6249999999884603E-01     0.0000000000000000E+00     0.0000000000000000E+00 
    6.2499999999901090E-01     0.0000000000000000E+00     0.0000000000000000E+00 
    6.8749999999917577E-01     0.0000000000000000E+00     0.0000000000000000E+00 
    7.4999999999934064E-01     0.0000000000000000E+00     0.0000000000000000E+00 
    8.1249999999950551E-01     0.0000000000000000E+00     0.0000000000000000E+00 
    8.7499999999967026E-01     0.0000000000000000E+00     0.0000000000000000E+00 
    9.3749999999983513E-01     0.0000000000000000E+00     0.0000000000000000E+00 
    1.0000000000000000E+00     6.2499999999872928E-02     0.0000000000000000E+00 
    1.0000000000000000E+00     1.2499999999977310E-01     0.0000000000000000E+00 
    1.0000000000000000E+00     1.8749999999959341E-01     0.0000000000000000E+00 
    1.0000000000000000E+00     2.4999999999941089E-01     0.0000000000000000E+00 
    1.0000000000000000E+00     3.1249999999922851E-01     0.0000000000000000E+00 
    1.0000000000000000E+00     3.7499999999904610E-01     0.0000000000000000E+00 
    1.0000000000000000E+00     4.3749999999886358E-01     0.0000000000000000E+00 
    1.0000000000000000E+00     4.9999999999869210E-01     0.0000000000000000E+00 
    1.0000000000000000E+00     5.6249999999884603E-01     0.0000000000000000E+00 
    1.0000000000000000E+00     6.2499999999901090E-01     0.0000000000000000E+00 
    1.0000000000000000E+00     6.8749999999917577E-01     0.0000000000000000E+00 
    1.0000000000000000E+00     7.4999999999934064E-01     0.0000000000000000E+00 
    1.0000000000000000E+00     8.1249999999950551E-01     0.0000000000000000E+00 
    1.0000000000000000E+00     8.7499999999967026E-01     0.0000000000000000E+00 
    1.0000000000000000E+00     9.3749999999983513E-01     0.0000000000000000E+00 
    9.3749999999973976E-01     1.0000000000000000E+00     0.0000000000000000E+00 
    8.7499999999950118E-01     1.0000000000000000E+00     0.0000000000000000E+00 
    8.1249999999991318E-01     1.0000000000000000E+00     0.0000000000000000E+00 
    7.5000000000034706E-01     1.0000000000000000E+00     0.0000000000000000E+00 
    6.8750000000078049E-01     1.0000000000000000E+00     0.0000000000000000E+00 
    6.2500000000121403E-01     1.0000000000000000E+00     0.0000000000000000E+00 
    5.6250000000164757E-01     1.0000000000000000E+00     0.0000000000000000E+00 
    5.0000000000205946E-01     1.0000000000000000E+00     0.0000000000000000E+00 
    4.3750000000182099E-01     1.0000000000000000E+00     0.0000000000000000E+00 
    3.7500000000156092E-01     1.0000000000000000E+00     0.0000000000000000E+00 
    3.1250000000130068E-01     1.0000000000000000E+00     0.0000000000000000E+00 
    2.5000000000104050E-01     1.0000000000000000E+00     0.0000000000000000E+00 
    1.8750000000078040E-01     1.0000000000000000E+00     0.0000000000000000E+00 
    1.2500000000052031E-01     1.0000000000000000E+00     0.0000000000000000E+00 
    6.2500000000260125E-02     1.0000000000000000E+00     0.0000000000000000E+00 
    0.0000000000000000E+00     9.3749999999973976E-01     0.0000000000000000E+00 
    0.0000000000000000E+00     8.7499999999950118E-01     0.0000000000000000E+00 
    0.0000000000000000E+00     8.1249999999991318E-01     0.0000000000000000E+00 
    0.0000000000000000E+00     7.5000000000034706E-01     0.0000000000000000E+00 
    0.0000000000000000E+00     6.8750000000078049E-01     0.0000000000000000E+00 
    0.0000000000000000E+00     6.2500000000121403E-01     0.0000000000000000E+00 
    0.0000000000000000E+00     5.6250000000164757E-01     0.0000000000000000E+00 
    0.0000000000000000E+00     5.0000000000205946E-01     0.0000000000000000E+00 
    0.0000000000000000E+00     4.3750000000182099E-01     0.0000000000000000E+00 
    0.0000000000000000E+00     3.7500000000156092E-01     0.0000000000000000E+00 
    0.0000000000000000E+00     3.1250000000130068E-01     0.0000000000000000E+00 
    0.0000000000000000E+00     2.5000000000104050E-01     0.0000000000000000E+00 
    0.0000000000000000E+00     1.8750000000078040E-01     0.0000000000000000E+00 
    0.0000000000000000E+00     1.2500000000052031E-01     0.0000000000000000E+00 
    0.0000000000000000E+00     6.2500000000260125E-02     0.0000000000000000E+00 
    6.2499999999897131E-02     6.2500000000235922E-02     0.0000000000000000E+00 
    6.2499999999921327E-02     1.2500000000047351E-01     0.0000000000000000E+00 
    6.2499999999945530E-02     1.8750000000070621E-01     0.0000000000000000E+00 
    6.2499999999969733E-02     2.5000000000093858E-01     0.0000000000000000E+00 
    6.2499999999993928E-02     3.1250000000117117E-01     0.0000000000000000E+00 
    6.2500000000018124E-02     3.7500000000140382E-01     0.0000000000000000E+00 
    6.2500000000042327E-02     4.3750000000163619E-01     0.0000000000000000E+00 
    6.2500000000066530E-02     5.0000000000184897E-01     0.0000000000000000E+00 
    6.2500000000090733E-02     5.6250000000147260E-01     0.0000000000000000E+00 
    6.2500000000114922E-02     6.2500000000107636E-01     0.0000000000000000E+00 
    6.2500000000139125E-02     6.8750000000068034E-01     0.0000000000000000E+00 
    6.2500000000163328E-02     7.5000000000028411E-01     0.0000000000000000E+00 
    6.2500000000187531E-02     8.1249999999988787E-01     0.0000000000000000E+00 
    6.2500000000211720E-02     8.7499999999951172E-01     0.0000000000000000E+00 
    6.2500000000235922E-02     9.3749999999974565E-01     0.0000000000000000E+00 
    1.2499999999981980E-01     6.2500000000211733E-02     0.0000000000000000E+00 
    1.2499999999986650E-01     1.2500000000042691E-01     0.0000000000000000E+00 
    1.2499999999991319E-01     1.8750000000063199E-01     0.0000000000000000E+00 
    1.2499999999995989E-01     2.5000000000083678E-01     0.0000000000000000E+00 
    1.2500000000000661E-01     3.1250000000104172E-01     0.0000000000000000E+00 
    1.2500000000005329E-01     3.7500000000124661E-01     0.0000000000000000E+00 
    1.2500000000010000E-01     4.3750000000145117E-01     0.0000000000000000E+00 
    1.2500000000014669E-01     5.0000000000163858E-01     0.0000000000000000E+00 
    1.2500000000019340E-01     5.6250000000129741E-01     0.0000000000000000E+00 
    1.2500000000024011E-01     6.2500000000093847E-01     0.0000000000000000E+00 
    1.2500000000028680E-01     6.8750000000057998E-01     0.0000000000000000E+00 
    1.2500000000033351E-01     7.5000000000022127E-01     0.0000000000000000E+00 
    1.2500000000038020E-01     8.1249999999986211E-01     0.0000000000000000E+00 
    1.2500000000042691E-01     8.7499999999952238E-01     0.0000000000000000E+00 
    1.2500000000047359E-01     9.3749999999975164E-01     0.0000000000000000E+00 
    1.8749999999966760E-01     6.2500000000187531E-02     0.0000000000000000E+00 
    1.8749999999974179E-01     1.2500000000038020E-01     0.0000000000000000E+00 
    1.8749999999981601E-01     1.8750000000055780E-01     0.0000000000000000E+00 
    1.8749999999989009E-01     2.5000000000073502E-01     0.0000000000000000E+00 
    1.8749999999996431E-01     3.1250000000091221E-01     0.0000000000000000E+00 
    1.8750000000003850E-01     3.7500000000108941E-01     0.0000000000000000E+00 
    1.8750000000011269E-01     4.3750000000126649E-01     0.0000000000000000E+00 
    1.8750000000018691E-01     5.0000000000142808E-01     0.0000000000000000E+00 
    1.8750000000026110E-01     5.6250000000112244E-01     0.0000000000000000E+00 
    1.8750000000033529E-01     6.2500000000080080E-01     0.0000000000000000E+00 
    1.8750000000040951E-01     6.8750000000047962E-01     0.0000000000000000E+00 
    1.8750000000048361E-01     7.5000000000015843E-01     0.0000000000000000E+00 
    1.8750000000055780E-01     8.1249999999983680E-01     0.0000000000000000E+00 
    1.8750000000063199E-01     8.7499999999953304E-01     0.0000000000000000E+00 
    1.8750000000070621E-01     9.3749999999975764E-01     0.0000000000000000E+00 
    2.4999999999951281E-01     6.2500000000163314E-02     0.0000000000000000E+00 
    2.4999999999961461E-01     1.2500000000033351E-01     0.0000000000000000E+00 
    2.4999999999971650E-01     1.8750000000048361E-01     0.0000000000000000E+00 
    2.4999999999981831E-01     2.5000000000063310E-01     0.0000000000000000E+00 
    2.4999999999992020E-01     3.1250000000078260E-01     0.0000000000000000E+00 
    2.5000000000002198E-01     3.7500000000093209E-01     0.0000000000000000E+00 
    2.5000000000012390E-01     4.3750000000108180E-01     0.0000000000000000E+00 
    2.5000000000022571E-01     5.0000000000121769E-01     0.0000000000000000E+00 
    2.5000000000032763E-01     5.6250000000094724E-01     0.0000000000000000E+00 
    2.5000000000042938E-01     6.2500000000066314E-01     0.0000000000000000E+00 
    2.5000000000053119E-01     6.8750000000037925E-01     0.0000000000000000E+00 
[...]
CELL_DATA 256 
SCALARS Pressure double 1 
LOOKUP_TABLE default 

    1.6687705563781010E+00 
    1.4352052308561367E+00 
    1.3021081159987502E+00 
    1.1946453017069703E+00 
    1.0951122037997947E+00 
    9.9769957476026028E-01 
    9.0023203323230472E-01 
    8.0204635209584463E-01 
    7.0329839026944241E-01 
    6.0468584519610424E-01 
    5.0726565513351929E-01 
    4.1232919138032043E-01 
    3.2827748770425597E-01 
    2.8409121310175511E-01 
    2.6334441622761690E-01 
    2.5527520513132901E-01 
    1.5972904664257432E+00 
    1.4392702754026867E+00 
    1.3109315261195260E+00 
    1.2037676195787408E+00 
    1.1043254093839003E+00 
    1.0070341428149516E+00 
    9.0968132395024315E-01 
    8.1155275322715836E-01 
    7.1275571379939096E-01 
    6.1394072665030819E-01 
    5.1610838790052871E-01 
    4.2034161753989113E-01 
    3.3362169232115024E-01 
    2.8617515749657185E-01 
    2.6373197908931528E-01 
    2.5491337864072244E-01 
    1.5417519712368426E+00 
    1.4326119854873449E+00 
    1.3161428960161543E+00 
    1.2114777674740518E+00 
    1.1128323048761990E+00 
    1.0159312547885129E+00 
    9.1879387998748441E-01 
    8.2073566732500625E-01 
    7.2184060236134606E-01 
    6.2271547167917229E-01 
    5.2429885174505020E-01 
    4.2754467328040108E-01 
    3.3807608750747720E-01 
    2.8724862164153020E-01 
    2.6303912680311559E-01 
    2.5360720772808337E-01 
    1.4980265282828789E+00 
    1.4207485583600672E+00 
    1.3180384083867469E+00 
    1.2176776038193611E+00 
    1.1205763693697854E+00 
    1.0243723277645245E+00 
    9.2757434216801293E-01 
    8.2961711917447756E-01 
    7.3059179789320372E-01 
    6.3106917301342702E-01 
    5.3192181930865845E-01 
    4.3399449230459924E-01 
    3.4173316195051262E-01 
    2.8732579021177546E-01 
    2.6117777189296448E-01 
    2.5117375318741736E-01 
    1.4632062315808319E+00 
    1.4068656081183686E+00 
    1.3173655622095750E+00 
    1.2224343558496420E+00 
    1.1275476133497471E+00 
    1.0323553439688418E+00 
    9.3603520810471164E-01 
    8.3822367749047044E-01 
    7.3905066833272481E-01 
    6.3906179142877562E-01 
    5.3906224598033792E-01 
    4.3978070840897565E-01 
    3.4467030377076063E-01 
    2.8643479610288980E-01 
    2.5806655216035507E-01 
    2.4742546802074936E-01 
    1.4352537163108778E+00 
    1.3927768526537296E+00 
    1.3149439981322222E+00 
    1.2259405864093877E+00 
    1.1337863398785162E+00 
    1.0398979739839822E+00 
    9.4419815286777165E-01 
    8.4658703683574854E-01 
    7.4726144139808381E-01 
    6.4675425491716854E-01 
    5.4580623586397825E-01 
    4.4501017076142280E-01 
    3.4696788724584232E-01 
    2.8463847230557576E-01 
    2.5363940057004231E-01 
    2.4216017171458157E-01 
    1.4127199629691289E+00 
    1.3794873939794672E+00 
    1.3115090114049905E+00 
    1.2284607472587541E+00 
    1.1393777429274305E+00 
    1.0470385876394330E+00 
    9.5209490414418074E-01 
    8.5474451007701446E-01 
    7.5527138038119934E-01 
    6.5420804144803224E-01 
    5.5224040959231246E-01 
    4.4980228646115467E-01 
    3.4872594515756494E-01 
    2.8205229739825821E-01 
    2.4785540560738822E-01 
    2.3514888454984115E-01 
    1.3945570033397019E+00 
    1.3675285893275158E+00 
    1.3076623320935490E+00 
    1.2302868655266666E+00 
    1.1444414850601399E+00 
    1.0538351548561316E+00 
    9.5976751442375441E-01 
    8.6273941047385927E-01 
    7.6313102768426355E-01 
    6.6148450586982654E-01 
    5.5845003006521232E-01 
    4.5428529745791496E-01 
    3.5008177300421517E-01 
    2.7886703508883676E-01 
    2.4071431879001226E-01 
    2.2611961706205994E-01 
    1.3799929614002757E+00 
    1.3571571358455126E+00 
    1.3038714134212825E+00 
    1.2317084236479430E+00 
    1.1491200247376208E+00 
    1.0603625746043381E+00 
    9.6726799490000648E-01 
    8.7062129728302329E-01 
    7.7089463250183443E-01 
    6.6864416236241142E-01 
    5.6451613492722263E-01 
    4.5859028802104618E-01 
    3.5123514130130301E-01 
    2.7537829808212189E-01 
    2.3228157325601692E-01 
    2.1473461875144725E-01 
    1.3684475577508113E+00 
    1.3484731587747725E+00 
    1.3004878468312200E+00 
    1.2329949544544070E+00 
    1.1535680770847738E+00 
    1.0667091570275795E+00 
    9.7465739320127909E-01 
    8.7844607341803116E-01 
    7.7862090243674531E-01 
    6.7574611900414550E-01 
    5.7051207303809626E-01 
    4.6283896509992084E-01 
    3.5247916546855862E-01 
    2.7201520128284712E-01 
    2.2272493024099399E-01 
    2.0055698547194800E-01 
    1.3594738165348372E+00 
    1.3414898523284320E+00 
    1.2977708427576573E+00 
    1.2343880505520555E+00 
    1.1579443211340257E+00 
    1.0729729258891079E+00 
    9.8200447227394416E-01 
    8.8627593498947399E-01 
    7.8637427936127524E-01 
    6.8284782508327491E-01 
    5.7650044518302312E-01 
    4.6712264139860615E-01 
    3.5423878887928711E-01 
    2.6935963603509966E-01 
    2.1236442406993264E-01 
    1.8300008602475720E-01 
    1.3527164670906366E+00 
    1.3361738973804387E+00 
    1.2959094339932249E+00 
    1.2360994643772045E+00 
    1.1624055516742153E+00 
    1.0792582274679869E+00 
    9.8938418781980653E-01 
    8.9417917275983649E-01 
    7.9422705816293959E-01 
    6.9000510966188155E-01 
    5.8253141528532015E-01 
    4.7148461736502001E-01 
    3.5708821430595933E-01 
    2.6812721946020102E-01 
    2.0173530364122558E-01 
    1.6125045444982700E-01 
    1.3478799918816364E+00 
    1.3324673663563171E+00 
    1.2950403454904647E+00 
    1.2383121889260094E+00 
    1.1671026938850142E+00 
    1.0856728215689868E+00 
    9.9687618690183311E-01 
    9.0222987590994841E-01 
    8.0226300787430993E-01 
    6.9727246953565269E-01 
    5.8863766958237551E-01 
    4.7598658877945121E-01 
    3.6167328103793650E-01 
    2.6906853067411657E-01 
    1.9165644724218461E-01 
    1.3415133598166704E-01 
    1.3446980240414566E+00 
    1.3302935774110336E+00 
    1.2952570709033442E+00 
    1.2411796215457300E+00 
    1.1721761619876510E+00 
    1.0923245772575632E+00 
    1.0045634301133459E+00 
    9.1050788198723165E-01 
    8.1058417093965607E-01 
    7.0470554339620994E-01 
    5.9480596110462314E-01 
    4.8096426480017318E-01 
    3.6848519264130586E-01 
    2.7281274512360154E-01 
    1.8339376012675077E-01 
    1.0003429710693823E-01 
    1.3428890658650299E+00 
    1.3295335613412664E+00 
    1.2965935379160964E+00 
    1.2448083081740333E+00 
    1.1777406554445702E+00 
    1.0993124554168381E+00 
    1.0125305178765507E+00 
    9.1910254694972127E-01 
    8.1932907036482372E-01 
    7.1238077817808876E-01 
    6.0089821219135686E-01 
    4.8766749879902715E-01 
    3.7759636603868180E-01 
    2.7958876325105048E-01 
    1.7915236148429145E-01 
    5.6484519072611858E-02 
    1.3423688165254180E+00 
    1.3301710358730712E+00 
    1.2991209932923220E+00 
    1.2493243031751569E+00 
    1.1839309511099765E+00 
    1.1067579507342917E+00 
    1.0208829946588542E+00 
    9.2812195871695058E-01 
    8.2874008692377388E-01 
    7.2124519163710465E-01 
    6.0903094418180970E-01 
    4.9697733775200792E-01 
    3.8805542886875888E-01 
    2.8869570709171144E-01 
    1.8296935586158414E-01 
    0.0000000000000000E+00 

SCALARS Saturarion double 1 
LOOKUP_TABLE default 

    1.0000000000000000E+00 
    9.8249279253584698E-01 
    9.5978225098666037E-01 
    9.3509634540640230E-01 
    9.1033129963171444E-01 
    8.8592281396375994E-01 
    8.6172584753476378E-01 
    8.3723399596041259E-01 
    8.1145506127936151E-01 
    7.8231311488877842E-01 
    7.4444128715871749E-01 
    6.7833095291476109E-01 
    4.6859053455055777E-01 
    5.3189405830669778E-02 
    3.7606412358597171E-05 
    3.5067091092898700E-13 
    9.9434029232295074E-01 
    9.7982519153196279E-01 
    9.5877500663830584E-01 
    9.3488967108749588E-01 
    9.1050329193930457E-01 
    8.8631761049484892E-01 
    8.6229925270334473E-01 
    8.3800589842774653E-01 
    8.1251713902010958E-01 
    7.8390469680574992E-01 
    7.4728649850606754E-01 
    6.8571762118815194E-01 
    5.0364378853034308E-01 
    8.0614252252164662E-02 
    1.2666829560595611E-04 
    7.3053103512750221E-12 
    9.8964348780841127E-01 
    9.7594168407432025E-01 
    9.5623407619562462E-01 
    9.3337282232069152E-01 
    9.0961731204564888E-01 
    8.8585863352753802E-01 
    8.6218193444029256E-01 
    8.3821529955791618E-01 
    8.1310694611660328E-01 
    7.8505671165443380E-01 
    7.4957217500186935E-01 
    6.9147367504625412E-01 
    5.2773134210089767E-01 
    1.0699913875566942E-01 
    2.9979678122687921E-04 
    6.2668459920237175E-11 
    9.8411589415846901E-01 
    9.7109877545604162E-01 
    9.5247881424257230E-01 
    9.3066399362025565E-01 
    9.0768640115680144E-01 
    8.8450930833609753E-01 
    8.6131103265869491E-01 
    8.3778553201164985E-01 
    8.1314461421666595E-01 
    7.8570218359877031E-01 
    7.5129808316493762E-01 
    6.9616539223751073E-01 
    5.4770778396005815E-01 
    1.3566140059528664E-01 
    6.3107220085783296E-04 
    3.9732915811911360E-10 
    9.7751448607203728E-01 
    9.6526382311524495E-01 
    9.4763894784960601E-01 
    9.2685717465068895E-01 
    9.0474704761980618E-01 
    8.8227182893377776E-01 
    8.5966972514465312E-01 
    8.3668920418158421E-01 
    8.1259819415389767E-01 
    7.8581286860947175E-01 
    7.5246851428922634E-01 
    7.0001889937322492E-01 
    5.6457257033670616E-01 
    1.6488084595714880E-01 
    1.1824184594553344E-03 
    1.8622508862352056E-09 
    9.6966148154123621E-01 
    9.5834464504028127E-01 
    9.4172485791723037E-01 
    9.2198228799426696E-01 
    9.0080706454762238E-01 
    8.7913433022300236E-01 
    8.5723465171493185E-01 
    8.3489678835737313E-01 
    8.1143450813908302E-01 
    7.8535338655414288E-01 
    7.5305384980626100E-01 
    7.0306995675937733E-01 
    5.7869581227383504E-01 
    1.9299578920996091E-01 
    1.9867378536663097E-03 
    6.5621670338604983E-09 
    9.6038209025421861E-01 
    9.5021214453388403E-01 
    9.3467465388322857E-01 
    9.1601015856600354E-01 
    8.9583657913576609E-01 
    8.7505964063983466E-01 
    8.5396430591445871E-01 
    8.3236535000904777E-01 
    8.0960954775179983E-01 
    7.8427582318760491E-01 
    7.5299800550746987E-01 
    7.0526693157359788E-01 
    5.9025002728243525E-01 
    2.1810109320502108E-01 
    2.9913486034462960E-03 
    1.7271349398442818E-08 
    9.4947487498894811E-01 
    9.4069437926685251E-01 
    9.2636512968986784E-01 
    9.0885234016932792E-01 
    8.8975939969918993E-01 
    8.6997504982262641E-01 
    8.4978933597228767E-01 
    8.2903003535754438E-01 
    8.0706187117025296E-01 
    7.8251642484030126E-01 
    7.5222241249253852E-01 
    7.0650435517514643E-01 
    5.9922119878634139E-01 
    2.3823647566666406E-01 
    4.0158122135491104E-03 
    3.3303108115633482E-08 
    9.3667839424143862E-01 
    9.2955575619522424E-01 
    9.1660096881526076E-01 
    9.0034876309537704E-01 
    8.8243681688208830E-01 
    8.6375561033473591E-01 
    8.4459728588730099E-01 
    8.2479088897420771E-01 
    8.0370149246212841E-01 
    7.7998601283282543E-01 
    7.5061704049704525E-01 
    7.0661407143472055E-01 
    6.0531834396702489E-01 
    2.5012059540766868E-01 
    4.6402149927087487E-03 
    4.1872633446130168E-08 
    9.2161825711144263E-01 
    9.1645537819978140E-01 
    9.0508064929749843E-01 
    8.9023558841261596E-01 
    8.7363495717273087E-01 
    8.5619269944891807E-01 
    8.3820423862850224E-01 
    8.1948852181659659E-01 
    7.9938992940634745E-01 
    7.7655352141326106E-01 
    7.4802281634822942E-01 
    7.0533007511086132E-01 
    6.0773047215423892E-01 
    2.4986987536827199E-01 
    4.4242707112288806E-03 
    3.0328257352490059E-08 
    9.0370534501523148E-01 
    9.0086138941505156E-01 
    8.9131955407283880E-01 
    8.7807268591345566E-01 
    8.6295476467208132E-01 
    8.4692817696728240E-01 
    8.3029585612760237E-01 
    8.1285367001367237E-01 
    7.9389836932804547E-01 
    7.7201068095332015E-01 
    7.4419222347772829E-01 
    7.0220516767736396E-01 
    6.0451916708737607E-01 
    2.3072044549119658E-01 
    3.1140796732769200E-03 
    9.0111235186828685E-09 
    8.8189764234738666E-01 
    8.8184827385907982E-01 
    8.7446384873376348E-01 
    8.6306612932144100E-01 
    8.4966115990861735E-01 
    8.3529364875997325E-01 
    8.2028291544029197E-01 
    8.0438390951936101E-01 
    7.8680680524859481E-01 
    7.6598851056550255E-01 
    7.3869610209971426E-01 
    6.9639214577636088E-01 
    5.9060714369280665E-01 
    1.8486891658312155E-01 
    1.3313468510123929E-03 
    6.3390682500512961E-10 
    8.5398695982549355E-01 
    8.5749625995396273E-01 
    8.5273743718787398E-01 
    8.4353578428628428E-01 
    8.3216534099752204E-01 
    8.1981691565287651E-01 
    8.0685232430292742E-01 
    7.9296300739648251E-01 
    7.7720746742270197E-01 
    7.5773508775938669E-01 
    7.3070233251905303E-01 
    6.8601671464722003E-01 
    5.5034584108783180E-01 
    1.1188095260576882E-01 
    2.4158987617028715E-04 
    3.7415617019118646E-12 
    8.1349445302086676E-01 
    8.2231378716717030E-01 
    8.2107563378989323E-01 
    8.1462153414347749E-01 
    8.0576505571308332E-01 
    7.9603552708032643E-01 
    7.8594882078422901E-01 
    7.7513305889508544E-01 
    7.6236699809215314E-01 
    7.4520321527863898E-01 
    7.1834951216525822E-01 
    6.6679395613947234E-01 
    4.5790092057679538E-01 
    4.3012387516894936E-02 
    1.1302874885789181E-05 
    2.7952517590983559E-16 
    7.2996745859880785E-01 
    7.5044662413953600E-01 
    7.5585219282784322E-01 
    7.5367554821265104E-01 
    7.4830141791784377E-01 
    7.4244091095730191E-01 
    7.3755097331715214E-01 
    7.3372049819242735E-01 
    7.2927522313711357E-01 
    7.2010528105790217E-01 
    6.9762254683158442E-01 
    6.3162732779248842E-01 
    2.5194783336174698E-01 
    2.1302644318529108E-03 
    2.2159286121735577E-10 
    4.2127329886379603E-33 
    3.8701580360560656E-01 
    4.9792741934276602E-01 
    5.2926854683812596E-01 
    5.3506779502704804E-01 
    5.2892042998973154E-01 
    5.1710856046787657E-01 
    5.0389545596557450E-01 
    4.9305711707848732E-01 
    4.8592011148497777E-01 
    4.6433501867238569E-01 
    3.1749103033270976E-01 
    5.5205286500573852E-02 
    2.5237182733240149E-05 
    2.1797644517851329E-11 
    2.6008153749631165E-33 
   6.6046408049523166E-108 
