# vtk DataFile Version 2.0
Pressure Field Data 
ASCII 
DATASET UNSTRUCTURED_GRID 

POINTS 289 double 

    0.0000000000000000E+00     0.0000000000000000E+00     0.0000000000000000E+00 
    1.0000000000000000E+00     0.0000000000000000E+00     0.0000000000000000E+00 
    1.0000000000000000E+00     1.0000000000000000E+00     0.0000000000000000E+00 
    0.0000000000000000E+00     1.0000000000000000E+00     0.0000000000000000E+00 
    6.2499999999872928E-02     0.0000000000000000E+00     0.0000000000000000E+00 
    1.2499999999977310E-01     0.0000000000000000E+00     0.0000000000000000E+00 
    1.8749999999959341E-01     0.0000000000000000E+00     0.0000000000000000E+00 
    2.4999999999941089E-01     0.0000000000000000E+00     0.0000000000000000E+00 
    3.1249999999922851E-01     0.0000000000000000E+00     0.0000000000000000E+00 
    3.7499999999904610E-01     0.0000000000000000E+00     0.0000000000000000E+00 
    4.3749999999886358E-01     0.0000000000000000E+00     0.0000000000000000E+00 
    4.9999999999869210E-01     0.0000000000000000E+00     0.0000000000000000E+00 
    5.6249999999884603E-01     0.0000000000000000E+00     0.0000000000000000E+00 
    6.2499999999901090E-01     0.0000000000000000E+00     0.0000000000000000E+00 
    6.8749999999917577E-01     0.0000000000000000E+00     0.0000000000000000E+00 
    7.4999999999934064E-01     0.0000000000000000E+00     0.0000000000000000E+00 
    8.1249999999950551E-01     0.0000000000000000E+00     0.0000000000000000E+00 
    8.7499999999967026E-01     0.0000000000000000E+00     0.0000000000000000E+00 
    9.3749999999983513E-01     0.0000000000000000E+00     0.0000000000000000E+00 
    1.0000000000000000E+00     6.2499999999872928E-02     0.0000000000000000E+00 
    1.0000000000000000E+00     1.2499999999977310E-01     0.0000000000000000E+00 
    1.0000000000000000E+00     1.8749999999959341E-01     0.0000000000000000E+00 
    1.0000000000000000E+00     2.4999999999941089E-01     0.0000000000000000E+00 
    1.0000000000000000E+00     3.1249999999922851E-01     0.0000000000000000E+00 
    1.0000000000000000E+00     3.7499999999904610E-01     0.0000000000000000E+00 
    1.0000000000000000E+00     4.3749999999886358E-01     0.0000000000000000E+00 
    1.0000000000000000E+00     4.9999999999869210E-01     0.0000000000000000E+00 
    1.0000000000000000E+00     5.6249999999884603E-01     0.0000000000000000E+00 
    1.0000000000000000E+00     6.2499999999901090E-01     0.0000000000000000E+00 
    1.0000000000000000E+00     6.8749999999917577E-01     0.0000000000000000E+00 
    1.0000000000000000E+00     7.4999999999934064E-01     0.0000000000000000E+00 
    1.0000000000000000E+00     8.1249999999950551E-01     0.0000000000000000E+00 
    1.0000000000000000E+00     8.7499999999967026E-01     0.0000000000000000E+00 
    1.0000000000000000E+00     9.3749999999983513E-01     0.0000000000000000E+00 
    9.3749999999973976E-01     1.0000000000000000E+00     0.0000000000000000E+00 
    8.7499999999950118E-01     1.0000000000000000E+00     0.0000000000000000E+00 
    8.1249999999991318E-01     1.0000000000000000E+00     0.0000000000000000E+00 
    7.5000000000034706E-01     1.0000000000000000E+00     0.0000000000000000E+00 
    6.8750000000078049E-01     1.0000000000000000E+00     0.0000000000000000E+00 
    6.2500000000121403E-01     1.0000000000000000E+00     0.0000000000000000E+00 
    5.6250000000164757E-01     1.0000000000000000E+00     0.0000000000000000E+00 
    5.0000000000205946E-01     1.0000000000000000E+00     0.0000000000000000E+00 
    4.3750000000182099E-01     1.0000000000000000E+00     0.0000000000000000E+00 
    3.7500000000156092E-01     1.0000000000000000E+00     0.0000000000000000E+00 
    3.1250000000130068E-01     1.0000000000000000E+00     0.0000000000000000E+00 
    2.5000000000104050E-01     1.0000000000000000E+00     0.0000000000000000E+00 
    1.8750000000078040E-01     1.0000000000000000E+00     0.0000000000000000E+00 
    1.2500000000052031E-01     1.0000000000000000E+00     0.0000000000000000E+00 
    6.2500000000260125E-02     1.0000000000000000E+00     0.0000000000000000E+00 
    0.0000000000000000E+00     9.3749999999973976E-01     0.0000000000000000E+00 
    0.0000000000000000E+00     8.7499999999950118E-01     0.0000000000000000E+00 
    0.0000000000000000E+00     8.1249999999991318E-01     0.0000000000000000E+00 
    0.0000000000000000E+00     7.5000000000034706E-01     0.0000000000000000E+00 
    0.0000000000000000E+00     6.8750000000078049E-01     0.0000000000000000E+00 
    0.0000000000000000E+00     6.2500000000121403E-01     0.0000000000000000E+00 
    0.0000000000000000E+00     5.6250000000164757E-01     0.0000000000000000E+00 
    0.0000000000000000E+00     5.0000000000205946E-01     0.0000000000000000E+00 
    0.0000000000000000E+00     4.3750000000182099E-01     0.0000000000000000E+00 
    0.0000000000000000E+00     3.7500000000156092E-01     0.0000000000000000E+00 
    0.0000000000000000E+00     3.1250000000130068E-01     0.0000000000000000E+00 
    0.0000000000000000E+00     2.5000000000104050E-01     0.0000000000000000E+00 
    0.0000000000000000E+00     1.8750000000078040E-01     0.0000000000000000E+00 
    0.0000000000000000E+00     1.2500000000052031E-01     0.0000000000000000E+00 
    0.0000000000000000E+00     6.2500000000260125E-02     0.0000000000000000E+00 
    6.2499999999897131E-02     6.2500000000235922E-02     0.0000000000000000E+00 
    6.2499999999921327E-02     1.2500000000047351E-01     0.0000000000000000E+00 
    6.2499999999945530E-02     1.8750000000070621E-01     0.0000000000000000E+00 
    6.2499999999969733E-02     2.5000000000093858E-01     0.0000000000000000E+00 
    6.2499999999993928E-02     3.1250000000117117E-01     0.0000000000000000E+00 
    6.2500000000018124E-02     3.7500000000140382E-01     0.0000000000000000E+00 
    6.2500000000042327E-02     4.3750000000163619E-01     0.0000000000000000E+00 
    6.2500000000066530E-02     5.0000000000184897E-01     0.0000000000000000E+00 
    6.2500000000090733E-02     5.6250000000147260E-01     0.0000000000000000E+00 
    6.2500000000114922E-02     6.2500000000107636E-01     0.0000000000000000E+00 
    6.2500000000139125E-02     6.8750000000068034E-01     0.0000000000000000E+00 
    6.2500000000163328E-02     7.5000000000028411E-01     0.0000000000000000E+00 
    6.2500000000187531E-02     8.1249999999988787E-01     0.0000000000000000E+00 
    6.2500000000211720E-02     8.7499999999951172E-01     0.0000000000000000E+00 
    6.2500000000235922E-02     9.3749999999974565E-01     0.0000000000000000E+00 
    1.2499999999981980E-01     6.2500000000211733E-02     0.0000000000000000E+00 
    1.2499999999986650E-01     1.2500000000042691E-01     0.0000000000000000E+00 
    1.2499999999991319E-01     1.8750000000063199E-01     0.0000000000000000E+00 
    1.2499999999995989E-01     2.5000000000083678E-01     0.0000000000000000E+00 
    1.2500000000000661E-01     3.1250000000104172E-01     0.0000000000000000E+00 
    1.2500000000005329E-01     3.7500000000124661E-01     0.0000000000000000E+00 
    1.2500000000010000E-01     4.3750000000145117E-01     0.0000000000000000E+00 
    1.2500000000014669E-01     5.0000000000163858E-01     0.0000000000000000E+00 
    1.2500000000019340E-01     5.6250000000129741E-01     0.0000000000000000E+00 
    1.2500000000024011E-01     6.2500000000093847E-01     0.0000000000000000E+00 
    1.2500000000028680E-01     6.8750000000057998E-01     0.0000000000000000E+00 
    1.2500000000033351E-01     7.5000000000022127E-01     0.0000000000000000E+00 
    1.2500000000038020E-01     8.1249999999986211E-01     0.0000000000000000E+00 
    1.2500000000042691E-01     8.7499999999952238E-01     0.0000000000000000E+00 
    1.2500000000047359E-01     9.3749999999975164E-01     0.0000000000000000E+00 
    1.8749999999966760E-01     6.2500000000187531E-02     0.0000000000000000E+00 
    1.8749999999974179E-01     1.2500000000038020E-01     0.0000000000000000E+00 
    1.8749999999981601E-01     1.8750000000055780E-01     0.0000000000000000E+00 
    1.8749999999989009E-01     2.5000000000073502E-01     0.0000000000000000E+00 
    1.8749999999996431E-01     3.1250000000091221E-01     0.0000000000000000E+00 
    1.8750000000003850E-01     3.7500000000108941E-01     0.0000000000000000E+00 
    1.8750000000011269E-01     4.3750000000126649E-01     0.0000000000000000E+00 
    1.8750000000018691E-01     5.0000000000142808E-01     0.0000000000000000E+00 
    1.8750000000026110E-01     5.6250000000112244E-01     0.0000000000000000E+00 
    1.8750000000033529E-01     6.2500000000080080E-01     0.0000000000000000E+00 
    1.8750000000040951E-01     6.8750000000047962E-01     0.0000000000000000E+00 
    1.8750000000048361E-01     7.5000000000015843E-01     0.0000000000000000E+00 
    1.8750000000055780E-01     8.1249999999983680E-01     0.0000000000000000E+00 
    1.8750000000063199E-01     8.7499999999953304E-01     0.0000000000000000E+00 
    1.8750000000070621E-01     9.3749999999975764E-01     0.0000000000000000E+00 
    2.4999999999951281E-01     6.2500000000163314E-02     0.0000000000000000E+00 
    2.4999999999961461E-01     1.2500000000033351E-01     0.0000000000000000E+00 
    2.4999999999971650E-01     1.8750000000048361E-01     0.0000000000000000E+00 
    2.4999999999981831E-01     2.5000000000063310E-01     0.0000000000000000E+00 
    2.4999999999992020E-01     3.1250000000078260E-01     0.0000000000000000E+00 
    2.5000000000002198E-01     3.7500000000093209E-01     0.0000000000000000E+00 
    2.5000000000012390E-01     4.3750000000108180E-01     0.0000000000000000E+00 
    2.5000000000022571E-01     5.0000000000121769E-01     0.0000000000000000E+00 
    2.5000000000032763E-01     5.6250000000094724E-01     0.0000000000000000E+00 
    2.5000000000042938E-01     6.2500000000066314E-01     0.0000000000000000E+00 
    2.5000000000053119E-01     6.8750000000037925E-01     0.0000000000000000E+00 
[...]
CELL_DATA 256 
SCALARS Pressure double 1 
LOOKUP_TABLE default 

    1.9673377298740269E+00 
    1.7347009356802618E+00 
    1.6029916665733412E+00 
    1.4972389108852753E+00 
    1.3996651554588531E+00 
    1.3043695043404364E+00 
    1.2090456120491779E+00 
    1.1128530409553128E+00 
    1.0157617827929599E+00 
    9.1840720896541150E-01 
    8.2218042219707677E-01 
    7.2936856425049912E-01 
    6.4301086386147754E-01 
    5.6721407753421926E-01 
    5.2308337886461553E-01 
    5.1013377329071941E-01 
    1.8959536615659534E+00 
    1.7387171618127231E+00 
    1.6117081811855933E+00 
    1.5062229501652156E+00 
    1.4087235772133870E+00 
    1.3135497195909751E+00 
    1.2183628969028442E+00 
    1.1222735589796700E+00 
    1.0251922932968021E+00 
    9.2767312942007729E-01 
    8.3100068586957987E-01 
    7.3735590149440966E-01 
    6.4971627368499218E-01 
    5.7182470321105516E-01 
    5.2417598190759351E-01 
    5.0965138525108045E-01 
    1.8405497141248934E+00 
    1.7320744898595881E+00 
    1.6168620960498594E+00 
    1.5138394692635115E+00 
    1.4171221578343489E+00 
    1.3223462622408164E+00 
    1.2274111238939422E+00 
    1.1314593896252374E+00 
    1.0343646195695511E+00 
    9.3659401407219622E-01 
    8.3930185631360776E-01 
    7.4453333577175795E-01 
    6.5522858765613967E-01 
    5.7507221151973931E-01 
    5.2354547415109565E-01 
    5.0775113948756567E-01 
    1.7969759295054208E+00 
    1.7202714033245929E+00 
    1.6187445797528950E+00 
    1.5199869205500691E+00 
    1.4248001837723643E+00 
    1.3307349106721045E+00 
    1.2361878785851717E+00 
    1.1404255722832846E+00 
    1.0433140089596942E+00 
    9.4523260586105406E-01 
    8.4718148753728351E-01 
    7.5102936928912412E-01 
    6.5966128796257628E-01 
    5.7689723574240248E-01 
    5.2108435402701392E-01 
    5.0413390349429643E-01 
    1.7623185752216017E+00 
    1.7064810862785780E+00 
    1.6180960282274832E+00 
    1.5247276682933781E+00 
    1.4317425116106888E+00 
    1.3387071654843341E+00 
    1.2446976585734941E+00 
    1.1491906615968419E+00 
    1.0520778456708277E+00 
    9.5365411262292732E-01 
    8.5474246873023929E-01 
    7.5698313361260283E-01 
    6.6314554545166848E-01 
    5.7727089292367140E-01 
    5.1666360508350440E-01 
    4.9848784363059345E-01 
    1.7345357051043664E+00 
    1.6925076303250652E+00 
    1.6157284205761284E+00 
    1.5282483757237557E+00 
    1.4379834592615937E+00 
    1.3462733976049492E+00 
    1.2529530317462592E+00 
    1.1577768064579874E+00 
    1.0606950107972264E+00 
    9.6192512244555717E-01 
    8.6209253764100280E-01 
    7.6254783531721737E-01 
    6.6584112866354983E-01 
    5.7620950884165489E-01 
    5.1014820974703290E-01 
    4.9045724729432139E-01 
    1.7121740587638865E+00 
    1.6793480470112385E+00 
    1.6123693245115420E+00 
    1.5308069120160894E+00 
    1.4436015660352743E+00 
    1.3534639360117313E+00 
    1.2609754179603641E+00 
    1.1662097755645300E+00 
    1.0692051634360640E+00 
    9.7011214677915159E-01 
    8.6934276643961372E-01 
    7.6789229350393817E-01 
    6.6794655115752188E-01 
    5.7379321262577143E-01 
    5.0139707228913477E-01 
    4.7959447540569938E-01 
    1.6941815864399172E+00 
    1.6675265095421525E+00 
    1.6086128437335605E+00 
    1.5326882894923350E+00 
    1.4487093365939925E+00 
    1.3603280929292318E+00 
    1.2687953477737879E+00 
    1.1745189087122703E+00 
    1.0776480025230288E+00 
    9.7827986875797490E-01 
    8.7660493938524420E-01 
    7.7320017531280727E-01 
    6.6970773690553209E-01 
    5.7018542458741617E-01 
    4.9026041038346491E-01 
    4.6528807659384164E-01 
    1.6797825408575386E+00 
    1.6572931195030263E+00 
    1.6049189548386158E+00 
    1.5341747135191730E+00 
    1.4534417250476259E+00 
    1.3669316620294838E+00 
    1.2764521836794684E+00 
    1.1827369878088021E+00 
    1.0860625725946971E+00 
    9.8648921228215269E-01 
    8.8398780726340931E-01 
    7.7866633531134788E-01 
    6.7142437194475013E-01 
    5.6565879885771575E-01 
    4.7658735349033826E-01 
    4.4665516404242478E-01 
    1.6683931615569776E+00 
    1.6487418544494585E+00 
    1.6016319382391768E+00 
    1.5355282914874873E+00 
    1.4579457324927085E+00 
    1.3733536064101128E+00 
    1.2839934114212455E+00 
    1.1909000612399672E+00 
    1.0944867057571268E+00 
    9.9479542445477809E-01 
    8.9159235774508561E-01 
    7.8448953307769953E-01 
    6.7345170709679336E-01 
    5.6063331077333056E-01 
    4.6026709614653732E-01 
    4.2238799601671273E-01 
    1.6595636969001601E+00 
    1.6418802041633007E+00 
    1.5990038967622908E+00 
    1.5369831286180446E+00 
    1.4623722218596555E+00 
    1.3796825824433621E+00 
    1.2914736799064708E+00 
    1.1990472953742661E+00 
    1.1029567260886153E+00 
    1.0032464568401789E+00 
    8.9950650157682777E-01 
    7.9086095091214603E-01 
    6.7619348569480020E-01 
    5.5572669898947147E-01 
    4.4135005605662925E-01 
    3.9057229664306625E-01 
    1.6529373683545445E+00 
    1.6366697811233160E+00 
    1.5972171114063627E+00 
    1.5387435459332057E+00 
    1.4668701474991779E+00 
    1.3860137390294343E+00 
    1.2989537798913244E+00 
    1.2072209638789990E+00 
    1.1115075858690457E+00 
    1.0118820348461577E+00 
    9.0779994770254158E-01 
    7.9794860992406980E-01 
    6.8007961996336097E-01 
    5.5180523158866190E-01 
    4.2031981729769491E-01 
    3.4856833792710318E-01 
    1.6482195925133263E+00 
    1.6330489368813257E+00 
    1.5964024712965301E+00 
    1.5409855032682551E+00 
    1.4715826675557442E+00 
    1.3924458713415644E+00 
    1.3064996603111820E+00 
    1.2154667173538296E+00 
    1.1201737032510248E+00 
    1.0207339771933908E+00 
    9.1652055310301384E-01 
    8.0587928196481329E-01 
    6.8552170272986768E-01 
    5.5000280678273250E-01 
    3.9855437064277327E-01 
    2.9304945448316472E-01 
    1.6451506173848596E+00 
    1.6309413746834416E+00 
    1.5966508510632256E+00 
    1.5438572266051949E+00 
    1.4766429749675369E+00 
    1.3990778364893282E+00 
    1.3141809726842208E+00 
    1.2238341645190354E+00 
    1.1289910838617572E+00 
    1.0298289448791502E+00 
    9.2569446921412901E-01 
    8.1472231466323575E-01 
    6.9284290189613817E-01 
    5.5165218578797526E-01 
    3.7895259238379181E-01 
    2.2000543312759421E-01 
    1.6434686173179640E+00 
    1.6302411055337862E+00 
    1.5980044371773803E+00 
    1.5474670376088158E+00 
    1.4821611137831399E+00 
    1.4059981842906772E+00 
    1.3220653184422151E+00 
    1.2323764670022577E+00 
    1.1380024918512679E+00 
    1.0391985591227213E+00 
    9.3533822121288845E-01 
    8.2448915874151274E-01 
    7.0219587184268439E-01 
    5.5804263587053637E-01 
    3.6683855931166609E-01 
    1.2430047249008870E-01 
    1.6429650536142273E+00 
    1.6308482944443976E+00 
    1.6004793604615306E+00 
    1.5518982083044499E+00 
    1.4882345060944111E+00 
    1.4132932558911531E+00 
    1.3302240934103560E+00 
    1.2411536311149389E+00 
    1.1472581292601469E+00 
    1.0488780420661667E+00 
    9.4545727377704991E-01 
    8.3512962550959058E-01 
    7.1348641881689356E-01 
    5.6980717282851345E-01 
    3.7168512590599206E-01 
    0.0000000000000000E+00 

SCALARS Saturarion double 1 
LOOKUP_TABLE default 

    1.0000000000000000E+00 
    9.8469458172774438E-01 
    9.6472203189285044E-01 
    9.4298551243889339E-01 
    9.2124077228683998E-01 
    8.9996247609310098E-01 
    8.7913411718926981E-01 
    8.5849777442612263E-01 
    8.3758036821765192E-01 
    8.1555070771968030E-01 
    7.9073927882288708E-01 
    7.5896402874068858E-01 
    7.0562862991738229E-01 
    5.5734304958592940E-01 
    1.4913647518183323E-01 
    9.4030390970402855E-04 
    9.9507453003908297E-01 
    9.8235183213341126E-01 
    9.6382139665591116E-01 
    9.4277251981491383E-01 
    9.2134198281255109E-01 
    9.0023769355840733E-01 
    8.7953833867164055E-01 
    8.5903350672775280E-01 
    8.3828848793548238E-01 
    8.1652568990444041E-01 
    7.9218943687497223E-01 
    7.6144284387749894E-01 
    7.1136239380317068E-01 
    5.8002947960785600E-01 
    1.9655404259660794E-01 
    2.4172151458046838E-03 
    9.9097005805905114E-01 
    9.7893192264085271E-01 
    9.6155199300629557E-01 
    9.4137382524795710E-01 
    9.2046788729685192E-01 
    8.9970963051946429E-01 
    8.7928066383073200E-01 
    8.5902675765671066E-01 
    8.3855619005352833E-01 
    8.1714666875241349E-01 
    7.9335309846953139E-01 
    7.6365192917244451E-01 
    7.1645989514211073E-01 
    5.9793659043632219E-01 
    2.4121537538049942E-01 
    5.0448833626365649E-03 
    9.8611859160189907E-01 
    9.7465119450342053E-01 
    9.5819093061393157E-01 
    9.3889382210068117E-01 
    9.1863242882383334E-01 
    8.9834874077794591E-01 
    8.7830722656536775E-01 
    8.5840900139830834E-01 
    8.3830700721998674E-01 
    8.1733560485042678E-01 
    7.9415839618060324E-01 
    7.6554234930246545E-01 
    7.2105045698289449E-01 
    6.1349018217260654E-01 
    2.8649695429827488E-01 
    9.6471900198132742E-03 
    9.8029544089126863E-01 
    9.6947061511757837E-01 
    9.5384465737232915E-01 
    9.3541050315681029E-01 
    9.1586511396820014E-01 
    8.9615514809656138E-01 
    8.7660087027598610E-01 
    8.5715176015083605E-01 
    8.3750422993092999E-01 
    8.1704982974306828E-01 
    7.9456070123965850E-01 
    7.6708168031060719E-01 
    7.2520550550256113E-01 
    6.2744641830522141E-01 
    3.3082212283123780E-01 
    1.7203088550550555E-02 
    9.7332842016126508E-01 
    9.6329594876604141E-01 
    9.4851128737183588E-01 
    9.3094115171646152E-01 
    9.1216525434602103E-01 
    8.9311144291689482E-01 
    8.7413364399599436E-01 
    8.5522028550446072E-01 
    8.3610771727790900E-01 
    8.1624387512382846E-01 
    7.9451000065712030E-01 
    7.6822353229205287E-01 
    7.2893164087544626E-01 
    6.4013163267569295E-01 
    3.7284712620945670E-01 
    2.8936685337451251E-02 
    9.6504323353573551E-01 
    9.5599692060053665E-01 
    9.4212186617489813E-01 
    9.2544703212394186E-01 
    9.0749437036230307E-01 
    8.8917290963397055E-01 
    8.7085645657557587E-01 
    8.5256310794842782E-01 
    8.3406391954819403E-01 
    8.1486064894793786E-01 
    7.9394366245979298E-01 
    7.6890247500517017E-01 
    7.3218897601724264E-01 
    6.5171039570781231E-01 
    4.1179437528724044E-01 
    4.6301157565465031E-02 
    9.5523689242834697E-01 
    9.4740109564058994E-01 
    9.3454924090858049E-01 
    9.1883267225906695E-01 
    9.0176801386506711E-01 
    8.8425770765440725E-01 
    8.6668940641992409E-01 
    8.4910304390176561E-01 
    8.3129795830523656E-01 
    8.1282503098816561E-01 
    7.9278185219243769E-01 
    7.6903162971421224E-01 
    7.3490040484052321E-01 
    6.6225470735352709E-01 
    4.4749782841325841E-01 
    7.0996758665428664E-02 
    9.4364739343165904E-01 
    9.3727432406598254E-01 
    9.2559724062426096E-01 
    9.1093363307458364E-01 
    8.9483995899405255E-01 
    8.7823021381145683E-01 
    8.6150589308514480E-01 
    8.4472275597469659E-01 
    8.2770098345318610E-01 
    8.1003325980799201E-01 
    7.9091909716497788E-01 
    7.6849631880740565E-01 
    7.3695052674620132E-01 
    6.7176227759918294E-01 
    4.8016477672552232E-01 
    1.0481310049394887E-01 
    9.2990579772727222E-01 
    9.2528246544633153E-01 
    9.1496877165279156E-01 
    9.0148599678755548E-01 
    8.8647069638267950E-01 
    8.7086970056402313E-01 
    8.5510297335958774E-01 
    8.3923782080193499E-01 
    8.2310665412032225E-01 
    8.0633321355696252E-01 
    7.8820828781524632E-01 
    7.6714064564121331E-01 
    7.3817398800726353E-01 
    6.8015421327517878E-01 
    5.1013164033228242E-01 
    1.4914218968954340E-01 
    9.1344624506980232E-01 
    9.1091478991381025E-01 
    9.0219614563734007E-01 
    8.9005964694191475E-01 
    8.7626149886697091E-01 
    8.6180586355036848E-01 
    8.4714025540046689E-01 
    8.3234093623703975E-01 
    8.1724212450809630E-01 
    8.0148300525700134E-01 
    7.8442688255894377E-01 
    7.6473916646562856E-01 
    7.3832761859294516E-01 
    6.8725328399254115E-01 
    5.3768427157426790E-01 
    2.0355423306831094E-01 
    8.9330433105725149E-01 
    8.9331004929054691E-01 
    8.8647913163877778E-01 
    8.7590127912441185E-01 
    8.6349926808070843E-01 
    8.5036628840490880E-01 
    8.3699372022069174E-01 
    8.2346709674157992E-01 
    8.0960903762890968E-01 
    7.9505048308239457E-01 
    7.7919525091570341E-01 
    7.6093021358631618E-01 
    7.3702638691568967E-01 
    6.9272438426514460E-01 
    5.6293126712625885E-01 
    2.6412937841555889E-01 
    8.6754606621032460E-01 
    8.7076873821434086E-01 
    8.6622896159743379E-01 
    8.5748724237997154E-01 
    8.4670842613494979E-01 
    8.3512807976166425E-01 
    8.2331741607355213E-01 
    8.1138294594558991E-01 
    7.9911993713822882E-01 
    7.8611062719213298E-01 
    7.7173860620209300E-01 
    7.5503151735899776E-01 
    7.3357648128121211E-01 
    6.9590885184489348E-01 
    5.8567795929835609E-01 
    3.2451925333866521E-01 
    8.3094006824283284E-01 
    8.3880294582757997E-01 
    8.3725004995651275E-01 
    8.3072150801535505E-01 
    8.2181188964429219E-01 
    8.1203648974682541E-01 
    8.0215944699277042E-01 
    7.9237942655055060E-01 
    7.8246857196370379E-01 
    7.7188792073520340E-01 
    7.5985695701746403E-01 
    7.4532231019100847E-01 
    7.2643105064747560E-01 
    6.9528228752875809E-01 
    6.0514560711350585E-01 
    3.8044130149943906E-01 
    7.6080662040288216E-01 
    7.7800352431333653E-01 
    7.8145997850871962E-01 
    7.7785944623897740E-01 
    7.7090027146315798E-01 
    7.6286514453046295E-01 
    7.5518401133148072E-01 
    7.4862786869497933E-01 
    7.4331110593225092E-01 
    7.3861015903964078E-01 
    7.3313289147045646E-01 
    7.2484851908401982E-01 
    7.1123166310407415E-01 
    6.8742609070555716E-01 
    6.1942143966197094E-01 
    4.3058825183935046E-01 
    4.8767076000413184E-01 
    5.6570865365544398E-01 
    5.9073262029775797E-01 
    5.9550603571870253E-01 
    5.9024811671537947E-01 
    5.7972077944209965E-01 
    5.6667897628305641E-01 
    5.5315946500482871E-01 
    5.4124392559987444E-01 
    5.3343850137258164E-01 
    5.3183498637495152E-01 
    5.3439587327246785E-01 
    5.2961048587090187E-01 
    5.0715063415253481E-01 
    5.1587912527069291E-01 
    4.4058364523408472E-01 
