# vtk DataFile Version 2.0
Pressure Field Data 
ASCII 
DATASET UNSTRUCTURED_GRID 

POINTS 289 double 

    0.0000000000000000E+00     0.0000000000000000E+00     0.0000000000000000E+00 
    1.0000000000000000E+00     0.0000000000000000E+00     0.0000000000000000E+00 
    1.0000000000000000E+00     1.0000000000000000E+00     0.0000000000000000E+00 
    0.0000000000000000E+00     1.0000000000000000E+00     0.0000000000000000E+00 
    6.2499999999872928E-02     0.0000000000000000E+00     0.0000000000000000E+00 
    1.2499999999977310E-01     0.0000000000000000E+00     0.0000000000000000E+00 
    1.8749999999959341E-01     0.0000000000000000E+00     0.0000000000000000E+00 
    2.4999999999941089E-01     0.0000000000000000E+00     0.0000000000000000E+00 
    3.1249999999922851E-01     0.0000000000000000E+00     0.0000000000000000E+00 
    3.7499999999904610E-01     0.0000000000000000E+00     0.0000000000000000E+00 
    4.3749999999886358E-01     0.0000000000000000E+00     0.0000000000000000E+00 
    4.9999999999869210E-01     0.0000000000000000E+00     0.0000000000000000E+00 
    5.6249999999884603E-01     0.0000000000000000E+00     0.0000000000000000E+00 
    6.2499999999901090E-01     0.0000000000000000E+00     0.0000000000000000E+00 
    6.8749999999917577E-01     0.0000000000000000E+00     0.0000000000000000E+00 
    7.4999999999934064E-01     0.0000000000000000E+00     0.0000000000000000E+00 
    8.1249999999950551E-01     0.0000000000000000E+00     0.0000000000000000E+00 
    8.7499999999967026E-01     0.0000000000000000E+00     0.0000000000000000E+00 
    9.3749999999983513E-01     0.0000000000000000E+00     0.0000000000000000E+00 
    1.0000000000000000E+00     6.2499999999872928E-02     0.0000000000000000E+00 
    1.0000000000000000E+00     1.2499999999977310E-01     0.0000000000000000E+00 
    1.0000000000000000E+00     1.8749999999959341E-01     0.0000000000000000E+00 
    1.0000000000000000E+00     2.4999999999941089E-01     0.0000000000000000E+00 
    1.0000000000000000E+00     3.1249999999922851E-01     0.0000000000000000E+00 
    1.0000000000000000E+00     3.7499999999904610E-01     0.0000000000000000E+00 
    1.0000000000000000E+00     4.3749999999886358E-01     0.0000000000000000E+00 
    1.0000000000000000E+00     4.9999999999869210E-01     0.0000000000000000E+00 
    1.0000000000000000E+00     5.6249999999884603E-01     0.0000000000000000E+00 
    1.0000000000000000E+00     6.2499999999901090E-01     0.0000000000000000E+00 
    1.0000000000000000E+00     6.8749999999917577E-01     0.0000000000000000E+00 
    1.0000000000000000E+00     7.4999999999934064E-01     0.0000000000000000E+00 
    1.0000000000000000E+00     8.1249999999950551E-01     0.0000000000000000E+00 
    1.0000000000000000E+00     8.7499999999967026E-01     0.0000000000000000E+00 
    1.0000000000000000E+00     9.3749999999983513E-01     0.0000000000000000E+00 
    9.3749999999973976E-01     1.0000000000000000E+00     0.0000000000000000E+00 
    8.7499999999950118E-01     1.0000000000000000E+00     0.0000000000000000E+00 
    8.1249999999991318E-01     1.0000000000000000E+00     0.0000000000000000E+00 
    7.5000000000034706E-01     1.0000000000000000E+00     0.0000000000000000E+00 
    6.8750000000078049E-01     1.0000000000000000E+00     0.0000000000000000E+00 
    6.2500000000121403E-01     1.0000000000000000E+00     0.0000000000000000E+00 
    5.6250000000164757E-01     1.0000000000000000E+00     0.0000000000000000E+00 
    5.0000000000205946E-01     1.0000000000000000E+00     0.0000000000000000E+00 
    4.3750000000182099E-01     1.0000000000000000E+00     0.0000000000000000E+00 
    3.7500000000156092E-01     1.0000000000000000E+00     0.0000000000000000E+00 
    3.1250000000130068E-01     1.0000000000000000E+00     0.0000000000000000E+00 
    2.5000000000104050E-01     1.0000000000000000E+00     0.0000000000000000E+00 
    1.8750000000078040E-01     1.0000000000000000E+00     0.0000000000000000E+00 
    1.2500000000052031E-01     1.0000000000000000E+00     0.0000000000000000E+00 
    6.2500000000260125E-02     1.0000000000000000E+00     0.0000000000000000E+00 
    0.0000000000000000E+00     9.3749999999973976E-01     0.0000000000000000E+00 
    0.0000000000000000E+00     8.7499999999950118E-01     0.0000000000000000E+00 
    0.0000000000000000E+00     8.1249999999991318E-01     0.0000000000000000E+00 
    0.0000000000000000E+00     7.5000000000034706E-01     0.0000000000000000E+00 
    0.0000000000000000E+00     6.8750000000078049E-01     0.0000000000000000E+00 
    0.0000000000000000E+00     6.2500000000121403E-01     0.0000000000000000E+00 
    0.0000000000000000E+00     5.6250000000164757E-01     0.0000000000000000E+00 
    0.0000000000000000E+00     5.0000000000205946E-01     0.0000000000000000E+00 
    0.0000000000000000E+00     4.3750000000182099E-01     0.0000000000000000E+00 
    0.0000000000000000E+00     3.7500000000156092E-01     0.0000000000000000E+00 
    0.0000000000000000E+00     3.1250000000130068E-01     0.0000000000000000E+00 
    0.0000000000000000E+00     2.5000000000104050E-01     0.0000000000000000E+00 
    0.0000000000000000E+00     1.8750000000078040E-01     0.0000000000000000E+00 
    0.0000000000000000E+00     1.2500000000052031E-01     0.0000000000000000E+00 
    0.0000000000000000E+00     6.2500000000260125E-02     0.0000000000000000E+00 
    6.2499999999897131E-02     6.2500000000235922E-02     0.0000000000000000E+00 
    6.2499999999921327E-02     1.2500000000047351E-01     0.0000000000000000E+00 
    6.2499999999945530E-02     1.8750000000070621E-01     0.0000000000000000E+00 
    6.2499999999969733E-02     2.5000000000093858E-01     0.0000000000000000E+00 
    6.2499999999993928E-02     3.1250000000117117E-01     0.0000000000000000E+00 
    6.2500000000018124E-02     3.7500000000140382E-01     0.0000000000000000E+00 
    6.2500000000042327E-02     4.3750000000163619E-01     0.0000000000000000E+00 
    6.2500000000066530E-02     5.0000000000184897E-01     0.0000000000000000E+00 
    6.2500000000090733E-02     5.6250000000147260E-01     0.0000000000000000E+00 
    6.2500000000114922E-02     6.2500000000107636E-01     0.0000000000000000E+00 
    6.2500000000139125E-02     6.8750000000068034E-01     0.0000000000000000E+00 
    6.2500000000163328E-02     7.5000000000028411E-01     0.0000000000000000E+00 
    6.2500000000187531E-02     8.1249999999988787E-01     0.0000000000000000E+00 
    6.2500000000211720E-02     8.7499999999951172E-01     0.0000000000000000E+00 
    6.2500000000235922E-02     9.3749999999974565E-01     0.0000000000000000E+00 
    1.2499999999981980E-01     6.2500000000211733E-02     0.0000000000000000E+00 
    1.2499999999986650E-01     1.2500000000042691E-01     0.0000000000000000E+00 
    1.2499999999991319E-01     1.8750000000063199E-01     0.0000000000000000E+00 
    1.2499999999995989E-01     2.5000000000083678E-01     0.0000000000000000E+00 
    1.2500000000000661E-01     3.1250000000104172E-01     0.0000000000000000E+00 
    1.2500000000005329E-01     3.7500000000124661E-01     0.0000000000000000E+00 
    1.2500000000010000E-01     4.3750000000145117E-01     0.0000000000000000E+00 
    1.2500000000014669E-01     5.0000000000163858E-01     0.0000000000000000E+00 
    1.2500000000019340E-01     5.6250000000129741E-01     0.0000000000000000E+00 
    1.2500000000024011E-01     6.2500000000093847E-01     0.0000000000000000E+00 
    1.2500000000028680E-01     6.8750000000057998E-01     0.0000000000000000E+00 
    1.2500000000033351E-01     7.5000000000022127E-01     0.0000000000000000E+00 
    1.2500000000038020E-01     8.1249999999986211E-01     0.0000000000000000E+00 
    1.2500000000042691E-01     8.7499999999952238E-01     0.0000000000000000E+00 
    1.2500000000047359E-01     9.3749999999975164E-01     0.0000000000000000E+00 
    1.8749999999966760E-01     6.2500000000187531E-02     0.0000000000000000E+00 
    1.8749999999974179E-01     1.2500000000038020E-01     0.0000000000000000E+00 
    1.8749999999981601E-01     1.8750000000055780E-01     0.0000000000000000E+00 
    1.8749999999989009E-01     2.5000000000073502E-01     0.0000000000000000E+00 
    1.8749999999996431E-01     3.1250000000091221E-01     0.0000000000000000E+00 
    1.8750000000003850E-01     3.7500000000108941E-01     0.0000000000000000E+00 
    1.8750000000011269E-01     4.3750000000126649E-01     0.0000000000000000E+00 
    1.8750000000018691E-01     5.0000000000142808E-01     0.0000000000000000E+00 
    1.8750000000026110E-01     5.6250000000112244E-01     0.0000000000000000E+00 
    1.8750000000033529E-01     6.2500000000080080E-01     0.0000000000000000E+00 
    1.8750000000040951E-01     6.8750000000047962E-01     0.0000000000000000E+00 
    1.8750000000048361E-01     7.5000000000015843E-01     0.0000000000000000E+00 
    1.8750000000055780E-01     8.1249999999983680E-01     0.0000000000000000E+00 
    1.8750000000063199E-01     8.7499999999953304E-01     0.0000000000000000E+00 
    1.8750000000070621E-01     9.3749999999975764E-01     0.0000000000000000E+00 
    2.4999999999951281E-01     6.2500000000163314E-02     0.0000000000000000E+00 
    2.4999999999961461E-01     1.2500000000033351E-01     0.0000000000000000E+00 
    2.4999999999971650E-01     1.8750000000048361E-01     0.0000000000000000E+00 
    2.4999999999981831E-01     2.5000000000063310E-01     0.0000000000000000E+00 
    2.4999999999992020E-01     3.1250000000078260E-01     0.0000000000000000E+00 
    2.5000000000002198E-01     3.7500000000093209E-01     0.0000000000000000E+00 
    2.5000000000012390E-01     4.3750000000108180E-01     0.0000000000000000E+00 
    2.5000000000022571E-01     5.0000000000121769E-01     0.0000000000000000E+00 
    2.5000000000032763E-01     5.6250000000094724E-01     0.0000000000000000E+00 
    2.5000000000042938E-01     6.2500000000066314E-01     0.0000000000000000E+00 
    2.5000000000053119E-01     6.8750000000037925E-01     0.0000000000000000E+00 
[...]
CELL_DATA 256 
SCALARS Pressure double 1 
LOOKUP_TABLE default 

    1.9525276731027306E+00 
    1.7206356187193068E+00 
    1.5900648011321006E+00 
    1.4857601364610191E+00 
    1.3899271011022665E+00 
    1.2966677568207079E+00 
    1.2037017478788448E+00 
    1.1102483648839623E+00 
    1.0163919762365123E+00 
    9.2297531283050060E-01 
    8.3176065790289022E-01 
    7.4570306071063541E-01 
    6.6902064976125430E-01 
    6.0642365907474283E-01 
    5.6233060889450237E-01 
    5.4806719707881846E-01 
    1.8812008636223971E+00 
    1.7246000011234719E+00 
    1.5986795040890243E+00 
    1.4946072375774420E+00 
    1.3988162120231427E+00 
    1.3056447566709120E+00 
    1.2127763870581683E+00 
    1.1193755917721044E+00 
    1.0254581287487847E+00 
    9.3176986686405383E-01 
    8.3994064628064158E-01 
    7.5278171375681779E-01 
    6.7444997380394356E-01 
    6.0981955238243191E-01 
    5.6349164615745317E-01 
    5.4759932200070993E-01 
    1.8258756950381509E+00 
    1.7179466967039727E+00 
    1.6037614397046542E+00 
    1.5021111074089222E+00 
    1.4070668603303229E+00 
    1.3142569880678237E+00 
    1.2215977306977917E+00 
    1.1282791022119556E+00 
    1.0342693423465681E+00 
    9.4021004759953863E-01 
    8.4757187571114023E-01 
    7.5898763718949935E-01 
    6.7854682646464515E-01 
    6.1141165970955924E-01 
    5.6276845528254493E-01 
    5.4555981163124734E-01 
    1.7823883685130661E+00 
    1.7061608445542416E+00 
    1.6055991607212041E+00 
    1.5081693288845073E+00 
    1.4146179700522583E+00 
    1.3224804475715175E+00 
    1.2301644642688492E+00 
    1.1369764257400725E+00 
    1.0428655881633762E+00 
    9.4836684024857210E-01 
    8.5476505793595381E-01 
    7.6446727592117125E-01 
    6.8145244092283641E-01 
    6.1122743141529001E-01 
    5.5992650629148499E-01 
    5.4148223285619512E-01 
    1.7478221555619289E+00 
    1.6924076091260956E+00 
    1.6049290481771985E+00 
    1.5128424064286448E+00 
    1.4214533789975221E+00 
    1.3303063349469435E+00 
    1.2384817407754867E+00 
    1.1454882089796459E+00 
    1.0512886161115977E+00 
    9.5631347127814326E-01 
    8.6163670175627416E-01 
    7.6938085947960400E-01 
    6.8333072807039985E-01 
    6.0931534473259552E-01 
    5.5470932514746762E-01 
    5.3483624256752615E-01 
    1.7201328709788073E+00 
    1.6784851274935102E+00 
    1.6025587064579161E+00 
    1.5163144073323482E+00 
    1.4276057797431712E+00 
    1.3377441974843991E+00 
    1.2465622958045433E+00 
    1.1538382008058663E+00 
    1.0595811412383007E+00 
    9.6412401213251941E-01 
    8.6830803254251065E-01 
    7.7390451285116812E-01 
    6.8437896364553019E-01 
    6.0576476743732799E-01 
    5.4686243062085726E-01 
    5.2501914072900757E-01 
    1.6978651269577119E+00 
    1.6653855554762653E+00 
    1.5992112763845927E+00 
    1.5188400710550982E+00 
    1.4331515337513188E+00 
    1.3448230164578781E+00 
    1.2544271931798794E+00 
    1.1620532001014336E+00 
    1.0677859754265837E+00 
    9.7187162897657264E-01 
    8.7490287201646844E-01 
    7.7823057772515292E-01 
    6.8483743830373711E-01 
    6.0072997969014819E-01 
    5.3616563449652688E-01 
    5.1135809327891191E-01 
    1.6799647106130211E+00 
    1.6536288137854414E+00 
    1.5954764632854881E+00 
    1.5207008766062384E+00 
    1.4382004601972327E+00 
    1.3515902287373178E+00 
    1.2621060505639170E+00 
    1.1701629421751567E+00 
    1.0759451660167518E+00 
    9.7962657054375113E-01 
    8.8154441496545044E-01 
    7.8256554552962920E-01 
    6.8499706079501765E-01 
    5.9445771007602333E-01 
    5.2246889888879977E-01 
    4.9310686028344458E-01 
    1.6656536818364287E+00 
    1.6434610911010559E+00 
    1.5918098749042522E+00 
    1.5221751690528864E+00 
    1.4428843508478100E+00 
    1.3581092153764300E+00 
    1.2696367261827248E+00 
    1.1781999135855810E+00 
    1.0840992038113015E+00 
    9.8745402131805948E-01 
    8.8835091983364567E-01 
    7.8712493593374666E-01 
    6.8520333146094325E-01 
    5.8731857113217989E-01 
    5.0573219688787252E-01 
    4.6941030782774612E-01 
    1.6543461410730143E+00 
    1.6349726597136558E+00 
    1.5885514341976721E+00 
    1.5235209118170721E+00 
    1.4473465835634285E+00 
    1.3644559691800371E+00 
    1.2770645670275065E+00 
    1.1861991214438585E+00 
    1.0922863897634560E+00 
    9.9541202544468721E-01 
    8.9543050980678152E-01 
    7.9212451052471056E-01 
    6.8585418805622678E-01 
    5.7984264413403008E-01 
    4.8608548248878453E-01 
    4.3922915712531857E-01 
    1.6455904062518480E+00 
    1.6281674743437167E+00 
    1.5859488958361456E+00 
    1.5249678150520773E+00 
    1.4517339423805424E+00 
    1.3707155814948662E+00 
    1.2844413838523017E+00 
    1.1941978744742430E+00 
    1.1005424737003358E+00 
    1.0035497704104861E+00 
    9.0287554637185607E-01 
    7.9776750754613490E-01 
    6.8738800498093033E-01 
    5.7275662687743867E-01 
    4.6393552513816305E-01 
    4.0123182835179966E-01 
    1.6390282564081016E+00 
    1.6230038644469624E+00 
    1.5841802687214150E+00 
    1.5267156171881193E+00 
    1.4561908593570891E+00 
    1.3769789824779972E+00 
    1.2918243170318180E+00 
    1.2022356472260891E+00 
    1.1089006943593467E+00 
    1.0119065944666250E+00 
    9.1075738039403498E-01 
    8.0422830196545836E-01 
    6.9025684248373220E-01 
    5.6701333387312747E-01 
    4.4015398163447161E-01 
    3.5364737308593874E-01 
    1.6343647492943467E+00 
    1.6194175269191129E+00 
    1.5833725503656770E+00 
    1.5289357339465599E+00 
    1.4608556211352546E+00 
    1.3833400234750903E+00 
    1.2992746336002006E+00 
    1.2103540553221346E+00 
    1.1173923484417025E+00 
    1.0205121451124997E+00 
    9.1912268341854075E-01 
    8.1163425942981893E-01 
    6.9487975259444135E-01 
    5.6379157323666673E-01 
    4.1639920720202483E-01 
    2.9405514436252667E-01 
    1.6313425595101567E+00 
    1.6173316751987250E+00 
    1.5836144342173206E+00 
    1.5317728868829923E+00 
    1.4658567652547732E+00 
    1.3898919414398003E+00 
    1.3068557970848458E+00 
    1.2185965517547206E+00 
    1.1260478446754589E+00 
    1.0293881499563788E+00 
    9.2799299379819944E-01 
    8.2004974424660748E-01 
    7.0157343769459191E-01 
    5.6441946314752733E-01 
    3.9565973020946610E-01 
    2.1906633172641621E-01 
    1.6297097471251267E+00 
    1.6166477291833294E+00 
    1.5849529584590065E+00 
    1.5353369517937765E+00 
    1.4713024244390365E+00 
    1.3967179074021296E+00 
    1.3146267364664308E+00 
    1.2270048432019458E+00 
    1.1348965500486681E+00 
    1.0385517662346979E+00 
    9.3736981297604061E-01 
    8.2946980558394101E-01 
    7.1046731036980659E-01 
    5.7012341575767889E-01 
    3.8316198145666974E-01 
    1.2379347871081466E-01 
    1.6292156921944072E+00 
    1.6172375479317049E+00 
    1.5873859581029426E+00 
    1.5396966316641953E+00 
    1.4772763691140007E+00 
    1.4038895701348275E+00 
    1.3226415844429269E+00 
    1.2356183456036891E+00 
    1.1439651278445959E+00 
    1.0480124706007097E+00 
    9.4722871800893027E-01 
    8.3979993189803959E-01 
    7.2137506504598237E-01 
    5.8129661954921830E-01 
    3.8763254664784053E-01 
    0.0000000000000000E+00 

SCALARS Saturarion double 1 
LOOKUP_TABLE default 

    1.0000000000000000E+00 
    9.8649800924196385E-01 
    9.6877123503821616E-01 
    9.4942941701466999E-01 
    9.3008841506773932E-01 
    9.1122515246251945E-01 
    8.9288090813463572E-01 
    8.7490163833660839E-01 
    8.5699685077548338E-01 
    8.3869179324064058E-01 
    8.1913625596659267E-01 
    7.9651901078365683E-01 
    7.6582027999610114E-01 
    7.0783972374005244E-01 
    5.2843462725091417E-01 
    7.8141086760392470E-02 
    9.9567289139874970E-01 
    9.8442444415898434E-01 
    9.6796455093158995E-01 
    9.4922225596563659E-01 
    9.3014766277009076E-01 
    9.1142492065958525E-01 
    8.9317931838091935E-01 
    8.7529682388751640E-01 
    8.5751557901712205E-01 
    8.3939442080793170E-01 
    8.2013921917292620E-01 
    7.9806293793511407E-01 
    7.6855369516900340E-01 
    7.1435765753196323E-01 
    5.5470411803836117E-01 
    1.1674077199830139E-01 
    9.9205520379748402E-01 
    9.8139099432067567E-01 
    9.6592982499276125E-01 
    9.4793889000415910E-01 
    9.2930795025454460E-01 
    9.1087107592633498E-01 
    8.9284536281263482E-01 
    8.7516555848014288E-01 
    8.5760435528364709E-01 
    8.3975871314438111E-01 
    8.2089389984461580E-01 
    7.9944524219352486E-01 
    7.7117505541086273E-01 
    7.2049329552323227E-01 
    5.7614249822526964E-01 
    1.5773677511334697E-01 
    9.8776437322695110E-01 
    9.7758274229300302E-01 
    9.6291007037949261E-01 
    9.4567216102570650E-01 
    9.2758362428910313E-01 
    9.0953986916266683E-01 
    8.9183320348695838E-01 
    8.7444770656774307E-01 
    8.5719395988118907E-01 
    8.3971132395753134E-01 
    8.2132893640109861E-01 
    8.0060458508041721E-01 
    7.7364653219922652E-01 
    7.2632478314568094E-01 
    5.9492651644794381E-01 
    2.0169411567242712E-01 
    9.8259337876722064E-01 
    9.7295757367466851E-01 
    9.5899414593649179E-01 
    9.4248777782001214E-01 
    9.2499888596435453E-01 
    9.0743012878095941E-01 
    8.9012613717543076E-01 
    8.7311536187627048E-01 
    8.5624683105970545E-01 
    8.3920551704404023E-01 
    8.2138988571863203E-01 
    8.0148431497721739E-01 
    7.7592432697376146E-01 
    7.3189158900142737E-01 
    6.1197998801695053E-01 
    2.4779583557944618E-01 
    9.7637789927090801E-01 
    9.6742216557634253E-01 
    9.5417221916020090E-01 
    9.3839435971995444E-01 
    9.2154746539373900E-01 
    9.0452123535486095E-01 
    8.8769398831801272E-01 
    8.7113139430564712E-01 
    8.5471930073852354E-01 
    8.3819008556591379E-01 
    8.2101734576220631E-01 
    8.0202028123555480E-01 
    7.7795313466886118E-01 
    7.3719733118995612E-01 
    6.2781902668350509E-01 
    2.9456932647248563E-01 
    9.6894777124245302E-01 
    9.6084827633880965E-01 
    9.4837213129882503E-01 
    9.3334768403160329E-01 
    9.1718602865883803E-01 
    9.0076449540728132E-01 
    8.8448380930583004E-01 
    8.6843984537023211E-01 
    8.5255210261879910E-01 
    8.3660046056859838E-01 
    8.2013897488831355E-01 
    8.0213365161981609E-01 
    7.7965993020426116E-01 
    7.4221325975627284E-01 
    6.4275219233021330E-01 
    3.4020553798567083E-01 
    9.6010272590732204E-01 
    9.5306642901111260E-01 
    9.4146654576907085E-01 
    9.2724950914872606E-01 
    9.1182641349513083E-01 
    8.9607379941165088E-01 
    8.8041046155843850E-01 
    8.6495687120017239E-01 
    8.4966199967154199E-01 
    8.3435130924553957E-01 
    8.1866299955616051E-01 
    8.0172455216455130E-01 
    7.8094748248654633E-01 
    7.4687806113916899E-01 
    6.5695051423962147E-01 
    3.8337614895745220E-01 
    9.4958430197083465E-01 
    9.4384729325505967E-01 
    9.3326212620340621E-01 
    9.1993555023338236E-01 
    9.0532036733527921E-01 
    8.9030938223666478E-01 
    8.7534071140791847E-01 
    8.6055576549008050E-01 
    8.4592816294928319E-01 
    8.3132465095017427E-01 
    8.1646811805755670E-01 
    8.0066275630191053E-01 
    7.8168481029108594E-01 
    7.5109283805152405E-01 
    6.7047997595424935E-01 
    4.2366292816005729E-01 
    9.3703151883826219E-01 
    9.3286590285129067E-01 
    9.2346936851358774E-01 
    9.1114647348290245E-01 
    8.9742943802005559E-01 
    8.8324741134588358E-01 
    8.6906361150133427E-01 
    8.5503898351535812E-01 
    8.4116661510833290E-01 
    8.2734745561070000E-01 
    8.1338461891481628E-01 
    7.9877114693592144E-01 
    7.8169073603342631E-01 
    7.5470883233853003E-01 
    6.8331729076051206E-01 
    4.6123580608947806E-01 
    9.2189897712633462E-01 
    9.1963147809382229E-01 
    9.1163833923968085E-01 
    9.0046597887965030E-01 
    8.8776320575492351E-01 
    8.7451844764874909E-01 
    8.6123030421062330E-01 
    8.4808074963228341E-01 
    8.3507723403473044E-01 
    8.2214461914446824E-01 
    8.0915453780826008E-01 
    7.9579211575919351E-01 
    7.8070222474511852E-01 
    7.5750126750732305E-01 
    6.9535139920340683E-01 
    4.9643888942256298E-01 
    9.0327939873985319E-01 
    9.0333307605766400E-01 
    8.9701395229078484E-01 
    8.8717964224128643E-01 
    8.7563835228240672E-01 
    8.6346611068917067E-01 
    8.5121390500890226E-01 
    8.3909142800403502E-01 
    8.2711678817462642E-01 
    8.1522492902352117E-01 
    8.0333420256982735E-01 
    7.9130733083594818E-01 
    7.7830404234152439E-01 
    7.5911040580987355E-01 
    7.0636400720024595E-01 
    5.2956692360614754E-01 
    8.7942528189170377E-01 
    8.8242669430194987E-01 
    8.7814680431333025E-01 
    8.6989075818555095E-01 
    8.5968950849401971E-01 
    8.4874943650575230E-01 
    8.3770642456872280E-01 
    8.2681856595056236E-01 
    8.1611862805825064E-01 
    8.0553552646606963E-01 
    7.9499750623931686E-01 
    7.8449741229899439E-01 
    7.7373409611424371E-01 
    7.5888525967702525E-01 
    7.1595914590529985E-01 
    5.6075529292910353E-01 
    8.4591870237826106E-01 
    8.5308945601032649E-01 
    8.5144025678085189E-01 
    8.4506889688715092E-01 
    8.3636876135650651E-01 
    8.2677096315367982E-01 
    8.1708088743927498E-01 
    8.0767861035579502E-01 
    7.9865798447915615E-01 
    7.8994314801117671E-01 
    7.8141580162977187E-01 
    7.7308156855354238E-01 
    7.6508660913909399E-01 
    7.5530791091537608E-01 
    7.2329148460673942E-01 
    5.8986901634365063E-01 
    7.8498338336353823E-01 
    8.0008144003630166E-01 
    8.0257335678626773E-01 
    7.9852135090207343E-01 
    7.9117270992790645E-01 
    7.8249260829522371E-01 
    7.7373136668165887E-01 
    7.6568808834064628E-01 
    7.5883178118883787E-01 
    7.5333962859427517E-01 
    7.4911826103067580E-01 
    7.4593818466753137E-01 
    7.4383581091625328E-01 
    7.4234506034563197E-01 
    7.2533674313307173E-01 
    6.1593857060479895E-01 
    5.6599581001180788E-01 
    6.2140950719200538E-01 
    6.4022339034052633E-01 
    6.4332159079539009E-01 
    6.3834443983496669E-01 
    6.2904730819343035E-01 
    6.1756688133569126E-01 
    6.0530801031648074E-01 
    5.9346674390273257E-01 
    5.8347193554447763E-01 
    5.7742206624347325E-01 
    5.7846637935391332E-01 
    5.9130152243532763E-01 
    6.2296298997543098E-01 
    6.6933349817042398E-01 
    6.2596076317466420E-01 
