# vtk DataFile Version 2.0
Pressure Field Data 
ASCII 
DATASET UNSTRUCTURED_GRID 

POINTS 289 double 

    0.0000000000000000E+00     0.0000000000000000E+00     0.0000000000000000E+00 
    1.0000000000000000E+00     0.0000000000000000E+00     0.0000000000000000E+00 
    1.0000000000000000E+00     1.0000000000000000E+00     0.0000000000000000E+00 
    0.0000000000000000E+00     1.0000000000000000E+00     0.0000000000000000E+00 
    6.2499999999872928E-02     0.0000000000000000E+00     0.0000000000000000E+00 
    1.2499999999977310E-01     0.0000000000000000E+00     0.0000000000000000E+00 
    1.8749999999959341E-01     0.0000000000000000E+00     0.0000000000000000E+00 
    2.4999999999941089E-01     0.0000000000000000E+00     0.0000000000000000E+00 
    3.1249999999922851E-01     0.0000000000000000E+00     0.0000000000000000E+00 
    3.7499999999904610E-01     0.0000000000000000E+00     0.0000000000000000E+00 
    4.3749999999886358E-01     0.0000000000000000E+00     0.0000000000000000E+00 
    4.9999999999869210E-01     0.0000000000000000E+00     0.0000000000000000E+00 
    5.6249999999884603E-01     0.0000000000000000E+00     0.0000000000000000E+00 
    6.2499999999901090E-01     0.0000000000000000E+00     0.0000000000000000E+00 
    6.8749999999917577E-01     0.0000000000000000E+00     0.0000000000000000E+00 
    7.4999999999934064E-01     0.0000000000000000E+00     0.0000000000000000E+00 
    8.1249999999950551E-01     0.0000000000000000E+00     0.0000000000000000E+00 
    8.7499999999967026E-01     0.0000000000000000E+00     0.0000000000000000E+00 
    9.3749999999983513E-01     0.0000000000000000E+00     0.0000000000000000E+00 
    1.0000000000000000E+00     6.2499999999872928E-02     0.0000000000000000E+00 
    1.0000000000000000E+00     1.2499999999977310E-01     0.0000000000000000E+00 
    1.0000000000000000E+00     1.8749999999959341E-01     0.0000000000000000E+00 
    1.0000000000000000E+00     2.4999999999941089E-01     0.0000000000000000E+00 
    1.0000000000000000E+00     3.1249999999922851E-01     0.0000000000000000E+00 
    1.0000000000000000E+00     3.7499999999904610E-01     0.0000000000000000E+00 
    1.0000000000000000E+00     4.3749999999886358E-01     0.0000000000000000E+00 
    1.0000000000000000E+00     4.9999999999869210E-01     0.0000000000000000E+00 
    1.0000000000000000E+00     5.6249999999884603E-01     0.0000000000000000E+00 
    1.0000000000000000E+00     6.2499999999901090E-01     0.0000000000000000E+00 
    1.0000000000000000E+00     6.8749999999917577E-01     0.0000000000000000E+00 
    1.0000000000000000E+00     7.4999999999934064E-01     0.0000000000000000E+00 
    1.0000000000000000E+00     8.1249999999950551E-01     0.0000000000000000E+00 
    1.0000000000000000E+00     8.7499999999967026E-01     0.0000000000000000E+00 
    1.0000000000000000E+00     9.3749999999983513E-01     0.0000000000000000E+00 
    9.3749999999973976E-01     1.0000000000000000E+00     0.0000000000000000E+00 
    8.7499999999950118E-01     1.0000000000000000E+00     0.0000000000000000E+00 
    8.1249999999991318E-01     1.0000000000000000E+00     0.0000000000000000E+00 
    7.5000000000034706E-01     1.0000000000000000E+00     0.0000000000000000E+00 
    6.8750000000078049E-01     1.0000000000000000E+00     0.0000000000000000E+00 
    6.2500000000121403E-01     1.0000000000000000E+00     0.0000000000000000E+00 
    5.6250000000164757E-01     1.0000000000000000E+00     0.0000000000000000E+00 
    5.0000000000205946E-01     1.0000000000000000E+00     0.0000000000000000E+00 
    4.3750000000182099E-01     1.0000000000000000E+00     0.0000000000000000E+00 
    3.7500000000156092E-01     1.0000000000000000E+00     0.0000000000000000E+00 
    3.1250000000130068E-01     1.0000000000000000E+00     0.0000000000000000E+00 
    2.5000000000104050E-01     1.0000000000000000E+00     0.0000000000000000E+00 
    1.8750000000078040E-01     1.0000000000000000E+00     0.0000000000000000E+00 
    1.2500000000052031E-01     1.0000000000000000E+00     0.0000000000000000E+00 
    6.2500000000260125E-02     1.0000000000000000E+00     0.0000000000000000E+00 
    0.0000000000000000E+00     9.3749999999973976E-01     0.0000000000000000E+00 
    0.0000000000000000E+00     8.7499999999950118E-01     0.0000000000000000E+00 
    0.0000000000000000E+00     8.1249999999991318E-01     0.0000000000000000E+00 
    0.0000000000000000E+00     7.5000000000034706E-01     0.0000000000000000E+00 
    0.0000000000000000E+00     6.8750000000078049E-01     0.0000000000000000E+00 
    0.0000000000000000E+00     6.2500000000121403E-01     0.0000000000000000E+00 
    0.0000000000000000E+00     5.6250000000164757E-01     0.0000000000000000E+00 
    0.0000000000000000E+00     5.0000000000205946E-01     0.0000000000000000E+00 
    0.0000000000000000E+00     4.3750000000182099E-01     0.0000000000000000E+00 
    0.0000000000000000E+00     3.7500000000156092E-01     0.0000000000000000E+00 
    0.0000000000000000E+00     3.1250000000130068E-01     0.0000000000000000E+00 
    0.0000000000000000E+00     2.5000000000104050E-01     0.0000000000000000E+00 
    0.0000000000000000E+00     1.8750000000078040E-01     0.0000000000000000E+00 
    0.0000000000000000E+00     1.2500000000052031E-01     0.0000000000000000E+00 
    0.0000000000000000E+00     6.2500000000260125E-02     0.0000000000000000E+00 
    6.2499999999897131E-02     6.2500000000235922E-02     0.0000000000000000E+00 
    6.2499999999921327E-02     1.2500000000047351E-01     0.0000000000000000E+00 
    6.2499999999945530E-02     1.8750000000070621E-01     0.0000000000000000E+00 
    6.2499999999969733E-02     2.5000000000093858E-01     0.0000000000000000E+00 
    6.2499999999993928E-02     3.1250000000117117E-01     0.0000000000000000E+00 
    6.2500000000018124E-02     3.7500000000140382E-01     0.0000000000000000E+00 
    6.2500000000042327E-02     4.3750000000163619E-01     0.0000000000000000E+00 
    6.2500000000066530E-02     5.0000000000184897E-01     0.0000000000000000E+00 
    6.2500000000090733E-02     5.6250000000147260E-01     0.0000000000000000E+00 
    6.2500000000114922E-02     6.2500000000107636E-01     0.0000000000000000E+00 
    6.2500000000139125E-02     6.8750000000068034E-01     0.0000000000000000E+00 
    6.2500000000163328E-02     7.5000000000028411E-01     0.0000000000000000E+00 
    6.2500000000187531E-02     8.1249999999988787E-01     0.0000000000000000E+00 
    6.2500000000211720E-02     8.7499999999951172E-01     0.0000000000000000E+00 
    6.2500000000235922E-02     9.3749999999974565E-01     0.0000000000000000E+00 
    1.2499999999981980E-01     6.2500000000211733E-02     0.0000000000000000E+00 
    1.2499999999986650E-01     1.2500000000042691E-01     0.0000000000000000E+00 
    1.2499999999991319E-01     1.8750000000063199E-01     0.0000000000000000E+00 
    1.2499999999995989E-01     2.5000000000083678E-01     0.0000000000000000E+00 
    1.2500000000000661E-01     3.1250000000104172E-01     0.0000000000000000E+00 
    1.2500000000005329E-01     3.7500000000124661E-01     0.0000000000000000E+00 
    1.2500000000010000E-01     4.3750000000145117E-01     0.0000000000000000E+00 
    1.2500000000014669E-01     5.0000000000163858E-01     0.0000000000000000E+00 
    1.2500000000019340E-01     5.6250000000129741E-01     0.0000000000000000E+00 
    1.2500000000024011E-01     6.2500000000093847E-01     0.0000000000000000E+00 
    1.2500000000028680E-01     6.8750000000057998E-01     0.0000000000000000E+00 
    1.2500000000033351E-01     7.5000000000022127E-01     0.0000000000000000E+00 
    1.2500000000038020E-01     8.1249999999986211E-01     0.0000000000000000E+00 
    1.2500000000042691E-01     8.7499999999952238E-01     0.0000000000000000E+00 
    1.2500000000047359E-01     9.3749999999975164E-01     0.0000000000000000E+00 
    1.8749999999966760E-01     6.2500000000187531E-02     0.0000000000000000E+00 
    1.8749999999974179E-01     1.2500000000038020E-01     0.0000000000000000E+00 
    1.8749999999981601E-01     1.8750000000055780E-01     0.0000000000000000E+00 
    1.8749999999989009E-01     2.5000000000073502E-01     0.0000000000000000E+00 
    1.8749999999996431E-01     3.1250000000091221E-01     0.0000000000000000E+00 
    1.8750000000003850E-01     3.7500000000108941E-01     0.0000000000000000E+00 
    1.8750000000011269E-01     4.3750000000126649E-01     0.0000000000000000E+00 
    1.8750000000018691E-01     5.0000000000142808E-01     0.0000000000000000E+00 
    1.8750000000026110E-01     5.6250000000112244E-01     0.0000000000000000E+00 
    1.8750000000033529E-01     6.2500000000080080E-01     0.0000000000000000E+00 
    1.8750000000040951E-01     6.8750000000047962E-01     0.0000000000000000E+00 
    1.8750000000048361E-01     7.5000000000015843E-01     0.0000000000000000E+00 
    1.8750000000055780E-01     8.1249999999983680E-01     0.0000000000000000E+00 
    1.8750000000063199E-01     8.7499999999953304E-01     0.0000000000000000E+00 
    1.8750000000070621E-01     9.3749999999975764E-01     0.0000000000000000E+00 
    2.4999999999951281E-01     6.2500000000163314E-02     0.0000000000000000E+00 
    2.4999999999961461E-01     1.2500000000033351E-01     0.0000000000000000E+00 
    2.4999999999971650E-01     1.8750000000048361E-01     0.0000000000000000E+00 
    2.4999999999981831E-01     2.5000000000063310E-01     0.0000000000000000E+00 
    2.4999999999992020E-01     3.1250000000078260E-01     0.0000000000000000E+00 
    2.5000000000002198E-01     3.7500000000093209E-01     0.0000000000000000E+00 
    2.5000000000012390E-01     4.3750000000108180E-01     0.0000000000000000E+00 
    2.5000000000022571E-01     5.0000000000121769E-01     0.0000000000000000E+00 
    2.5000000000032763E-01     5.6250000000094724E-01     0.0000000000000000E+00 
    2.5000000000042938E-01     6.2500000000066314E-01     0.0000000000000000E+00 
    2.5000000000053119E-01     6.8750000000037925E-01     0.0000000000000000E+00 
[...]
CELL_DATA 256 
SCALARS Pressure double 1 
LOOKUP_TABLE default 

    1.3447212728734210E+00 
    1.1027385259148896E+00 
    9.5925149758957484E-01 
    8.4062883589633253E-01 
    7.3381256366575232E-01 
    6.6418479548013110E-01 
    6.1130688210539097E-01 
    5.5880335724630958E-01 
    5.0570093165977792E-01 
    4.5334422335768249E-01 
    4.0300407651072978E-01 
    3.5640816235055989E-01 
    3.1596272046723134E-01 
    2.8457447351731324E-01 
    2.6473627724192261E-01 
    2.5677389134050399E-01 
    1.2699048926903658E+00 
    1.1058274159733488E+00 
    9.6770412440866793E-01 
    8.4939994947187059E-01 
    7.4193947695894102E-01 
    6.7064076073732948E-01 
    6.1689842430599029E-01 
    5.6415989651868592E-01 
    5.1092202423225042E-01 
    4.5832118224644636E-01 
    4.0755137969552890E-01 
    3.6026107644810951E-01 
    3.1880720042022431E-01 
    2.8616280701559976E-01 
    2.6509543417272391E-01 
    2.5641562868889994E-01 
    1.2093695020317929E+00 
    1.0962947850358420E+00 
    9.7106889761671533E-01 
    8.5547374269348442E-01 
    7.4922209704300924E-01 
    6.7743280040956133E-01 
    6.2282801291676260E-01 
    5.6962190211575414E-01 
    5.1612791645573897E-01 
    4.6319271461826317E-01 
    4.1187751277571993E-01 
    3.6372105709610925E-01 
    3.2102197128389320E-01 
    2.8686258480246168E-01 
    2.6441260116294013E-01 
    2.5512666671905210E-01 
    1.1596155168983855E+00 
    1.0800671974136418E+00 
    9.6970700003935839E-01 
    8.5869808059180441E-01 
    7.5567722259411152E-01 
    6.8445064133145239E-01 
    6.2903489174194793E-01 
    5.7519891094572273E-01 
    5.2134599295855233E-01 
    4.6799894344883342E-01 
    4.1604141925676108E-01 
    3.6686587730745546E-01 
    3.2268570897951737E-01 
    2.8670887257394878E-01 
    2.6262493735507852E-01 
    2.5273021181733984E-01 
    1.1179615860857832E+00 
    1.0605972632006877E+00 
    9.6447909973618462E-01 
    8.5918979180273292E-01 
    7.6146115992247199E-01 
    6.9162778581031115E-01 
    6.3542909095694000E-01 
    5.8088446447858266E-01 
    5.2659732693178596E-01 
    4.7277839061955190E-01 
    4.2010350581342432E-01 
    3.6977916709929454E-01 
    3.2388782546883355E-01 
    2.8574645508678653E-01 
    2.5966675814687956E-01 
    2.4904242564765178E-01 
    1.0825422728825924E+00 
    1.0399074168478493E+00 
    9.5630349483712218E-01 
    8.5746736677478097E-01 
    7.6679524427070356E-01 
    6.9891336989787567E-01 
    6.4191715946913452E-01 
    5.8666092586492702E-01 
    5.3189654882005866E-01 
    4.7756679759854176E-01 
    4.2412467594055214E-01 
    3.7255096786377040E-01 
    3.2473275204309049E-01 
    2.8403781893437213E-01 
    2.5547300683884078E-01 
    2.4385987129297954E-01 
    1.0520473462308064E+00 
    1.0191697107450650E+00 
    9.4590922005580480E-01 
    8.5457474910327402E-01 
    7.7190772549946829E-01 
    7.0620337743316564E-01 
    6.4842111728718144E-01 
    5.9250505586278479E-01 
    5.3725245100887431E-01 
    4.8239612434647133E-01 
    4.2816497538459841E-01 
    3.7527748732534549E-01 
    3.2534393658570027E-01 
    2.8167305052164759E-01 
    2.4998527244302160E-01 
    2.3694532973853963E-01 
    1.0255298944334590E+00 
    9.9904604044058731E-01 
    9.3379193047735365E-01 
    8.5178715904215507E-01 
    7.7702219601990052E-01 
    7.1330106631314261E-01 
    6.5488098547654638E-01 
    5.9839241155461664E-01 
    5.4266895470815513E-01 
    4.8729369669613393E-01 
    4.3228181439286034E-01 
    3.7805975387173674E-01 
    3.2586707415977878E-01 
    2.7878221496160172E-01 
    2.4316245593057420E-01 
    2.2801023890424651E-01 
    1.0022506952743835E+00 
    9.7978647834158661E-01 
    9.2159815342231699E-01 
    8.5022172993626211E-01 
    7.8226415322449772E-01 
    7.2003355089333099E-01 
    6.6125041954873620E-01 
    6.0430003720080627E-01 
    5.4814612005211172E-01 
    4.9228147512208054E-01 
    4.3652777148438549E-01 
    3.8100083287111047E-01 
    3.2647172200725949E-01 
    2.7555054957164710E-01 
    2.3499945412826045E-01 
    2.1669145057698788E-01 
    9.8149961066652425E-01 
    9.6113896482073535E-01 
    9.1159433510364518E-01 
    8.5039176879471445E-01 
    7.8749007511149272E-01 
    7.2636949051563393E-01 
    6.6749921776025911E-01 
    6.1020832238056588E-01 
    5.5368106592206490E-01 
    4.9737545256472943E-01 
    4.4094806268774783E-01 
    3.8420129745443954E-01 
    3.2734995527644362E-01 
    2.7223617325359661E-01 
    2.2555940162465801E-01 
    2.0251902743886677E-01 
    9.6288427352069828E-01 
    9.4643251972582298E-01 
    9.0581691914432305E-01 
    8.5186211853366711E-01 
    7.9242650570773865E-01 
    7.3237219029753997E-01 
    6.7361689035271877E-01 
    6.1610243424439737E-01 
    5.5926877933239239E-01 
    5.0258523515586817E-01 
    4.4557788083405431E-01 
    3.8775280475855978E-01 
    3.2871013083038203E-01 
    2.6918855545359538E-01 
    2.1502867180229210E-01 
    1.8487020794830658E-01 
    9.5314715601314770E-01 
    9.3862348607454993E-01 
    9.0340488444694989E-01 
    8.5393387374906360E-01 
    7.9703629073835103E-01 
    7.3811677954477017E-01 
    6.7960961414844967E-01 
    6.2197289967135638E-01 
    5.6490278865513144E-01 
    5.0791389013628163E-01 
    4.5043995792578900E-01 
    3.9172999962468258E-01 
    3.3076329497968809E-01 
    2.6686290641355209E-01 
    2.0380998267740427E-01 
    1.6290210705491584E-01 
    9.4802955462611438E-01 
    9.3468740847677745E-01 
    9.0259312804509551E-01 
    8.5618710864908398E-01 
    8.0149913501856196E-01 
    7.4367985846502882E-01 
    6.8549503460847783E-01 
    6.2781526728755832E-01 
    5.7057567288154798E-01 
    5.1335814513061484E-01 
    4.5554284148797852E-01 
    3.9618163750531077E-01 
    3.3369972388183100E-01 
    2.6581946098570103E-01 
    1.9267926294945859E-01 
    1.3545162931436905E-01 
    9.4484155973429906E-01 
    9.3240790054083322E-01 
    9.0269745243720745E-01 
    8.5878665702613977E-01 
    8.0596650947532389E-01 
    7.4914156513686814E-01 
    6.9129837245988635E-01 
    6.3362922436465108E-01 
    5.7627941191886645E-01 
    5.1890898530121543E-01 
    4.6088042944745267E-01 
    4.0112280752385476E-01 
    3.3765454302449693E-01 
    2.6668460804730443E-01 
    1.8304925121273788E-01 
    1.0088452006158485E-01 
    9.4312744887480005E-01 
    9.3155163943009545E-01 
    9.0378024138951074E-01 
    8.6188274893971617E-01 
    8.1057408191222813E-01 
    7.5458113272828409E-01 
    6.9704925978791576E-01 
    6.3941746285521961E-01 
    5.8200559849272582E-01 
    5.2455261831127742E-01 
    4.6643316878237079E-01 
    4.0653121531700209E-01 
    3.4266658083589607E-01 
    2.7002800637848356E-01 
    1.7741193822626286E-01 
    5.6864948333715165E-02 
    9.4265097282966404E-01 
    9.3204445795754054E-01 
    9.0591644996094722E-01 
    8.6560701087893333E-01 
    8.1544445564192247E-01 
    7.6007445744703350E-01 
    7.0277902359294564E-01 
    6.4518443511978374E-01 
    5.8774552243170797E-01 
    5.3027168039183614E-01 
    4.7217089724550454E-01 
    4.1235072792336147E-01 
    3.4864827659011083E-01 
    2.7606724954349204E-01 
    1.8008107549169250E-01 
    0.0000000000000000E+00 

SCALARS Saturarion double 1 
LOOKUP_TABLE default 

    1.0000000000000000E+00 
    9.3531977353891849E-01 
    8.5377658751648755E-01 
    7.4636184399783201E-01 
    5.3787472438054718E-01 
    1.1538969853564464E-01 
    7.1810508643302396E-04 
    3.5340222499913552E-09 
    2.2883062048027067E-21 
    4.0360725680669251E-49 
   4.9352899166084856E-112 
   3.1853086522706303E-254 
    0.0000000000000000E+00 
    0.0000000000000000E+00 
    0.0000000000000000E+00 
    0.0000000000000000E+00 
    9.7761289913915383E-01 
    9.2627411968145656E-01 
    8.5120099169977026E-01 
    7.4748236937461665E-01 
    5.4468044862611598E-01 
    1.2171491242199173E-01 
    7.9725551019638663E-04 
    4.0759484884768245E-09 
    2.5234157988590914E-21 
    2.9168892940330600E-49 
   6.1223638061980059E-113 
   1.0404073030317151E-257 
    0.0000000000000000E+00 
    0.0000000000000000E+00 
    0.0000000000000000E+00 
    0.0000000000000000E+00 
    9.6037768041545979E-01 
    9.1363429232460924E-01 
    8.4417070438907005E-01 
    7.4377737851428072E-01 
    5.3454053641262400E-01 
    1.0927936908922764E-01 
    5.6121325689204103E-04 
    1.5663132489620328E-09 
    2.0156634788061730E-22 
    3.9906785625503383E-52 
   2.2012084132798845E-120 
   6.4458198724084455E-277 
    0.0000000000000000E+00 
    0.0000000000000000E+00 
    0.0000000000000000E+00 
    0.0000000000000000E+00 
    9.4143357715925879E-01 
    8.9865600175818650E-01 
    8.3379270445879827E-01 
    7.3535680794950253E-01 
    5.0678112691957988E-01 
    8.2856388656946806E-02 
    2.4618243467882289E-04 
    1.8648350166946664E-10 
    8.9520646064672600E-25 
    4.1585476431702342E-58 
   1.3179856131561585E-135 
   2.0090034046340972E-315 
    0.0000000000000000E+00 
    0.0000000000000000E+00 
    0.0000000000000000E+00 
    0.0000000000000000E+00 
    9.2030064901933251E-01 
    8.8152865059949892E-01 
    8.2058284699888184E-01 
    7.2176565442256513E-01 
    4.5475804394161767E-01 
    4.9446149797927004E-02 
    5.7039147184352705E-05 
    4.3992867090230162E-12 
    6.3185804436429214E-29 
    9.5922020446106454E-69 
   1.0354179936747929E-162 
    0.0000000000000000E+00 
    0.0000000000000000E+00 
    0.0000000000000000E+00 
    0.0000000000000000E+00 
    0.0000000000000000E+00 
    8.9669377994741262E-01 
    8.6216539325156138E-01 
    8.0456494065546225E-01 
    7.0104919564090951E-01 
    3.6818454934219386E-01 
    2.0079344533543396E-02 
    4.8311848152298823E-06 
    7.0126144469553970E-15 
    3.2765336794032023E-36 
    1.5229775543220017E-87 
   6.2674534144387781E-211 
    0.0000000000000000E+00 
    0.0000000000000000E+00 
    0.0000000000000000E+00 
    0.0000000000000000E+00 
    0.0000000000000000E+00 
    8.7011240228043052E-01 
    8.4015142242650864E-01 
    7.8516111773834774E-01 
    6.6720426164609326E-01 
    2.4258680764499396E-01 
    4.0884565416929143E-03 
    5.9719586145688848E-08 
    5.6092488720770239E-20 
    1.5169494152446979E-49 
   5.3552450779187887E-123 
   4.4758806192385337E-311 
    0.0000000000000000E+00 
    0.0000000000000000E+00 
    0.0000000000000000E+00 
    0.0000000000000000E+00 
    0.0000000000000000E+00 
    8.3935578023181368E-01 
    8.1435974862885008E-01 
    7.6037187249168836E-01 
    5.9452829426977472E-01 
    9.8320195042580050E-02 
    1.7589376444121778E-04 
    1.1180098979096208E-11 
    5.2870780392761735E-30 
    4.5892812450640876E-79 
   1.0026612587845724E-210 
    0.0000000000000000E+00 
    0.0000000000000000E+00 
    0.0000000000000000E+00 
    0.0000000000000000E+00 
    0.0000000000000000E+00 
    0.0000000000000000E+00 
    8.0120861222867756E-01 
    7.8168445046910418E-01 
    7.2306488335492192E-01 
    3.7176627311833838E-01 
    9.9733668798345654E-03 
    2.0105704262314508E-07 
    1.2772661384667078E-20 
    4.0641096234233347E-58 
   2.0904173931394731E-161 
    0.0000000000000000E+00 
    0.0000000000000000E+00 
    0.0000000000000000E+00 
    0.0000000000000000E+00 
    0.0000000000000000E+00 
    0.0000000000000000E+00 
    0.0000000000000000E+00 
    7.4511721629495942E-01 
    7.3117402440808721E-01 
    6.2131089659929684E-01 
    7.1171618589549054E-02 
    1.4396219367951976E-05 
    1.1581756219064871E-16 
    5.7436770560631255E-49 
   1.5201121226905241E-141 
    0.0000000000000000E+00 
    0.0000000000000000E+00 
    0.0000000000000000E+00 
    0.0000000000000000E+00 
    0.0000000000000000E+00 
    0.0000000000000000E+00 
    0.0000000000000000E+00 
    0.0000000000000000E+00 
    6.0942026170736441E-01 
    5.7800197905084849E-01 
    1.3788296518586776E-01 
    6.3252518856085291E-05 
    3.4644171155400543E-15 
    1.5798403356346200E-45 
   2.0893355631254100E-134 
    0.0000000000000000E+00 
    0.0000000000000000E+00 
    0.0000000000000000E+00 
    0.0000000000000000E+00 
    0.0000000000000000E+00 
    0.0000000000000000E+00 
    0.0000000000000000E+00 
    0.0000000000000000E+00 
    0.0000000000000000E+00 
    1.4914619417895553E-01 
    8.7540733656558220E-02 
    8.6464897418394606E-05 
    9.5451646614137656E-15 
    1.7718006424578085E-44 
   3.0521313241858325E-132 
    0.0000000000000000E+00 
    0.0000000000000000E+00 
    0.0000000000000000E+00 
    0.0000000000000000E+00 
    0.0000000000000000E+00 
    0.0000000000000000E+00 
    0.0000000000000000E+00 
    0.0000000000000000E+00 
    0.0000000000000000E+00 
    0.0000000000000000E+00 
    4.1584310298516965E-04 
    3.4869093465302380E-05 
    9.0616100186620668E-15 
    2.6361560099876675E-44 
   7.5427296996708150E-132 
    0.0000000000000000E+00 
    0.0000000000000000E+00 
    0.0000000000000000E+00 
    0.0000000000000000E+00 
    0.0000000000000000E+00 
    0.0000000000000000E+00 
    0.0000000000000000E+00 
    0.0000000000000000E+00 
    0.0000000000000000E+00 
    0.0000000000000000E+00 
    0.0000000000000000E+00 
    2.2570062573840310E-11 
    2.1700729388516268E-15 
    1.4865339644057477E-44 
   5.0045347692332863E-132 
    0.0000000000000000E+00 
    0.0000000000000000E+00 
    0.0000000000000000E+00 
    0.0000000000000000E+00 
    0.0000000000000000E+00 
    0.0000000000000000E+00 
    0.0000000000000000E+00 
    0.0000000000000000E+00 
    0.0000000000000000E+00 
    0.0000000000000000E+00 
    0.0000000000000000E+00 
    0.0000000000000000E+00 
    8.5548726033238757E-31 
    1.0758884919747134E-45 
   1.1175689458431951E-132 
    0.0000000000000000E+00 
    0.0000000000000000E+00 
    0.0000000000000000E+00 
    0.0000000000000000E+00 
    0.0000000000000000E+00 
    0.0000000000000000E+00 
    0.0000000000000000E+00 
    0.0000000000000000E+00 
    0.0000000000000000E+00 
    0.0000000000000000E+00 
    0.0000000000000000E+00 
    0.0000000000000000E+00 
    0.0000000000000000E+00 
    5.6305159298676896E-83 
   3.7090878103828081E-135 
    0.0000000000000000E+00 
    0.0000000000000000E+00 
    0.0000000000000000E+00 
    0.0000000000000000E+00 
    0.0000000000000000E+00 
    0.0000000000000000E+00 
    0.0000000000000000E+00 
    0.0000000000000000E+00 
    0.0000000000000000E+00 
    0.0000000000000000E+00 
    0.0000000000000000E+00 
    0.0000000000000000E+00 
    0.0000000000000000E+00 
    0.0000000000000000E+00 
