# vtk DataFile Version 2.0
Pressure Field Data 
ASCII 
DATASET UNSTRUCTURED_GRID 

POINTS 289 double 

    0.0000000000000000E+00     0.0000000000000000E+00     0.0000000000000000E+00 
    1.0000000000000000E+00     0.0000000000000000E+00     0.0000000000000000E+00 
    1.0000000000000000E+00     1.0000000000000000E+00     0.0000000000000000E+00 
    0.0000000000000000E+00     1.0000000000000000E+00     0.0000000000000000E+00 
    6.2499999999872928E-02     0.0000000000000000E+00     0.0000000000000000E+00 
    1.2499999999977310E-01     0.0000000000000000E+00     0.0000000000000000E+00 
    1.8749999999959341E-01     0.0000000000000000E+00     0.0000000000000000E+00 
    2.4999999999941089E-01     0.0000000000000000E+00     0.0000000000000000E+00 
    3.1249999999922851E-01     0.0000000000000000E+00     0.0000000000000000E+00 
    3.7499999999904610E-01     0.0000000000000000E+00     0.0000000000000000E+00 
    4.3749999999886358E-01     0.0000000000000000E+00     0.0000000000000000E+00 
    4.9999999999869210E-01     0.0000000000000000E+00     0.0000000000000000E+00 
    5.6249999999884603E-01     0.0000000000000000E+00     0.0000000000000000E+00 
    6.2499999999901090E-01     0.0000000000000000E+00     0.0000000000000000E+00 
    6.8749999999917577E-01     0.0000000000000000E+00     0.0000000000000000E+00 
    7.4999999999934064E-01     0.0000000000000000E+00     0.0000000000000000E+00 
    8.1249999999950551E-01     0.0000000000000000E+00     0.0000000000000000E+00 
    8.7499999999967026E-01     0.0000000000000000E+00     0.0000000000000000E+00 
    9.3749999999983513E-01     0.0000000000000000E+00     0.0000000000000000E+00 
    1.0000000000000000E+00     6.2499999999872928E-02     0.0000000000000000E+00 
    1.0000000000000000E+00     1.2499999999977310E-01     0.0000000000000000E+00 
    1.0000000000000000E+00     1.8749999999959341E-01     0.0000000000000000E+00 
    1.0000000000000000E+00     2.4999999999941089E-01     0.0000000000000000E+00 
    1.0000000000000000E+00     3.1249999999922851E-01     0.0000000000000000E+00 
    1.0000000000000000E+00     3.7499999999904610E-01     0.0000000000000000E+00 
    1.0000000000000000E+00     4.3749999999886358E-01     0.0000000000000000E+00 
    1.0000000000000000E+00     4.9999999999869210E-01     0.0000000000000000E+00 
    1.0000000000000000E+00     5.6249999999884603E-01     0.0000000000000000E+00 
    1.0000000000000000E+00     6.2499999999901090E-01     0.0000000000000000E+00 
    1.0000000000000000E+00     6.8749999999917577E-01     0.0000000000000000E+00 
    1.0000000000000000E+00     7.4999999999934064E-01     0.0000000000000000E+00 
    1.0000000000000000E+00     8.1249999999950551E-01     0.0000000000000000E+00 
    1.0000000000000000E+00     8.7499999999967026E-01     0.0000000000000000E+00 
    1.0000000000000000E+00     9.3749999999983513E-01     0.0000000000000000E+00 
    9.3749999999973976E-01     1.0000000000000000E+00     0.0000000000000000E+00 
    8.7499999999950118E-01     1.0000000000000000E+00     0.0000000000000000E+00 
    8.1249999999991318E-01     1.0000000000000000E+00     0.0000000000000000E+00 
    7.5000000000034706E-01     1.0000000000000000E+00     0.0000000000000000E+00 
    6.8750000000078049E-01     1.0000000000000000E+00     0.0000000000000000E+00 
    6.2500000000121403E-01     1.0000000000000000E+00     0.0000000000000000E+00 
    5.6250000000164757E-01     1.0000000000000000E+00     0.0000000000000000E+00 
    5.0000000000205946E-01     1.0000000000000000E+00     0.0000000000000000E+00 
    4.3750000000182099E-01     1.0000000000000000E+00     0.0000000000000000E+00 
    3.7500000000156092E-01     1.0000000000000000E+00     0.0000000000000000E+00 
    3.1250000000130068E-01     1.0000000000000000E+00     0.0000000000000000E+00 
    2.5000000000104050E-01     1.0000000000000000E+00     0.0000000000000000E+00 
    1.8750000000078040E-01     1.0000000000000000E+00     0.0000000000000000E+00 
    1.2500000000052031E-01     1.0000000000000000E+00     0.0000000000000000E+00 
    6.2500000000260125E-02     1.0000000000000000E+00     0.0000000000000000E+00 
    0.0000000000000000E+00     9.3749999999973976E-01     0.0000000000000000E+00 
    0.0000000000000000E+00     8.7499999999950118E-01     0.0000000000000000E+00 
    0.0000000000000000E+00     8.1249999999991318E-01     0.0000000000000000E+00 
    0.0000000000000000E+00     7.5000000000034706E-01     0.0000000000000000E+00 
    0.0000000000000000E+00     6.8750000000078049E-01     0.0000000000000000E+00 
    0.0000000000000000E+00     6.2500000000121403E-01     0.0000000000000000E+00 
    0.0000000000000000E+00     5.6250000000164757E-01     0.0000000000000000E+00 
    0.0000000000000000E+00     5.0000000000205946E-01     0.0000000000000000E+00 
    0.0000000000000000E+00     4.3750000000182099E-01     0.0000000000000000E+00 
    0.0000000000000000E+00     3.7500000000156092E-01     0.0000000000000000E+00 
    0.0000000000000000E+00     3.1250000000130068E-01     0.0000000000000000E+00 
    0.0000000000000000E+00     2.5000000000104050E-01     0.0000000000000000E+00 
    0.0000000000000000E+00     1.8750000000078040E-01     0.0000000000000000E+00 
    0.0000000000000000E+00     1.2500000000052031E-01     0.0000000000000000E+00 
    0.0000000000000000E+00     6.2500000000260125E-02     0.0000000000000000E+00 
    6.2499999999897131E-02     6.2500000000235922E-02     0.0000000000000000E+00 
    6.2499999999921327E-02     1.2500000000047351E-01     0.0000000000000000E+00 
    6.2499999999945530E-02     1.8750000000070621E-01     0.0000000000000000E+00 
    6.2499999999969733E-02     2.5000000000093858E-01     0.0000000000000000E+00 
    6.2499999999993928E-02     3.1250000000117117E-01     0.0000000000000000E+00 
    6.2500000000018124E-02     3.7500000000140382E-01     0.0000000000000000E+00 
    6.2500000000042327E-02     4.3750000000163619E-01     0.0000000000000000E+00 
    6.2500000000066530E-02     5.0000000000184897E-01     0.0000000000000000E+00 
    6.2500000000090733E-02     5.6250000000147260E-01     0.0000000000000000E+00 
    6.2500000000114922E-02     6.2500000000107636E-01     0.0000000000000000E+00 
    6.2500000000139125E-02     6.8750000000068034E-01     0.0000000000000000E+00 
    6.2500000000163328E-02     7.5000000000028411E-01     0.0000000000000000E+00 
    6.2500000000187531E-02     8.1249999999988787E-01     0.0000000000000000E+00 
    6.2500000000211720E-02     8.7499999999951172E-01     0.0000000000000000E+00 
    6.2500000000235922E-02     9.3749999999974565E-01     0.0000000000000000E+00 
    1.2499999999981980E-01     6.2500000000211733E-02     0.0000000000000000E+00 
    1.2499999999986650E-01     1.2500000000042691E-01     0.0000000000000000E+00 
    1.2499999999991319E-01     1.8750000000063199E-01     0.0000000000000000E+00 
    1.2499999999995989E-01     2.5000000000083678E-01     0.0000000000000000E+00 
    1.2500000000000661E-01     3.1250000000104172E-01     0.0000000000000000E+00 
    1.2500000000005329E-01     3.7500000000124661E-01     0.0000000000000000E+00 
    1.2500000000010000E-01     4.3750000000145117E-01     0.0000000000000000E+00 
    1.2500000000014669E-01     5.0000000000163858E-01     0.0000000000000000E+00 
    1.2500000000019340E-01     5.6250000000129741E-01     0.0000000000000000E+00 
    1.2500000000024011E-01     6.2500000000093847E-01     0.0000000000000000E+00 
    1.2500000000028680E-01     6.8750000000057998E-01     0.0000000000000000E+00 
    1.2500000000033351E-01     7.5000000000022127E-01     0.0000000000000000E+00 
    1.2500000000038020E-01     8.1249999999986211E-01     0.0000000000000000E+00 
    1.2500000000042691E-01     8.7499999999952238E-01     0.0000000000000000E+00 
    1.2500000000047359E-01     9.3749999999975164E-01     0.0000000000000000E+00 
    1.8749999999966760E-01     6.2500000000187531E-02     0.0000000000000000E+00 
    1.8749999999974179E-01     1.2500000000038020E-01     0.0000000000000000E+00 
    1.8749999999981601E-01     1.8750000000055780E-01     0.0000000000000000E+00 
    1.8749999999989009E-01     2.5000000000073502E-01     0.0000000000000000E+00 
    1.8749999999996431E-01     3.1250000000091221E-01     0.0000000000000000E+00 
    1.8750000000003850E-01     3.7500000000108941E-01     0.0000000000000000E+00 
    1.8750000000011269E-01     4.3750000000126649E-01     0.0000000000000000E+00 
    1.8750000000018691E-01     5.0000000000142808E-01     0.0000000000000000E+00 
    1.8750000000026110E-01     5.6250000000112244E-01     0.0000000000000000E+00 
    1.8750000000033529E-01     6.2500000000080080E-01     0.0000000000000000E+00 
    1.8750000000040951E-01     6.8750000000047962E-01     0.0000000000000000E+00 
    1.8750000000048361E-01     7.5000000000015843E-01     0.0000000000000000E+00 
    1.8750000000055780E-01     8.1249999999983680E-01     0.0000000000000000E+00 
    1.8750000000063199E-01     8.7499999999953304E-01     0.0000000000000000E+00 
    1.8750000000070621E-01     9.3749999999975764E-01     0.0000000000000000E+00 
    2.4999999999951281E-01     6.2500000000163314E-02     0.0000000000000000E+00 
    2.4999999999961461E-01     1.2500000000033351E-01     0.0000000000000000E+00 
    2.4999999999971650E-01     1.8750000000048361E-01     0.0000000000000000E+00 
    2.4999999999981831E-01     2.5000000000063310E-01     0.0000000000000000E+00 
    2.4999999999992020E-01     3.1250000000078260E-01     0.0000000000000000E+00 
    2.5000000000002198E-01     3.7500000000093209E-01     0.0000000000000000E+00 
    2.5000000000012390E-01     4.3750000000108180E-01     0.0000000000000000E+00 
    2.5000000000022571E-01     5.0000000000121769E-01     0.0000000000000000E+00 
    2.5000000000032763E-01     5.6250000000094724E-01     0.0000000000000000E+00 
    2.5000000000042938E-01     6.2500000000066314E-01     0.0000000000000000E+00 
    2.5000000000053119E-01     6.8750000000037925E-01     0.0000000000000000E+00 
[...]
CELL_DATA 256 
SCALARS Pressure double 1 
LOOKUP_TABLE default 

    1.9234859497245809E+00 
    1.6907495026463948E+00 
    1.5588883697735580E+00 
    1.4529427442752911E+00 
    1.3551370467159471E+00 
    1.2595694645891684E+00 
    1.1639293035131455E+00 
    1.0673664583852571E+00 
    9.6983174936257777E-01 
    8.7192291577723224E-01 
    7.7495656769309540E-01 
    6.8107532963992456E-01 
    5.9308161600384857E-01 
    5.1577237055056413E-01 
    4.7400005429493036E-01 
    4.6155858200707128E-01 
    1.8520933875826624E+00 
    1.6947721961572204E+00 
    1.5676180854644890E+00 
    1.4619446862421708E+00 
    1.3642177294550997E+00 
    1.2687765668443027E+00 
    1.1732789706475331E+00 
    1.0768266762031158E+00 
    9.7931288986898091E-01 
    8.8125748035287088E-01 
    7.8387664037025306E-01 
    6.8921313220483749E-01 
    5.9998438910390994E-01 
    5.2037845743408817E-01 
    4.7500987696675745E-01 
    4.6106953229196851E-01 
    1.7966776567834852E+00 
    1.6881300500387273E+00 
    1.5727808599384132E+00 
    1.4695755352972866E+00 
    1.3726353935118902E+00 
    1.2775971442557388E+00 
    1.1823571279361873E+00 
    1.0860503632093794E+00 
    9.8853505130948172E-01 
    8.9024821671073129E-01 
    7.9228286080761812E-01 
    6.9655470042768008E-01 
    6.0573428152128728E-01 
    5.2370014335611115E-01 
    4.7435899151681626E-01 
    4.5918580244171842E-01 
    1.7530907911513138E+00 
    1.6763234245117049E+00 
    1.5746682406599177E+00 
    1.4757338764945198E+00 
    1.3803293856786352E+00 
    1.2860069546778641E+00 
    1.1911612124471400E+00 
    1.0950521784654537E+00 
    9.9753264754590332E-01 
    8.9895619832721085E-01 
    8.0026996568624442E-01 
    7.0322523942241666E-01 
    6.1043900938289086E-01 
    5.2571045637738545E-01 
    4.7192782771894048E-01 
    4.5561402177724325E-01 
    1.7184195265003710E+00 
    1.6625266473160356E+00 
    1.5740212038412118E+00 
    1.4804823501949107E+00 
    1.3872847185749562E+00 
    1.2939975549658684E+00 
    1.1996956441869491E+00 
    1.1038503725986999E+00 
    1.0063423127130295E+00 
    9.0744498677794216E-01 
    8.0793766626348862E-01 
    7.0935903253731425E-01 
    6.1422371296633893E-01 
    5.2638957752562243E-01 
    4.6757758357809953E-01 
    4.5005391229244229E-01 
    1.6906222737327854E+00 
    1.6485446716433745E+00 
    1.5716523637936546E+00 
    1.4840080025264670E+00 
    1.3935359541637293E+00 
    1.3015794490607380E+00 
    1.2079729910799222E+00 
    1.1124668868327654E+00 
    1.0150023118611502E+00 
    9.1577965772726622E-01 
    8.1539035878059174E-01 
    7.1510310585175973E-01 
    6.1723924773746286E-01 
    5.2574448461593359E-01 
    4.6117209595016317E-01 
    4.4217783976683533E-01 
    1.6682461083679778E+00 
    1.6353752202224054E+00 
    1.5682899342511127E+00 
    1.4865691631505660E+00 
    1.3991619552892360E+00 
    1.3087831745389455E+00 
    1.2160147542853810E+00 
    1.1209273920419829E+00 
    1.0235518648389730E+00 
    9.2402546135934827E-01 
    8.2273585821852546E-01 
    7.2061908788237705E-01 
    6.1967195372697559E-01 
    5.2383527667938623E-01 
    4.5258917889382716E-01 
    4.3159810776581792E-01 
    1.6502393149756192E+00 
    1.6235430938642827E+00 
    1.5645286633738282E+00 
    1.4884513635186305E+00 
    1.4042756224105577E+00 
    1.3156583264937602E+00 
    1.2238516282714709E+00 
    1.1292612466966743E+00 
    1.0320304390575954E+00 
    9.3224618552581429E-01 
    8.3008307725437047E-01 
    7.2608288458914072E-01 
    6.2175228676390093E-01 
    5.2080155017349383E-01 
    4.4172700413143473E-01 
    4.1781467119585136E-01 
    1.6358264764248800E+00 
    1.6132989730860092E+00 
    1.5608291694403253E+00 
    1.4899373754836813E+00 
    1.4090123726520327E+00 
    1.3222710551149759E+00 
    1.2315232220029571E+00 
    1.1375013677120287E+00 
    1.0404770699015116E+00 
    9.4050232332036354E-01 
    8.3753863129106243E-01 
    7.3168166219682640E-01 
    6.2376092299995944E-01 
    5.1688860936282355E-01 
    4.2851100625324784E-01 
    4.0013168666997012E-01 
    1.6244241438327240E+00 
    1.6047373823505056E+00 
    1.5575363731679639E+00 
    1.4912899137995081E+00 
    1.4135197347651853E+00 
    1.3287007548478484E+00 
    1.2390773504648787E+00 
    1.1456840489650255E+00 
    1.0489297970219298E+00 
    9.4884921717997039E-01 
    8.4520248031814538E-01 
    7.3760753963947312E-01 
    6.2603058938666878E-01 
    5.1247778637202801E-01 
    4.1291736341354351E-01 
    3.7752757385908775E-01 
    1.6155828326238770E+00 
    1.5978663294422488E+00 
    1.5549030151465939E+00 
    1.4927437270186545E+00 
    1.4179491635508183E+00 
    1.3350365927214582E+00 
    1.2465690780016176E+00 
    1.1538488047673474E+00 
    1.0574253418654949E+00 
    9.5733544111017677E-01 
    8.5316293988966996E-01 
    7.4404748176626934E-01 
    6.2894050028496307E-01 
    5.0812522445718045E-01 
    3.9504436147294836E-01 
    3.4846225764262645E-01 
    1.6089459403230171E+00 
    1.5926479009357184E+00 
    1.5531119996453200E+00 
    1.4945038060112874E+00 
    1.4224502691705456E+00 
    1.3413743174364385E+00 
    1.2540597093874066E+00 
    1.1620383573339910E+00 
    1.0659992025640688E+00 
    9.6600179142292253E-01 
    8.6149172259009754E-01 
    7.5116936411311974E-01 
    6.3289825379544651E-01 
    5.0460580201842864E-01 
    3.7529043663013162E-01 
    3.1062973104154751E-01 
    1.6042188708405956E+00 
    1.5890208177831757E+00 
    1.5522947757509298E+00 
    1.4967467738136091E+00 
    1.4271669203256345E+00 
    1.3478134305995357E+00 
    1.2616158411166789E+00 
    1.1702989338766356E+00 
    1.0746864640755867E+00 
    9.7488145562059014E-01 
    8.7024016291071138E-01 
    7.5910537919910559E-01 
    6.3830255467553765E-01 
    5.0294074022892188E-01 
    3.5473455979787749E-01 
    2.6074651873775601E-01 
    1.6011413979660754E+00 
    1.5869088075642923E+00 
    1.5525425090053369E+00 
    1.4996213675774204E+00 
    1.4322330088202637E+00 
    1.3544536242262639E+00 
    1.2693080067852474E+00 
    1.1786809905284559E+00 
    1.0835240244529591E+00 
    9.8400266031950756E-01 
    8.7943890198577512E-01 
    7.6793652420185521E-01 
    6.4548179465205380E-01 
    5.0435591775294186E-01 
    3.3579970294703770E-01 
    1.9452033056257867E-01 
    1.5994500685915458E+00 
    1.5862047297036743E+00 
    1.5538966442839026E+00 
    1.5032357188008254E+00 
    1.4377589659841019E+00 
    1.3613843934941419E+00 
    1.2772052443064785E+00 
    1.1872394938735360E+00 
    1.0925567212865333E+00 
    9.9339964362478717E-01 
    8.8910997934915614E-01 
    7.7769219074623297E-01 
    6.5462100249134703E-01 
    5.1008907100801104E-01 
    3.2310117286250989E-01 
    1.0609510741355492E-01 
    1.5989450239960046E+00 
    1.5868146130958483E+00 
    1.5563771138841025E+00 
    1.5076760620619138E+00 
    1.4438449054654119E+00 
    1.3686948722619934E+00 
    1.2853820510280343E+00 
    1.1960378154377800E+00 
    1.1018381183912278E+00 
    1.0031111207854411E+00 
    8.9926567298606619E-01 
    7.8835327259379573E-01 
    6.6578607912974208E-01 
    5.2135839408503981E-01 
    3.2772588220830601E-01 
    0.0000000000000000E+00 

SCALARS Saturarion double 1 
LOOKUP_TABLE default 

    1.0000000000000000E+00 
    9.8446076430170293E-01 
    9.6419734035039395E-01 
    9.4214924895135044E-01 
    9.2008882566168748E-01 
    8.9848862638591964E-01 
    8.7732183161987665E-01 
    8.5631153335159849E-01 
    8.3494884205439956E-01 
    8.1232716049095277E-01 
    7.8658866831153085E-01 
    7.5294902276781184E-01 
    6.9401327846475835E-01 
    5.1833490181168596E-01 
    1.0002073848491569E-01 
    2.8256380332080050E-04 
    9.9499675226552309E-01 
    9.8208331074914401E-01 
    9.6328494880447324E-01 
    9.4193621751773760E-01 
    9.2019654637978721E-01 
    8.9877517221316372E-01 
    8.7774207521798719E-01 
    8.5686916547282088E-01 
    8.3568797114385340E-01 
    8.1335018741768628E-01 
    7.8812667760548794E-01 
    7.5564204260633738E-01 
    7.0060970971155745E-01 
    5.4647208783905910E-01 
    1.4039916011733133E-01 
    8.2650839137607553E-04 
    9.9082926346733990E-01 
    9.7861372241195166E-01 
    9.6098591020422353E-01 
    9.4052379276212805E-01 
    9.1931967180708696E-01 
    8.9825264964907692E-01 
    8.7749720902545758E-01 
    8.5688267825368936E-01 
    8.3598527375303289E-01 
    8.1401586198465203E-01 
    7.8936833099591552E-01 
    7.5803177532380450E-01 
    7.0635933522400141E-01 
    5.6808063432618561E-01 
    1.8071461414589163E-01 
    1.9029915783031360E-03 
    9.8590553555003257E-01 
    9.7427250005599320E-01 
    9.5758178795153470E-01 
    9.3801784603274252E-01 
    9.1747205990611946E-01 
    8.9689074490100784E-01 
    8.7653234621494658E-01 
    8.5628254706502904E-01 
    8.3576358482954505E-01 
    8.1424613194962470E-01 
    7.9024326279912005E-01 
    7.6007732377503978E-01 
    7.1148357169268939E-01 
    5.8668960557462924E-01 
    2.2406948478082403E-01 
    3.9833327349299589E-03 
    9.7999875993201924E-01 
    9.6902115089698604E-01 
    9.5318140701939869E-01 
    9.3449801466745197E-01 
    9.1468392340864568E-01 
    8.9468975253519734E-01 
    8.7483027262930546E-01 
    8.5504024013546154E-01 
    8.3498639891931181E-01 
    8.1399917215732631E-01 
    7.9070914540430026E-01 
    7.6175375519419219E-01 
    7.1609918311248644E-01 
    6.0323102128185613E-01 
    2.6896977237370834E-01 
    7.7307910242986567E-03 
    9.7293594753570622E-01 
    9.6276549228181529E-01 
    9.4778405034958635E-01 
    9.2998281533157678E-01 
    9.1095538237122520E-01 
    8.9163274857113450E-01 
    8.7236338834346550E-01 
    8.5312138238942814E-01 
    8.3361412030296356E-01 
    8.1323043689415586E-01 
    7.9071768477251581E-01 
    7.6301899003367946E-01 
    7.2023217291441011E-01 
    6.1811469650036066E-01 
    3.1369510353837093E-01 
    1.4084492486884665E-02 
    9.6454251774665301E-01 
    9.5537518709425684E-01 
    9.4132135127984162E-01 
    9.2443437832592512E-01 
    9.0624872684152979E-01 
    8.8767566331382697E-01 
    8.6908322398018933E-01 
    8.5047519841125285E-01 
    8.3159404598949682E-01 
    8.1188392742506343E-01 
    7.9020773943731060E-01 
    7.6381011546872279E-01 
    7.2385138800895465E-01 
    6.3157187738938736E-01 
    3.5665215347565293E-01 
    2.4274951394751818E-02 
    9.5461540594269279E-01 
    9.4667764724884551E-01 
    9.3366638708222482E-01 
    9.1775778921528539E-01 
    9.0048018816241726E-01 
    8.8273740854378080E-01 
    8.6491075093764824E-01 
    8.4702554431153476E-01 
    8.2885252883567229E-01 
    8.0988597159935016E-01 
    7.8910115351938470E-01 
    7.6404220109127097E-01 
    7.2688429449625047E-01 
    6.4372911310057213E-01 
    3.9680986819012709E-01 
    3.9846989965146094E-02 
    9.4289243941719103E-01 
    9.3643835455528734E-01 
    9.2462286250351478E-01 
    9.0978883941206423E-01 
    8.9350407370172358E-01 
    8.7668319052328336E-01 
    8.5972052827239465E-01 
    8.4265657187192278E-01 
    8.2528248479694621E-01 
    8.0713477957375535E-01 
    7.8729454827267031E-01 
    7.6360255300362490E-01 
    7.2921834208273140E-01 
    6.5462635360031696E-01 
    4.3376831805014660E-01 
    6.2606549677361734E-02 
    9.2900392456119796E-01 
    9.2432224881678582E-01 
    9.1389297930526414E-01 
    9.0026333130714986E-01 
    8.8508110957231168E-01 
    8.6929312235359069E-01 
    8.5331112814391896E-01 
    8.3718601120040137E-01 
    8.2072020638087462E-01 
    8.0348110884263135E-01 
    7.8464368242999183E-01 
    7.6233764799314752E-01 
    7.3068998511018379E-01 
    6.6421480819194123E-01 
    4.6758946648711042E-01 
    9.4546773420914595E-02 
    9.1238152774352876E-01 
    9.0981624243104942E-01 
    9.0100703655708303E-01 
    8.8874974032840859E-01 
    8.7481201525140417E-01 
    8.6019748136997320E-01 
    8.4534408454807652E-01 
    8.3030978840366343E-01 
    8.1489704370498528E-01 
    7.9868768923225952E-01 
    7.8093040633093924E-01 
    7.6002520496576442E-01 
    7.3105652179260205E-01 
    6.7233438832116621E-01 
    4.9849675192035942E-01 
    1.3724845934201590E-01 
    8.9205319309551068E-01 
    8.9205252264022017E-01 
    8.8515909727626663E-01 
    8.7449010798107341E-01 
    8.6198057169097009E-01 
    8.4872297616830350E-01 
    8.3519738929904352E-01 
    8.2146790951158133E-01 
    8.0732203414157333E-01 
    7.9233091446269477E-01 
    7.7578314003288773E-01 
    7.5630864432519906E-01 
    7.2993047989166759E-01 
    6.7864925155753242E-01 
    5.2663434682821120E-01 
    1.9054462248654552E-01 
    8.6605869626100596E-01 
    8.6931006144021683E-01 
    8.6474154892303579E-01 
    8.5594423958886567E-01 
    8.4509786602399040E-01 
    8.3343848666352605E-01 
    8.2152415426346159E-01 
    8.0943463305240626E-01 
    7.9692327668095242E-01 
    7.8350642053636155E-01 
    7.6844808878127335E-01 
    7.5051942450046161E-01 
    7.2660904094505940E-01 
    6.8246158338578966E-01 
    5.5184039408837371E-01 
    2.5054774228727950E-01 
    8.2904926916849264E-01 
    8.3700552623290037E-01 
    8.3547426750146836E-01 
    8.2893858779070972E-01 
    8.2001811818888981E-01 
    8.1023597346060572E-01 
    8.0034393426310280E-01 
    7.9050552397124796E-01 
    7.8043532670369475E-01 
    7.6951032291908983E-01 
    7.5681317611711896E-01 
    7.4101395365797151E-01 
    7.1955004738553197E-01 
    6.8208860216448464E-01 
    5.7320935952095464E-01 
    3.1035212536638879E-01 
    7.5762734070609150E-01 
    7.7512260944724043E-01 
    7.7873707359550204E-01 
    7.7523395476154378E-01 
    7.6837607106080352E-01 
    7.6049102186023243E-01 
    7.5302882691378648E-01 
    7.4673974371685636E-01 
    7.4165451483778655E-01 
    7.3698647851670684E-01 
    7.3109732521911452E-01 
    7.2158850112494322E-01 
    7.0514481879657709E-01 
    6.7469233375625737E-01 
    5.8993289362923929E-01 
    3.7201964903676688E-01 
    4.7713582699068213E-01 
    5.5850651513111993E-01 
    5.8430293023014224E-01 
    5.8924257296512617E-01 
    5.8390916955897176E-01 
    5.7320839783615007E-01 
    5.6000281787510675E-01 
    5.4646998158179816E-01 
    5.3490137963393203E-01 
    5.2798748047803623E-01 
    5.2743722336160814E-01 
    5.2865040116841611E-01 
    5.1180710870708035E-01 
    4.4857288592738248E-01 
    3.9623127981962197E-01 
    3.2001472796684743E-01 
