# vtk DataFile Version 2.0
Pressure Field Data 
ASCII 
DATASET UNSTRUCTURED_GRID 

POINTS 289 double 

    0.0000000000000000E+00     0.0000000000000000E+00     0.0000000000000000E+00 
    1.0000000000000000E+00     0.0000000000000000E+00     0.0000000000000000E+00 
    1.0000000000000000E+00     1.0000000000000000E+00     0.0000000000000000E+00 
    0.0000000000000000E+00     1.0000000000000000E+00     0.0000000000000000E+00 
    6.2499999999872928E-02     0.0000000000000000E+00     0.0000000000000000E+00 
    1.2499999999977310E-01     0.0000000000000000E+00     0.0000000000000000E+00 
    1.8749999999959341E-01     0.0000000000000000E+00     0.0000000000000000E+00 
    2.4999999999941089E-01     0.0000000000000000E+00     0.0000000000000000E+00 
    3.1249999999922851E-01     0.0000000000000000E+00     0.0000000000000000E+00 
    3.7499999999904610E-01     0.0000000000000000E+00     0.0000000000000000E+00 
    4.3749999999886358E-01     0.0000000000000000E+00     0.0000000000000000E+00 
    4.9999999999869210E-01     0.0000000000000000E+00     0.0000000000000000E+00 
    5.6249999999884603E-01     0.0000000000000000E+00     0.0000000000000000E+00 
    6.2499999999901090E-01     0.0000000000000000E+00     0.0000000000000000E+00 
    6.8749999999917577E-01     0.0000000000000000E+00     0.0000000000000000E+00 
    7.4999999999934064E-01     0.0000000000000000E+00     0.0000000000000000E+00 
    8.1249999999950551E-01     0.0000000000000000E+00     0.0000000000000000E+00 
    8.7499999999967026E-01     0.0000000000000000E+00     0.0000000000000000E+00 
    9.3749999999983513E-01     0.0000000000000000E+00     0.0000000000000000E+00 
    1.0000000000000000E+00     6.2499999999872928E-02     0.0000000000000000E+00 
    1.0000000000000000E+00     1.2499999999977310E-01     0.0000000000000000E+00 
    1.0000000000000000E+00     1.8749999999959341E-01     0.0000000000000000E+00 
    1.0000000000000000E+00     2.4999999999941089E-01     0.0000000000000000E+00 
    1.0000000000000000E+00     3.1249999999922851E-01     0.0000000000000000E+00 
    1.0000000000000000E+00     3.7499999999904610E-01     0.0000000000000000E+00 
    1.0000000000000000E+00     4.3749999999886358E-01     0.0000000000000000E+00 
    1.0000000000000000E+00     4.9999999999869210E-01     0.0000000000000000E+00 
    1.0000000000000000E+00     5.6249999999884603E-01     0.0000000000000000E+00 
    1.0000000000000000E+00     6.2499999999901090E-01     0.0000000000000000E+00 
    1.0000000000000000E+00     6.8749999999917577E-01     0.0000000000000000E+00 
    1.0000000000000000E+00     7.4999999999934064E-01     0.0000000000000000E+00 
    1.0000000000000000E+00     8.1249999999950551E-01     0.0000000000000000E+00 
    1.0000000000000000E+00     8.7499999999967026E-01     0.0000000000000000E+00 
    1.0000000000000000E+00     9.3749999999983513E-01     0.0000000000000000E+00 
    9.3749999999973976E-01     1.0000000000000000E+00     0.0000000000000000E+00 
    8.7499999999950118E-01     1.0000000000000000E+00     0.0000000000000000E+00 
    8.1249999999991318E-01     1.0000000000000000E+00     0.0000000000000000E+00 
    7.5000000000034706E-01     1.0000000000000000E+00     0.0000000000000000E+00 
    6.8750000000078049E-01     1.0000000000000000E+00     0.0000000000000000E+00 
    6.2500000000121403E-01     1.0000000000000000E+00     0.0000000000000000E+00 
    5.6250000000164757E-01     1.0000000000000000E+00     0.0000000000000000E+00 
    5.0000000000205946E-01     1.0000000000000000E+00     0.0000000000000000E+00 
    4.3750000000182099E-01     1.0000000000000000E+00     0.0000000000000000E+00 
    3.7500000000156092E-01     1.0000000000000000E+00     0.0000000000000000E+00 
    3.1250000000130068E-01     1.0000000000000000E+00     0.0000000000000000E+00 
    2.5000000000104050E-01     1.0000000000000000E+00     0.0000000000000000E+00 
    1.8750000000078040E-01     1.0000000000000000E+00     0.0000000000000000E+00 
    1.2500000000052031E-01     1.0000000000000000E+00     0.0000000000000000E+00 
    6.2500000000260125E-02     1.0000000000000000E+00     0.0000000000000000E+00 
    0.0000000000000000E+00     9.3749999999973976E-01     0.0000000000000000E+00 
    0.0000000000000000E+00     8.7499999999950118E-01     0.0000000000000000E+00 
    0.0000000000000000E+00     8.1249999999991318E-01     0.0000000000000000E+00 
    0.0000000000000000E+00     7.5000000000034706E-01     0.0000000000000000E+00 
    0.0000000000000000E+00     6.8750000000078049E-01     0.0000000000000000E+00 
    0.0000000000000000E+00     6.2500000000121403E-01     0.0000000000000000E+00 
    0.0000000000000000E+00     5.6250000000164757E-01     0.0000000000000000E+00 
    0.0000000000000000E+00     5.0000000000205946E-01     0.0000000000000000E+00 
    0.0000000000000000E+00     4.3750000000182099E-01     0.0000000000000000E+00 
    0.0000000000000000E+00     3.7500000000156092E-01     0.0000000000000000E+00 
    0.0000000000000000E+00     3.1250000000130068E-01     0.0000000000000000E+00 
    0.0000000000000000E+00     2.5000000000104050E-01     0.0000000000000000E+00 
    0.0000000000000000E+00     1.8750000000078040E-01     0.0000000000000000E+00 
    0.0000000000000000E+00     1.2500000000052031E-01     0.0000000000000000E+00 
    0.0000000000000000E+00     6.2500000000260125E-02     0.0000000000000000E+00 
    6.2499999999897131E-02     6.2500000000235922E-02     0.0000000000000000E+00 
    6.2499999999921327E-02     1.2500000000047351E-01     0.0000000000000000E+00 
    6.2499999999945530E-02     1.8750000000070621E-01     0.0000000000000000E+00 
    6.2499999999969733E-02     2.5000000000093858E-01     0.0000000000000000E+00 
    6.2499999999993928E-02     3.1250000000117117E-01     0.0000000000000000E+00 
    6.2500000000018124E-02     3.7500000000140382E-01     0.0000000000000000E+00 
    6.2500000000042327E-02     4.3750000000163619E-01     0.0000000000000000E+00 
    6.2500000000066530E-02     5.0000000000184897E-01     0.0000000000000000E+00 
    6.2500000000090733E-02     5.6250000000147260E-01     0.0000000000000000E+00 
    6.2500000000114922E-02     6.2500000000107636E-01     0.0000000000000000E+00 
    6.2500000000139125E-02     6.8750000000068034E-01     0.0000000000000000E+00 
    6.2500000000163328E-02     7.5000000000028411E-01     0.0000000000000000E+00 
    6.2500000000187531E-02     8.1249999999988787E-01     0.0000000000000000E+00 
    6.2500000000211720E-02     8.7499999999951172E-01     0.0000000000000000E+00 
    6.2500000000235922E-02     9.3749999999974565E-01     0.0000000000000000E+00 
    1.2499999999981980E-01     6.2500000000211733E-02     0.0000000000000000E+00 
    1.2499999999986650E-01     1.2500000000042691E-01     0.0000000000000000E+00 
    1.2499999999991319E-01     1.8750000000063199E-01     0.0000000000000000E+00 
    1.2499999999995989E-01     2.5000000000083678E-01     0.0000000000000000E+00 
    1.2500000000000661E-01     3.1250000000104172E-01     0.0000000000000000E+00 
    1.2500000000005329E-01     3.7500000000124661E-01     0.0000000000000000E+00 
    1.2500000000010000E-01     4.3750000000145117E-01     0.0000000000000000E+00 
    1.2500000000014669E-01     5.0000000000163858E-01     0.0000000000000000E+00 
    1.2500000000019340E-01     5.6250000000129741E-01     0.0000000000000000E+00 
    1.2500000000024011E-01     6.2500000000093847E-01     0.0000000000000000E+00 
    1.2500000000028680E-01     6.8750000000057998E-01     0.0000000000000000E+00 
    1.2500000000033351E-01     7.5000000000022127E-01     0.0000000000000000E+00 
    1.2500000000038020E-01     8.1249999999986211E-01     0.0000000000000000E+00 
    1.2500000000042691E-01     8.7499999999952238E-01     0.0000000000000000E+00 
    1.2500000000047359E-01     9.3749999999975164E-01     0.0000000000000000E+00 
    1.8749999999966760E-01     6.2500000000187531E-02     0.0000000000000000E+00 
    1.8749999999974179E-01     1.2500000000038020E-01     0.0000000000000000E+00 
    1.8749999999981601E-01     1.8750000000055780E-01     0.0000000000000000E+00 
    1.8749999999989009E-01     2.5000000000073502E-01     0.0000000000000000E+00 
    1.8749999999996431E-01     3.1250000000091221E-01     0.0000000000000000E+00 
    1.8750000000003850E-01     3.7500000000108941E-01     0.0000000000000000E+00 
    1.8750000000011269E-01     4.3750000000126649E-01     0.0000000000000000E+00 
    1.8750000000018691E-01     5.0000000000142808E-01     0.0000000000000000E+00 
    1.8750000000026110E-01     5.6250000000112244E-01     0.0000000000000000E+00 
    1.8750000000033529E-01     6.2500000000080080E-01     0.0000000000000000E+00 
    1.8750000000040951E-01     6.8750000000047962E-01     0.0000000000000000E+00 
    1.8750000000048361E-01     7.5000000000015843E-01     0.0000000000000000E+00 
    1.8750000000055780E-01     8.1249999999983680E-01     0.0000000000000000E+00 
    1.8750000000063199E-01     8.7499999999953304E-01     0.0000000000000000E+00 
    1.8750000000070621E-01     9.3749999999975764E-01     0.0000000000000000E+00 
    2.4999999999951281E-01     6.2500000000163314E-02     0.0000000000000000E+00 
    2.4999999999961461E-01     1.2500000000033351E-01     0.0000000000000000E+00 
    2.4999999999971650E-01     1.8750000000048361E-01     0.0000000000000000E+00 
    2.4999999999981831E-01     2.5000000000063310E-01     0.0000000000000000E+00 
    2.4999999999992020E-01     3.1250000000078260E-01     0.0000000000000000E+00 
    2.5000000000002198E-01     3.7500000000093209E-01     0.0000000000000000E+00 
    2.5000000000012390E-01     4.3750000000108180E-01     0.0000000000000000E+00 
    2.5000000000022571E-01     5.0000000000121769E-01     0.0000000000000000E+00 
    2.5000000000032763E-01     5.6250000000094724E-01     0.0000000000000000E+00 
    2.5000000000042938E-01     6.2500000000066314E-01     0.0000000000000000E+00 
    2.5000000000053119E-01     6.8750000000037925E-01     0.0000000000000000E+00 
[...]
CELL_DATA 256 
SCALARS Pressure double 1 
LOOKUP_TABLE default 

    1.7863325348163996E+00 
    1.5534233799178951E+00 
    1.4213013073830647E+00 
    1.3150290164881522E+00 
    1.2168398140332075E+00 
    1.1208409294383557E+00 
    1.0247339826403574E+00 
    9.2768752226528095E-01 
    8.2967779596699254E-01 
    7.3132369983180490E-01 
    6.3391703888729278E-01 
    5.3943449386786135E-01 
    4.5031560028645246E-01 
    3.7441963505929710E-01 
    3.3837140065627158E-01 
    3.2734279889710532E-01 
    1.7149241117289400E+00 
    1.5574564604807031E+00 
    1.4300526187187521E+00 
    1.3240595135907298E+00 
    1.2259541952602950E+00 
    1.1300850956696951E+00 
    1.0341216036524903E+00 
    9.3718316934493462E-01 
    8.3918849441629295E-01 
    7.4068281314328843E-01 
    6.4287057352976884E-01 
    5.4764718274758950E-01 
    4.5731183305873374E-01 
    3.7860642963019836E-01 
    3.3919272294397129E-01 
    3.2687795810256332E-01 
    1.6594862973062925E+00 
    1.5508137818250618E+00 
    1.4352288109433786E+00 
    1.3317118340925969E+00 
    1.2343986206765667E+00 
    1.1389352966189854E+00 
    1.0432289493866365E+00 
    9.4643095497939123E-01 
    8.4842474814235092E-01 
    7.4967765681039278E-01 
    6.5128773036982524E-01 
    5.5505240836917757E-01 
    4.6321664875286650E-01 
    3.8154526271281836E-01 
    3.3851536709548385E-01 
    3.2513807818232443E-01 
    1.6158747727009308E+00 
    1.5389991192893318E+00 
    1.4371222180079684E+00 
    1.3378850057279768E+00 
    1.2421129330213700E+00 
    1.1473679679790720E+00 
    1.0520544351117629E+00 
    9.5544682493606292E-01 
    8.5742212817880126E-01 
    7.5836896143330212E-01 
    6.5925927312519261E-01 
    5.6176642437270286E-01 
    4.6810507546871294E-01 
    3.8329578056674524E-01 
    3.3621989306680428E-01 
    3.2185109378142074E-01 
    1.5811771879349255E+00 
    1.5251889132768224E+00 
    1.4364749625819988E+00 
    1.3426423613535783E+00 
    1.2490827977295573E+00 
    1.1553754635439217E+00 
    1.0606035820815132E+00 
    9.6425051034661380E-01 
    8.6621875954064298E-01 
    7.6682028237914435E-01 
    6.6688041760479544E-01 
    5.6791211477603165E-01 
    4.7208284920961707E-01 
    3.8389518829689140E-01 
    3.3216564255970860E-01 
    3.1673796883696564E-01 
    1.5533526609606623E+00 
    1.5111897270352375E+00 
    1.4341008995798212E+00 
    1.3461718182780640E+00 
    1.2553435630216112E+00 
    1.1629691866777523E+00 
    1.0688901718518828E+00 
    9.7286565002297787E-01 
    8.7485487181990262E-01 
    7.7509741355837269E-01 
    6.7425116262025642E-01 
    5.7362239326500397E-01 
    4.7527974820484525E-01 
    3.8337641810767797E-01 
    3.2620530387825269E-01 
    3.0950025500987038E-01 
    1.5309489274975294E+00 
    1.4980006216092190E+00 
    1.4307294950672726E+00 
    1.3487326984367864E+00 
    1.2609749865238746E+00 
    1.1701806567423756E+00 
    1.0769370085448629E+00 
    9.8131982265014495E-01 
    8.8337222155976669E-01 
    7.8326745083363536E-01 
    6.8147584261599004E-01 
    5.7904232669292777E-01 
    4.7785248754167475E-01 
    3.8178915829223919E-01 
    3.1820113693130009E-01 
    2.9980594314040560E-01 
    1.5129149193478975E+00 
    1.4861475807039815E+00 
    1.4269567362591637E+00 
    1.3506116083553714E+00 
    1.2660909503701239E+00 
    1.1770605123501356E+00 
    1.0847761458597547E+00 
    9.8964446475176682E-01 
    8.9181342288822607E-01 
    7.9139754310881849E-01 
    6.8866188121054672E-01 
    5.8432983884836998E-01 
    4.7999014093210107E-01 
    3.7922641812944297E-01 
    3.0804971594651526E-01 
    2.8727059836038699E-01 
    1.4984758475499156E+00 
    1.4758823724809491E+00 
    1.4232444628885641E+00 
    1.3520924543814297E+00 
    1.2708279242054081E+00 
    1.1836759907442496E+00 
    1.0924485687708922E+00 
    9.9787466744367748E-01 
    9.0022122195197374E-01 
    7.9955337484333766E-01 
    6.9591773100640153E-01 
    5.8965469041644381E-01 
    4.8191912742328463E-01 
    3.7585638552539580E-01 
    2.9571597757314239E-01 
    2.7142726949776863E-01 
    1.4870488447322319E+00 
    1.4673005419646776E+00 
    1.4199388005914400E+00 
    1.3534391317595613E+00 
    1.2753345508638383E+00 
    1.1901076048586605E+00 
    1.1000034453060210E+00 
    1.0060488905642369E+00 
    9.0863778002862150E-01 
    8.0779745964578276E-01 
    7.0335003902490978E-01 
    5.9519539417871825E-01 
    4.8390478006762089E-01 
    3.7195472129141915E-01 
    2.8127809399622417E-01 
    2.5167713398597674E-01 
    1.4781849120056372E+00 
    1.4604110546243960E+00 
    1.4172936753052221E+00 
    1.3548876062882134E+00 
    1.2797634582662696E+00 
    1.1964456701846136E+00 
    1.1074971397572275E+00 
    1.0142086840167539E+00 
    9.1710407691948315E-01 
    8.1618738197367069E-01 
    7.1106018210545952E-01 
    6.0113397339167574E-01 
    4.8624653951986574E-01 
    3.6793129543037423E-01 
    2.6499602982352982E-01 
    2.2721650609179553E-01 
    1.4715277488226342E+00 
    1.4551768630460189E+00 
    1.4154931346194302E+00 
    1.3566441066407495E+00 
    1.2842654899185519E+00 
    1.2027871287304406E+00 
    1.1149921992012235E+00 
    1.0223985623036356E+00 
    9.2565962183689243E-01 
    8.2477421382187666E-01 
    7.1914044872042282E-01 
    6.0764899836081621E-01 
    4.8926382571890992E-01 
    3.6434483086610281E-01 
    2.4744563032163361E-01 
    1.9696022321424692E-01 
    1.4667826929145036E+00 
    1.4515373490521344E+00 
    1.4146696386609428E+00 
    1.3588864562385858E+00 
    1.2889857977112806E+00 
    1.2092327583883054E+00 
    1.1225564571033944E+00 
    1.0306662574937080E+00 
    9.3434284081145580E-01 
    8.3360156315663514E-01 
    7.2767034183290236E-01 
    6.1490822841775972E-01 
    4.9326969223927730E-01 
    3.6189144852183791E-01 
    2.2981796648819669E-01 
    1.5958625994954559E-01 
    1.4636885716786090E+00 
    1.4494162495495746E+00 
    1.4149148522481334E+00 
    1.3617642955119835E+00 
    1.2940595021611856E+00 
    1.2158836745946320E+00 
    1.1302618781917335E+00 
    1.0390636461098997E+00 
    9.4319310175728266E-01 
    8.4270665532624611E-01 
    7.3671428978687004E-01 
    6.2306405054637826E-01 
    4.9852921274756390E-01 
    3.6135084627605207E-01 
    2.1455381291695552E-01 
    1.1406712681385386E-01 
    1.4619788426600628E+00 
    1.4487042825811147E+00 
    1.4162688366503036E+00 
    1.3653853956330495E+00 
    1.2995977167323112E+00 
    1.2228309940405111E+00 
    1.1381798203310305E+00 
    1.0476483577915350E+00 
    9.5225828929751222E-01 
    8.5213087722864655E-01 
    7.4632950021895761E-01 
    6.3226801462186288E-01 
    5.0521358580171583E-01 
    3.6359420801026054E-01 
    2.0615142143411808E-01 
    6.0338435996531790E-02 
    1.4614710458514335E+00 
    1.4493191950566080E+00 
    1.4187591208550552E+00 
    1.3698418674948434E+00 
    1.3057057971324590E+00 
    1.2301690946709107E+00 
    1.1463902009383136E+00 
    1.0564888308881111E+00 
    9.6159562217448513E-01 
    8.6191647248954162E-01 
    7.5655825639723406E-01 
    6.4276419409679464E-01 
    5.1481908307308832E-01 
    3.7251716624889375E-01 
    2.1244733851138869E-01 
    0.0000000000000000E+00 

SCALARS Saturarion double 1 
LOOKUP_TABLE default 

    1.0000000000000000E+00 
    9.8408222762370379E-01 
    9.6334798352290141E-01 
    9.4079472904939643E-01 
    9.1822081329183447E-01 
    8.9609436095785888E-01 
    8.7437021735635878E-01 
    8.5273734280818536E-01 
    8.3062083068168369E-01 
    8.0697079028261454E-01 
    7.7955768655774671E-01 
    7.4234641046972361E-01 
    6.7166571814348164E-01 
    4.3678427683575999E-01 
    4.2026370741432867E-02 
    2.3661475867080213E-05 
    9.9487073495707146E-01 
    9.8164869425773305E-01 
    9.6241678174455803E-01 
    9.4058200597381336E-01 
    9.1833961722491686E-01 
    8.9640001783666656E-01 
    8.7481753294911135E-01 
    8.5333225629402754E-01 
    8.3141356565599700E-01 
    8.0807919201133682E-01 
    7.8125924544249781E-01 
    7.4546882657280178E-01 
    6.8019513069938664E-01 
    4.7621589784832136E-01 
    6.7188396180260582E-02 
    9.0617283002054574E-05 
    9.9060128081240950E-01 
    9.7809890387599474E-01 
    9.6007017646903503E-01 
    9.3914797575907205E-01 
    9.1745907654450587E-01 
    8.9588751727464278E-01 
    8.7459474196983222E-01 
    8.5338039999205884E-01 
    8.3176169789079191E-01 
    8.0882311599486889E-01 
    7.8264323666427560E-01 
    7.4821122471226131E-01 
    6.8734276175887599E-01 
    5.0566808516248829E-01 
    9.5067774981685213E-02 
    2.5347627470992840E-04 
    9.8556079498869154E-01 
    9.7366014566098846E-01 
    9.5659695810307921E-01 
    9.3660089400311408E-01 
    9.1559290030986817E-01 
    8.9452530557788335E-01 
    8.7364533244097020E-01 
    8.5281070220637512E-01 
    8.3158709645672180E-01 
    8.0912490604676401E-01 
    7.8364312920223234E-01 
    7.5055416770003602E-01 
    6.9359184230187720E-01 
    5.3099502845453928E-01 
    1.2820090114603006E-01 
    6.2954800059312989E-04 
    9.7951912676388664E-01 
    9.6829487222806698E-01 
    9.5210984904064488E-01 
    9.3302308725363170E-01 
    9.1277245725606326E-01 
    8.9231396604561242E-01 
    8.7195202186794152E-01 
    8.5159459987147657E-01 
    8.3085370713412754E-01 
    8.0894436999331276E-01 
    7.8422113610875266E-01 
    7.5248935890161195E-01 
    6.9916810153021602E-01 
    5.5324763505562813E-01 
    1.6592709569537695E-01 
    1.4214740673303256E-03 
    9.7230209527453948E-01 
    9.6190907279705551E-01 
    9.4661009411804009E-01 
    9.2843512463685474E-01 
    9.0899922130532140E-01 
    8.8923740387102568E-01 
    8.6948783005545505E-01 
    8.4969839406827119E-01 
    8.2952292012536533E-01 
    8.0823859717201241E-01 
    7.8433200208698661E-01 
    7.5398311819563424E-01 
    7.0413932615343133E-01 
    5.7296123678280264E-01 
    2.0721902525631503E-01 
    2.9712651540159791E-03 
    9.6373478201479235E-01 
    9.5437240844800764E-01 
    9.4003036350615043E-01 
    9.2280061566824101E-01 
    9.0423680039870857E-01 
    8.8525266649283751E-01 
    8.6620537175267776E-01 
    8.4707252445230852E-01 
    8.2754351223051625E-01 
    8.0695345838411325E-01 
    7.8391698078031480E-01 
    7.5497652370144186E-01 
    7.0849156550627657E-01 
    5.9050542699429354E-01 
    2.5059849119566385E-01 
    5.8149804542235364E-03 
    9.5361413034877018E-01 
    9.4551215376416586E-01 
    9.3224420743758607E-01 
    9.1602564703937217E-01 
    8.9840262586128583E-01 
    8.8027998795139240E-01 
    8.6202714213832388E-01 
    8.4364265035357289E-01 
    8.2484396316076491E-01 
    8.0501774209058663E-01 
    7.8290053368205548E-01 
    7.5538701073265435E-01 
    7.1215987596656061E-01 
    6.0612662259397776E-01 
    2.9435238276378217E-01 
    1.0741235856923043E-02 
    9.4167782384817500E-01 
    9.3509331307683607E-01 
    9.2305524532867189E-01 
    9.0794650595301152E-01 
    8.9135200381646396E-01 
    8.7418606700755830E-01 
    8.5682973688820363E-01 
    8.3929549731322173E-01 
    8.2132021286753465E-01 
    8.0233298859603175E-01 
    7.8118253267376259E-01 
    7.5510378732124783E-01 
    7.1503415902928613E-01 
    6.1995649154175114E-01 
    3.3669544452481609E-01 
    1.8769171562650917E-02 
    9.2755505862055632E-01 
    9.2277945484832180E-01 
    9.1216466755710923E-01 
    8.9829869435558363E-01 
    8.8284622810739743E-01 
    8.6675260024559453E-01 
    8.5041442578931126E-01 
    8.3385252151699896E-01 
    8.1681303681166761E-01 
    7.9875479178929987E-01 
    7.7862322707291520E-01 
    7.5397525093955453E-01 
    7.1694821633993644E-01 
    6.3200491519170288E-01 
    3.7633147139335188E-01 
    3.1093549682603749E-02 
    9.1067353623758107E-01 
    9.0805375693700996E-01 
    8.9909964037581125E-01 
    8.8664859197913859E-01 
    8.7248538751685611E-01 
    8.5761116340971555E-01 
    8.4244628024199386E-01 
    8.2701528498950272E-01 
    8.1106091169358041E-01 
    7.9405357418253575E-01 
    7.7501137956274035E-01 
    7.5178138772281522E-01 
    7.1764837204437881E-01 
    6.4212740452544037E-01 
    4.1248944334511339E-01 
    4.8726300896325167E-02 
    8.9004858601463721E-01 
    8.9003769148610901E-01 
    8.8304502373313676E-01 
    8.7223088833386075E-01 
    8.5954860153538404E-01 
    8.4608768913169397E-01 
    8.3230739875733384E-01 
    8.1823278553802559E-01 
    8.0358553271759892E-01 
    7.8781990733572582E-01 
    7.6998806411719434E-01 
    7.4816923324029216E-01 
    7.1671854037708527E-01 
    6.4992852796214018E-01 
    4.4465021086169798E-01 
    7.1651153469210832E-02 
    8.6367621774188641E-01 
    8.6697453844091121E-01 
    8.6236221652125844E-01 
    8.5347855921575289E-01 
    8.4252595556665588E-01 
    8.3073914806988203E-01 
    8.1865157850673897E-01 
    8.0629422044505628E-01 
    7.9334256414772064E-01 
    7.7918430980456099E-01 
    7.6283307358460939E-01 
    7.4248402782206335E-01 
    7.1338346341705650E-01 
    6.5444937599066400E-01 
    4.7173042097143408E-01 
    9.5724849141495427E-02 
    8.2601063952373965E-01 
    8.3412120860619721E-01 
    8.3263044130117747E-01 
    8.2609054165526186E-01 
    8.1716105952929352E-01 
    8.0737547232323281E-01 
    7.9746046839503937E-01 
    7.8751418954967989E-01 
    7.7714517104344027E-01 
    7.6556938043785439E-01 
    7.5158184573378073E-01 
    7.3319482404667247E-01 
    7.0596392033533151E-01 
    6.5295666835849975E-01 
    4.8852222404296897E-01 
    1.0575148698898182E-01 
    7.5244336368505005E-01 
    7.7044118779529835E-01 
    7.7433272256116192E-01 
    7.7101137709833201E-01 
    7.6434817786561782E-01 
    7.5674488682456365E-01 
    7.4967971409368295E-01 
    7.4385402686423696E-01 
    7.3913201687656027E-01 
    7.3441412109607285E-01 
    7.2758320569584700E-01 
    7.1540829987997334E-01 
    6.9224117897821769E-01 
    6.4315911167166839E-01 
    4.7731478981412379E-01 
    7.8744562388018816E-02 
    4.5994680009213473E-01 
    5.4686097537624667E-01 
    5.7386683172067587E-01 
    5.7904379484594382E-01 
    5.7357139402914936E-01 
    5.6259490459884198E-01 
    5.4917306212811190E-01 
    5.3575648672882537E-01 
    5.2502404042258488E-01 
    5.1986405391857093E-01 
    5.2056593357531999E-01 
    5.1455265253927085E-01 
    4.4935949427924876E-01 
    2.3704122099297809E-01 
    5.2145819341466365E-02 
    4.5750893151373504E-04 
