# vtk DataFile Version 2.0
Pressure Field Data 
ASCII 
DATASET UNSTRUCTURED_GRID 

POINTS 289 double 

    0.0000000000000000E+00     0.0000000000000000E+00     0.0000000000000000E+00 
    1.0000000000000000E+00     0.0000000000000000E+00     0.0000000000000000E+00 
    1.0000000000000000E+00     1.0000000000000000E+00     0.0000000000000000E+00 
    0.0000000000000000E+00     1.0000000000000000E+00     0.0000000000000000E+00 
    6.2499999999872928E-02     0.0000000000000000E+00     0.0000000000000000E+00 
    1.2499999999977310E-01     0.0000000000000000E+00     0.0000000000000000E+00 
    1.8749999999959341E-01     0.0000000000000000E+00     0.0000000000000000E+00 
    2.4999999999941089E-01     0.0000000000000000E+00     0.0000000000000000E+00 
    3.1249999999922851E-01     0.0000000000000000E+00     0.0000000000000000E+00 
    3.7499999999904610E-01     0.0000000000000000E+00     0.0000000000000000E+00 
    4.3749999999886358E-01     0.0000000000000000E+00     0.0000000000000000E+00 
    4.9999999999869210E-01     0.0000000000000000E+00     0.0000000000000000E+00 
    5.6249999999884603E-01     0.0000000000000000E+00     0.0000000000000000E+00 
    6.2499999999901090E-01     0.0000000000000000E+00     0.0000000000000000E+00 
    6.8749999999917577E-01     0.0000000000000000E+00     0.0000000000000000E+00 
    7.4999999999934064E-01     0.0000000000000000E+00     0.0000000000000000E+00 
    8.1249999999950551E-01     0.0000000000000000E+00     0.0000000000000000E+00 
    8.7499999999967026E-01     0.0000000000000000E+00     0.0000000000000000E+00 
    9.3749999999983513E-01     0.0000000000000000E+00     0.0000000000000000E+00 
    1.0000000000000000E+00     6.2499999999872928E-02     0.0000000000000000E+00 
    1.0000000000000000E+00     1.2499999999977310E-01     0.0000000000000000E+00 
    1.0000000000000000E+00     1.8749999999959341E-01     0.0000000000000000E+00 
    1.0000000000000000E+00     2.4999999999941089E-01     0.0000000000000000E+00 
    1.0000000000000000E+00     3.1249999999922851E-01     0.0000000000000000E+00 
    1.0000000000000000E+00     3.7499999999904610E-01     0.0000000000000000E+00 
    1.0000000000000000E+00     4.3749999999886358E-01     0.0000000000000000E+00 
    1.0000000000000000E+00     4.9999999999869210E-01     0.0000000000000000E+00 
    1.0000000000000000E+00     5.6249999999884603E-01     0.0000000000000000E+00 
    1.0000000000000000E+00     6.2499999999901090E-01     0.0000000000000000E+00 
    1.0000000000000000E+00     6.8749999999917577E-01     0.0000000000000000E+00 
    1.0000000000000000E+00     7.4999999999934064E-01     0.0000000000000000E+00 
    1.0000000000000000E+00     8.1249999999950551E-01     0.0000000000000000E+00 
    1.0000000000000000E+00     8.7499999999967026E-01     0.0000000000000000E+00 
    1.0000000000000000E+00     9.3749999999983513E-01     0.0000000000000000E+00 
    9.3749999999973976E-01     1.0000000000000000E+00     0.0000000000000000E+00 
    8.7499999999950118E-01     1.0000000000000000E+00     0.0000000000000000E+00 
    8.1249999999991318E-01     1.0000000000000000E+00     0.0000000000000000E+00 
    7.5000000000034706E-01     1.0000000000000000E+00     0.0000000000000000E+00 
    6.8750000000078049E-01     1.0000000000000000E+00     0.0000000000000000E+00 
    6.2500000000121403E-01     1.0000000000000000E+00     0.0000000000000000E+00 
    5.6250000000164757E-01     1.0000000000000000E+00     0.0000000000000000E+00 
    5.0000000000205946E-01     1.0000000000000000E+00     0.0000000000000000E+00 
    4.3750000000182099E-01     1.0000000000000000E+00     0.0000000000000000E+00 
    3.7500000000156092E-01     1.0000000000000000E+00     0.0000000000000000E+00 
    3.1250000000130068E-01     1.0000000000000000E+00     0.0000000000000000E+00 
    2.5000000000104050E-01     1.0000000000000000E+00     0.0000000000000000E+00 
    1.8750000000078040E-01     1.0000000000000000E+00     0.0000000000000000E+00 
    1.2500000000052031E-01     1.0000000000000000E+00     0.0000000000000000E+00 
    6.2500000000260125E-02     1.0000000000000000E+00     0.0000000000000000E+00 
    0.0000000000000000E+00     9.3749999999973976E-01     0.0000000000000000E+00 
    0.0000000000000000E+00     8.7499999999950118E-01     0.0000000000000000E+00 
    0.0000000000000000E+00     8.1249999999991318E-01     0.0000000000000000E+00 
    0.0000000000000000E+00     7.5000000000034706E-01     0.0000000000000000E+00 
    0.0000000000000000E+00     6.8750000000078049E-01     0.0000000000000000E+00 
    0.0000000000000000E+00     6.2500000000121403E-01     0.0000000000000000E+00 
    0.0000000000000000E+00     5.6250000000164757E-01     0.0000000000000000E+00 
    0.0000000000000000E+00     5.0000000000205946E-01     0.0000000000000000E+00 
    0.0000000000000000E+00     4.3750000000182099E-01     0.0000000000000000E+00 
    0.0000000000000000E+00     3.7500000000156092E-01     0.0000000000000000E+00 
    0.0000000000000000E+00     3.1250000000130068E-01     0.0000000000000000E+00 
    0.0000000000000000E+00     2.5000000000104050E-01     0.0000000000000000E+00 
    0.0000000000000000E+00     1.8750000000078040E-01     0.0000000000000000E+00 
    0.0000000000000000E+00     1.2500000000052031E-01     0.0000000000000000E+00 
    0.0000000000000000E+00     6.2500000000260125E-02     0.0000000000000000E+00 
    6.2499999999897131E-02     6.2500000000235922E-02     0.0000000000000000E+00 
    6.2499999999921327E-02     1.2500000000047351E-01     0.0000000000000000E+00 
    6.2499999999945530E-02     1.8750000000070621E-01     0.0000000000000000E+00 
    6.2499999999969733E-02     2.5000000000093858E-01     0.0000000000000000E+00 
    6.2499999999993928E-02     3.1250000000117117E-01     0.0000000000000000E+00 
    6.2500000000018124E-02     3.7500000000140382E-01     0.0000000000000000E+00 
    6.2500000000042327E-02     4.3750000000163619E-01     0.0000000000000000E+00 
    6.2500000000066530E-02     5.0000000000184897E-01     0.0000000000000000E+00 
    6.2500000000090733E-02     5.6250000000147260E-01     0.0000000000000000E+00 
    6.2500000000114922E-02     6.2500000000107636E-01     0.0000000000000000E+00 
    6.2500000000139125E-02     6.8750000000068034E-01     0.0000000000000000E+00 
    6.2500000000163328E-02     7.5000000000028411E-01     0.0000000000000000E+00 
    6.2500000000187531E-02     8.1249999999988787E-01     0.0000000000000000E+00 
    6.2500000000211720E-02     8.7499999999951172E-01     0.0000000000000000E+00 
    6.2500000000235922E-02     9.3749999999974565E-01     0.0000000000000000E+00 
    1.2499999999981980E-01     6.2500000000211733E-02     0.0000000000000000E+00 
    1.2499999999986650E-01     1.2500000000042691E-01     0.0000000000000000E+00 
    1.2499999999991319E-01     1.8750000000063199E-01     0.0000000000000000E+00 
    1.2499999999995989E-01     2.5000000000083678E-01     0.0000000000000000E+00 
    1.2500000000000661E-01     3.1250000000104172E-01     0.0000000000000000E+00 
    1.2500000000005329E-01     3.7500000000124661E-01     0.0000000000000000E+00 
    1.2500000000010000E-01     4.3750000000145117E-01     0.0000000000000000E+00 
    1.2500000000014669E-01     5.0000000000163858E-01     0.0000000000000000E+00 
    1.2500000000019340E-01     5.6250000000129741E-01     0.0000000000000000E+00 
    1.2500000000024011E-01     6.2500000000093847E-01     0.0000000000000000E+00 
    1.2500000000028680E-01     6.8750000000057998E-01     0.0000000000000000E+00 
    1.2500000000033351E-01     7.5000000000022127E-01     0.0000000000000000E+00 
    1.2500000000038020E-01     8.1249999999986211E-01     0.0000000000000000E+00 
    1.2500000000042691E-01     8.7499999999952238E-01     0.0000000000000000E+00 
    1.2500000000047359E-01     9.3749999999975164E-01     0.0000000000000000E+00 
    1.8749999999966760E-01     6.2500000000187531E-02     0.0000000000000000E+00 
    1.8749999999974179E-01     1.2500000000038020E-01     0.0000000000000000E+00 
    1.8749999999981601E-01     1.8750000000055780E-01     0.0000000000000000E+00 
    1.8749999999989009E-01     2.5000000000073502E-01     0.0000000000000000E+00 
    1.8749999999996431E-01     3.1250000000091221E-01     0.0000000000000000E+00 
    1.8750000000003850E-01     3.7500000000108941E-01     0.0000000000000000E+00 
    1.8750000000011269E-01     4.3750000000126649E-01     0.0000000000000000E+00 
    1.8750000000018691E-01     5.0000000000142808E-01     0.0000000000000000E+00 
    1.8750000000026110E-01     5.6250000000112244E-01     0.0000000000000000E+00 
    1.8750000000033529E-01     6.2500000000080080E-01     0.0000000000000000E+00 
    1.8750000000040951E-01     6.8750000000047962E-01     0.0000000000000000E+00 
    1.8750000000048361E-01     7.5000000000015843E-01     0.0000000000000000E+00 
    1.8750000000055780E-01     8.1249999999983680E-01     0.0000000000000000E+00 
    1.8750000000063199E-01     8.7499999999953304E-01     0.0000000000000000E+00 
    1.8750000000070621E-01     9.3749999999975764E-01     0.0000000000000000E+00 
    2.4999999999951281E-01     6.2500000000163314E-02     0.0000000000000000E+00 
    2.4999999999961461E-01     1.2500000000033351E-01     0.0000000000000000E+00 
    2.4999999999971650E-01     1.8750000000048361E-01     0.0000000000000000E+00 
    2.4999999999981831E-01     2.5000000000063310E-01     0.0000000000000000E+00 
    2.4999999999992020E-01     3.1250000000078260E-01     0.0000000000000000E+00 
    2.5000000000002198E-01     3.7500000000093209E-01     0.0000000000000000E+00 
    2.5000000000012390E-01     4.3750000000108180E-01     0.0000000000000000E+00 
    2.5000000000022571E-01     5.0000000000121769E-01     0.0000000000000000E+00 
    2.5000000000032763E-01     5.6250000000094724E-01     0.0000000000000000E+00 
    2.5000000000042938E-01     6.2500000000066314E-01     0.0000000000000000E+00 
    2.5000000000053119E-01     6.8750000000037925E-01     0.0000000000000000E+00 
[...]
CELL_DATA 256 
SCALARS Pressure double 1 
LOOKUP_TABLE default 

    1.3316579487215408E+00 
    1.0854974145942808E+00 
    9.3633034061939191E-01 
    8.1211721729818676E-01 
    7.2552610205908052E-01 
    6.6708570549375212E-01 
    6.1407315436752041E-01 
    5.6010510289222948E-01 
    5.0635886588506651E-01 
    4.5369173386149830E-01 
    4.0319549775257030E-01 
    3.5651970807629862E-01 
    3.1603332529726347E-01 
    2.8462456222362992E-01 
    2.6477694526002588E-01 
    2.5681140885147874E-01 
    1.2558607247551929E+00 
    1.0884335499574507E+00 
    9.4484084593311601E-01 
    8.2046446316867783E-01 
    7.3271512673044548E-01 
    6.7303917054923190E-01 
    6.1955524616025937E-01 
    5.6548196572084708E-01 
    5.1159655211775068E-01 
    4.5867794160264341E-01 
    4.0774769506037045E-01 
    3.6037514722712799E-01 
    3.1887903894072112E-01 
    2.8621339691854186E-01 
    2.6513616743325930E-01 
    2.5645300039913871E-01 
    1.1938235720683958E+00 
    1.0781053595698202E+00 
    9.4776370792799969E-01 
    8.2638581739985939E-01 
    7.3975148375190658E-01 
    6.7936571614599883E-01 
    6.2518436411921863E-01 
    5.7087437256042028E-01 
    5.1678346974944656E-01 
    4.6354276937387839E-01 
    4.1207097306933632E-01 
    3.6383373214710385E-01 
    3.2109300613716935E-01 
    2.8691258270580516E-01 
    2.6445277917847199E-01 
    2.5516351299154627E-01 
    1.1423092169263971E+00 
    1.0605996316111246E+00 
    9.4539133437955369E-01 
    8.3004481333809832E-01 
    7.4650597316741507E-01 
    6.8593054301835155E-01 
    6.3093859493356164E-01 
    5.7629667649299277E-01 
    5.2194378518604445E-01 
    4.6832429140630061E-01 
    4.1622323476272771E-01 
    3.6697271257747821E-01 
    3.2275363861028894E-01 
    2.8675705157800080E-01 
    2.6266386559550203E-01 
    2.5276608694123748E-01 
    1.0987270258019946E+00 
    1.0394783952316564E+00 
    9.3849849971555643E-01 
    8.3201681646281556E-01 
    7.5296397568364326E-01 
    6.9256317562659930E-01 
    6.3677740745277223E-01 
    5.8175395966014154E-01 
    5.2709887483035578E-01 
    4.7306007726527438E-01 
    4.2026422734677887E-01 
    3.6987535330852639E-01 
    3.2395015796484439E-01 
    2.8579149236842533E-01 
    2.5970369054140108E-01 
    2.4907683742010750E-01 
    1.0612698951651756E+00 
    1.0168414181370278E+00 
    9.2821764815225838E-01 
    8.3306766506563790E-01 
    7.5919626822757291E-01 
    6.9909452692206597E-01 
    6.4265178338978390E-01 
    5.8724392492180122E-01 
    5.3226660586718932E-01 
    4.7778613745556625E-01 
    4.2425467352425750E-01 
    3.7263153499760132E-01 
    3.2478690082199568E-01 
    2.8407834445142999E-01 
    2.5550717441624221E-01 
    2.4389230382414309E-01 
    1.0286538249798907E+00 
    9.9378856163860918E-01 
    9.1653616415085304E-01 
    8.3395648772904452E-01 
    7.6523620612273213E-01 
    7.0540887760358573E-01 
    6.4851479075792673E-01 
    5.9275959196710060E-01 
    5.3746114363663600E-01 
    4.8253587363425265E-01 
    4.2825496742446290E-01 
    3.7533754441357642E-01 
    3.2538733480230481E-01 
    2.8170770540002971E-01 
    2.5001591739564966E-01 
    2.3697526947397060E-01 
    9.9990930686438684E-01 
    9.7056288948836844E-01 
    9.0567367665530574E-01 
    8.3524529887114196E-01 
    7.7094599605160086E-01 
    7.1146049664805688E-01 
    6.5432979963868143E-01 
    5.9829215862395957E-01 
    5.4269312896447386E-01 
    4.8733906333393878E-01 
    4.3232339861628427E-01 
    3.7809474864576831E-01 
    3.2589730279037071E-01 
    2.7880971752629063E-01 
    2.4318887003507333E-01 
    2.2803720353303458E-01 
    9.7394381716025269E-01 
    9.4996370294171195E-01 
    8.9784234638190374E-01 
    8.3701710518917882E-01 
    7.7614404065842912E-01 
    7.1724612254942421E-01 
    6.6007367662367256E-01 
    6.0383336289211353E-01 
    5.4797005456613535E-01 
    4.9222091102487092E-01 
    4.3651391670300416E-01 
    3.8100681441166745E-01 
    3.2648664517622100E-01 
    2.7556976625963714E-01 
    2.3502102008193382E-01 
    2.1671502020700800E-01 
    9.5269361420743959E-01 
    9.3526355498256097E-01 
    8.9326675485505491E-01 
    8.3900403017175418E-01 
    7.8082386274277238E-01 
    7.2278277781539224E-01 
    6.6573621194111576E-01 
    6.0937700875390377E-01 
    5.5329669858307506E-01 
    4.9720121558878738E-01 
    4.4087353233610072E-01 
    3.8417516591171502E-01 
    3.2734785571517067E-01 
    2.7224619109236470E-01 
    2.2557563549444642E-01 
    2.0253887718159172E-01 
    9.4148648833507964E-01 
    9.2678242496071317E-01 
    8.9064760150556443E-01 
    8.4087951617982348E-01 
    7.8513999041638716E-01 
    7.2810752439731596E-01 
    6.7131876195635287E-01 
    6.1491974541007555E-01 
    5.5867553797852154E-01 
    5.0229373161961577E-01 
    4.4543957129383766E-01 
    3.8769253485689104E-01 
    3.2868983840870597E-01 
    2.6918875246555335E-01 
    2.1503926445512916E-01 
    1.8488614087979088E-01 
    9.3496803181440402E-01 
    9.2165872012240246E-01 
    8.8907430878385085E-01 
    8.4272225154884517E-01 
    7.8924675103046393E-01 
    7.3327422089454053E-01 
    6.7683269476661156E-01 
    6.2046130414332312E-01 
    5.6410712163765298E-01 
    5.0750582355915597E-01 
    4.5023714515007157E-01 
    3.9163482813437139E-01 
    3.3072430190541585E-01 
    2.6685301624130953E-01 
    2.0381483776751405E-01 
    1.6291408642661295E-01 
    9.3041260299726791E-01 
    9.1809390990754058E-01 
    8.8825120060883189E-01 
    8.4475026962452537E-01 
    7.9328482195338434E-01 
    7.3834613090022871E-01 
    6.8229731530810800E-01 
    6.2600432627901781E-01 
    5.6959040704608499E-01 
    5.1283850864807867E-01 
    4.5527733803479858E-01 
    3.9605220852859052E-01 
    3.3364228124125778E-01 
    2.6579962822471925E-01 
    1.9267852875352709E-01 
    1.3545980890072143E-01 
    9.2745459810082209E-01 
    9.1594515252535269E-01 
    8.8828792268513967E-01 
    8.4712852229675806E-01 
    7.9738470637443015E-01 
    7.4339070844400024E-01 
    6.8773754842689039E-01 
    6.3155388702106530E-01 
    5.7512306357848297E-01 
    5.1828694228755057E-01 
    4.6055666051033078E-01 
    4.0096127283238708E-01 
    3.3757973463620911E-01 
    2.6665543121529262E-01 
    1.8304334326373137E-01 
    1.0088927167972155E-01 
    9.2586394714159714E-01 
    9.1513307625145390E-01 
    8.8926449111706896E-01 
    8.4999684995256852E-01 
    8.0166544385812244E-01 
    7.4847601399173147E-01 
    6.9318170130725343E-01 
    6.3711681691663868E-01 
    5.8070173404836323E-01 
    5.2384131623282781E-01 
    4.6605817989375814E-01 
    4.0634128975711675E-01 
    3.4257637171824007E-01 
    2.6999056616121708E-01 
    1.7740154918427947E-01 
    5.6866885893543197E-02 
    9.2542180376434791E-01 
    9.1558525024828674E-01 
    8.9124555142276707E-01 
    8.5347689460486487E-01 
    8.0623552504250251E-01 
    7.5366825428250050E-01 
    6.9865943787066442E-01 
    6.4270090261119572E-01 
    5.8632223399800798E-01 
    5.2948803817694179E-01 
    4.7175430800040796E-01 
    4.1213770185274534E-01 
    3.4854553451310361E-01 
    2.7602312101567011E-01 
    1.8006716781019569E-01 
    0.0000000000000000E+00 

SCALARS Saturarion double 1 
LOOKUP_TABLE default 

    1.0000000000000000E+00 
    9.1933390483409583E-01 
    8.1514366676783212E-01 
    6.5032715482182735E-01 
    2.6056209313373052E-01 
    7.6718048026035374E-03 
    9.6728739055372834E-07 
    1.2816798086965754E-15 
    1.2702211595990536E-35 
    1.3495644258534446E-80 
   1.8220042404912638E-181 
    0.0000000000000000E+00 
    0.0000000000000000E+00 
    0.0000000000000000E+00 
    0.0000000000000000E+00 
    0.0000000000000000E+00 
    9.7166426748731460E-01 
    9.0830397093139403E-01 
    8.1203014818482666E-01 
    6.5123926137603005E-01 
    2.6264693698222441E-01 
    7.5627534355553914E-03 
    8.4788183466289532E-07 
    7.7068920837858728E-16 
    2.4088552979706832E-36 
    8.9196271525394730E-83 
   9.5854068743601907E-188 
    0.0000000000000000E+00 
    0.0000000000000000E+00 
    0.0000000000000000E+00 
    0.0000000000000000E+00 
    0.0000000000000000E+00 
    9.5025995662347229E-01 
    8.9299384831413353E-01 
    8.0326490087521329E-01 
    6.4084723847934222E-01 
    2.3582019092878337E-01 
    5.0759164579179282E-03 
    2.8986800448359366E-07 
    4.8202967561016075E-17 
    1.9727262098271052E-39 
    1.2258398373209743E-90 
   9.7158193311487253E-208 
    0.0000000000000000E+00 
    0.0000000000000000E+00 
    0.0000000000000000E+00 
    0.0000000000000000E+00 
    0.0000000000000000E+00 
    9.2703790084752313E-01 
    8.7495514615684078E-01 
    7.9002112199781249E-01 
    6.1706424134515647E-01 
    1.8403978472711063E-01 
    2.1787694177094093E-03 
    3.2276921148241846E-08 
    1.8739355229109211E-19 
    1.6721441966640276E-45 
   5.9311885638345013E-106 
   8.1579093105307892E-247 
    0.0000000000000000E+00 
    0.0000000000000000E+00 
    0.0000000000000000E+00 
    0.0000000000000000E+00 
    0.0000000000000000E+00 
    9.0132402253050847E-01 
    8.5432518597317986E-01 
    7.7243296795733307E-01 
    5.7154752967652889E-01 
    1.1403189779751233E-01 
    4.7594324858118330E-04 
    6.4845499734884520E-10 
    9.6027044784750691E-24 
    1.9940207846108036E-56 
   1.7995914900840927E-134 
    0.0000000000000000E+00 
    0.0000000000000000E+00 
    0.0000000000000000E+00 
    0.0000000000000000E+00 
    0.0000000000000000E+00 
    0.0000000000000000E+00 
    8.7250927625065444E-01 
    8.3070830918829863E-01 
    7.4905227105676897E-01 
    4.7950992473644227E-01 
    4.4814954801707316E-02 
    3.1792460127029634E-05 
    6.2337485526950650E-13 
    1.0925103154124239E-31 
    3.7995699690654431E-78 
   1.7921517712732515E-193 
    0.0000000000000000E+00 
    0.0000000000000000E+00 
    0.0000000000000000E+00 
    0.0000000000000000E+00 
    0.0000000000000000E+00 
    0.0000000000000000E+00 
    8.3925901925520940E-01 
    8.0274514278174658E-01 
    7.1434943306926091E-01 
    3.0645572535122667E-01 
    7.0556153243821612E-03 
    1.9185031546281596E-07 
    3.4049977114044513E-19 
    2.0185876322172436E-49 
   1.0241988511482360E-125 
    0.0000000000000000E+00 
    0.0000000000000000E+00 
    0.0000000000000000E+00 
    0.0000000000000000E+00 
    0.0000000000000000E+00 
    0.0000000000000000E+00 
    0.0000000000000000E+00 
    7.9789475388745945E-01 
    7.6601324909959279E-01 
    6.4308517721454905E-01 
    1.0018047762526183E-01 
    1.0245429396804681E-04 
    6.2551256492794069E-13 
    1.8293783664894151E-34 
    6.4904791200973854E-94 
   1.5254456456036419E-265 
    0.0000000000000000E+00 
    0.0000000000000000E+00 
    0.0000000000000000E+00 
    0.0000000000000000E+00 
    0.0000000000000000E+00 
    0.0000000000000000E+00 
    0.0000000000000000E+00 
    7.3538374394541517E-01 
    7.0108655446559665E-01 
    3.0617427948615039E-01 
    1.9872277282678105E-03 
    7.3033915341239850E-10 
    4.6145630269170804E-28 
    1.0485241348874415E-81 
   4.7518702508707550E-242 
    0.0000000000000000E+00 
    0.0000000000000000E+00 
    0.0000000000000000E+00 
    0.0000000000000000E+00 
    0.0000000000000000E+00 
    0.0000000000000000E+00 
    0.0000000000000000E+00 
    0.0000000000000000E+00 
    5.6735966478073185E-01 
    4.0237961223054564E-01 
    7.3650060631494270E-03 
    1.2341281517703174E-08 
    1.1541572088574689E-25 
    3.9642529889013252E-77 
   3.7643664537020161E-233 
    0.0000000000000000E+00 
    0.0000000000000000E+00 
    0.0000000000000000E+00 
    0.0000000000000000E+00 
    0.0000000000000000E+00 
    0.0000000000000000E+00 
    0.0000000000000000E+00 
    0.0000000000000000E+00 
    0.0000000000000000E+00 
    9.1760156159871015E-02 
    1.0560204753779561E-02 
    3.4401052155884233E-08 
    8.2431622141263885E-25 
    1.6127717651769218E-75 
   4.7222585591077477E-230 
    0.0000000000000000E+00 
    0.0000000000000000E+00 
    0.0000000000000000E+00 
    0.0000000000000000E+00 
    0.0000000000000000E+00 
    0.0000000000000000E+00 
    0.0000000000000000E+00 
    0.0000000000000000E+00 
    0.0000000000000000E+00 
    0.0000000000000000E+00 
    8.1430562891117016E-05 
    3.7407235595249092E-08 
    1.4351248724314943E-24 
    4.8343673730675228E-75 
   3.7956720965175589E-229 
    0.0000000000000000E+00 
    0.0000000000000000E+00 
    0.0000000000000000E+00 
    0.0000000000000000E+00 
    0.0000000000000000E+00 
    0.0000000000000000E+00 
    0.0000000000000000E+00 
    0.0000000000000000E+00 
    0.0000000000000000E+00 
    0.0000000000000000E+00 
    0.0000000000000000E+00 
    2.8019872509465016E-13 
    9.4577099781622606E-25 
    4.8596084039688519E-75 
   4.9940917157610301E-229 
    0.0000000000000000E+00 
    0.0000000000000000E+00 
    0.0000000000000000E+00 
    0.0000000000000000E+00 
    0.0000000000000000E+00 
    0.0000000000000000E+00 
    0.0000000000000000E+00 
    0.0000000000000000E+00 
    0.0000000000000000E+00 
    0.0000000000000000E+00 
    0.0000000000000000E+00 
    0.0000000000000000E+00 
    2.4188928477020561E-36 
    1.3278239705945563E-75 
   2.5439002506462581E-229 
    0.0000000000000000E+00 
    0.0000000000000000E+00 
    0.0000000000000000E+00 
    0.0000000000000000E+00 
    0.0000000000000000E+00 
    0.0000000000000000E+00 
    0.0000000000000000E+00 
    0.0000000000000000E+00 
    0.0000000000000000E+00 
    0.0000000000000000E+00 
    0.0000000000000000E+00 
    0.0000000000000000E+00 
    0.0000000000000000E+00 
    2.5294438236201029E-99 
   1.1927399109776076E-230 
    0.0000000000000000E+00 
    0.0000000000000000E+00 
    0.0000000000000000E+00 
    0.0000000000000000E+00 
    0.0000000000000000E+00 
    0.0000000000000000E+00 
    0.0000000000000000E+00 
    0.0000000000000000E+00 
    0.0000000000000000E+00 
    0.0000000000000000E+00 
    0.0000000000000000E+00 
    0.0000000000000000E+00 
    0.0000000000000000E+00 
    0.0000000000000000E+00 
   5.2215041629337781E-272 
    0.0000000000000000E+00 
    0.0000000000000000E+00 
    0.0000000000000000E+00 
    0.0000000000000000E+00 
    0.0000000000000000E+00 
    0.0000000000000000E+00 
    0.0000000000000000E+00 
    0.0000000000000000E+00 
    0.0000000000000000E+00 
    0.0000000000000000E+00 
    0.0000000000000000E+00 
    0.0000000000000000E+00 
    0.0000000000000000E+00 
    0.0000000000000000E+00 
    0.0000000000000000E+00 
