# vtk DataFile Version 2.0
Pressure Field Data 
ASCII 
DATASET UNSTRUCTURED_GRID 

POINTS 289 double 

    0.0000000000000000E+00     0.0000000000000000E+00     0.0000000000000000E+00 
    1.0000000000000000E+00     0.0000000000000000E+00     0.0000000000000000E+00 
    1.0000000000000000E+00     1.0000000000000000E+00     0.0000000000000000E+00 
    0.0000000000000000E+00     1.0000000000000000E+00     0.0000000000000000E+00 
    6.2499999999872928E-02     0.0000000000000000E+00     0.0000000000000000E+00 
    1.2499999999977310E-01     0.0000000000000000E+00     0.0000000000000000E+00 
    1.8749999999959341E-01     0.0000000000000000E+00     0.0000000000000000E+00 
    2.4999999999941089E-01     0.0000000000000000E+00     0.0000000000000000E+00 
    3.1249999999922851E-01     0.0000000000000000E+00     0.0000000000000000E+00 
    3.7499999999904610E-01     0.0000000000000000E+00     0.0000000000000000E+00 
    4.3749999999886358E-01     0.0000000000000000E+00     0.0000000000000000E+00 
    4.9999999999869210E-01     0.0000000000000000E+00     0.0000000000000000E+00 
    5.6249999999884603E-01     0.0000000000000000E+00     0.0000000000000000E+00 
    6.2499999999901090E-01     0.0000000000000000E+00     0.0000000000000000E+00 
    6.8749999999917577E-01     0.0000000000000000E+00     0.0000000000000000E+00 
    7.4999999999934064E-01     0.0000000000000000E+00     0.0000000000000000E+00 
    8.1249999999950551E-01     0.0000000000000000E+00     0.0000000000000000E+00 
    8.7499999999967026E-01     0.0000000000000000E+00     0.0000000000000000E+00 
    9.3749999999983513E-01     0.0000000000000000E+00     0.0000000000000000E+00 
    1.0000000000000000E+00     6.2499999999872928E-02     0.0000000000000000E+00 
    1.0000000000000000E+00     1.2499999999977310E-01     0.0000000000000000E+00 
    1.0000000000000000E+00     1.8749999999959341E-01     0.0000000000000000E+00 
    1.0000000000000000E+00     2.4999999999941089E-01     0.0000000000000000E+00 
    1.0000000000000000E+00     3.1249999999922851E-01     0.0000000000000000E+00 
    1.0000000000000000E+00     3.7499999999904610E-01     0.0000000000000000E+00 
    1.0000000000000000E+00     4.3749999999886358E-01     0.0000000000000000E+00 
    1.0000000000000000E+00     4.9999999999869210E-01     0.0000000000000000E+00 
    1.0000000000000000E+00     5.6249999999884603E-01     0.0000000000000000E+00 
    1.0000000000000000E+00     6.2499999999901090E-01     0.0000000000000000E+00 
    1.0000000000000000E+00     6.8749999999917577E-01     0.0000000000000000E+00 
    1.0000000000000000E+00     7.4999999999934064E-01     0.0000000000000000E+00 
    1.0000000000000000E+00     8.1249999999950551E-01     0.0000000000000000E+00 
    1.0000000000000000E+00     8.7499999999967026E-01     0.0000000000000000E+00 
    1.0000000000000000E+00     9.3749999999983513E-01     0.0000000000000000E+00 
    9.3749999999973976E-01     1.0000000000000000E+00     0.0000000000000000E+00 
    8.7499999999950118E-01     1.0000000000000000E+00     0.0000000000000000E+00 
    8.1249999999991318E-01     1.0000000000000000E+00     0.0000000000000000E+00 
    7.5000000000034706E-01     1.0000000000000000E+00     0.0000000000000000E+00 
    6.8750000000078049E-01     1.0000000000000000E+00     0.0000000000000000E+00 
    6.2500000000121403E-01     1.0000000000000000E+00     0.0000000000000000E+00 
    5.6250000000164757E-01     1.0000000000000000E+00     0.0000000000000000E+00 
    5.0000000000205946E-01     1.0000000000000000E+00     0.0000000000000000E+00 
    4.3750000000182099E-01     1.0000000000000000E+00     0.0000000000000000E+00 
    3.7500000000156092E-01     1.0000000000000000E+00     0.0000000000000000E+00 
    3.1250000000130068E-01     1.0000000000000000E+00     0.0000000000000000E+00 
    2.5000000000104050E-01     1.0000000000000000E+00     0.0000000000000000E+00 
    1.8750000000078040E-01     1.0000000000000000E+00     0.0000000000000000E+00 
    1.2500000000052031E-01     1.0000000000000000E+00     0.0000000000000000E+00 
    6.2500000000260125E-02     1.0000000000000000E+00     0.0000000000000000E+00 
    0.0000000000000000E+00     9.3749999999973976E-01     0.0000000000000000E+00 
    0.0000000000000000E+00     8.7499999999950118E-01     0.0000000000000000E+00 
    0.0000000000000000E+00     8.1249999999991318E-01     0.0000000000000000E+00 
    0.0000000000000000E+00     7.5000000000034706E-01     0.0000000000000000E+00 
    0.0000000000000000E+00     6.8750000000078049E-01     0.0000000000000000E+00 
    0.0000000000000000E+00     6.2500000000121403E-01     0.0000000000000000E+00 
    0.0000000000000000E+00     5.6250000000164757E-01     0.0000000000000000E+00 
    0.0000000000000000E+00     5.0000000000205946E-01     0.0000000000000000E+00 
    0.0000000000000000E+00     4.3750000000182099E-01     0.0000000000000000E+00 
    0.0000000000000000E+00     3.7500000000156092E-01     0.0000000000000000E+00 
    0.0000000000000000E+00     3.1250000000130068E-01     0.0000000000000000E+00 
    0.0000000000000000E+00     2.5000000000104050E-01     0.0000000000000000E+00 
    0.0000000000000000E+00     1.8750000000078040E-01     0.0000000000000000E+00 
    0.0000000000000000E+00     1.2500000000052031E-01     0.0000000000000000E+00 
    0.0000000000000000E+00     6.2500000000260125E-02     0.0000000000000000E+00 
    6.2499999999897131E-02     6.2500000000235922E-02     0.0000000000000000E+00 
    6.2499999999921327E-02     1.2500000000047351E-01     0.0000000000000000E+00 
    6.2499999999945530E-02     1.8750000000070621E-01     0.0000000000000000E+00 
    6.2499999999969733E-02     2.5000000000093858E-01     0.0000000000000000E+00 
    6.2499999999993928E-02     3.1250000000117117E-01     0.0000000000000000E+00 
    6.2500000000018124E-02     3.7500000000140382E-01     0.0000000000000000E+00 
    6.2500000000042327E-02     4.3750000000163619E-01     0.0000000000000000E+00 
    6.2500000000066530E-02     5.0000000000184897E-01     0.0000000000000000E+00 
    6.2500000000090733E-02     5.6250000000147260E-01     0.0000000000000000E+00 
    6.2500000000114922E-02     6.2500000000107636E-01     0.0000000000000000E+00 
    6.2500000000139125E-02     6.8750000000068034E-01     0.0000000000000000E+00 
    6.2500000000163328E-02     7.5000000000028411E-01     0.0000000000000000E+00 
    6.2500000000187531E-02     8.1249999999988787E-01     0.0000000000000000E+00 
    6.2500000000211720E-02     8.7499999999951172E-01     0.0000000000000000E+00 
    6.2500000000235922E-02     9.3749999999974565E-01     0.0000000000000000E+00 
    1.2499999999981980E-01     6.2500000000211733E-02     0.0000000000000000E+00 
    1.2499999999986650E-01     1.2500000000042691E-01     0.0000000000000000E+00 
    1.2499999999991319E-01     1.8750000000063199E-01     0.0000000000000000E+00 
    1.2499999999995989E-01     2.5000000000083678E-01     0.0000000000000000E+00 
    1.2500000000000661E-01     3.1250000000104172E-01     0.0000000000000000E+00 
    1.2500000000005329E-01     3.7500000000124661E-01     0.0000000000000000E+00 
    1.2500000000010000E-01     4.3750000000145117E-01     0.0000000000000000E+00 
    1.2500000000014669E-01     5.0000000000163858E-01     0.0000000000000000E+00 
    1.2500000000019340E-01     5.6250000000129741E-01     0.0000000000000000E+00 
    1.2500000000024011E-01     6.2500000000093847E-01     0.0000000000000000E+00 
    1.2500000000028680E-01     6.8750000000057998E-01     0.0000000000000000E+00 
    1.2500000000033351E-01     7.5000000000022127E-01     0.0000000000000000E+00 
    1.2500000000038020E-01     8.1249999999986211E-01     0.0000000000000000E+00 
    1.2500000000042691E-01     8.7499999999952238E-01     0.0000000000000000E+00 
    1.2500000000047359E-01     9.3749999999975164E-01     0.0000000000000000E+00 
    1.8749999999966760E-01     6.2500000000187531E-02     0.0000000000000000E+00 
    1.8749999999974179E-01     1.2500000000038020E-01     0.0000000000000000E+00 
    1.8749999999981601E-01     1.8750000000055780E-01     0.0000000000000000E+00 
    1.8749999999989009E-01     2.5000000000073502E-01     0.0000000000000000E+00 
    1.8749999999996431E-01     3.1250000000091221E-01     0.0000000000000000E+00 
    1.8750000000003850E-01     3.7500000000108941E-01     0.0000000000000000E+00 
    1.8750000000011269E-01     4.3750000000126649E-01     0.0000000000000000E+00 
    1.8750000000018691E-01     5.0000000000142808E-01     0.0000000000000000E+00 
    1.8750000000026110E-01     5.6250000000112244E-01     0.0000000000000000E+00 
    1.8750000000033529E-01     6.2500000000080080E-01     0.0000000000000000E+00 
    1.8750000000040951E-01     6.8750000000047962E-01     0.0000000000000000E+00 
    1.8750000000048361E-01     7.5000000000015843E-01     0.0000000000000000E+00 
    1.8750000000055780E-01     8.1249999999983680E-01     0.0000000000000000E+00 
    1.8750000000063199E-01     8.7499999999953304E-01     0.0000000000000000E+00 
    1.8750000000070621E-01     9.3749999999975764E-01     0.0000000000000000E+00 
    2.4999999999951281E-01     6.2500000000163314E-02     0.0000000000000000E+00 
    2.4999999999961461E-01     1.2500000000033351E-01     0.0000000000000000E+00 
    2.4999999999971650E-01     1.8750000000048361E-01     0.0000000000000000E+00 
    2.4999999999981831E-01     2.5000000000063310E-01     0.0000000000000000E+00 
    2.4999999999992020E-01     3.1250000000078260E-01     0.0000000000000000E+00 
    2.5000000000002198E-01     3.7500000000093209E-01     0.0000000000000000E+00 
    2.5000000000012390E-01     4.3750000000108180E-01     0.0000000000000000E+00 
    2.5000000000022571E-01     5.0000000000121769E-01     0.0000000000000000E+00 
    2.5000000000032763E-01     5.6250000000094724E-01     0.0000000000000000E+00 
    2.5000000000042938E-01     6.2500000000066314E-01     0.0000000000000000E+00 
    2.5000000000053119E-01     6.8750000000037925E-01     0.0000000000000000E+00 
[...]
CELL_DATA 256 
SCALARS Pressure double 1 
LOOKUP_TABLE default 

    1.4184277773926313E+00 
    1.1827400424834353E+00 
    1.0474461523349377E+00 
    9.3842791191856822E-01 
    8.3810540465080341E-01 
    7.4050998663271850E-01 
    6.4314856444216895E-01 
    5.5425850516979236E-01 
    4.9580887384293676E-01 
    4.4809975493020171E-01 
    4.0021113464376012E-01 
    3.5480568087190822E-01 
    3.1495629487674420E-01 
    2.8386339024630258E-01 
    2.6416007743350040E-01 
    2.5624269720067894E-01 
    1.3457111048150083E+00 
    1.1863284746227993E+00 
    1.0559245230434871E+00 
    9.4718249842635549E-01 
    8.4689528046210505E-01 
    7.4934324938754571E-01 
    6.5179115658587006E-01 
    5.6166681285391229E-01 
    5.0146112625804518E-01 
    4.5301299653759003E-01 
    4.0469471660332762E-01 
    3.5862342183014523E-01 
    3.1778336866455231E-01 
    2.8544463148183630E-01 
    2.6451831950019811E-01 
    2.5588651824579245E-01 
    1.2883436726412765E+00 
    1.1785174296981864E+00 
    1.0602482306582899E+00 
    9.5403702903164422E-01 
    8.5451210284192225E-01 
    7.5727452138628981E-01 
    6.5970633057706296E-01 
    5.6911377087443771E-01 
    5.0754921385262020E-01 
    4.5812744592944499E-01 
    4.0908981284798135E-01 
    3.6210923735994938E-01 
    3.2001099843421327E-01 
    2.8615319513118570E-01 
    2.6384348231187049E-01 
    2.5460506573140895E-01 
    1.2423948476173283E+00 
    1.1649601038142707E+00 
    1.0607359576262396E+00 
    9.5889620782709095E-01 
    8.6090094528413352E-01 
    7.6429315430924361E-01 
    6.6682246130783718E-01 
    5.7659276737096776E-01 
    5.1405531796514325E-01 
    4.6347108333954229E-01 
    4.1346586283713782E-01 
    3.6534845681998124E-01 
    3.2172176316902851E-01 
    2.8602609592285894E-01 
    2.6207379019016602E-01 
    2.5222248887644871E-01 
    1.2050343196145517E+00 
    1.1489342022669247E+00 
    1.0581751021152932E+00 
    9.6183884117353635E-01 
    8.6605456529723590E-01 
    7.7040499589762523E-01 
    6.7312254476499900E-01 
    5.8412389812262833E-01 
    5.2096621229424478E-01 
    4.6905623416042302E-01 
    4.1788361445526623E-01 
    3.6842846634523374E-01 
    3.2300757400453139E-01 
    2.8510944929288284E-01 
    2.5914428328763878E-01 
    2.4855560667140067E-01 
    1.1742886430218833E+00 
    1.1323305752393187E+00 
    1.0534317098615977E+00 
    9.6307548919589470E-01 
    8.7001637987688252E-01 
    7.7563443402814092E-01 
    6.7866030097866425E-01 
    5.9174504358825264E-01 
    5.2826912848863838E-01 
    4.7488229049286496E-01 
    4.2239565719308547E-01 
    3.7143894699949820E-01 
    3.2397362340596059E-01 
    2.8346627952550613E-01 
    2.5499019576173421E-01 
    2.4340130616840977E-01 
    1.1487669339288593E+00 
    1.1162230511437905E+00 
    1.0472900865485393E+00 
    9.6289279248933013E-01 
    8.7287366988187698E-01 
    7.8001269389439631E-01 
    6.8361580379396891E-01 
    5.9949540040808669E-01 
    5.3593198755076754E-01 
    4.8093802453008833E-01 
    4.2704663568018381E-01 
    3.7447170899408849E-01 
    3.2474219522273556E-01 
    2.8118628420845593E-01 
    2.4955289526540042E-01 
    2.3652231265442464E-01 
    1.1274757493127112E+00 
    1.1012062759027841E+00 
    1.0404019180989372E+00 
    9.6160740595327443E-01 
    8.7474751056725952E-01 
    7.8354788837621436E-01 
    6.8834943240174917E-01 
    6.0740845551407630E-01 
    5.4387371511747662E-01 
    4.8720266183747940E-01 
    4.3187294981164942E-01 
    3.7761968295456771E-01 
    3.2545585087719647E-01 
    2.7839813321254725E-01 
    2.4279049266716704E-01 
    2.2762958922904475E-01 
    1.1096941312702622E+00 
    1.0875958234014553E+00 
    1.0332846707228622E+00 
    9.5953393936404474E-01 
    8.7578547171732868E-01 
    7.8620499573261282E-01 
    6.9336724623418111E-01 
    6.1553453380506118E-01 
    5.5195051749503432E-01 
    4.9364499841912812E-01 
    4.3690182225604918E-01 
    3.8097462637060170E-01 
    3.2627912312783069E-01 
    2.7528464083588322E-01 
    2.3469649654686345E-01 
    2.1635906550925885E-01 
    1.0948873746554844E+00 
    1.0755455229412192E+00 
    1.0263390425484935E+00 
    9.5696418784227955E-01 
    8.7615031128462439E-01 
    7.8806305635157270E-01 
    6.9912726632562394E-01 
    6.2396519996791089E-01 
    5.6000456773540186E-01 
    5.0022436973337714E-01 
    4.4215000729109077E-01 
    3.8462317848262656E-01 
    3.2739734915118096E-01 
    2.7210051138446950E-01 
    2.2533205643023099E-01 
    2.0223942082578453E-01 
    1.0826441387222354E+00 
    1.0651132503968366E+00 
    1.0198701153649554E+00 
    9.5415492121481693E-01 
    8.7596154989859265E-01 
    7.8984779876640254E-01 
    7.0580907274097293E-01 
    6.3270613729805403E-01 
    5.6794184568684192E-01 
    5.0689671277835879E-01 
    4.4762270117857411E-01 
    3.8864109641327615E-01 
    3.2901068672373296E-01 
    2.6919089676493457E-01 
    2.1488099787995116E-01 
    1.8464605141206836E-01 
    1.0726230366529941E+00 
    1.0562895829540477E+00 
    1.0141015098648429E+00 
    9.5132485266667199E-01 
    8.7518078157057144E-01 
    7.9282618991979570E-01 
    7.1332129148675583E-01 
    6.4146620238705920E-01 
    5.7572947905129068E-01 
    5.1362004957698748E-01 
    4.5331280425684539E-01 
    3.9308586084142161E-01 
    3.3132082601540297E-01 
    2.6700591989927114E-01 
    2.0374299606902313E-01 
    1.6273378971964012E-01 
    1.0644874105378808E+00 
    1.0489834895666230E+00 
    1.0091693333431897E+00 
    9.4852880052569732E-01 
    8.7540953094622342E-01 
    7.9782808782303616E-01 
    7.2138100634169222E-01 
    6.4990375159446290E-01 
    5.8334197602181537E-01 
    5.2035429014449819E-01 
    4.5920038782753220E-01 
    3.9798846012156824E-01 
    3.3450785915372772E-01 
    2.6610012612017281E-01 
    1.9269054400641528E-01 
    1.3533685083929328E-01 
    1.0578448858860419E+00 
    1.0429529385499450E+00 
    1.0049331795029590E+00 
    9.4746910098035397E-01 
    8.7844517287180957E-01 
    8.0430822376413069E-01 
    7.2946359291033902E-01 
    6.5793335364221162E-01 
    5.9074846877022047E-01 
    5.2705910644395704E-01 
    4.6525271221603015E-01 
    4.0334615213006236E-01 
    3.3869622593123855E-01 
    2.6709380253536641E-01 
    1.8313269025881732E-01 
    1.0081792816199314E-01 
    1.0546614341639950E+00 
    1.0402050530014713E+00 
    1.0042514440937811E+00 
    9.4990987828890083E-01 
    8.8369741549341330E-01 
    8.1132769419547446E-01 
    7.3722521229212967E-01 
    6.6559158762654258E-01 
    5.9792284482389402E-01 
    5.3369341497994172E-01 
    4.7142547570274024E-01 
    4.0911913470916283E-01 
    3.4391386784278488E-01 
    2.7055029242126966E-01 
    1.7755766104215523E-01 
    5.6837826160533914E-02 
    1.0539991550360375E+00 
    1.0406597711747436E+00 
    1.0067177025857277E+00 
    9.5451012506947308E-01 
    8.8994433788066074E-01 
    8.1843890064164815E-01 
    7.4469763558559676E-01 
    6.7291024384300613E-01 
    6.0484430307703274E-01 
    5.4021572673811036E-01 
    4.7766550094593091E-01 
    4.1523434072766741E-01 
    3.5006239761901059E-01 
    2.7668085095005018E-01 
    1.8027560100456128E-01 
    0.0000000000000000E+00 

SCALARS Saturarion double 1 
LOOKUP_TABLE default 

    1.0000000000000000E+00 
    9.6699218206713600E-01 
    9.2518154314933410E-01 
    8.7893674350966755E-01 
    8.2956120860582672E-01 
    7.7352898851457730E-01 
    6.9577594980729784E-01 
    4.8611639101638776E-01 
    5.7745954549855726E-02 
    3.9492970579392925E-05 
    1.5109284551707538E-13 
    3.7307026706406226E-35 
    6.9540262576361346E-89 
   8.0120744002504522E-220 
    0.0000000000000000E+00 
    0.0000000000000000E+00 
    9.8904777536009691E-01 
    9.6212456663174661E-01 
    9.2356169828198742E-01 
    8.7895522652651004E-01 
    8.3050320336981132E-01 
    7.7543536566324323E-01 
    7.0049076677068522E-01 
    5.0798199611737016E-01 
    7.1867642592719091E-02 
    7.1033834470181671E-05 
    6.2403319281843574E-13 
    9.8913308066437149E-34 
    1.0753360942639087E-85 
   7.5843935017868953E-213 
    0.0000000000000000E+00 
    0.0000000000000000E+00 
    9.8021657932665240E-01 
    9.5516488303859670E-01 
    9.1937752308827192E-01 
    8.7689801635291742E-01 
    8.2980686086645161E-01 
    7.7579065592631813E-01 
    7.0220343049805423E-01 
    5.1235076044816141E-01 
    7.4768696904472270E-02 
    7.6610884453823345E-05 
    6.6043569842367608E-13 
    7.8655305053386954E-34 
    2.4631164898496453E-86 
   2.0562718872365859E-215 
    0.0000000000000000E+00 
    0.0000000000000000E+00 
    9.7011950790128487E-01 
    9.4668975895071972E-01 
    9.1324885053130600E-01 
    8.7296651516837542E-01 
    8.2745984613548051E-01 
    7.7452188205240058E-01 
    7.0139266274081491E-01 
    5.0580362201327655E-01 
    6.9243095030447829E-02 
    5.7785633556758695E-05 
    2.5313519475120986E-13 
    3.9632064930031704E-35 
    3.8897349362809932E-90 
   3.2561854152402915E-226 
    0.0000000000000000E+00 
    0.0000000000000000E+00 
    9.5844313666645864E-01 
    9.3675461782324920E-01 
    9.0548861856969887E-01 
    8.6736917624371301E-01 
    8.2354003684776544E-01 
    7.7164353681484577E-01 
    6.9805074263686351E-01 
    4.8652344836701261E-01 
    5.6000807513601127E-02 
    2.8728481679072232E-05 
    2.9178295810962351E-14 
    7.4884502772981439E-38 
    9.2192645953455547E-98 
   4.1292007181345386E-247 
    0.0000000000000000E+00 
    0.0000000000000000E+00 
    9.4502978085362277E-01 
    9.2532423154412002E-01 
    8.9621876247161691E-01 
    8.6023308218987382E-01 
    8.1810387926356543E-01 
    7.6713847782835920E-01 
    6.9176585769463284E-01 
    4.5093036199789477E-01 
    3.8086225810245608E-02 
    8.3638846949900344E-06 
    6.9526871843458786E-16 
    1.7355408396020428E-42 
   1.2034525125984294E-110 
   4.5405532520270522E-282 
    0.0000000000000000E+00 
    0.0000000000000000E+00 
    9.2974817563694401E-01 
    9.1231370854407301E-01 
    8.8545072452280682E-01 
    8.5160338840774419E-01 
    8.1115895298221430E-01 
    7.6092591158863387E-01 
    6.8147363250361115E-01 
    3.9524152181686734E-01 
    2.0100649454642419E-02 
    1.1098227523994564E-06 
    1.6409858756658625E-18 
    5.1473280570489596E-50 
   1.2821351141085338E-131 
    0.0000000000000000E+00 
    0.0000000000000000E+00 
    0.0000000000000000E+00 
    9.1242650695828664E-01 
    8.9757453909643414E-01 
    8.7310329181572555E-01 
    8.4143869426689766E-01 
    8.0263917249501060E-01 
    7.5281158275706239E-01 
    6.6466649996255045E-01 
    3.1508375117913967E-01 
    7.1380727398206653E-03 
    4.2527516151982632E-08 
    8.2605829973480453E-23 
    1.8755960859416758E-62 
   1.7919681736088615E-166 
    0.0000000000000000E+00 
    0.0000000000000000E+00 
    0.0000000000000000E+00 
    8.9277062761458070E-01 
    8.8084602522831656E-01 
    8.5897678130097743E-01 
    8.2958235407933678E-01 
    7.9236058251968144E-01 
    7.4233744503641108E-01 
    6.3466588830349202E-01 
    2.0816816223787149E-01 
    1.2390226574763553E-03 
    1.6296902290683030E-10 
    2.9612120455080691E-30 
    3.8551109340548647E-84 
   1.0258286824313220E-229 
    0.0000000000000000E+00 
    0.0000000000000000E+00 
    0.0000000000000000E+00 
    8.7021364870442341E-01 
    8.6164383632099484E-01 
    8.4266507328365414E-01 
    8.1567992209810258E-01 
    7.7992211520277022E-01 
    7.2832224702121573E-01 
    5.6881228925117844E-01 
    9.1673032997694859E-02 
    5.3205839095053832E-05 
    4.0752318467547282E-15 
    1.9520612646221586E-44 
   2.4035867815811101E-128 
    0.0000000000000000E+00 
    0.0000000000000000E+00 
    0.0000000000000000E+00 
    0.0000000000000000E+00 
    8.4354874514769007E-01 
    8.3897458621273935E-01 
    8.2331307324689540E-01 
    7.9895430741205142E-01 
    7.6447152194177259E-01 
    7.0773558191553532E-01 
    4.1489695242131186E-01 
    1.5303612915358334E-02 
    6.3030224089363916E-08 
    2.7535660960627844E-25 
    2.1653982701783525E-78 
   1.1489712827838053E-236 
    0.0000000000000000E+00 
    0.0000000000000000E+00 
    0.0000000000000000E+00 
    0.0000000000000000E+00 
    8.0977372117852664E-01 
    8.1044134081032793E-01 
    7.9885835619785028E-01 
    7.7751574288390890E-01 
    7.4385231717406997E-01 
    6.6886553462963694E-01 
    1.6270042975385302E-01 
    1.1990244225183049E-04 
    1.2137627349353493E-16 
    1.0209810130806821E-56 
   1.7783480015201323E-191 
    0.0000000000000000E+00 
    0.0000000000000000E+00 
    0.0000000000000000E+00 
    0.0000000000000000E+00 
    0.0000000000000000E+00 
    7.5930733867111067E-01 
    7.6859770803692917E-01 
    7.6303674716735648E-01 
    7.4569766014857342E-01 
    7.0909843329393696E-01 
    3.6223150244085450E-01 
    1.7391396616974778E-03 
    3.5249595415178711E-14 
    7.1439988440767491E-53 
   9.3102278821202521E-185 
    0.0000000000000000E+00 
    0.0000000000000000E+00 
    0.0000000000000000E+00 
    0.0000000000000000E+00 
    0.0000000000000000E+00 
    0.0000000000000000E+00 
    6.3955710718624370E-01 
    6.7717787245280769E-01 
    6.8664500504340242E-01 
    6.6739007362227809E-01 
    3.4329638603691348E-01 
    1.1967046396335411E-03 
    8.8107344251171556E-15 
    7.1994729501939635E-55 
   1.8054783893303731E-189 
    0.0000000000000000E+00 
    0.0000000000000000E+00 
    0.0000000000000000E+00 
    0.0000000000000000E+00 
    0.0000000000000000E+00 
    0.0000000000000000E+00 
    0.0000000000000000E+00 
    1.9245054018539720E-01 
    3.6034397989056521E-01 
    3.1256689695223427E-01 
    1.0843248020597264E-01 
    2.8268612558105937E-04 
    8.9850842605521108E-16 
    2.2627238090781332E-57 
   1.8290547073387541E-194 
    0.0000000000000000E+00 
    0.0000000000000000E+00 
    0.0000000000000000E+00 
    0.0000000000000000E+00 
    0.0000000000000000E+00 
    0.0000000000000000E+00 
    0.0000000000000000E+00 
    0.0000000000000000E+00 
    9.1185838040266465E-04 
    9.6104314573630945E-03 
    3.2187999707890816E-03 
    9.2793593923828959E-06 
    4.1127569071830970E-17 
    6.9783849287401861E-59 
   7.0173266732725514E-198 
    0.0000000000000000E+00 
    0.0000000000000000E+00 
    0.0000000000000000E+00 
    0.0000000000000000E+00 
    0.0000000000000000E+00 
    0.0000000000000000E+00 
    0.0000000000000000E+00 
    0.0000000000000000E+00 
    0.0000000000000000E+00 
