# vtk DataFile Version 2.0
Pressure Field Data 
ASCII 
DATASET UNSTRUCTURED_GRID 

POINTS 289 double 

    0.0000000000000000E+00     0.0000000000000000E+00     0.0000000000000000E+00 
    1.0000000000000000E+00     0.0000000000000000E+00     0.0000000000000000E+00 
    1.0000000000000000E+00     1.0000000000000000E+00     0.0000000000000000E+00 
    0.0000000000000000E+00     1.0000000000000000E+00     0.0000000000000000E+00 
    6.2499999999872928E-02     0.0000000000000000E+00     0.0000000000000000E+00 
    1.2499999999977310E-01     0.0000000000000000E+00     0.0000000000000000E+00 
    1.8749999999959341E-01     0.0000000000000000E+00     0.0000000000000000E+00 
    2.4999999999941089E-01     0.0000000000000000E+00     0.0000000000000000E+00 
    3.1249999999922851E-01     0.0000000000000000E+00     0.0000000000000000E+00 
    3.7499999999904610E-01     0.0000000000000000E+00     0.0000000000000000E+00 
    4.3749999999886358E-01     0.0000000000000000E+00     0.0000000000000000E+00 
    4.9999999999869210E-01     0.0000000000000000E+00     0.0000000000000000E+00 
    5.6249999999884603E-01     0.0000000000000000E+00     0.0000000000000000E+00 
    6.2499999999901090E-01     0.0000000000000000E+00     0.0000000000000000E+00 
    6.8749999999917577E-01     0.0000000000000000E+00     0.0000000000000000E+00 
    7.4999999999934064E-01     0.0000000000000000E+00     0.0000000000000000E+00 
    8.1249999999950551E-01     0.0000000000000000E+00     0.0000000000000000E+00 
    8.7499999999967026E-01     0.0000000000000000E+00     0.0000000000000000E+00 
    9.3749999999983513E-01     0.0000000000000000E+00     0.0000000000000000E+00 
    1.0000000000000000E+00     6.2499999999872928E-02     0.0000000000000000E+00 
    1.0000000000000000E+00     1.2499999999977310E-01     0.0000000000000000E+00 
    1.0000000000000000E+00     1.8749999999959341E-01     0.0000000000000000E+00 
    1.0000000000000000E+00     2.4999999999941089E-01     0.0000000000000000E+00 
    1.0000000000000000E+00     3.1249999999922851E-01     0.0000000000000000E+00 
    1.0000000000000000E+00     3.7499999999904610E-01     0.0000000000000000E+00 
    1.0000000000000000E+00     4.3749999999886358E-01     0.0000000000000000E+00 
    1.0000000000000000E+00     4.9999999999869210E-01     0.0000000000000000E+00 
    1.0000000000000000E+00     5.6249999999884603E-01     0.0000000000000000E+00 
    1.0000000000000000E+00     6.2499999999901090E-01     0.0000000000000000E+00 
    1.0000000000000000E+00     6.8749999999917577E-01     0.0000000000000000E+00 
    1.0000000000000000E+00     7.4999999999934064E-01     0.0000000000000000E+00 
    1.0000000000000000E+00     8.1249999999950551E-01     0.0000000000000000E+00 
    1.0000000000000000E+00     8.7499999999967026E-01     0.0000000000000000E+00 
    1.0000000000000000E+00     9.3749999999983513E-01     0.0000000000000000E+00 
    9.3749999999973976E-01     1.0000000000000000E+00     0.0000000000000000E+00 
    8.7499999999950118E-01     1.0000000000000000E+00     0.0000000000000000E+00 
    8.1249999999991318E-01     1.0000000000000000E+00     0.0000000000000000E+00 
    7.5000000000034706E-01     1.0000000000000000E+00     0.0000000000000000E+00 
    6.8750000000078049E-01     1.0000000000000000E+00     0.0000000000000000E+00 
    6.2500000000121403E-01     1.0000000000000000E+00     0.0000000000000000E+00 
    5.6250000000164757E-01     1.0000000000000000E+00     0.0000000000000000E+00 
    5.0000000000205946E-01     1.0000000000000000E+00     0.0000000000000000E+00 
    4.3750000000182099E-01     1.0000000000000000E+00     0.0000000000000000E+00 
    3.7500000000156092E-01     1.0000000000000000E+00     0.0000000000000000E+00 
    3.1250000000130068E-01     1.0000000000000000E+00     0.0000000000000000E+00 
    2.5000000000104050E-01     1.0000000000000000E+00     0.0000000000000000E+00 
    1.8750000000078040E-01     1.0000000000000000E+00     0.0000000000000000E+00 
    1.2500000000052031E-01     1.0000000000000000E+00     0.0000000000000000E+00 
    6.2500000000260125E-02     1.0000000000000000E+00     0.0000000000000000E+00 
    0.0000000000000000E+00     9.3749999999973976E-01     0.0000000000000000E+00 
    0.0000000000000000E+00     8.7499999999950118E-01     0.0000000000000000E+00 
    0.0000000000000000E+00     8.1249999999991318E-01     0.0000000000000000E+00 
    0.0000000000000000E+00     7.5000000000034706E-01     0.0000000000000000E+00 
    0.0000000000000000E+00     6.8750000000078049E-01     0.0000000000000000E+00 
    0.0000000000000000E+00     6.2500000000121403E-01     0.0000000000000000E+00 
    0.0000000000000000E+00     5.6250000000164757E-01     0.0000000000000000E+00 
    0.0000000000000000E+00     5.0000000000205946E-01     0.0000000000000000E+00 
    0.0000000000000000E+00     4.3750000000182099E-01     0.0000000000000000E+00 
    0.0000000000000000E+00     3.7500000000156092E-01     0.0000000000000000E+00 
    0.0000000000000000E+00     3.1250000000130068E-01     0.0000000000000000E+00 
    0.0000000000000000E+00     2.5000000000104050E-01     0.0000000000000000E+00 
    0.0000000000000000E+00     1.8750000000078040E-01     0.0000000000000000E+00 
    0.0000000000000000E+00     1.2500000000052031E-01     0.0000000000000000E+00 
    0.0000000000000000E+00     6.2500000000260125E-02     0.0000000000000000E+00 
    6.2499999999897131E-02     6.2500000000235922E-02     0.0000000000000000E+00 
    6.2499999999921327E-02     1.2500000000047351E-01     0.0000000000000000E+00 
    6.2499999999945530E-02     1.8750000000070621E-01     0.0000000000000000E+00 
    6.2499999999969733E-02     2.5000000000093858E-01     0.0000000000000000E+00 
    6.2499999999993928E-02     3.1250000000117117E-01     0.0000000000000000E+00 
    6.2500000000018124E-02     3.7500000000140382E-01     0.0000000000000000E+00 
    6.2500000000042327E-02     4.3750000000163619E-01     0.0000000000000000E+00 
    6.2500000000066530E-02     5.0000000000184897E-01     0.0000000000000000E+00 
    6.2500000000090733E-02     5.6250000000147260E-01     0.0000000000000000E+00 
    6.2500000000114922E-02     6.2500000000107636E-01     0.0000000000000000E+00 
    6.2500000000139125E-02     6.8750000000068034E-01     0.0000000000000000E+00 
    6.2500000000163328E-02     7.5000000000028411E-01     0.0000000000000000E+00 
    6.2500000000187531E-02     8.1249999999988787E-01     0.0000000000000000E+00 
    6.2500000000211720E-02     8.7499999999951172E-01     0.0000000000000000E+00 
    6.2500000000235922E-02     9.3749999999974565E-01     0.0000000000000000E+00 
    1.2499999999981980E-01     6.2500000000211733E-02     0.0000000000000000E+00 
    1.2499999999986650E-01     1.2500000000042691E-01     0.0000000000000000E+00 
    1.2499999999991319E-01     1.8750000000063199E-01     0.0000000000000000E+00 
    1.2499999999995989E-01     2.5000000000083678E-01     0.0000000000000000E+00 
    1.2500000000000661E-01     3.1250000000104172E-01     0.0000000000000000E+00 
    1.2500000000005329E-01     3.7500000000124661E-01     0.0000000000000000E+00 
    1.2500000000010000E-01     4.3750000000145117E-01     0.0000000000000000E+00 
    1.2500000000014669E-01     5.0000000000163858E-01     0.0000000000000000E+00 
    1.2500000000019340E-01     5.6250000000129741E-01     0.0000000000000000E+00 
    1.2500000000024011E-01     6.2500000000093847E-01     0.0000000000000000E+00 
    1.2500000000028680E-01     6.8750000000057998E-01     0.0000000000000000E+00 
    1.2500000000033351E-01     7.5000000000022127E-01     0.0000000000000000E+00 
    1.2500000000038020E-01     8.1249999999986211E-01     0.0000000000000000E+00 
    1.2500000000042691E-01     8.7499999999952238E-01     0.0000000000000000E+00 
    1.2500000000047359E-01     9.3749999999975164E-01     0.0000000000000000E+00 
    1.8749999999966760E-01     6.2500000000187531E-02     0.0000000000000000E+00 
    1.8749999999974179E-01     1.2500000000038020E-01     0.0000000000000000E+00 
    1.8749999999981601E-01     1.8750000000055780E-01     0.0000000000000000E+00 
    1.8749999999989009E-01     2.5000000000073502E-01     0.0000000000000000E+00 
    1.8749999999996431E-01     3.1250000000091221E-01     0.0000000000000000E+00 
    1.8750000000003850E-01     3.7500000000108941E-01     0.0000000000000000E+00 
    1.8750000000011269E-01     4.3750000000126649E-01     0.0000000000000000E+00 
    1.8750000000018691E-01     5.0000000000142808E-01     0.0000000000000000E+00 
    1.8750000000026110E-01     5.6250000000112244E-01     0.0000000000000000E+00 
    1.8750000000033529E-01     6.2500000000080080E-01     0.0000000000000000E+00 
    1.8750000000040951E-01     6.8750000000047962E-01     0.0000000000000000E+00 
    1.8750000000048361E-01     7.5000000000015843E-01     0.0000000000000000E+00 
    1.8750000000055780E-01     8.1249999999983680E-01     0.0000000000000000E+00 
    1.8750000000063199E-01     8.7499999999953304E-01     0.0000000000000000E+00 
    1.8750000000070621E-01     9.3749999999975764E-01     0.0000000000000000E+00 
    2.4999999999951281E-01     6.2500000000163314E-02     0.0000000000000000E+00 
    2.4999999999961461E-01     1.2500000000033351E-01     0.0000000000000000E+00 
    2.4999999999971650E-01     1.8750000000048361E-01     0.0000000000000000E+00 
    2.4999999999981831E-01     2.5000000000063310E-01     0.0000000000000000E+00 
    2.4999999999992020E-01     3.1250000000078260E-01     0.0000000000000000E+00 
    2.5000000000002198E-01     3.7500000000093209E-01     0.0000000000000000E+00 
    2.5000000000012390E-01     4.3750000000108180E-01     0.0000000000000000E+00 
    2.5000000000022571E-01     5.0000000000121769E-01     0.0000000000000000E+00 
    2.5000000000032763E-01     5.6250000000094724E-01     0.0000000000000000E+00 
    2.5000000000042938E-01     6.2500000000066314E-01     0.0000000000000000E+00 
    2.5000000000053119E-01     6.8750000000037925E-01     0.0000000000000000E+00 
[...]
CELL_DATA 256 
SCALARS Pressure double 1 
LOOKUP_TABLE default 

    1.5059923006949094E+00 
    1.2710286951207908E+00 
    1.1362529762873030E+00 
    1.0273362893188014E+00 
    9.2689874654685411E-01 
    8.2939167525410851E-01 
    7.3275166790323143E-01 
    6.3611052421312075E-01 
    5.3889024882115821E-01 
    4.4888802441192915E-01 
    3.9216236561346940E-01 
    3.4990189236389657E-01 
    3.1194872854299138E-01 
    2.8175898539973876E-01 
    2.6246197119442122E-01 
    2.5467939487391100E-01 
    1.4340390627885056E+00 
    1.2749630218869694E+00 
    1.1450008405235852E+00 
    1.0363456808239468E+00 
    9.3591986892691459E-01 
    8.3843483412480146E-01 
    7.4181298351890224E-01 
    6.4515502934107993E-01 
    5.4768940356623863E-01 
    4.5603284349304796E-01 
    3.9710289164227142E-01 
    3.5367428717045479E-01 
    3.1472893717389311E-01 
    2.8331974233505930E-01 
    2.6281761348525162E-01 
    2.5432946453719357E-01 
    1.3778116336838482E+00 
    1.2679021834377000E+00 
    1.1499067748274301E+00 
    1.0437185062581216E+00 
    9.4400009778270888E-01 
    8.4679220792604593E-01 
    7.5027548917172593E-01 
    6.5360035107613612E-01 
    5.5593199479936262E-01 
    4.6304034194920601E-01 
    4.0218695085106426E-01 
    3.5733080843245763E-01 
    3.1701205247490916E-01 
    2.8405769560696809E-01 
    2.6216723641591644E-01 
    2.5307053248075922E-01 
    1.3332634491001698E+00 
    1.2554273193509258E+00 
    1.1512834872861697E+00 
    1.0493650914503987E+00 
    9.5108826002424018E-01 
    8.5444764346755031E-01 
    7.5814492642759101E-01 
    6.6146852431360936E-01 
    5.6358371417564956E-01 
    4.6994206143131628E-01 
    4.0745095136375004E-01 
    3.6094870209035246E-01 
    3.1888768219809777E-01 
    2.8401546378217363E-01 
    2.6045226508915614E-01 
    2.5072956062082946E-01 
    1.2975191115454581E+00 
    1.2407678879000354E+00 
    1.1499026785052850E+00 
    1.0533658009592590E+00 
    9.5718179860300279E-01 
    8.6140175674101738E-01 
    7.6543302213383790E-01 
    6.6878194677108060E-01 
    5.7063481896103174E-01 
    4.7679033109629831E-01 
    4.1294494213350480E-01 
    3.6460513033677433E-01 
    3.2044895468392309E-01 
    2.8324205067333325E-01 
    2.5760972485947276E-01 
    2.4712527715599966E-01 
    1.2685688497149208E+00 
    1.2257748898395517E+00 
    1.1466113739743327E+00 
    1.0559302302871647E+00 
    9.6233072056924829E-01 
    8.6767534519697964E-01 
    7.7215942514017311E-01 
    6.7556743677630582E-01 
    5.7708493902185132E-01 
    4.8366335282195244E-01 
    4.1873371980251167E-01 
    3.6837716952282068E-01 
    3.2179749432462418E-01 
    2.8180051579566345E-01 
    2.5357535619826010E-01 
    2.4205542504391467E-01 
    1.2449893684132034E+00 
    1.2114873375935087E+00 
    1.1421739817770997E+00 
    1.0573430536040003E+00 
    9.6663226156737647E-01 
    8.7331055514150047E-01 
    7.7835227280265717E-01 
    6.8185764311148445E-01 
    5.8295619806527710E-01 
    4.9066016784140837E-01 
    4.2488859723403666E-01 
    3.7233887828813800E-01 
    3.2304768286809515E-01 
    2.7977775200822336E-01 
    2.4828939337540060E-01 
    2.3528240483747354E-01 
    1.2257572130716581E+00 
    1.1984686313628650E+00 
    1.1372225871624706E+00 
    1.0579192513727460E+00 
    9.7022052489067279E-01 
    8.7836993534006103E-01 
    7.8404751385323324E-01 
    6.8768745759529903E-01 
    5.8832767037477185E-01 
    4.9788458034413163E-01 
    4.3147385828140195E-01 
    3.7655919731695126E-01 
    3.2433003602574983E-01 
    2.7729687072358550E-01 
    2.4170710338872545E-01 
    2.2651558305811820E-01 
    1.2101236010099967E+00 
    1.1870063078105129E+00 
    1.1322561201593004E+00 
    1.0579737189140797E+00 
    9.7325491223513982E-01 
    8.8293401840009300E-01 
    7.8928770979260221E-01 
    6.9307898865423745E-01 
    5.9340352951764719E-01 
    5.0542304491245560E-01 
    4.3852067952479901E-01 
    3.8109988496726382E-01 
    3.2579310362717634E-01 
    2.7453251791840866E-01 
    2.3381744861042397E-01 
    2.1538797257217662E-01 
    1.1975291270608228E+00 
    1.1772302256612672E+00 
    1.1276587372566806E+00 
    1.0578036623085225E+00 
    9.7590971379861169E-01 
    8.8709805083637605E-01 
    7.9412229787674482E-01 
    6.9801247073532424E-01 
    5.9856631842174690E-01 
    5.1333592851265719E-01 
    4.4599086424054607E-01 
    3.8601146990088148E-01 
    3.2760256785578279E-01 
    2.7172882469715720E-01 
    2.2467541073859110E-01 
    2.0142401236388882E-01 
    1.1875439422486405E+00 
    1.1691816712910807E+00 
    1.1237231164732988E+00 
    1.0576802823716849E+00 
    9.7836591444234000E-01 
    8.9096793553366349E-01 
    7.9861021332888049E-01 
    7.0242166452826638E-01 
    6.0434026393246831E-01 
    5.2167475718034306E-01 
    4.5375799412530815E-01 
    3.9132670166572697E-01 
    3.2993557116111016E-01 
    2.6921823550946861E-01 
    2.1445717707268358E-01 
    1.8399357487739387E-01 
    1.1798232100936445E+00 
    1.1628520013339856E+00 
    1.1206718134509717E+00 
    1.0578459555199387E+00 
    9.8080524063551366E-01 
    8.9465498533070342E-01 
    8.0280982892593744E-01 
    7.0640156232221429E-01 
    6.1117863714623921E-01 
    5.3049793432267123E-01 
    4.6165317802024136E-01 
    3.9705373250118414E-01 
    3.3296793032786276E-01 
    2.6743638036386891E-01 
    2.0355353793880754E-01 
    1.6224476490727188E-01 
    1.1740686910848568E+00 
    1.1581994133534161E+00 
    1.1186719956227615E+00 
    1.0585123616466283E+00 
    9.8340454748909012E-01 
    8.9827088713175407E-01 
    8.0670335715967290E-01 
    7.1077295437176968E-01 
    6.1918987506063161E-01 
    5.3972098575710814E-01 
    4.6955209159331074E-01 
    4.0317333312607839E-01 
    3.3685200875927929E-01 
    2.6692197725772021E-01 
    1.9272715880351080E-01 
    1.3500397786712934E-01 
    1.1699793053071341E+00 
    1.1551369812234336E+00 
    1.1178317281021977E+00 
    1.0598478419851804E+00 
    9.8632144920797660E-01 
    9.0188691407075872E-01 
    8.1054212701874384E-01 
    7.1686051602262157E-01 
    6.2811625755677936E-01 
    5.4894024860519974E-01 
    4.7738300612368451E-01 
    4.0963787597597695E-01 
    3.4168404909629341E-01 
    2.6827869999600251E-01 
    1.8337671372331754E-01 
    1.0062512840141284E-01 
    1.1672329922990190E+00 
    1.1535088705373961E+00 
    1.1181680409499266E+00 
    1.0619204344930571E+00 
    9.8955637385196171E-01 
    9.0627465404600616E-01 
    8.1631103497254753E-01 
    7.2485555825045211E-01 
    6.3742468560211407E-01 
    5.5775183270135098E-01 
    4.8507487001832827E-01 
    4.1636880481928001E-01 
    3.4746446078053056E-01 
    2.7205306644786043E-01 
    1.7798001089759680E-01 
    5.6759420064600746E-02 
    1.1666007675740167E+00 
    1.1540893293933872E+00 
    1.1205900602565999E+00 
    1.0660381571480322E+00 
    9.9494057211668929E-01 
    9.1303319731958599E-01 
    8.2433085619985957E-01 
    7.3370410481592196E-01 
    6.4643145411613478E-01 
    5.6602679979891779E-01 
    4.9254294883085836E-01 
    4.2325833384466782E-01 
    3.5406854584158531E-01 
    2.7843979091661353E-01 
    1.8083737256623475E-01 
    0.0000000000000000E+00 

SCALARS Saturarion double 1 
LOOKUP_TABLE default 

    1.0000000000000000E+00 
    9.7554310314280113E-01 
    9.4420729560378003E-01 
    9.1000186799906035E-01 
    8.7502882451099462E-01 
    8.3921398543619674E-01 
    8.0105858893896398E-01 
    7.5588566811694669E-01 
    6.8563342119605886E-01 
    4.7825575623645555E-01 
    5.8508421592128712E-02 
    5.0245913693611294E-05 
    4.0649319499904403E-13 
    1.3100412643194510E-34 
    7.1235070667987300E-92 
   9.9047321205779463E-246 
    9.9199676386794278E-01 
    9.7187412238243887E-01 
    9.4290690307976366E-01 
    9.0987514349489418E-01 
    8.7549840322825878E-01 
    8.4009229666629404E-01 
    8.0239848262928992E-01 
    7.5819944965173292E-01 
    6.9165790762304324E-01 
    5.0576876689863581E-01 
    7.8058515331607195E-02 
    1.1238509160687229E-04 
    3.1246995983094318E-12 
    2.2749708520136624E-32 
    2.8067855284192210E-86 
   1.0554196746400592E-231 
    9.8544377367332003E-01 
    9.6657939644307833E-01 
    9.3958991300634709E-01 
    9.0808340292017131E-01 
    8.7467134226453902E-01 
    8.3993941875685885E-01 
    8.0284411515539389E-01 
    7.5945072543901859E-01 
    6.9484236099561558E-01 
    5.1749395332186876E-01 
    8.8205047136301534E-02 
    1.5857058955442258E-04 
    7.1464228890006941E-12 
    1.5261494884789204E-31 
    1.7471810181770201E-84 
   4.0333376267994057E-228 
    9.7783757077150879E-01 
    9.6005355297090367E-01 
    9.3471197998736077E-01 
    9.0478708052738566E-01 
    8.7255551378901897E-01 
    8.3869384315308548E-01 
    8.0230789908223965E-01 
    7.5962531159963420E-01 
    6.9608954111467058E-01 
    5.2212470646923270E-01 
    9.2461024699796862E-02 
    1.7871604885138384E-04 
    8.7480434805237420E-12 
    1.6825348890335272E-31 
    5.8337251864142844E-85 
   2.8488027543640887E-231 
    9.6889582725495860E-01 
    9.5229857857122546E-01 
    9.2848516560961392E-01 
    9.0013517531815979E-01 
    8.6921191140165255E-01 
    8.3636677892340194E-01 
    8.0078058706633237E-01 
    7.5873293551641530E-01 
    6.9554234287624173E-01 
    5.1891811747819094E-01 
    8.9033367883479611E-02 
    1.5555395291922165E-04 
    5.2120271305886547E-12 
    2.3311210597339175E-32 
    4.6970695653152693E-88 
   3.2636729358199111E-242 
    9.5844404634085034E-01 
    9.4324485393182156E-01 
    9.2097070604922171E-01 
    8.9420615870822617E-01 
    8.6468073202820273E-01 
    8.3296647415964831E-01 
    7.9825112794025466E-01 
    7.5674245690223751E-01 
    6.9304079781504002E-01 
    5.0637507807306115E-01 
    7.7689749310136558E-02 
    1.0023931678285632E-04 
    1.3110533227372097E-12 
    2.6580886738997192E-34 
    2.1544743591930061E-94 
   7.0446410736598525E-263 
    9.4632655702364177E-01 
    9.3278377165220006E-01 
    9.1214307245544268E-01 
    8.8701255559001124E-01 
    8.5896718714545439E-01 
    8.2848175673028990E-01 
    7.9469024453430193E-01 
    7.5357946352354277E-01 
    6.8821264794639658E-01 
    4.8190477759332290E-01 
    5.9962436284506281E-02 
    4.4869153283887285E-05 
    1.1115892889366558E-13 
    1.1726256208011451E-37 
   3.8072485786671089E-105 
   1.6987010186683641E-297 
    9.3236430649752622E-01 
    9.2076114718059909E-01 
    9.0190681771866321E-01 
    8.7850210287076169E-01 
    8.5203132684146066E-01 
    8.2287017689047015E-01 
    7.9003795141358613E-01 
    7.4910661863228623E-01 
    6.8031998510394254E-01 
    4.4214316873761067E-01 
    3.9337098081610393E-02 
    1.2369046374452326E-05 
    2.0933929097031242E-15 
    4.7488157464440592E-43 
   1.9199887265007067E-122 
    0.0000000000000000E+00 
    9.1630754116959201E-01 
    9.0695010889267280E-01 
    8.9008477546919595E-01 
    8.6854478262645940E-01 
    8.4377074584760026E-01 
    8.1604020444863734E-01 
    7.8418155675105039E-01 
    7.4306585882474407E-01 
    6.6765049865595949E-01 
    3.7978784395183462E-01 
    1.9758495991454194E-02 
    1.5215589561338674E-06 
    3.2624822449889995E-18 
    5.8265866050292318E-52 
   3.8943976221538470E-151 
    0.0000000000000000E+00 
    8.9775790158259183E-01 
    8.9099321928084940E-01 
    8.7637401537946236E-01 
    8.5689446561431593E-01 
    8.3398421495337971E-01 
    8.0781709985490335E-01 
    7.7691158279248529E-01 
    7.3496216634950173E-01 
    6.4668510833008774E-01 
    2.9453654130961426E-01 
    6.7665196693064370E-03 
    5.7289202232669279E-08 
    8.5683900900013267E-23 
    8.3253552143565586E-67 
   7.5782981452721070E-202 
    0.0000000000000000E+00 
    8.7600437465833603E-01 
    8.7227207207818191E-01 
    8.6023614880702226E-01 
    8.4309341614546329E-01 
    8.2228773634585151E-01 
    7.9786995317707565E-01 
    7.6782551042037628E-01 
    7.2369522336297187E-01 
    6.0787632794276336E-01 
    1.8409889789827494E-01 
    1.0815474624250329E-03 
    1.9150572394635344E-10 
    5.0237638637201851E-31 
    2.7346161761194543E-95 
   1.6695524717514074E-303 
    0.0000000000000000E+00 
    8.4958555079017639E-01 
    8.4955769265405234E-01 
    8.4059828597273600E-01 
    8.2621189214317159E-01 
    8.0788984090943416E-01 
    7.8551154287031688E-01 
    7.5605826217234895E-01 
    7.0633781899316972E-01 
    5.2246400000366022E-01 
    7.1440823839729384E-02 
    3.8683788955294964E-05 
    2.1566093811490069E-15 
    1.7940394245452167E-48 
   3.8903219675742237E-161 
    0.0000000000000000E+00 
    0.0000000000000000E+00 
    8.1478976895713096E-01 
    8.1982218026572240E-01 
    8.1484152614362815E-01 
    8.0397526272716613E-01 
    7.8883644876274328E-01 
    7.6895815479349483E-01 
    7.3938101804517564E-01 
    6.7473518062309246E-01 
    3.4103540774977020E-01 
    8.4625228503516746E-03 
    1.7088029985868122E-08 
    1.6018935577315524E-28 
   1.0571919262154725E-103 
    0.0000000000000000E+00 
    0.0000000000000000E+00 
    0.0000000000000000E+00 
    7.5788689581598778E-01 
    7.7215841519719342E-01 
    7.7375562026781231E-01 
    7.6849320993648040E-01 
    7.5820979642424680E-01 
    7.4162345549057285E-01 
    7.0792989862368860E-01 
    5.5609045334846152E-01 
    5.5743577589237127E-02 
    2.7375060409744457E-06 
    1.6040652248563548E-23 
    9.0373335349490603E-99 
    0.0000000000000000E+00 
    0.0000000000000000E+00 
    0.0000000000000000E+00 
    0.0000000000000000E+00 
    5.9546027786243838E-01 
    6.4805517265036539E-01 
    6.7057901318513624E-01 
    6.7898225314765359E-01 
    6.7585725936352503E-01 
    6.5032059641000395E-01 
    4.6163205177940880E-01 
    2.5062666564334805E-02 
    5.4367828752094780E-08 
    4.5193664754907575E-29 
   5.0783982088216938E-117 
    0.0000000000000000E+00 
    0.0000000000000000E+00 
    0.0000000000000000E+00 
    0.0000000000000000E+00 
    0.0000000000000000E+00 
    1.1334593718421043E-01 
    2.5762779490749255E-01 
    2.9300228393157174E-01 
    2.7476498788850601E-01 
    1.9771662109863175E-01 
    7.5933593481474659E-02 
    2.4934812506932345E-03 
    5.7462715337754701E-10 
    2.2702668709551787E-34 
   1.3182557306542116E-132 
    0.0000000000000000E+00 
    0.0000000000000000E+00 
    0.0000000000000000E+00 
    0.0000000000000000E+00 
    0.0000000000000000E+00 
    0.0000000000000000E+00 
