# vtk DataFile Version 2.0
Pressure Field Data 
ASCII 
DATASET UNSTRUCTURED_GRID 

POINTS 289 double 

    0.0000000000000000E+00     0.0000000000000000E+00     0.0000000000000000E+00 
    1.0000000000000000E+00     0.0000000000000000E+00     0.0000000000000000E+00 
    1.0000000000000000E+00     1.0000000000000000E+00     0.0000000000000000E+00 
    0.0000000000000000E+00     1.0000000000000000E+00     0.0000000000000000E+00 
    6.2499999999872928E-02     0.0000000000000000E+00     0.0000000000000000E+00 
    1.2499999999977310E-01     0.0000000000000000E+00     0.0000000000000000E+00 
    1.8749999999959341E-01     0.0000000000000000E+00     0.0000000000000000E+00 
    2.4999999999941089E-01     0.0000000000000000E+00     0.0000000000000000E+00 
    3.1249999999922851E-01     0.0000000000000000E+00     0.0000000000000000E+00 
    3.7499999999904610E-01     0.0000000000000000E+00     0.0000000000000000E+00 
    4.3749999999886358E-01     0.0000000000000000E+00     0.0000000000000000E+00 
    4.9999999999869210E-01     0.0000000000000000E+00     0.0000000000000000E+00 
    5.6249999999884603E-01     0.0000000000000000E+00     0.0000000000000000E+00 
    6.2499999999901090E-01     0.0000000000000000E+00     0.0000000000000000E+00 
    6.8749999999917577E-01     0.0000000000000000E+00     0.0000000000000000E+00 
    7.4999999999934064E-01     0.0000000000000000E+00     0.0000000000000000E+00 
    8.1249999999950551E-01     0.0000000000000000E+00     0.0000000000000000E+00 
    8.7499999999967026E-01     0.0000000000000000E+00     0.0000000000000000E+00 
    9.3749999999983513E-01     0.0000000000000000E+00     0.0000000000000000E+00 
    1.0000000000000000E+00     6.2499999999872928E-02     0.0000000000000000E+00 
    1.0000000000000000E+00     1.2499999999977310E-01     0.0000000000000000E+00 
    1.0000000000000000E+00     1.8749999999959341E-01     0.0000000000000000E+00 
    1.0000000000000000E+00     2.4999999999941089E-01     0.0000000000000000E+00 
    1.0000000000000000E+00     3.1249999999922851E-01     0.0000000000000000E+00 
    1.0000000000000000E+00     3.7499999999904610E-01     0.0000000000000000E+00 
    1.0000000000000000E+00     4.3749999999886358E-01     0.0000000000000000E+00 
    1.0000000000000000E+00     4.9999999999869210E-01     0.0000000000000000E+00 
    1.0000000000000000E+00     5.6249999999884603E-01     0.0000000000000000E+00 
    1.0000000000000000E+00     6.2499999999901090E-01     0.0000000000000000E+00 
    1.0000000000000000E+00     6.8749999999917577E-01     0.0000000000000000E+00 
    1.0000000000000000E+00     7.4999999999934064E-01     0.0000000000000000E+00 
    1.0000000000000000E+00     8.1249999999950551E-01     0.0000000000000000E+00 
    1.0000000000000000E+00     8.7499999999967026E-01     0.0000000000000000E+00 
    1.0000000000000000E+00     9.3749999999983513E-01     0.0000000000000000E+00 
    9.3749999999973976E-01     1.0000000000000000E+00     0.0000000000000000E+00 
    8.7499999999950118E-01     1.0000000000000000E+00     0.0000000000000000E+00 
    8.1249999999991318E-01     1.0000000000000000E+00     0.0000000000000000E+00 
    7.5000000000034706E-01     1.0000000000000000E+00     0.0000000000000000E+00 
    6.8750000000078049E-01     1.0000000000000000E+00     0.0000000000000000E+00 
    6.2500000000121403E-01     1.0000000000000000E+00     0.0000000000000000E+00 
    5.6250000000164757E-01     1.0000000000000000E+00     0.0000000000000000E+00 
    5.0000000000205946E-01     1.0000000000000000E+00     0.0000000000000000E+00 
    4.3750000000182099E-01     1.0000000000000000E+00     0.0000000000000000E+00 
    3.7500000000156092E-01     1.0000000000000000E+00     0.0000000000000000E+00 
    3.1250000000130068E-01     1.0000000000000000E+00     0.0000000000000000E+00 
    2.5000000000104050E-01     1.0000000000000000E+00     0.0000000000000000E+00 
    1.8750000000078040E-01     1.0000000000000000E+00     0.0000000000000000E+00 
    1.2500000000052031E-01     1.0000000000000000E+00     0.0000000000000000E+00 
    6.2500000000260125E-02     1.0000000000000000E+00     0.0000000000000000E+00 
    0.0000000000000000E+00     9.3749999999973976E-01     0.0000000000000000E+00 
    0.0000000000000000E+00     8.7499999999950118E-01     0.0000000000000000E+00 
    0.0000000000000000E+00     8.1249999999991318E-01     0.0000000000000000E+00 
    0.0000000000000000E+00     7.5000000000034706E-01     0.0000000000000000E+00 
    0.0000000000000000E+00     6.8750000000078049E-01     0.0000000000000000E+00 
    0.0000000000000000E+00     6.2500000000121403E-01     0.0000000000000000E+00 
    0.0000000000000000E+00     5.6250000000164757E-01     0.0000000000000000E+00 
    0.0000000000000000E+00     5.0000000000205946E-01     0.0000000000000000E+00 
    0.0000000000000000E+00     4.3750000000182099E-01     0.0000000000000000E+00 
    0.0000000000000000E+00     3.7500000000156092E-01     0.0000000000000000E+00 
    0.0000000000000000E+00     3.1250000000130068E-01     0.0000000000000000E+00 
    0.0000000000000000E+00     2.5000000000104050E-01     0.0000000000000000E+00 
    0.0000000000000000E+00     1.8750000000078040E-01     0.0000000000000000E+00 
    0.0000000000000000E+00     1.2500000000052031E-01     0.0000000000000000E+00 
    0.0000000000000000E+00     6.2500000000260125E-02     0.0000000000000000E+00 
    6.2499999999897131E-02     6.2500000000235922E-02     0.0000000000000000E+00 
    6.2499999999921327E-02     1.2500000000047351E-01     0.0000000000000000E+00 
    6.2499999999945530E-02     1.8750000000070621E-01     0.0000000000000000E+00 
    6.2499999999969733E-02     2.5000000000093858E-01     0.0000000000000000E+00 
    6.2499999999993928E-02     3.1250000000117117E-01     0.0000000000000000E+00 
    6.2500000000018124E-02     3.7500000000140382E-01     0.0000000000000000E+00 
    6.2500000000042327E-02     4.3750000000163619E-01     0.0000000000000000E+00 
    6.2500000000066530E-02     5.0000000000184897E-01     0.0000000000000000E+00 
    6.2500000000090733E-02     5.6250000000147260E-01     0.0000000000000000E+00 
    6.2500000000114922E-02     6.2500000000107636E-01     0.0000000000000000E+00 
    6.2500000000139125E-02     6.8750000000068034E-01     0.0000000000000000E+00 
    6.2500000000163328E-02     7.5000000000028411E-01     0.0000000000000000E+00 
    6.2500000000187531E-02     8.1249999999988787E-01     0.0000000000000000E+00 
    6.2500000000211720E-02     8.7499999999951172E-01     0.0000000000000000E+00 
    6.2500000000235922E-02     9.3749999999974565E-01     0.0000000000000000E+00 
    1.2499999999981980E-01     6.2500000000211733E-02     0.0000000000000000E+00 
    1.2499999999986650E-01     1.2500000000042691E-01     0.0000000000000000E+00 
    1.2499999999991319E-01     1.8750000000063199E-01     0.0000000000000000E+00 
    1.2499999999995989E-01     2.5000000000083678E-01     0.0000000000000000E+00 
    1.2500000000000661E-01     3.1250000000104172E-01     0.0000000000000000E+00 
    1.2500000000005329E-01     3.7500000000124661E-01     0.0000000000000000E+00 
    1.2500000000010000E-01     4.3750000000145117E-01     0.0000000000000000E+00 
    1.2500000000014669E-01     5.0000000000163858E-01     0.0000000000000000E+00 
    1.2500000000019340E-01     5.6250000000129741E-01     0.0000000000000000E+00 
    1.2500000000024011E-01     6.2500000000093847E-01     0.0000000000000000E+00 
    1.2500000000028680E-01     6.8750000000057998E-01     0.0000000000000000E+00 
    1.2500000000033351E-01     7.5000000000022127E-01     0.0000000000000000E+00 
    1.2500000000038020E-01     8.1249999999986211E-01     0.0000000000000000E+00 
    1.2500000000042691E-01     8.7499999999952238E-01     0.0000000000000000E+00 
    1.2500000000047359E-01     9.3749999999975164E-01     0.0000000000000000E+00 
    1.8749999999966760E-01     6.2500000000187531E-02     0.0000000000000000E+00 
    1.8749999999974179E-01     1.2500000000038020E-01     0.0000000000000000E+00 
    1.8749999999981601E-01     1.8750000000055780E-01     0.0000000000000000E+00 
    1.8749999999989009E-01     2.5000000000073502E-01     0.0000000000000000E+00 
    1.8749999999996431E-01     3.1250000000091221E-01     0.0000000000000000E+00 
    1.8750000000003850E-01     3.7500000000108941E-01     0.0000000000000000E+00 
    1.8750000000011269E-01     4.3750000000126649E-01     0.0000000000000000E+00 
    1.8750000000018691E-01     5.0000000000142808E-01     0.0000000000000000E+00 
    1.8750000000026110E-01     5.6250000000112244E-01     0.0000000000000000E+00 
    1.8750000000033529E-01     6.2500000000080080E-01     0.0000000000000000E+00 
    1.8750000000040951E-01     6.8750000000047962E-01     0.0000000000000000E+00 
    1.8750000000048361E-01     7.5000000000015843E-01     0.0000000000000000E+00 
    1.8750000000055780E-01     8.1249999999983680E-01     0.0000000000000000E+00 
    1.8750000000063199E-01     8.7499999999953304E-01     0.0000000000000000E+00 
    1.8750000000070621E-01     9.3749999999975764E-01     0.0000000000000000E+00 
    2.4999999999951281E-01     6.2500000000163314E-02     0.0000000000000000E+00 
    2.4999999999961461E-01     1.2500000000033351E-01     0.0000000000000000E+00 
    2.4999999999971650E-01     1.8750000000048361E-01     0.0000000000000000E+00 
    2.4999999999981831E-01     2.5000000000063310E-01     0.0000000000000000E+00 
    2.4999999999992020E-01     3.1250000000078260E-01     0.0000000000000000E+00 
    2.5000000000002198E-01     3.7500000000093209E-01     0.0000000000000000E+00 
    2.5000000000012390E-01     4.3750000000108180E-01     0.0000000000000000E+00 
    2.5000000000022571E-01     5.0000000000121769E-01     0.0000000000000000E+00 
    2.5000000000032763E-01     5.6250000000094724E-01     0.0000000000000000E+00 
    2.5000000000042938E-01     6.2500000000066314E-01     0.0000000000000000E+00 
    2.5000000000053119E-01     6.8750000000037925E-01     0.0000000000000000E+00 
[...]
CELL_DATA 256 
SCALARS Pressure double 1 
LOOKUP_TABLE default 

    1.9734056491185410E+00 
    1.7412104765022347E+00 
    1.6101760859966316E+00 
    1.5052824838704297E+00 
    1.4087440626446395E+00 
    1.3146652867439681E+00 
    1.2207618398125526E+00 
    1.1262408399992181E+00 
    1.0311623042771623E+00 
    9.3632481861538430E-01 
    8.4341109222578847E-01 
    7.5522595336636278E-01 
    6.7568775648428092E-01 
    6.0903101177723762E-01 
    5.6243212419659394E-01 
    5.4863519817148199E-01 
    1.9020566313521126E+00 
    1.7451965328352106E+00 
    1.6188326010796521E+00 
    1.5141853835729155E+00 
    1.4177014783166506E+00 
    1.3237230264889501E+00 
    1.2299306205692910E+00 
    1.1354778388445468E+00 
    1.0403579786960762E+00 
    9.4527598633045240E-01 
    8.5178820507913033E-01 
    7.6256724153400979E-01 
    6.8148482874697558E-01 
    6.1288306978985074E-01 
    5.6368205003633187E-01 
    5.4820116109715544E-01 
    1.8467010468547354E+00 
    1.7385486818508786E+00 
    1.6239446209720627E+00 
    1.5217354727348718E+00 
    1.4260118858401614E+00 
    1.3324081864655697E+00 
    1.2388390635168207E+00 
    1.1444850868955079E+00 
    1.0492941083127061E+00 
    9.5387024185515290E-01 
    8.5961710887425369E-01 
    7.6904150753839273E-01 
    6.8596810044720757E-01 
    6.1501501600793529E-01 
    5.6312311706720375E-01 
    5.4632161887079156E-01 
    1.8031805458924379E+00 
    1.7267573835280183E+00 
    1.6258017484927374E+00 
    1.5278307166643148E+00 
    1.4336144414788814E+00 
    1.3406968544153790E+00 
    1.2474857540253530E+00 
    1.1532797428251749E+00 
    1.0580098836168361E+00 
    9.6217710554618063E-01 
    8.6700583203284953E-01 
    7.7479050110281145E-01 
    6.8927062671476380E-01 
    6.1542430492912104E-01 
    5.6059641983014974E-01 
    5.4260845635043642E-01 
    1.7685795323824425E+00 
    1.7129909817797282E+00 
    1.6251419630469934E+00 
    1.5325323870057088E+00 
    1.4404934662250366E+00 
    1.3485805153934234E+00 
    1.2558759046625594E+00 
    1.1618822179774664E+00 
    1.0665464002060663E+00 
    9.7026847977225461E-01 
    8.7406833421881880E-01 
    7.7996949787990277E-01 
    6.9154656867352182E-01 
    6.1413794882010231E-01 
    5.5588809145071338E-01 
    5.3660483088149413E-01 
    1.7408546581276183E+00 
    1.6990499584347609E+00 
    1.6227746018877571E+00 
    1.5360256017149256E+00 
    1.4466823651652556E+00 
    1.3560691933228097E+00 
    1.2640224787455763E+00 
    1.1703161814568115E+00 
    1.0749458813886723E+00 
    9.7821732373029824E-01 
    8.8092359919295637E-01 
    7.8474989164232323E-01 
    6.9298249011628554E-01 
    6.1122141225482030E-01 
    5.4873941061964893E-01 
    5.2774105479895894E-01 
    1.7185513344181831E+00 
    1.6859283693852638E+00 
    1.6194245513331482E+00 
    1.5385663536585823E+00 
    1.4522584188128966E+00 
    1.3631925347866996E+00 
    1.2719469434912893E+00 
    1.1786085237112947E+00 
    1.0832508361524393E+00 
    9.8609595414810258E-01 
    8.8769365759688523E-01 
    7.8931999893416194E-01 
    6.9380820409837507E-01 
    6.0680028515538786E-01 
    5.3886766144222187E-01 
    5.1529071371466628E-01 
    1.7006161696874438E+00 
    1.6741477917359082E+00 
    1.6156832437161832E+00 
    1.5404375260947716E+00 
    1.4573325531492314E+00 
    1.3699988298464616E+00 
    1.2796795039188262E+00 
    1.1867892567239102E+00 
    1.0915032156025002E+00 
    9.9397406123672016E-01 
    8.9450045454268401E-01 
    7.9388340186790485E-01 
    6.9430594526990430E-01 
    6.0109166407173409E-01 
    5.2601320526794915E-01 
    4.9834564196555753E-01 
    1.6862720674966352E+00 
    1.6639559348184012E+00 
    1.6120079961906251E+00 
    1.5419189887727496E+00 
    1.4620378415799540E+00 
    1.3765525030495471E+00 
    1.2872588004648511E+00 
    1.1948913431329242E+00 
    1.0997436336631861E+00 
    1.0019165691996930E+00 
    9.0146156645145636E-01 
    7.9865407460514093E-01 
    6.9481576771041309E-01 
    5.9444231609248854E-01 
    5.1001917335207669E-01 
    4.7582499063880473E-01 
    1.6749339649667332E+00 
    1.6554445111697835E+00 
    1.6087404323808165E+00 
    1.5432703332948674E+00 
    1.4665191115262031E+00 
    1.3829307882422044E+00 
    1.2947311734113225E+00 
    1.2029504841361200E+00 
    1.1080107461214463E+00 
    1.0099815523171447E+00 
    9.0868496289370537E-01 
    8.0384762623161243E-01 
    6.9573419617349308E-01 
    5.8736951454471276E-01 
    4.9093212401298053E-01 
    4.4648570240935864E-01 
    1.6661509541477331E+00 
    1.6486188536233830E+00 
    1.6061300020637699E+00 
    1.5447229891813721E+00 
    1.4709247617067058E+00 
    1.3892202291125233E+00 
    1.3021496640473607E+00 
    1.2110049302392127E+00 
    1.1163409097125960E+00 
    1.0182185065466631E+00 
    9.1626328846112592E-01 
    8.0966833988858289E-01 
    6.9750226779710311E-01 
    5.8060004993332093E-01 
    4.6912170009562493E-01 
    4.0885824660646469E-01 
    1.6595654249981726E+00 
    1.6434385806329126E+00 
    1.6043563813598158E+00 
    1.5464784815369803E+00 
    1.4754009976258804E+00 
    1.3955134401917204E+00 
    1.3095729249670149E+00 
    1.2190954006203822E+00 
    1.1247682682960956E+00 
    1.0266673619856193E+00 
    9.2426849940858335E-01 
    8.1629244626369146E-01 
    7.0057814602896251E-01 
    5.7509940437307472E-01 
    4.4546254570169391E-01 
    3.6108328596355355E-01 
    1.6548826663462035E+00 
    1.6398404516376637E+00 
    1.6035480957291464E+00 
    1.5487099936027713E+00 
    1.4800879966026197E+00 
    1.4019062081355889E+00 
    1.3170640959183055E+00 
    1.2272651774536245E+00 
    1.1333254465584042E+00 
    1.0353587233276389E+00 
    9.3274812834844267E-01 
    8.2384948037536543E-01 
    7.0538919000490674E-01 
    5.7207042932579288E-01 
    4.2165175148976253E-01 
    3.0067147648367093E-01 
    1.6518445753674433E+00 
    1.6377479423475099E+00 
    1.6037947279230695E+00 
    1.5515636073503860E+00 
    1.4851160648876163E+00 
    1.4084938993553762E+00 
    1.3246890131894027E+00 
    1.2355601140037031E+00 
    1.1420450205430206E+00 
    1.0443160631180723E+00 
    9.4172509893920398E-01 
    8.3240597516557946E-01 
    7.1226094506421378E-01 
    5.7287458104530409E-01 
    4.0075743117424145E-01 
    2.2416555597974663E-01 
    1.6501956220407192E+00 
    1.6370597042768957E+00 
    1.6051414857329560E+00 
    1.5551485433014001E+00 
    1.4905939088772555E+00 
    1.4153614985535545E+00 
    1.3325096208602547E+00 
    1.2440259687068449E+00 
    1.1509611016025321E+00 
    1.0535614794223800E+00 
    9.5120550763525658E-01 
    8.4196130072952091E-01 
    7.2133226451685739E-01 
    5.7877904184702755E-01 
    3.8814798748739560E-01 
    1.2661556016768286E-01 
    1.6496980182585981E+00 
    1.6376561275838979E+00 
    1.6075917041869494E+00 
    1.5595379958347291E+00 
    1.4966096280862247E+00 
    1.4225854110432381E+00 
    1.3405857555286944E+00 
    1.2527091544464612E+00 
    1.1601086044193762E+00 
    1.0631134108126445E+00 
    9.6117373357977121E-01 
    8.5242873227710725E-01 
    7.3242519256196437E-01 
    5.9021726890424320E-01 
    3.9282343670973963E-01 
    0.0000000000000000E+00 

SCALARS Saturarion double 1 
LOOKUP_TABLE default 

    1.0000000000000000E+00 
    9.8577400569636375E-01 
    9.6714500998117847E-01 
    9.4684319169073261E-01 
    9.2654296985424711E-01 
    9.0672301528253252E-01 
    8.8740531399166456E-01 
    8.6840145269554903E-01 
    8.4936318828353508E-01 
    8.2970861892474113E-01 
    8.0835483329627134E-01 
    7.8286254053427939E-01 
    7.4591388718639251E-01 
    6.6694734068600992E-01 
    4.0218350625266225E-01 
    2.4757071554791243E-02 
    9.9543301064421563E-01 
    9.8359205614923173E-01 
    9.6629992361157169E-01 
    9.4663254182521039E-01 
    9.2661737446196923E-01 
    9.0695068905117271E-01 
    8.8774277667131818E-01 
    8.6884783768772111E-01 
    8.4994924938620919E-01 
    8.3050434702867271E-01 
    8.0950145126022799E-01 
    7.8467838440060245E-01 
    7.4938616649304135E-01 
    6.7671675987951097E-01 
    4.4486086482879283E-01 
    4.3694790657559976E-02 
    9.9161975335371366E-01 
    9.8040276667663118E-01 
    9.6416969628195515E-01 
    9.4530089469490675E-01 
    9.2576116122327223E-01 
    9.0640373125328644E-01 
    8.8743499885423471E-01 
    8.6876058781469001E-01 
    8.5010111848536518E-01 
    8.3095709018952124E-01 
    8.1039030571562698E-01 
    7.8630955855646811E-01 
    7.5265880732265622E-01 
    6.8544242238060527E-01 
    4.7830255923066622E-01 
    6.7045402885417243E-02 
    9.8710316592962632E-01 
    9.7640359156788203E-01 
    9.6101097330354945E-01 
    9.4294576050755696E-01 
    9.2398856934985774E-01 
    9.0505609472928217E-01 
    8.8643289461861319E-01 
    8.6807608048001716E-01 
    8.4974636252088154E-01 
    8.3099093880829944E-01 
    8.1094828322666457E-01 
    7.8769439604550295E-01 
    7.5570983244387646E-01 
    6.9347437054474326E-01 
    5.0719672635578894E-01 
    9.6035450278368226E-02 
    9.8166884929894405E-01 
    9.7155342085517293E-01 
    9.5691951391851471E-01 
    9.3963769048834422E-01 
    9.2132589329692838E-01 
    9.0290711179212957E-01 
    8.8471955624911836E-01 
    8.6676611389701153E-01 
    8.4884756778942361E-01 
    8.3056027175379343E-01 
    8.1112351521682124E-01 
    7.8878139989256324E-01 
    7.5851402559846604E-01 
    7.0099035494374251E-01 
    5.3286447088716971E-01 
    1.3105952168446813E-01 
    9.7514896306253007E-01 
    9.6575827814779414E-01 
    9.5188844394223093E-01 
    9.3538859688928266E-01 
    9.1776895811868608E-01 
    8.9993732695290940E-01 
    8.8226557979034270E-01 
    8.6479437586951013E-01 
    8.4736228557342219E-01 
    8.2961582776187737E-01 
    8.1085957499302874E-01 
    7.8951114709024861E-01 
    7.6102890611499219E-01 
    7.0806440367017587E-01 
    5.5610299277340058E-01 
    1.7224776695046282E-01 
    9.6737125944313695E-01 
    9.5888876479430107E-01 
    9.4584660001963616E-01 
    9.3015619895226143E-01 
    9.1327614007039881E-01 
    8.9609941784715308E-01 
    8.7901934596002052E-01 
    8.6210649174591392E-01 
    8.4523331157471893E-01 
    8.2809573733579256E-01 
    8.1008751612649477E-01 
    7.8980902287619259E-01 
    7.6318972123346718E-01 
    7.1470658390077624E-01 
    5.7748215438454931E-01 
    2.1896143294079359E-01 
    9.5813390130798337E-01 
    9.5077382136462030E-01 
    9.3866636759122202E-01 
    9.2384303002315782E-01 
    9.0776043192961953E-01 
    8.9130864768655960E-01 
    8.7489747730191003E-01 
    8.5862096417235556E-01 
    8.4238045672399087E-01 
    8.2591844842104190E-01 
    8.0871994509734069E-01 
    7.8957971553826389E-01 
    7.6490509334229329E-01 
    7.2087894677764497E-01 
    5.9740130711144390E-01 
    2.6921782093534080E-01 
    9.4717649374608692E-01 
    9.4118173564148710E-01 
    9.3015285329496378E-01 
    9.1628431656664278E-01 
    9.0107393640899491E-01 
    8.8542641662144950E-01 
    8.6976888413947639E-01 
    8.5421435149032721E-01 
    8.3868727326176329E-01 
    8.2297133809798950E-01 
    8.0664157589853058E-01 
    7.8869883277241892E-01 
    7.6604924003572816E-01 
    7.2649791610838732E-01 
    6.1610711176412436E-01 
    3.1991310197260647E-01 
    9.3413435055964622E-01 
    9.2978337547445522E-01 
    9.2001301778033984E-01 
    9.0721834635618470E-01 
    8.9297714792549820E-01 
    8.7822940007761685E-01 
    8.6342501587191733E-01 
    8.4869357458600314E-01 
    8.3397619352977836E-01 
    8.1908931640695737E-01 
    8.0369151815629847E-01 
    7.8699765111351982E-01 
    7.6644710909249447E-01 
    7.3142573677075695E-01 
    6.3370551299546551E-01 
    3.6846047537453225E-01 
    9.1845347207219918E-01 
    9.1607951222506656E-01 
    9.0778927937944776E-01 
    8.9622261415649107E-01 
    8.8307543559388102E-01 
    8.6934665989673843E-01 
    8.5551902332954277E-01 
    8.4173882755512452E-01 
    8.2795681283490430E-01 
    8.1400985002062998E-01 
    7.9962586191106999E-01 
    7.8423193270396196E-01 
    7.6584482285177624E-01 
    7.3544672020832924E-01 
    6.5017171363388526E-01 
    4.1383486264695363E-01 
    8.9920388231304627E-01 
    8.9923896512632262E-01 
    8.9270811362936131E-01 
    8.8256641761261667E-01 
    8.7067231782926369E-01 
    8.5811344196822503E-01 
    8.4542249765840294E-01 
    8.3276729460946153E-01 
    8.2010108512874424E-01 
    8.0726353794145578E-01 
    7.9402624174144509E-01 
    7.8000770268642472E-01 
    7.6384389027028454E-01 
    7.3821120227031634E-01 
    6.6534431686729456E-01 
    4.5597831420536783E-01 
    8.7456623208790307E-01 
    8.7765730809299014E-01 
    8.7326531269829077E-01 
    8.6480222185849775E-01 
    8.5435676909437208E-01 
    8.4315225139494243E-01 
    8.3180598762460867E-01 
    8.2052587959308199E-01 
    8.0926520796574197E-01 
    7.9784133629957565E-01 
    7.8602339417377787E-01 
    7.7356289258121802E-01 
    7.5972312771011830E-01 
    7.3908758605857572E-01 
    6.7887004893872871E-01 
    4.9508477303285942E-01 
    8.3981442952525509E-01 
    8.4725902914532569E-01 
    8.4563476516710367E-01 
    8.3917967212360500E-01 
    8.3036966375168797E-01 
    8.2067419042169820E-01 
    8.1089233865339683E-01 
    8.0134862209524538E-01 
    7.9203121201349624E-01 
    7.8271110704635516E-01 
    7.7306544399317578E-01 
    7.6282406585502383E-01 
    7.5174525216910237E-01 
    7.3664345304057421E-01 
    6.8996727778189948E-01 
    5.3120383750901468E-01 
    7.7532995565801122E-01 
    7.9123585422147680E-01 
    7.9406739284558370E-01 
    7.9013929204844036E-01 
    7.8287151558106283E-01 
    7.7435070369056491E-01 
    7.6590239702803642E-01 
    7.5833625076812583E-01 
    7.5202956337656646E-01 
    7.4692080390279481E-01 
    7.4250419295962500E-01 
    7.3798372293608261E-01 
    7.3276818928183174E-01 
    7.2575749136783951E-01 
    6.9598921317907192E-01 
    5.6361716460527456E-01 
    5.3527025233200620E-01 
    5.9903725508889727E-01 
    6.2035479393459847E-01 
    6.2419648070731570E-01 
    6.1917464484828599E-01 
    6.0942743397083543E-01 
    5.9730763203542214E-01 
    5.8440717033709244E-01 
    5.7216021444356058E-01 
    5.6232041526014309E-01 
    5.5723646435611685E-01 
    5.5956781765908237E-01 
    5.7205783742992744E-01 
    6.0081071872682201E-01 
    6.4158980701348067E-01 
    5.7840046210612783E-01 
