# vtk DataFile Version 2.0
Pressure Field Data 
ASCII 
DATASET UNSTRUCTURED_GRID 

POINTS 289 double 

    0.0000000000000000E+00     0.0000000000000000E+00     0.0000000000000000E+00 
    1.0000000000000000E+00     0.0000000000000000E+00     0.0000000000000000E+00 
    1.0000000000000000E+00     1.0000000000000000E+00     0.0000000000000000E+00 
    0.0000000000000000E+00     1.0000000000000000E+00     0.0000000000000000E+00 
    6.2499999999872928E-02     0.0000000000000000E+00     0.0000000000000000E+00 
    1.2499999999977310E-01     0.0000000000000000E+00     0.0000000000000000E+00 
    1.8749999999959341E-01     0.0000000000000000E+00     0.0000000000000000E+00 
    2.4999999999941089E-01     0.0000000000000000E+00     0.0000000000000000E+00 
    3.1249999999922851E-01     0.0000000000000000E+00     0.0000000000000000E+00 
    3.7499999999904610E-01     0.0000000000000000E+00     0.0000000000000000E+00 
    4.3749999999886358E-01     0.0000000000000000E+00     0.0000000000000000E+00 
    4.9999999999869210E-01     0.0000000000000000E+00     0.0000000000000000E+00 
    5.6249999999884603E-01     0.0000000000000000E+00     0.0000000000000000E+00 
    6.2499999999901090E-01     0.0000000000000000E+00     0.0000000000000000E+00 
    6.8749999999917577E-01     0.0000000000000000E+00     0.0000000000000000E+00 
    7.4999999999934064E-01     0.0000000000000000E+00     0.0000000000000000E+00 
    8.1249999999950551E-01     0.0000000000000000E+00     0.0000000000000000E+00 
    8.7499999999967026E-01     0.0000000000000000E+00     0.0000000000000000E+00 
    9.3749999999983513E-01     0.0000000000000000E+00     0.0000000000000000E+00 
    1.0000000000000000E+00     6.2499999999872928E-02     0.0000000000000000E+00 
    1.0000000000000000E+00     1.2499999999977310E-01     0.0000000000000000E+00 
    1.0000000000000000E+00     1.8749999999959341E-01     0.0000000000000000E+00 
    1.0000000000000000E+00     2.4999999999941089E-01     0.0000000000000000E+00 
    1.0000000000000000E+00     3.1249999999922851E-01     0.0000000000000000E+00 
    1.0000000000000000E+00     3.7499999999904610E-01     0.0000000000000000E+00 
    1.0000000000000000E+00     4.3749999999886358E-01     0.0000000000000000E+00 
    1.0000000000000000E+00     4.9999999999869210E-01     0.0000000000000000E+00 
    1.0000000000000000E+00     5.6249999999884603E-01     0.0000000000000000E+00 
    1.0000000000000000E+00     6.2499999999901090E-01     0.0000000000000000E+00 
    1.0000000000000000E+00     6.8749999999917577E-01     0.0000000000000000E+00 
    1.0000000000000000E+00     7.4999999999934064E-01     0.0000000000000000E+00 
    1.0000000000000000E+00     8.1249999999950551E-01     0.0000000000000000E+00 
    1.0000000000000000E+00     8.7499999999967026E-01     0.0000000000000000E+00 
    1.0000000000000000E+00     9.3749999999983513E-01     0.0000000000000000E+00 
    9.3749999999973976E-01     1.0000000000000000E+00     0.0000000000000000E+00 
    8.7499999999950118E-01     1.0000000000000000E+00     0.0000000000000000E+00 
    8.1249999999991318E-01     1.0000000000000000E+00     0.0000000000000000E+00 
    7.5000000000034706E-01     1.0000000000000000E+00     0.0000000000000000E+00 
    6.8750000000078049E-01     1.0000000000000000E+00     0.0000000000000000E+00 
    6.2500000000121403E-01     1.0000000000000000E+00     0.0000000000000000E+00 
    5.6250000000164757E-01     1.0000000000000000E+00     0.0000000000000000E+00 
    5.0000000000205946E-01     1.0000000000000000E+00     0.0000000000000000E+00 
    4.3750000000182099E-01     1.0000000000000000E+00     0.0000000000000000E+00 
    3.7500000000156092E-01     1.0000000000000000E+00     0.0000000000000000E+00 
    3.1250000000130068E-01     1.0000000000000000E+00     0.0000000000000000E+00 
    2.5000000000104050E-01     1.0000000000000000E+00     0.0000000000000000E+00 
    1.8750000000078040E-01     1.0000000000000000E+00     0.0000000000000000E+00 
    1.2500000000052031E-01     1.0000000000000000E+00     0.0000000000000000E+00 
    6.2500000000260125E-02     1.0000000000000000E+00     0.0000000000000000E+00 
    0.0000000000000000E+00     9.3749999999973976E-01     0.0000000000000000E+00 
    0.0000000000000000E+00     8.7499999999950118E-01     0.0000000000000000E+00 
    0.0000000000000000E+00     8.1249999999991318E-01     0.0000000000000000E+00 
    0.0000000000000000E+00     7.5000000000034706E-01     0.0000000000000000E+00 
    0.0000000000000000E+00     6.8750000000078049E-01     0.0000000000000000E+00 
    0.0000000000000000E+00     6.2500000000121403E-01     0.0000000000000000E+00 
    0.0000000000000000E+00     5.6250000000164757E-01     0.0000000000000000E+00 
    0.0000000000000000E+00     5.0000000000205946E-01     0.0000000000000000E+00 
    0.0000000000000000E+00     4.3750000000182099E-01     0.0000000000000000E+00 
    0.0000000000000000E+00     3.7500000000156092E-01     0.0000000000000000E+00 
    0.0000000000000000E+00     3.1250000000130068E-01     0.0000000000000000E+00 
    0.0000000000000000E+00     2.5000000000104050E-01     0.0000000000000000E+00 
    0.0000000000000000E+00     1.8750000000078040E-01     0.0000000000000000E+00 
    0.0000000000000000E+00     1.2500000000052031E-01     0.0000000000000000E+00 
    0.0000000000000000E+00     6.2500000000260125E-02     0.0000000000000000E+00 
    6.2499999999897131E-02     6.2500000000235922E-02     0.0000000000000000E+00 
    6.2499999999921327E-02     1.2500000000047351E-01     0.0000000000000000E+00 
    6.2499999999945530E-02     1.8750000000070621E-01     0.0000000000000000E+00 
    6.2499999999969733E-02     2.5000000000093858E-01     0.0000000000000000E+00 
    6.2499999999993928E-02     3.1250000000117117E-01     0.0000000000000000E+00 
    6.2500000000018124E-02     3.7500000000140382E-01     0.0000000000000000E+00 
    6.2500000000042327E-02     4.3750000000163619E-01     0.0000000000000000E+00 
    6.2500000000066530E-02     5.0000000000184897E-01     0.0000000000000000E+00 
    6.2500000000090733E-02     5.6250000000147260E-01     0.0000000000000000E+00 
    6.2500000000114922E-02     6.2500000000107636E-01     0.0000000000000000E+00 
    6.2500000000139125E-02     6.8750000000068034E-01     0.0000000000000000E+00 
    6.2500000000163328E-02     7.5000000000028411E-01     0.0000000000000000E+00 
    6.2500000000187531E-02     8.1249999999988787E-01     0.0000000000000000E+00 
    6.2500000000211720E-02     8.7499999999951172E-01     0.0000000000000000E+00 
    6.2500000000235922E-02     9.3749999999974565E-01     0.0000000000000000E+00 
    1.2499999999981980E-01     6.2500000000211733E-02     0.0000000000000000E+00 
    1.2499999999986650E-01     1.2500000000042691E-01     0.0000000000000000E+00 
    1.2499999999991319E-01     1.8750000000063199E-01     0.0000000000000000E+00 
    1.2499999999995989E-01     2.5000000000083678E-01     0.0000000000000000E+00 
    1.2500000000000661E-01     3.1250000000104172E-01     0.0000000000000000E+00 
    1.2500000000005329E-01     3.7500000000124661E-01     0.0000000000000000E+00 
    1.2500000000010000E-01     4.3750000000145117E-01     0.0000000000000000E+00 
    1.2500000000014669E-01     5.0000000000163858E-01     0.0000000000000000E+00 
    1.2500000000019340E-01     5.6250000000129741E-01     0.0000000000000000E+00 
    1.2500000000024011E-01     6.2500000000093847E-01     0.0000000000000000E+00 
    1.2500000000028680E-01     6.8750000000057998E-01     0.0000000000000000E+00 
    1.2500000000033351E-01     7.5000000000022127E-01     0.0000000000000000E+00 
    1.2500000000038020E-01     8.1249999999986211E-01     0.0000000000000000E+00 
    1.2500000000042691E-01     8.7499999999952238E-01     0.0000000000000000E+00 
    1.2500000000047359E-01     9.3749999999975164E-01     0.0000000000000000E+00 
    1.8749999999966760E-01     6.2500000000187531E-02     0.0000000000000000E+00 
    1.8749999999974179E-01     1.2500000000038020E-01     0.0000000000000000E+00 
    1.8749999999981601E-01     1.8750000000055780E-01     0.0000000000000000E+00 
    1.8749999999989009E-01     2.5000000000073502E-01     0.0000000000000000E+00 
    1.8749999999996431E-01     3.1250000000091221E-01     0.0000000000000000E+00 
    1.8750000000003850E-01     3.7500000000108941E-01     0.0000000000000000E+00 
    1.8750000000011269E-01     4.3750000000126649E-01     0.0000000000000000E+00 
    1.8750000000018691E-01     5.0000000000142808E-01     0.0000000000000000E+00 
    1.8750000000026110E-01     5.6250000000112244E-01     0.0000000000000000E+00 
    1.8750000000033529E-01     6.2500000000080080E-01     0.0000000000000000E+00 
    1.8750000000040951E-01     6.8750000000047962E-01     0.0000000000000000E+00 
    1.8750000000048361E-01     7.5000000000015843E-01     0.0000000000000000E+00 
    1.8750000000055780E-01     8.1249999999983680E-01     0.0000000000000000E+00 
    1.8750000000063199E-01     8.7499999999953304E-01     0.0000000000000000E+00 
    1.8750000000070621E-01     9.3749999999975764E-01     0.0000000000000000E+00 
    2.4999999999951281E-01     6.2500000000163314E-02     0.0000000000000000E+00 
    2.4999999999961461E-01     1.2500000000033351E-01     0.0000000000000000E+00 
    2.4999999999971650E-01     1.8750000000048361E-01     0.0000000000000000E+00 
    2.4999999999981831E-01     2.5000000000063310E-01     0.0000000000000000E+00 
    2.4999999999992020E-01     3.1250000000078260E-01     0.0000000000000000E+00 
    2.5000000000002198E-01     3.7500000000093209E-01     0.0000000000000000E+00 
    2.5000000000012390E-01     4.3750000000108180E-01     0.0000000000000000E+00 
    2.5000000000022571E-01     5.0000000000121769E-01     0.0000000000000000E+00 
    2.5000000000032763E-01     5.6250000000094724E-01     0.0000000000000000E+00 
    2.5000000000042938E-01     6.2500000000066314E-01     0.0000000000000000E+00 
    2.5000000000053119E-01     6.8750000000037925E-01     0.0000000000000000E+00 
[...]
CELL_DATA 256 
SCALARS Pressure double 1 
LOOKUP_TABLE default 

    1.8970578137693530E+00 
    1.6658189599512558E+00 
    1.5362491035326498E+00 
    1.4332157468757962E+00 
    1.3389004223077299E+00 
    1.2473919784227998E+00 
    1.1564044229644426E+00 
    1.0651580567189423E+00 
    9.7374467746397020E-01 
    8.8302157357355848E-01 
    7.9477816662578304E-01 
    7.1203449401942631E-01 
    6.3920032491179835E-01 
    5.8148938737260769E-01 
    5.4289185846753218E-01 
    5.2764758068435880E-01 
    1.8257740808006369E+00 
    1.6697340261140552E+00 
    1.5447716300484242E+00 
    1.4419411281810603E+00 
    1.3476421966750816E+00 
    1.2561976225240141E+00 
    1.1652842227562352E+00 
    1.0740668322080067E+00 
    9.8256818702956794E-01 
    8.9154810771226101E-01 
    8.0266120836287558E-01 
    7.1877472498622796E-01 
    6.4421386975338801E-01 
    5.8435052027126611E-01 
    5.4367884251449927E-01 
    5.2701157209312610E-01 
    1.7705072897256260E+00 
    1.6630639275688630E+00 
    1.5497847589628142E+00 
    1.4493423260420322E+00 
    1.3557626560997869E+00 
    1.2646546039675031E+00 
    1.1739261582705627E+00 
    1.0827669340172377E+00 
    9.9115190478263826E-01 
    8.9973654857439123E-01 
    8.1001474136297347E-01 
    7.2466665896295535E-01 
    6.4792258747947540E-01 
    5.8540034281397546E-01 
    5.4240662219411373E-01 
    5.2450770181496875E-01 
    1.7270827147797869E+00 
    1.6512828442545502E+00 
    1.5515749042538594E+00 
    1.4553160999079005E+00 
    1.3632000971551814E+00 
    1.2727383971572734E+00 
    1.1823284729522665E+00 
    1.0912754638795941E+00 
    9.9953527924463803E-01 
    9.0765720515665982E-01 
    8.1694898799388715E-01 
    7.2985795957000132E-01 
    6.5047478306307971E-01 
    5.8469447820974718E-01 
    5.3887720995781652E-01 
    5.1970845678650601E-01 
    1.6925815826442183E+00 
    1.6375494832926869E+00 
    1.5508752140248223E+00 
    1.4599213734419583E+00 
    1.3699372472436386E+00 
    1.2804393125853111E+00 
    1.1904955853524233E+00 
    1.0996124085524523E+00 
    1.0077593371547828E+00 
    9.1538237312779946E-01 
    8.2357948532258574E-01 
    7.3450929531532505E-01 
    6.5204140508199104E-01 
    5.8231221491441609E-01 
    5.3292361703310986E-01 
    5.1219717435316092E-01 
    1.6649582470508903E+00 
    1.6236572966031591E+00 
    1.5484898169086418E+00 
    1.4633400831146766E+00 
    1.3760052535350549E+00 
    1.2877656565338984E+00 
    1.1984392051471537E+00 
    1.1078006180835445E+00 
    1.0158658586894769E+00 
    9.2298491128811955E-01 
    8.3002588022137269E-01 
    7.3879589703969240E-01 
    6.5282467490633733E-01 
    5.7837180566179702E-01 
    5.2440172086264636E-01 
    5.0153645472915620E-01 
    1.6427559112074370E+00 
    1.6105947004048642E+00 
    1.5451383825057072E+00 
    1.4658244525770256E+00 
    1.3814785461504560E+00 
    1.2947448300532114E+00 
    1.2061790774768972E+00 
    1.1158657482622341E+00 
    1.0238965095129851E+00 
    9.3053649987697795E-01 
    8.3640977246133008E-01 
    7.4290751278292300E-01 
    6.5306607756643653E-01 
    5.7304930423018863E-01 
    5.1319346051121484E-01 
    4.8723281218444775E-01 
    1.6249188761076607E+00 
    1.5988783910032618E+00 
    1.5414072082743313E+00 
    1.4676531657802381E+00 
    1.3864646672900456E+00 
    1.3014223573761348E+00 
    1.2137432015424279E+00 
    1.1238361384074567E+00 
    1.0318919849165322E+00 
    9.3810566778086846E-01 
    8.4285155134195244E-01 
    7.4704621446977115E-01 
    6.5305287522230770E-01 
    5.6660226174248374E-01 
    4.9922338293783719E-01 
    4.6869764862532720E-01 
    1.6106676287206845E+00 
    1.5887516122236536E+00 
    1.5377485491039811E+00 
    1.4691015544903658E+00 
    1.3910928140925625E+00 
    1.3078593735118997E+00 
    1.2211675015601680E+00 
    1.1317426089528342E+00 
    1.0398912201537789E+00 
    9.4575570502899742E-01 
    8.4946623904978780E-01 
    7.5142141566360832E-01 
    6.5312158895802430E-01 
    5.5939900076015925E-01 
    4.8249331467855400E-01 
    4.4519941662540363E-01 
    1.5994146558130184E+00 
    1.5803018442887973E+00 
    1.5344990038998900E+00 
    1.4704243829933408E+00 
    1.3955034678639082E+00 
    1.3141292807785021E+00 
    1.2284950459386412E+00 
    1.1396181975053099E+00 
    1.0479307449079973E+00 
    9.5354264887058193E-01 
    8.5635851996657086E-01 
    7.5624150004741530E-01 
    6.5365594279690142E-01 
    5.5195294958148033E-01 
    4.6314485384529913E-01 
    4.1579982835588702E-01 
    1.5907067129007610E+00 
    1.5735303495849253E+00 
    1.5319030144154602E+00 
    1.4718479976567622E+00 
    1.3998402221302502E+00 
    1.3203142131912344E+00 
    1.2357749733193226E+00 
    1.1474978786152707E+00 
    1.0560442774569585E+00 
    9.6151360572637512E-01 
    8.6361738198241011E-01 
    7.6170173967757249E-01 
    6.5507562289352916E-01 
    5.4495877291617423E-01 
    4.4156698105058090E-01 
    3.7926403265032782E-01 
    1.5841842365624665E+00 
    1.5683928952811099E+00 
    1.5301353142024099E+00 
    1.4735686491151614E+00 
    1.4042440415026851E+00 
    1.3265017470870368E+00 
    1.2430612800667877E+00 
    1.1554183160761464E+00 
    1.0642626541692699E+00 
    9.6970572631973417E-01 
    8.7131110791245725E-01 
    7.6796885974302498E-01 
    6.5781112947798426E-01 
    5.3932121830293744E-01 
    4.1857835593587783E-01 
    3.3392939113191250E-01 
    1.5795515323840867E+00 
    1.5648229733352184E+00 
    1.5293198476414354E+00 
    1.4757542976952389E+00 
    1.4088495617612646E+00 
    1.3327819797780136E+00 
    1.2504115020136859E+00 
    1.1634176257055067E+00 
    1.0726141366230928E+00 
    9.7814614875162142E-01 
    8.7948367264941951E-01 
    7.7516385659106635E-01 
    6.6225972034082980E-01 
    5.3615574826590495E-01 
    3.9573428660188181E-01 
    2.7750776133288024E-01 
    1.5765522229516795E+00 
    1.5627429650862064E+00 
    1.5295433668743157E+00 
    1.4785469692723190E+00 
    1.4137819978133326E+00 
    1.3392442267925899E+00 
    1.2578846877786605E+00 
    1.1715346399505868E+00 
    1.0811247657981435E+00 
    9.8685295593230982E-01 
    8.8815367586214644E-01 
    7.8334644324257852E-01 
    6.6871952427722881E-01 
    5.3671602003253049E-01 
    3.7584213295634372E-01 
    2.0677545288923541E-01 
    1.5749404744631283E+00 
    1.5620590848186107E+00 
    1.5308560758754195E+00 
    1.4820578101110577E+00 
    1.4191488140297714E+00 
    1.3459690125583621E+00 
    1.2655351303021987E+00 
    1.1798046070465791E+00 
    1.0898161370873822E+00 
    9.9583515475726636E-01 
    8.9731526100048964E-01 
    7.9250511783498634E-01 
    6.7730533995380415E-01 
    5.4215146666721692E-01 
    3.6381432892647986E-01 
    1.1702519941134047E-01 
    1.5744525792012780E+00 
    1.5626356244939847E+00 
    1.5332511668038618E+00 
    1.4863510109439904E+00 
    1.4250286098806193E+00 
    1.3530217416605048E+00 
    1.2734091495856008E+00 
    1.1882571063320448E+00 
    1.0987030429125104E+00 
    1.0050893302440234E+00 
    9.0693277200916989E-01 
    8.0254049045884912E-01 
    6.8783562817234367E-01 
    5.5282688465528440E-01 
    3.6786956531383008E-01 
    0.0000000000000000E+00 

SCALARS Saturarion double 1 
LOOKUP_TABLE default 

    1.0000000000000000E+00 
    9.8800672004347712E-01 
    9.7216453723282081E-01 
    9.5482192428875967E-01 
    9.3746342412413708E-01 
    9.2055331662284490E-01 
    9.0416157521698404E-01 
    8.8818629910842983E-01 
    8.7241920625166225E-01 
    8.5652722228361089E-01 
    8.3994516127272811E-01 
    8.2156838113651354E-01 
    7.9871408679869393E-01 
    7.6246372112175498E-01 
    6.7151420442677023E-01 
    2.7202638774859506E-01 
    9.9617117495204577E-01 
    9.8616033777100620E-01 
    9.7144070698783302E-01 
    9.5462671282447864E-01 
    9.3749783300220313E-01 
    9.2070404036446885E-01 
    9.0439077821090630E-01 
    8.8849159475334716E-01 
    8.7282245497472577E-01 
    8.5707662093440040E-01 
    8.4072774419014029E-01 
    8.2274215841626919E-01 
    8.0062015441098211E-01 
    7.6616799188525653E-01 
    6.8218336177786976E-01 
    3.3327823269665485E-01 
    9.9296151442917102E-01 
    9.8345454141091881E-01 
    9.6961046002116369E-01 
    9.5345232985028405E-01 
    9.3670376349773476E-01 
    9.2014983691156793E-01 
    9.0401913686626278E-01 
    8.8828912172072083E-01 
    8.7280600667848895E-01 
    8.5729419537971852E-01 
    8.4126961077449125E-01 
    8.2376874477566675E-01 
    8.0246104786984129E-01 
    7.6980871437603293E-01 
    6.9198677425444077E-01 
    3.8249501089833582E-01 
    9.8914391055499318E-01 
    9.8004942322672584E-01 
    9.6688866261721262E-01 
    9.5138176837807953E-01 
    9.3509553890099195E-01 
    9.1887158392120982E-01 
    9.0300761970611054E-01 
    8.8752633602805153E-01 
    8.7230808031799645E-01 
    8.5711325989750375E-01 
    8.4150510460875727E-01 
    8.2459173698915789E-01 
    8.0419897168159094E-01 
    7.7338015146851957E-01 
    7.0121764729808511E-01 
    4.2374144061211644E-01 
    9.8452797656652369E-01 
    9.7590181302323920E-01 
    9.6335051455687193E-01 
    9.4847106743533771E-01 
    9.3269321032856156E-01 
    9.1686721439437924E-01 
    9.0134018561188967E-01 
    8.8617642771151861E-01 
    8.7129180729687594E-01 
    8.5648674443217299E-01 
    8.4137816849190317E-01 
    8.2515157741475642E-01 
    8.0578190837114472E-01 
    7.7685737501027663E-01 
    7.1004777981621259E-01 
    4.5920152987784763E-01 
    9.7895836490559041E-01 
    9.7092105504405213E-01 
    9.5898107259998022E-01 
    9.4472283535606538E-01 
    9.2948683638106466E-01 
    9.1411431542999255E-01 
    8.9898572245349451E-01 
    8.8420138121620162E-01 
    8.6971211745687660E-01 
    8.5536115556683812E-01 
    8.4082612796726619E-01 
    8.2537987945565749E-01 
    8.0714650346017902E-01 
    7.8020167796543594E-01 
    7.1857404143661585E-01 
    4.9051359342985495E-01 
    9.7227124106652596E-01 
    9.6498290778314255E-01 
    9.5370745472268748E-01 
    9.4009001100577916E-01 
    9.2543063816292903E-01 
    9.1056242881955562E-01 
    8.9588964120422121E-01 
    8.8154315106597381E-01 
    8.6750684167909764E-01 
    8.5366807364558228E-01 
    8.3977203887212626E-01 
    8.2519289634390980E-01 
    8.0821296196701509E-01 
    7.8335731476084081E-01 
    7.2683920163835636E-01 
    5.1885618350657936E-01 
    9.6427191517142008E-01 
    9.5792309012228583E-01 
    9.4740457433050973E-01 
    9.3447431797025071E-01 
    9.2043561922571138E-01 
    9.0612420706311270E-01 
    8.9196482908899555E-01 
    8.7811475897218805E-01 
    8.6458821799767105E-01 
    8.5131631154078025E-01 
    8.3811745444453345E-01 
    8.2448433401790422E-01 
    8.0887777038052311E-01 
    7.8624581171887653E-01 
    7.3484119709582763E-01 
    5.4506041648463277E-01 
    9.5470856831357664E-01 
    9.4951946789935504E-01 
    9.3988438195776680E-01 
    9.2771451663363458E-01 
    9.1435492881201075E-01 
    9.0065979276353281E-01 
    8.8707610711426277E-01 
    8.7378529481111400E-01 
    8.6082882866457022E-01 
    8.4817919438445888E-01 
    8.3573112856900600E-01 
    8.2311457173703373E-01 
    8.0900257837595890E-01 
    7.8875677530019350E-01 
    7.4253527320991830E-01 
    5.6970480045075567E-01 
    9.4323078202260657E-01 
    9.3945831193445239E-01 
    9.3086720301890025E-01 
    9.1955881639485815E-01 
    9.0695523100820452E-01 
    8.9394769781419448E-01 
    8.8101140177217796E-01 
    8.6835199163758814E-01 
    8.5603524802245423E-01 
    8.4407057561948784E-01 
    8.3242794575988355E-01 
    8.2089156536853924E-01 
    8.0839519477134303E-01 
    7.9073181971151907E-01 
    7.4982957224174696E-01 
    5.9317764957492780E-01 
    9.2931377923194058E-01 
    9.2726910505355475E-01 
    9.1992183848823472E-01 
    9.0960706079304321E-01 
    8.9785887815944365E-01 
    8.8562673180317708E-01 
    8.7342398698616774E-01 
    8.6148368664692609E-01 
    8.4989399273094179E-01 
    8.3869491546606334E-01 
    8.2792477840757117E-01 
    8.1753220790158643E-01 
    8.0677311515345940E-01 
    7.9193358232868316E-01 
    7.5657117711569366E-01 
    6.1571039797898219E-01 
    9.1209840438040046E-01 
    9.1218458419384618E-01 
    9.0633389079094129E-01 
    8.9718212427084065E-01 
    8.8641522297734476E-01 
    8.7506599455605816E-01 
    8.6370147348428694E-01 
    8.5259047458635917E-01 
    8.4184478343378655E-01 
    8.3152817587541350E-01 
    8.2173367968204858E-01 
    8.1257046829532820E-01 
    8.0368206205768145E-01 
    7.9197775062234899E-01 
    7.6251173251226956E-01 
    6.3738558336306339E-01 
    8.8997764069457008E-01 
    8.9278069605502286E-01 
    8.8876487081706812E-01 
    8.8099304614376028E-01 
    8.7135888368117831E-01 
    8.6101343238407113E-01 
    8.5060383977009690E-01 
    8.4045497869651897E-01 
    8.3071373688813166E-01 
    8.2146593492801789E-01 
    8.1284084118149402E-01 
    8.0508207485962235E-01 
    7.9826663324586189E-01 
    7.9015116349369530E-01 
    7.6721382781969316E-01 
    6.5811465876576669E-01 
    8.5910755036779540E-01 
    8.6570722420786095E-01 
    8.6405312026709680E-01 
    8.5793554066013045E-01 
    8.4956746631064473E-01 
    8.4028532929636879E-01 
    8.3087517506772135E-01 
    8.2177564111795531E-01 
    8.1322002729882192E-01 
    8.0534902636764383E-01 
    7.9832703855395926E-01 
    7.9248570910309002E-01 
    7.8831349753465785E-01 
    7.8471614779368382E-01 
    7.6970618372772559E-01 
    6.7753921597234401E-01 
    8.0507727103277005E-01 
    8.1857886982987460E-01 
    8.2050977794134683E-01 
    8.1638717180661591E-01 
    8.0912292558086840E-01 
    8.0045245573113122E-01 
    7.9147103786480932E-01 
    7.8290777811193712E-01 
    7.7528999564537227E-01 
    7.6904960563015246E-01 
    7.6460917894954827E-01 
    7.6251022918043809E-01 
    7.6361522263855375E-01 
    7.6822900691704510E-01 
    7.6624931305034993E-01 
    6.9439678716069864E-01 
    6.2626308513020257E-01 
    6.6762481059904033E-01 
    6.8163392661393574E-01 
    6.8311138950948547E-01 
    6.7802206669713672E-01 
    6.6942812892616022E-01 
    6.5909545849391882E-01 
    6.4816065674266932E-01 
    6.3753657471732339E-01 
    6.2826886460180975E-01 
    6.2196839278145311E-01 
    6.2144221022728818E-01 
    6.3162570892440983E-01 
    6.6024320872903053E-01 
    7.0878889769829456E-01 
    6.9650138812476425E-01 
