# vtk DataFile Version 2.0
Pressure Field Data 
ASCII 
DATASET UNSTRUCTURED_GRID 

POINTS 289 double 

    0.0000000000000000E+00     0.0000000000000000E+00     0.0000000000000000E+00 
    1.0000000000000000E+00     0.0000000000000000E+00     0.0000000000000000E+00 
    1.0000000000000000E+00     1.0000000000000000E+00     0.0000000000000000E+00 
    0.0000000000000000E+00     1.0000000000000000E+00     0.0000000000000000E+00 
    6.2499999999872928E-02     0.0000000000000000E+00     0.0000000000000000E+00 
    1.2499999999977310E-01     0.0000000000000000E+00     0.0000000000000000E+00 
    1.8749999999959341E-01     0.0000000000000000E+00     0.0000000000000000E+00 
    2.4999999999941089E-01     0.0000000000000000E+00     0.0000000000000000E+00 
    3.1249999999922851E-01     0.0000000000000000E+00     0.0000000000000000E+00 
    3.7499999999904610E-01     0.0000000000000000E+00     0.0000000000000000E+00 
    4.3749999999886358E-01     0.0000000000000000E+00     0.0000000000000000E+00 
    4.9999999999869210E-01     0.0000000000000000E+00     0.0000000000000000E+00 
    5.6249999999884603E-01     0.0000000000000000E+00     0.0000000000000000E+00 
    6.2499999999901090E-01     0.0000000000000000E+00     0.0000000000000000E+00 
    6.8749999999917577E-01     0.0000000000000000E+00     0.0000000000000000E+00 
    7.4999999999934064E-01     0.0000000000000000E+00     0.0000000000000000E+00 
    8.1249999999950551E-01     0.0000000000000000E+00     0.0000000000000000E+00 
    8.7499999999967026E-01     0.0000000000000000E+00     0.0000000000000000E+00 
    9.3749999999983513E-01     0.0000000000000000E+00     0.0000000000000000E+00 
    1.0000000000000000E+00     6.2499999999872928E-02     0.0000000000000000E+00 
    1.0000000000000000E+00     1.2499999999977310E-01     0.0000000000000000E+00 
    1.0000000000000000E+00     1.8749999999959341E-01     0.0000000000000000E+00 
    1.0000000000000000E+00     2.4999999999941089E-01     0.0000000000000000E+00 
    1.0000000000000000E+00     3.1249999999922851E-01     0.0000000000000000E+00 
    1.0000000000000000E+00     3.7499999999904610E-01     0.0000000000000000E+00 
    1.0000000000000000E+00     4.3749999999886358E-01     0.0000000000000000E+00 
    1.0000000000000000E+00     4.9999999999869210E-01     0.0000000000000000E+00 
    1.0000000000000000E+00     5.6249999999884603E-01     0.0000000000000000E+00 
    1.0000000000000000E+00     6.2499999999901090E-01     0.0000000000000000E+00 
    1.0000000000000000E+00     6.8749999999917577E-01     0.0000000000000000E+00 
    1.0000000000000000E+00     7.4999999999934064E-01     0.0000000000000000E+00 
    1.0000000000000000E+00     8.1249999999950551E-01     0.0000000000000000E+00 
    1.0000000000000000E+00     8.7499999999967026E-01     0.0000000000000000E+00 
    1.0000000000000000E+00     9.3749999999983513E-01     0.0000000000000000E+00 
    9.3749999999973976E-01     1.0000000000000000E+00     0.0000000000000000E+00 
    8.7499999999950118E-01     1.0000000000000000E+00     0.0000000000000000E+00 
    8.1249999999991318E-01     1.0000000000000000E+00     0.0000000000000000E+00 
    7.5000000000034706E-01     1.0000000000000000E+00     0.0000000000000000E+00 
    6.8750000000078049E-01     1.0000000000000000E+00     0.0000000000000000E+00 
    6.2500000000121403E-01     1.0000000000000000E+00     0.0000000000000000E+00 
    5.6250000000164757E-01     1.0000000000000000E+00     0.0000000000000000E+00 
    5.0000000000205946E-01     1.0000000000000000E+00     0.0000000000000000E+00 
    4.3750000000182099E-01     1.0000000000000000E+00     0.0000000000000000E+00 
    3.7500000000156092E-01     1.0000000000000000E+00     0.0000000000000000E+00 
    3.1250000000130068E-01     1.0000000000000000E+00     0.0000000000000000E+00 
    2.5000000000104050E-01     1.0000000000000000E+00     0.0000000000000000E+00 
    1.8750000000078040E-01     1.0000000000000000E+00     0.0000000000000000E+00 
    1.2500000000052031E-01     1.0000000000000000E+00     0.0000000000000000E+00 
    6.2500000000260125E-02     1.0000000000000000E+00     0.0000000000000000E+00 
    0.0000000000000000E+00     9.3749999999973976E-01     0.0000000000000000E+00 
    0.0000000000000000E+00     8.7499999999950118E-01     0.0000000000000000E+00 
    0.0000000000000000E+00     8.1249999999991318E-01     0.0000000000000000E+00 
    0.0000000000000000E+00     7.5000000000034706E-01     0.0000000000000000E+00 
    0.0000000000000000E+00     6.8750000000078049E-01     0.0000000000000000E+00 
    0.0000000000000000E+00     6.2500000000121403E-01     0.0000000000000000E+00 
    0.0000000000000000E+00     5.6250000000164757E-01     0.0000000000000000E+00 
    0.0000000000000000E+00     5.0000000000205946E-01     0.0000000000000000E+00 
    0.0000000000000000E+00     4.3750000000182099E-01     0.0000000000000000E+00 
    0.0000000000000000E+00     3.7500000000156092E-01     0.0000000000000000E+00 
    0.0000000000000000E+00     3.1250000000130068E-01     0.0000000000000000E+00 
    0.0000000000000000E+00     2.5000000000104050E-01     0.0000000000000000E+00 
    0.0000000000000000E+00     1.8750000000078040E-01     0.0000000000000000E+00 
    0.0000000000000000E+00     1.2500000000052031E-01     0.0000000000000000E+00 
    0.0000000000000000E+00     6.2500000000260125E-02     0.0000000000000000E+00 
    6.2499999999897131E-02     6.2500000000235922E-02     0.0000000000000000E+00 
    6.2499999999921327E-02     1.2500000000047351E-01     0.0000000000000000E+00 
    6.2499999999945530E-02     1.8750000000070621E-01     0.0000000000000000E+00 
    6.2499999999969733E-02     2.5000000000093858E-01     0.0000000000000000E+00 
    6.2499999999993928E-02     3.1250000000117117E-01     0.0000000000000000E+00 
    6.2500000000018124E-02     3.7500000000140382E-01     0.0000000000000000E+00 
    6.2500000000042327E-02     4.3750000000163619E-01     0.0000000000000000E+00 
    6.2500000000066530E-02     5.0000000000184897E-01     0.0000000000000000E+00 
    6.2500000000090733E-02     5.6250000000147260E-01     0.0000000000000000E+00 
    6.2500000000114922E-02     6.2500000000107636E-01     0.0000000000000000E+00 
    6.2500000000139125E-02     6.8750000000068034E-01     0.0000000000000000E+00 
    6.2500000000163328E-02     7.5000000000028411E-01     0.0000000000000000E+00 
    6.2500000000187531E-02     8.1249999999988787E-01     0.0000000000000000E+00 
    6.2500000000211720E-02     8.7499999999951172E-01     0.0000000000000000E+00 
    6.2500000000235922E-02     9.3749999999974565E-01     0.0000000000000000E+00 
    1.2499999999981980E-01     6.2500000000211733E-02     0.0000000000000000E+00 
    1.2499999999986650E-01     1.2500000000042691E-01     0.0000000000000000E+00 
    1.2499999999991319E-01     1.8750000000063199E-01     0.0000000000000000E+00 
    1.2499999999995989E-01     2.5000000000083678E-01     0.0000000000000000E+00 
    1.2500000000000661E-01     3.1250000000104172E-01     0.0000000000000000E+00 
    1.2500000000005329E-01     3.7500000000124661E-01     0.0000000000000000E+00 
    1.2500000000010000E-01     4.3750000000145117E-01     0.0000000000000000E+00 
    1.2500000000014669E-01     5.0000000000163858E-01     0.0000000000000000E+00 
    1.2500000000019340E-01     5.6250000000129741E-01     0.0000000000000000E+00 
    1.2500000000024011E-01     6.2500000000093847E-01     0.0000000000000000E+00 
    1.2500000000028680E-01     6.8750000000057998E-01     0.0000000000000000E+00 
    1.2500000000033351E-01     7.5000000000022127E-01     0.0000000000000000E+00 
    1.2500000000038020E-01     8.1249999999986211E-01     0.0000000000000000E+00 
    1.2500000000042691E-01     8.7499999999952238E-01     0.0000000000000000E+00 
    1.2500000000047359E-01     9.3749999999975164E-01     0.0000000000000000E+00 
    1.8749999999966760E-01     6.2500000000187531E-02     0.0000000000000000E+00 
    1.8749999999974179E-01     1.2500000000038020E-01     0.0000000000000000E+00 
    1.8749999999981601E-01     1.8750000000055780E-01     0.0000000000000000E+00 
    1.8749999999989009E-01     2.5000000000073502E-01     0.0000000000000000E+00 
    1.8749999999996431E-01     3.1250000000091221E-01     0.0000000000000000E+00 
    1.8750000000003850E-01     3.7500000000108941E-01     0.0000000000000000E+00 
    1.8750000000011269E-01     4.3750000000126649E-01     0.0000000000000000E+00 
    1.8750000000018691E-01     5.0000000000142808E-01     0.0000000000000000E+00 
    1.8750000000026110E-01     5.6250000000112244E-01     0.0000000000000000E+00 
    1.8750000000033529E-01     6.2500000000080080E-01     0.0000000000000000E+00 
    1.8750000000040951E-01     6.8750000000047962E-01     0.0000000000000000E+00 
    1.8750000000048361E-01     7.5000000000015843E-01     0.0000000000000000E+00 
    1.8750000000055780E-01     8.1249999999983680E-01     0.0000000000000000E+00 
    1.8750000000063199E-01     8.7499999999953304E-01     0.0000000000000000E+00 
    1.8750000000070621E-01     9.3749999999975764E-01     0.0000000000000000E+00 
    2.4999999999951281E-01     6.2500000000163314E-02     0.0000000000000000E+00 
    2.4999999999961461E-01     1.2500000000033351E-01     0.0000000000000000E+00 
    2.4999999999971650E-01     1.8750000000048361E-01     0.0000000000000000E+00 
    2.4999999999981831E-01     2.5000000000063310E-01     0.0000000000000000E+00 
    2.4999999999992020E-01     3.1250000000078260E-01     0.0000000000000000E+00 
    2.5000000000002198E-01     3.7500000000093209E-01     0.0000000000000000E+00 
    2.5000000000012390E-01     4.3750000000108180E-01     0.0000000000000000E+00 
    2.5000000000022571E-01     5.0000000000121769E-01     0.0000000000000000E+00 
    2.5000000000032763E-01     5.6250000000094724E-01     0.0000000000000000E+00 
    2.5000000000042938E-01     6.2500000000066314E-01     0.0000000000000000E+00 
    2.5000000000053119E-01     6.8750000000037925E-01     0.0000000000000000E+00 
[...]
CELL_DATA 256 
SCALARS Pressure double 1 
LOOKUP_TABLE default 

    1.9770456784422294E+00 
    1.7444879042315231E+00 
    1.6128993558081546E+00 
    1.5073004755499806E+00 
    1.4099127981479374E+00 
    1.3148372927691014E+00 
    1.2197732275169857E+00 
    1.1238917682431735E+00 
    1.0271847597888715E+00 
    9.3032737600900040E-01 
    8.3478187078052957E-01 
    7.4295931955822370E-01 
    6.5809304048913608E-01 
    5.8406695354306604E-01 
    5.3867630790207688E-01 
    5.2548838783660812E-01 
    1.9056681296522293E+00 
    1.7484988604520504E+00 
    1.6216052146333357E+00 
    1.5162699982940746E+00 
    1.4189529800173759E+00 
    1.3239950832400889E+00 
    1.2290627620148402E+00 
    1.1332770023633192E+00 
    1.0365684418882282E+00 
    9.3952789950202076E-01 
    8.4350656630930632E-01 
    7.5080478341908918E-01 
    6.6460693696575945E-01 
    5.8858748526734006E-01 
    5.3981930482262064E-01 
    5.2501827718684457E-01 
    1.8502732083792492E+00 
    1.7418555150578547E+00 
    1.6267518060661652E+00 
    1.5238746998750883E+00 
    1.4273356467141036E+00 
    1.3327711480929743E+00 
    1.2380846349106855E+00 
    1.1424280336289834E+00 
    1.0456928617453847E+00 
    9.4837963091878774E-01 
    8.5170395113378650E-01 
    7.5782487758329864E-01 
    6.6989515575046954E-01 
    5.9166656366708403E-01 
    5.3920976621693295E-01 
    5.2312982378696182E-01 
    1.8067094136615458E+00 
    1.7300548912210780E+00 
    1.6286300158917437E+00 
    1.5300129532218820E+00 
    1.4350000828130927E+00 
    1.3411413659554972E+00 
    1.2468366977467762E+00 
    1.1513604441123626E+00 
    1.0545942665832102E+00 
    9.5694700342005778E-01 
    8.5947403688176527E-01 
    7.6415065115833947E-01 
    6.7407427861876568E-01 
    5.9323750140258935E-01 
    5.3674715137933715E-01 
    5.1951768574728696E-01 
    1.7720626601860829E+00 
    1.7162692881614336E+00 
    1.6279798002176125E+00 
    1.5347469306423109E+00 
    1.4419310667003302E+00 
    1.3490972752707973E+00 
    1.2553236573879873E+00 
    1.1600932768883758E+00 
    1.0633109964410827E+00 
    9.6529693159015129E-01 
    8.6692243418496195E-01 
    7.6992478209190018E-01 
    6.7727966931433181E-01 
    5.9327708413820501E-01 
    5.3230215863556885E-01 
    5.1385510768394382E-01 
    1.7442907344759981E+00 
    1.7023021341302766E+00 
    1.6256126553045349E+00 
    1.5382630187393238E+00 
    1.4481627665210737E+00 
    1.3566492202383267E+00 
    1.2635582257385432E+00 
    1.1686490965666407E+00 
    1.0718828089699719E+00 
    9.7349766676138461E-01 
    8.7415977250160448E-01 
    7.7530484208690453E-01 
    6.7967672064989704E-01 
    5.9181302809980740E-01 
    5.2572551540967938E-01 
    5.0575488191281237E-01 
    1.7219401237968386E+00 
    1.6891498949648707E+00 
    1.6222556570104540E+00 
    1.5408187475438162E+00 
    1.4537735057037158E+00 
    1.3638274371586703E+00 
    1.2715618945662630E+00 
    1.1770539991617026E+00 
    1.0803501270078129E+00 
    9.8161727289531064E-01 
    8.8130007095017227E-01 
    7.8046469189383827E-01 
    6.8147102604288801E-01 
    5.8893662031394323E-01 
    5.1684328614912733E-01 
    4.9471255380446227E-01 
    1.7039585254595153E+00 
    1.6773362629269450E+00 
    1.6185024174224822E+00 
    1.5426987419802927E+00 
    1.4588755115129695E+00 
    1.3706810784441890E+00 
    1.2793651886702349E+00 
    1.1853375506511252E+00 
    1.0887532701889724E+00 
    9.8972180329547155E-01 
    8.8845797191544207E-01 
    7.8559355723657009E-01 
    6.8291738739146557E-01 
    5.8482117225155605E-01 
    5.0545534664954339E-01 
    4.8002546670797941E-01 
    1.6895699403764524E+00 
    1.6671108956867813E+00 
    1.6148124223858831E+00 
    1.5441847802074617E+00 
    1.4636034023033384E+00 
    1.3772757093576189E+00 
    1.2870073824440451E+00 
    1.1935326483512085E+00 
    1.0971317357641939E+00 
    9.9787329853060491E-01 
    8.9574481826060415E-01 
    7.9089209889476497E-01 
    6.8432661706382392E-01 
    5.7975211899749268E-01 
    4.9135302495477318E-01 
    4.6067993170702393E-01 
    1.6781903681555816E+00 
    1.6585673505430878E+00 
    1.6115294610728634E+00 
    1.5455385074608092E+00 
    1.4681037866232343E+00 
    1.3836899935920171E+00 
    1.2945357865732787E+00 
    1.2016753384372008E+00 
    1.1055236231038446E+00 
    1.0061278064839860E+00 
    9.0326372396602139E-01 
    7.9656468077095288E-01 
    6.8606728978297093E-01 
    5.7417151121287102E-01 
    4.7438662343311278E-01 
    4.3521650994815136E-01 
    1.6693698486540534E+00 
    1.6517127178916240E+00 
    1.6089051452633500E+00 
    1.5469935356577411E+00 
    1.4725270783522604E+00 
    1.3900122128442480E+00 
    1.3020047816301785E+00 
    1.2098046617679425E+00 
    1.1139653290630400E+00 
    1.0145337198657587E+00 
    9.1110406658571197E-01 
    8.0280726670468572E-01 
    6.8855756395115209E-01 
    5.6873221626458748E-01 
    4.5463365571989572E-01 
    4.0163384320965034E-01 
    1.6627514613274663E+00 
    1.6465082428808655E+00 
    1.6071212740939236E+00 
    1.5487536688383052E+00 
    1.4770217269621404E+00 
    1.3963370586073172E+00 
    1.3094747849498303E+00 
    1.2179626338060781E+00 
    1.1224916806203127E+00 
    1.0231308277004829E+00 
    9.1933621491834139E-01 
    8.0979115740844987E-01 
    6.9224068537237105E-01 
    5.6434475963306008E-01 
    4.3270175212200362E-01 
    3.5741345882204067E-01 
    1.6580406211456262E+00 
    1.6428919880359472E+00 
    1.6063083012859105E+00 
    1.5509943521792167E+00 
    1.4817303382979379E+00 
    1.4027627741106261E+00 
    1.3170112401144900E+00 
    1.2261944853866327E+00 
    1.1311367573074023E+00 
    1.0319506351085861E+00 
    9.2800781136981381E-01 
    8.1764434011548626E-01 
    6.9753802915550345E-01 
    5.6218553964001350E-01 
    4.1013845105670627E-01 
    2.9956217669367313E-01 
    1.6549779220153404E+00 
    1.6407876296286945E+00 
    1.6065568703121700E+00 
    1.5538634127207984E+00 
    1.4867855606941940E+00 
    1.4093875590205913E+00 
    1.3246830890730590E+00 
    1.2345491329214870E+00 
    1.1399359017849946E+00 
    1.0410190455060537E+00 
    9.3714388991150765E-01 
    8.2643497920610409E-01 
    7.0477723828718053E-01 
    5.6361839278615833E-01 
    3.8997907442631408E-01 
    2.2437555314870800E-01 
    1.6533027665891065E+00 
    1.6400900603827253E+00 
    1.6079097363261907E+00 
    1.5574693224594143E+00 
    1.4922971470354700E+00 
    1.4162992358558082E+00 
    1.3325568034383630E+00 
    1.2430782766475921E+00 
    1.1489301584151601E+00 
    1.0503656710703466E+00 
    9.4675828221493108E-01 
    8.3617012820145109E-01 
    7.1410840909191320E-01 
    5.6994476766900071E-01 
    3.7764807948877760E-01 
    1.2684986664977002E-01 
    1.6528003355813272E+00 
    1.6406951967167209E+00 
    1.6103802769728208E+00 
    1.5618931998729666E+00 
    1.4983605466001848E+00 
    1.4235820677665536E+00 
    1.3407014072082886E+00 
    1.2518392194717054E+00 
    1.1581667976549959E+00 
    1.0600224664867555E+00 
    9.5685144093922081E-01 
    8.4678685754575722E-01 
    7.2539757243685210E-01 
    5.8170652947323676E-01 
    3.8246679295792324E-01 
    0.0000000000000000E+00 

SCALARS Saturarion double 1 
LOOKUP_TABLE default 

    1.0000000000000000E+00 
    9.8488891336450235E-01 
    9.6515814917346932E-01 
    9.4368033967964393E-01 
    9.2219715733426366E-01 
    9.0118465775846135E-01 
    8.8063431366220490E-01 
    8.6030277955050261E-01 
    8.3974399175815428E-01 
    8.1818256007194878E-01 
    7.9408521885853900E-01 
    7.6369321331220141E-01 
    7.1429261051082060E-01 
    5.8433619423636241E-01 
    1.9432632254687851E-01 
    2.1081327616577867E-03 
    9.9513913949651611E-01 
    9.8257504206040225E-01 
    9.6426736079257958E-01 
    9.4346750856823502E-01 
    9.2229315255973654E-01 
    9.0145074986814255E-01 
    8.8102566700221097E-01 
    8.6082105957043642E-01 
    8.4042772266553578E-01 
    8.1912049230976491E-01 
    7.9546953035602541E-01 
    7.6601801692367688E-01 
    7.1944500587053573E-01 
    6.0342087566039271E-01 
    2.4537234383982851E-01 
    4.9804117032298343E-03 
    9.9108706060681329E-01 
    9.7919649763820982E-01 
    9.6202272751784879E-01 
    9.4208044256778178E-01 
    9.2142166764633637E-01 
    9.0091848410008957E-01 
    8.8075789965710571E-01 
    8.6079828966936622E-01 
    8.4067217327184685E-01 
    8.1970688499260280E-01 
    7.9657432426193731E-01 
    7.6809559295234020E-01 
    7.2409149983731036E-01 
    6.1885349701792935E-01 
    2.9123124523582405E-01 
    9.7102386312850706E-03 
    9.8629572901478202E-01 
    9.7496618269946900E-01 
    9.5869766294521053E-01 
    9.3962230305523198E-01 
    9.1959671087454331E-01 
    8.9955895000517461E-01 
    8.7977799879387364E-01 
    8.6016679394651774E-01 
    8.4040151215025305E-01 
    8.1986385813248530E-01 
    7.9732692204904998E-01 
    7.6987236543610438E-01 
    7.2830905708137084E-01 
    6.3238251935736489E-01 
    3.3562967568852814E-01 
    1.7401507141113593E-02 
    9.8054224573595672E-01 
    9.6984464022166395E-01 
    9.5439665594323864E-01 
    9.3616972458872283E-01 
    9.1684720434974476E-01 
    8.9737212861695326E-01 
    8.7806885364143694E-01 
    8.5889813940756243E-01 
    8.3957887225202588E-01 
    8.1954809921237759E-01 
    7.9768101361847932E-01 
    7.7131087358890693E-01 
    7.3214050150790799E-01 
    6.4462170460843882E-01 
    3.7741414297104803E-01 
    2.9173449287101090E-02 
    9.7365512966692580E-01 
    9.6373761967282179E-01 
    9.4911687283074964E-01 
    9.3173898407562006E-01 
    9.1317180182364777E-01 
    8.9434021773882277E-01 
    8.7560223040122909E-01 
    8.5695727511476794E-01 
    8.3816366881925408E-01 
    8.1871339595883974E-01 
    7.9758524942747389E-01 
    7.7236163896315069E-01 
    7.3557936915420064E-01 
    6.5583517180941597E-01 
    4.1592524665361291E-01 
    4.6316533384177259E-02 
    9.6546036383195810E-01 
    9.5651493189335912E-01 
    9.4278889978963321E-01 
    9.2629065229235985E-01 
    9.0853140756149153E-01 
    8.9041798630497371E-01 
    8.7232854024313233E-01 
    8.5429217049830020E-01 
    8.3610165980714202E-01 
    8.1730175579936271E-01 
    7.9697577834951283E-01 
    7.7295728643975903E-01 
    7.3857966377434969E-01 
    6.6614394337051319E-01 
    4.5107258713728843E-01 
    7.0278597611015764E-02 
    9.5575506837103918E-01 
    9.4800430734612429E-01 
    9.3528542712671314E-01 
    9.1972882701213732E-01 
    9.0284104194712189E-01 
    8.8552300148752228E-01 
    8.6816718736391241E-01 
    8.5082480445943365E-01 
    8.3331696165773383E-01 
    8.1523686104488624E-01 
    7.9577135986870762E-01 
    7.7300931359908798E-01 
    7.4106099241573087E-01 
    6.7558614632299274E-01 
    4.8313650476324671E-01 
    1.0262313649073397E-01 
    9.4427742674394588E-01 
    9.3797194394150185E-01 
    9.2641042726092115E-01 
    9.1188891951247819E-01 
    8.9595408149475331E-01 
    8.7951899982281823E-01 
    8.6299065685452669E-01 
    8.4643664474152913E-01 
    8.2969928477118471E-01 
    8.1241331572303066E-01 
    7.9386474321720202E-01 
    7.7240128997288893E-01 
    7.4290576010964593E-01 
    6.8413357366916494E-01 
    5.1252488384277406E-01 
    1.4461052618596854E-01 
    9.3065916871773069E-01 
    9.2608450776282802E-01 
    9.1586743725340791E-01 
    9.0250729687479758E-01 
    8.8763088416988789E-01 
    8.7218462939675367E-01 
    8.5659482572762513E-01 
    8.4094155031254347E-01 
    8.2508014860918133E-01 
    8.0867661240403155E-01 
    7.9110636786813182E-01 
    7.7097512397027224E-01 
    7.4394688173453705E-01 
    6.9168866859733547E-01 
    5.3961209617875305E-01 
    1.9618344137022403E-01 
    9.1433650927160326E-01 
    9.1183326036787460E-01 
    9.0319048634524624E-01 
    8.9115507635570557E-01 
    8.7747327241572115E-01 
    8.6314922235970326E-01 
    8.4863784273103193E-01 
    8.3402967196440092E-01 
    8.1918331729204330E-01 
    8.0378105004484934E-01 
    7.8726993367327303E-01 
    7.6850232763527437E-01 
    7.4393986140848178E-01 
    6.9806283963194049E-01 
    5.6463934123814452E-01 
    2.5436221911644441E-01 
    8.9435133877176398E-01 
    8.9436238776231336E-01 
    8.8758410248042774E-01 
    8.7708288517326638E-01 
    8.6477087244013806E-01 
    8.5174130859087882E-01 
    8.3849430664525848E-01 
    8.2513214582978878E-01 
    8.1150453244966070E-01 
    7.9728747356011265E-01 
    7.8196895994921067E-01 
    7.6461621935997814E-01 
    7.4249924383535648E-01 
    7.0291894654256437E-01 
    5.8764568511167004E-01 
    3.1355159266718324E-01 
    8.6879106513076831E-01 
    8.7199000442760588E-01 
    8.6747502763117468E-01 
    8.5878080744682850E-01 
    8.4805937749526339E-01 
    8.3654528775194537E-01 
    8.2481978259104061E-01 
    8.1301019902942218E-01 
    8.0094429436741921E-01 
    7.8825429598651719E-01 
    7.7441121470544128E-01 
    7.5862164835911106E-01 
    7.3893220607548615E-01 
    7.0561467400863098E-01 
    6.0839207197568812E-01 
    3.6934413050884218E-01 
    8.3251962329941498E-01 
    8.4030579687070273E-01 
    8.3873669214052538E-01 
    8.3221654747333074E-01 
    8.2331893201944828E-01 
    8.1355201940837341E-01 
    8.0368881010569615E-01 
    7.9395486846616992E-01 
    7.8416697750171793E-01 
    7.7385067961510334E-01 
    7.6232642951007834E-01 
    7.4873275840132070E-01 
    7.3167160379970231E-01 
    7.0469045984648815E-01 
    6.2613002438847709E-01 
    4.2018001205288863E-01 
    7.6343835528479931E-01 
    7.8039305959780481E-01 
    7.8372484113598351E-01 
    7.8005102860215392E-01 
    7.7301762431489252E-01 
    7.6487065293261569E-01 
    7.5702247602432904E-01 
    7.5025739172238159E-01 
    7.4475102350684530E-01 
    7.4000273476371004E-01 
    7.3480810883647962E-01 
    7.2740610788616000E-01 
    7.1578161280802977E-01 
    6.9633835539831090E-01 
    6.3866018558605153E-01 
    4.6537834597514444E-01 
    4.9637355956370915E-01 
    5.7169986285630758E-01 
    5.9607071874339790E-01 
    6.0069578869232931E-01 
    5.9549469351228446E-01 
    5.8511236536057454E-01 
    5.7222114422483616E-01 
    5.5875546078448002E-01 
    5.4664382619026486E-01 
    5.3823733840054688E-01 
    5.3581074216544966E-01 
    5.3884901937017504E-01 
    5.4052644855578458E-01 
    5.3841255197433791E-01 
    5.6280051559464905E-01 
    4.8174982796854077E-01 
