# vtk DataFile Version 2.0
Pressure Field Data 
ASCII 
DATASET UNSTRUCTURED_GRID 

POINTS 289 double 

    0.0000000000000000E+00     0.0000000000000000E+00     0.0000000000000000E+00 
    1.0000000000000000E+00     0.0000000000000000E+00     0.0000000000000000E+00 
    1.0000000000000000E+00     1.0000000000000000E+00     0.0000000000000000E+00 
    0.0000000000000000E+00     1.0000000000000000E+00     0.0000000000000000E+00 
    6.2499999999872928E-02     0.0000000000000000E+00     0.0000000000000000E+00 
    1.2499999999977310E-01     0.0000000000000000E+00     0.0000000000000000E+00 
    1.8749999999959341E-01     0.0000000000000000E+00     0.0000000000000000E+00 
    2.4999999999941089E-01     0.0000000000000000E+00     0.0000000000000000E+00 
    3.1249999999922851E-01     0.0000000000000000E+00     0.0000000000000000E+00 
    3.7499999999904610E-01     0.0000000000000000E+00     0.0000000000000000E+00 
    4.3749999999886358E-01     0.0000000000000000E+00     0.0000000000000000E+00 
    4.9999999999869210E-01     0.0000000000000000E+00     0.0000000000000000E+00 
    5.6249999999884603E-01     0.0000000000000000E+00     0.0000000000000000E+00 
    6.2499999999901090E-01     0.0000000000000000E+00     0.0000000000000000E+00 
    6.8749999999917577E-01     0.0000000000000000E+00     0.0000000000000000E+00 
    7.4999999999934064E-01     0.0000000000000000E+00     0.0000000000000000E+00 
    8.1249999999950551E-01     0.0000000000000000E+00     0.0000000000000000E+00 
    8.7499999999967026E-01     0.0000000000000000E+00     0.0000000000000000E+00 
    9.3749999999983513E-01     0.0000000000000000E+00     0.0000000000000000E+00 
    1.0000000000000000E+00     6.2499999999872928E-02     0.0000000000000000E+00 
    1.0000000000000000E+00     1.2499999999977310E-01     0.0000000000000000E+00 
    1.0000000000000000E+00     1.8749999999959341E-01     0.0000000000000000E+00 
    1.0000000000000000E+00     2.4999999999941089E-01     0.0000000000000000E+00 
    1.0000000000000000E+00     3.1249999999922851E-01     0.0000000000000000E+00 
    1.0000000000000000E+00     3.7499999999904610E-01     0.0000000000000000E+00 
    1.0000000000000000E+00     4.3749999999886358E-01     0.0000000000000000E+00 
    1.0000000000000000E+00     4.9999999999869210E-01     0.0000000000000000E+00 
    1.0000000000000000E+00     5.6249999999884603E-01     0.0000000000000000E+00 
    1.0000000000000000E+00     6.2499999999901090E-01     0.0000000000000000E+00 
    1.0000000000000000E+00     6.8749999999917577E-01     0.0000000000000000E+00 
    1.0000000000000000E+00     7.4999999999934064E-01     0.0000000000000000E+00 
    1.0000000000000000E+00     8.1249999999950551E-01     0.0000000000000000E+00 
    1.0000000000000000E+00     8.7499999999967026E-01     0.0000000000000000E+00 
    1.0000000000000000E+00     9.3749999999983513E-01     0.0000000000000000E+00 
    9.3749999999973976E-01     1.0000000000000000E+00     0.0000000000000000E+00 
    8.7499999999950118E-01     1.0000000000000000E+00     0.0000000000000000E+00 
    8.1249999999991318E-01     1.0000000000000000E+00     0.0000000000000000E+00 
    7.5000000000034706E-01     1.0000000000000000E+00     0.0000000000000000E+00 
    6.8750000000078049E-01     1.0000000000000000E+00     0.0000000000000000E+00 
    6.2500000000121403E-01     1.0000000000000000E+00     0.0000000000000000E+00 
    5.6250000000164757E-01     1.0000000000000000E+00     0.0000000000000000E+00 
    5.0000000000205946E-01     1.0000000000000000E+00     0.0000000000000000E+00 
    4.3750000000182099E-01     1.0000000000000000E+00     0.0000000000000000E+00 
    3.7500000000156092E-01     1.0000000000000000E+00     0.0000000000000000E+00 
    3.1250000000130068E-01     1.0000000000000000E+00     0.0000000000000000E+00 
    2.5000000000104050E-01     1.0000000000000000E+00     0.0000000000000000E+00 
    1.8750000000078040E-01     1.0000000000000000E+00     0.0000000000000000E+00 
    1.2500000000052031E-01     1.0000000000000000E+00     0.0000000000000000E+00 
    6.2500000000260125E-02     1.0000000000000000E+00     0.0000000000000000E+00 
    0.0000000000000000E+00     9.3749999999973976E-01     0.0000000000000000E+00 
    0.0000000000000000E+00     8.7499999999950118E-01     0.0000000000000000E+00 
    0.0000000000000000E+00     8.1249999999991318E-01     0.0000000000000000E+00 
    0.0000000000000000E+00     7.5000000000034706E-01     0.0000000000000000E+00 
    0.0000000000000000E+00     6.8750000000078049E-01     0.0000000000000000E+00 
    0.0000000000000000E+00     6.2500000000121403E-01     0.0000000000000000E+00 
    0.0000000000000000E+00     5.6250000000164757E-01     0.0000000000000000E+00 
    0.0000000000000000E+00     5.0000000000205946E-01     0.0000000000000000E+00 
    0.0000000000000000E+00     4.3750000000182099E-01     0.0000000000000000E+00 
    0.0000000000000000E+00     3.7500000000156092E-01     0.0000000000000000E+00 
    0.0000000000000000E+00     3.1250000000130068E-01     0.0000000000000000E+00 
    0.0000000000000000E+00     2.5000000000104050E-01     0.0000000000000000E+00 
    0.0000000000000000E+00     1.8750000000078040E-01     0.0000000000000000E+00 
    0.0000000000000000E+00     1.2500000000052031E-01     0.0000000000000000E+00 
    0.0000000000000000E+00     6.2500000000260125E-02     0.0000000000000000E+00 
    6.2499999999897131E-02     6.2500000000235922E-02     0.0000000000000000E+00 
    6.2499999999921327E-02     1.2500000000047351E-01     0.0000000000000000E+00 
    6.2499999999945530E-02     1.8750000000070621E-01     0.0000000000000000E+00 
    6.2499999999969733E-02     2.5000000000093858E-01     0.0000000000000000E+00 
    6.2499999999993928E-02     3.1250000000117117E-01     0.0000000000000000E+00 
    6.2500000000018124E-02     3.7500000000140382E-01     0.0000000000000000E+00 
    6.2500000000042327E-02     4.3750000000163619E-01     0.0000000000000000E+00 
    6.2500000000066530E-02     5.0000000000184897E-01     0.0000000000000000E+00 
    6.2500000000090733E-02     5.6250000000147260E-01     0.0000000000000000E+00 
    6.2500000000114922E-02     6.2500000000107636E-01     0.0000000000000000E+00 
    6.2500000000139125E-02     6.8750000000068034E-01     0.0000000000000000E+00 
    6.2500000000163328E-02     7.5000000000028411E-01     0.0000000000000000E+00 
    6.2500000000187531E-02     8.1249999999988787E-01     0.0000000000000000E+00 
    6.2500000000211720E-02     8.7499999999951172E-01     0.0000000000000000E+00 
    6.2500000000235922E-02     9.3749999999974565E-01     0.0000000000000000E+00 
    1.2499999999981980E-01     6.2500000000211733E-02     0.0000000000000000E+00 
    1.2499999999986650E-01     1.2500000000042691E-01     0.0000000000000000E+00 
    1.2499999999991319E-01     1.8750000000063199E-01     0.0000000000000000E+00 
    1.2499999999995989E-01     2.5000000000083678E-01     0.0000000000000000E+00 
    1.2500000000000661E-01     3.1250000000104172E-01     0.0000000000000000E+00 
    1.2500000000005329E-01     3.7500000000124661E-01     0.0000000000000000E+00 
    1.2500000000010000E-01     4.3750000000145117E-01     0.0000000000000000E+00 
    1.2500000000014669E-01     5.0000000000163858E-01     0.0000000000000000E+00 
    1.2500000000019340E-01     5.6250000000129741E-01     0.0000000000000000E+00 
    1.2500000000024011E-01     6.2500000000093847E-01     0.0000000000000000E+00 
    1.2500000000028680E-01     6.8750000000057998E-01     0.0000000000000000E+00 
    1.2500000000033351E-01     7.5000000000022127E-01     0.0000000000000000E+00 
    1.2500000000038020E-01     8.1249999999986211E-01     0.0000000000000000E+00 
    1.2500000000042691E-01     8.7499999999952238E-01     0.0000000000000000E+00 
    1.2500000000047359E-01     9.3749999999975164E-01     0.0000000000000000E+00 
    1.8749999999966760E-01     6.2500000000187531E-02     0.0000000000000000E+00 
    1.8749999999974179E-01     1.2500000000038020E-01     0.0000000000000000E+00 
    1.8749999999981601E-01     1.8750000000055780E-01     0.0000000000000000E+00 
    1.8749999999989009E-01     2.5000000000073502E-01     0.0000000000000000E+00 
    1.8749999999996431E-01     3.1250000000091221E-01     0.0000000000000000E+00 
    1.8750000000003850E-01     3.7500000000108941E-01     0.0000000000000000E+00 
    1.8750000000011269E-01     4.3750000000126649E-01     0.0000000000000000E+00 
    1.8750000000018691E-01     5.0000000000142808E-01     0.0000000000000000E+00 
    1.8750000000026110E-01     5.6250000000112244E-01     0.0000000000000000E+00 
    1.8750000000033529E-01     6.2500000000080080E-01     0.0000000000000000E+00 
    1.8750000000040951E-01     6.8750000000047962E-01     0.0000000000000000E+00 
    1.8750000000048361E-01     7.5000000000015843E-01     0.0000000000000000E+00 
    1.8750000000055780E-01     8.1249999999983680E-01     0.0000000000000000E+00 
    1.8750000000063199E-01     8.7499999999953304E-01     0.0000000000000000E+00 
    1.8750000000070621E-01     9.3749999999975764E-01     0.0000000000000000E+00 
    2.4999999999951281E-01     6.2500000000163314E-02     0.0000000000000000E+00 
    2.4999999999961461E-01     1.2500000000033351E-01     0.0000000000000000E+00 
    2.4999999999971650E-01     1.8750000000048361E-01     0.0000000000000000E+00 
    2.4999999999981831E-01     2.5000000000063310E-01     0.0000000000000000E+00 
    2.4999999999992020E-01     3.1250000000078260E-01     0.0000000000000000E+00 
    2.5000000000002198E-01     3.7500000000093209E-01     0.0000000000000000E+00 
    2.5000000000012390E-01     4.3750000000108180E-01     0.0000000000000000E+00 
    2.5000000000022571E-01     5.0000000000121769E-01     0.0000000000000000E+00 
    2.5000000000032763E-01     5.6250000000094724E-01     0.0000000000000000E+00 
    2.5000000000042938E-01     6.2500000000066314E-01     0.0000000000000000E+00 
    2.5000000000053119E-01     6.8750000000037925E-01     0.0000000000000000E+00 
[...]
CELL_DATA 256 
SCALARS Pressure double 1 
LOOKUP_TABLE default 

    1.3348358491196801E+00 
    1.0898608758975041E+00 
    9.4226401025396467E-01 
    8.1923965330300996E-01 
    7.2655474958618715E-01 
    6.6601846132187537E-01 
    6.1350270905679805E-01 
    5.5983097578783747E-01 
    5.0621904095433889E-01 
    4.5361759330257811E-01 
    4.0315458337667798E-01 
    3.5649584402579482E-01 
    3.1601821264794761E-01 
    2.8461383812438740E-01 
    2.6476823701452729E-01 
    2.5680337485590982E-01 
    1.2593195912268360E+00 
    1.0928499163846206E+00 
    9.5078293582822804E-01 
    8.2763539526571095E-01 
    7.3402710084103762E-01 
    6.7207833601523859E-01 
    6.1899101082084362E-01 
    5.6520219661116555E-01 
    5.1145306408414792E-01 
    4.5860180837398495E-01 
    4.0770573098021190E-01 
    3.6035074221331104E-01 
    3.1886366208280775E-01 
    2.8620256549379069E-01 
    2.6512744520854359E-01 
    2.5644499760597611E-01 
    1.1977138503885614E+00 
    1.0827634564397499E+00 
    9.5388006940686354E-01 
    8.3339220234069589E-01 
    7.4120323131878796E-01 
    6.7854917930482961E-01 
    6.2467083637672383E-01 
    5.7060663325030414E-01 
    5.1664356302685999E-01 
    4.6346798087368946E-01 
    4.1202960025032026E-01 
    3.6380962101147074E-01 
    3.2107780003566438E-01 
    2.8690187766680147E-01 
    2.6444417572191653E-01 
    2.5515562264563468E-01 
    1.1467031685717592E+00 
    1.0656383608792803E+00 
    9.5188717795394540E-01 
    8.3660448976951607E-01 
    7.4797684027935174E-01 
    6.8530288427181063E-01 
    6.3051217603500098E-01 
    5.7605889465057192E-01 
    5.2181550717529157E-01 
    4.6825462615881369E-01 
    4.1618431530321959E-01 
    3.6694984157310501E-01 
    3.2273909461001388E-01 
    2.8674673520951866E-01 
    2.6265552949305043E-01 
    2.5275840442907954E-01 
    1.1036700631029042E+00 
    1.0450000799423329E+00 
    9.4557562681564367E-01 
    8.3783463222717214E-01 
    7.5434791581443805E-01 
    6.9217866463341993E-01 
    6.3646591721055235E-01 
    5.8156257836836500E-01 
    5.2699041953595349E-01 
    4.7299954882989409E-01 
    4.2022976871843454E-01 
    3.6985474747027403E-01 
    3.2393680825886473E-01 
    2.8578184751010233E-01 
    2.5969578141914135E-01 
    2.4906946808459185E-01 
    1.0667914706656769E+00 
    1.0229356701470995E+00 
    9.3578656970637764E-01 
    8.3795323461323656E-01 
    7.6041772901280547E-01 
    6.9899053746627382E-01 
    6.4247447452512429E-01 
    5.8711274993518558E-01 
    5.3218568961913659E-01 
    4.7773875074061339E-01 
    4.2422673176500469E-01 
    3.7261425580109392E-01 
    3.2477529832513491E-01 
    2.8406966416357710E-01 
    2.5549985683417376E-01 
    2.4388535809126302E-01 
    1.0347762267723033E+00 
    1.0006323959531374E+00 
    9.2386994135927158E-01 
    8.3785796996065431E-01 
    7.6631969745468542E-01 
    7.0557816782964700E-01 
    6.4848146577976296E-01 
    5.9269902954089093E-01 
    5.3741447879874360E-01 
    4.8250537519915526E-01 
    4.2823553721886692E-01 
    3.7532463967021351E-01 
    3.2537802901727936E-01 
    2.8170028056354290E-01 
    2.5000935358287107E-01 
    2.3696885729150807E-01 
    1.0066619605118103E+00 
    9.7850131783532646E-01 
    9.1216704911535984E-01 
    8.3830809065241541E-01 
    7.7204429916372252E-01 
    7.1186501501611588E-01 
    6.5444099460610938E-01 
    5.9830882962188181E-01 
    5.4268602920129061E-01 
    4.8732871168359587E-01 
    4.3231429959051221E-01 
    3.7808719752506892E-01 
    3.2589081264440278E-01 
    2.7880382278939958E-01 
    2.4318321168896564E-01 
    2.2803142819028402E-01 
    9.8155308017794496E-01 
    9.5736404642350137E-01 
    9.0269510732482694E-01 
    8.3953771650105158E-01 
    7.7740058866804085E-01 
    7.1784913109992166E-01 
    6.6032332777525415E-01 
    6.0393020057001912E-01 
    5.4800619432415765E-01 
    4.9223328601606908E-01 
    4.3651668493412871E-01 
    3.8100547099214344E-01 
    3.2648343011835834E-01 
    2.7556564489734220E-01 
    2.3501639953289788E-01 
    2.1670997166557232E-01 
    9.5880701140062019E-01 
    9.4053424148547593E-01 
    8.9685815870546270E-01 
    8.4132544400168352E-01 
    7.8226256075526801E-01 
    7.2355806677594225E-01 
    6.6611479991249156E-01 
    6.0955374978104948E-01 
    5.5337802733112107E-01 
    4.9723807828518657E-01 
    4.4088932453485624E-01 
    3.8418070470422061E-01 
    3.2734828655202325E-01 
    2.7224403946866821E-01 
    2.2557215661572735E-01 
    2.0253462509844927E-01 
    9.4606717686169206E-01 
    9.3086875432078109E-01 
    8.9386904791078969E-01 
    8.4328316998838870E-01 
    7.8672089594852201E-01 
    7.2903230939279973E-01 
    6.7181504203128772E-01 
    6.1517354576777805E-01 
    5.5880231770330324E-01 
    5.0235593710146909E-01 
    4.4546908677865493E-01 
    3.8770540137662174E-01 
    3.2869416939943169E-01 
    2.6918870486914798E-01 
    2.1503699376977731E-01 
    1.8488272754203844E-01 
    9.3909621976237923E-01 
    9.2548222986086448E-01 
    8.9229019883578387E-01 
    8.4519549144297346E-01 
    7.9094688558485970E-01 
    7.3432765088986407E-01 
    6.7743450874956201E-01 
    6.2078729970947022E-01 
    5.6427804067090459E-01 
    5.0759328137989479E-01 
    4.5028056807361899E-01 
    3.9165519693395218E-01 
    3.3073264554239801E-01 
    2.6685513089327717E-01 
    2.0381379627091556E-01 
    1.6291151983831989E-01 
    9.3445136288546038E-01 
    9.2186950745208707E-01 
    8.9148124056812383E-01 
    8.4728554811667478E-01 
    7.9508618282462495E-01 
    7.3950979312629794E-01 
    6.8299212901063733E-01 
    6.2639609244490502E-01 
    5.6980272880472904E-01 
    5.1295018095890277E-01 
    4.5533429989884383E-01 
    3.9607995029549065E-01 
    3.3365458693909117E-01 
    2.6580387522842430E-01 
    1.9267868503509775E-01 
    1.3545805626102109E-01 
    9.3143591192015784E-01 
    9.1969223899860619E-01 
    8.9153720031922346E-01 
    8.4972199311401309E-01 
    7.9927346627682250E-01 
    7.4464847712483395E-01 
    6.8851280303419682E-01 
    6.3200379559496367E-01 
    5.7537278081187404E-01 
    5.1842086821010602E-01 
    4.6062622119901425E-01 
    4.0099593135170974E-01 
    3.3759577228010862E-01 
    2.6666168313282929E-01 
    1.8304460858817631E-01 
    1.0088825346116662E-01 
    9.2981443930523033E-01 
    9.1887126463824831E-01 
    8.9254116664130900E-01 
    8.5264751093499835E-01 
    8.0363129168899028E-01 
    7.4981384137500062E-01 
    6.9402500271992895E-01 
    6.3761629414765475E-01 
    5.8098370914923014E-01 
    5.2399465169486370E-01 
    4.6613882439112053E-01 
    4.0638206886538963E-01 
    3.4259572073096362E-01 
    2.6999859175301638E-01 
    1.7740377530558044E-01 
    5.6866470662119473E-02 
    9.2936372316987848E-01 
    9.1933421522082381E-01 
    8.9456035937044776E-01 
    8.5618655661423382E-01 
    8.0827119524271174E-01 
    7.5507393993020100E-01 
    6.9955862258185597E-01 
    6.4324059471115658E-01 
    5.8663031299572077E-01 
    5.2965710205552463E-01 
    4.7184395556377096E-01 
    4.1218346203049316E-01 
    3.4856757883411049E-01 
    2.7603258245319451E-01 
    1.8007014848164693E-01 
    0.0000000000000000E+00 

SCALARS Saturarion double 1 
LOOKUP_TABLE default 

    1.0000000000000000E+00 
    9.2352443178182397E-01 
    8.2553780240797436E-01 
    6.7866152483978404E-01 
    3.2933169231535875E-01 
    1.6946606143885393E-02 
    6.3024245012178855E-06 
    8.7715874983465345E-14 
    1.5178552646524387E-31 
    1.4640587257468163E-71 
   1.5878169442250403E-161 
    0.0000000000000000E+00 
    0.0000000000000000E+00 
    0.0000000000000000E+00 
    0.0000000000000000E+00 
    0.0000000000000000E+00 
    9.7322956233391245E-01 
    9.1300874262875142E-01 
    8.2258370656480873E-01 
    6.7986559160587789E-01 
    3.3369745607020163E-01 
    1.7238330148399979E-02 
    6.0520704471403967E-06 
    6.7223202983438844E-14 
    5.5071966008569350E-32 
    5.3058867462551371E-73 
   7.0362492003332759E-166 
    0.0000000000000000E+00 
    0.0000000000000000E+00 
    0.0000000000000000E+00 
    0.0000000000000000E+00 
    0.0000000000000000E+00 
    9.5291166955717432E-01 
    8.9839132987206916E-01 
    8.1433139873959193E-01 
    6.7225415780934983E-01 
    3.0940048479259330E-01 
    1.2758761644371569E-02 
    2.6533075459832814E-06 
    7.8418141999179075E-15 
    2.1635938299518501E-34 
    3.5875142201247344E-79 
   1.3488353385959814E-181 
    0.0000000000000000E+00 
    0.0000000000000000E+00 
    0.0000000000000000E+00 
    0.0000000000000000E+00 
    0.0000000000000000E+00 
    9.3080123034446172E-01 
    8.8115206169273264E-01 
    8.0196868647500230E-01 
    6.5476321375553326E-01 
    2.5861318821935947E-01 
    6.6115977900492624E-03 
    4.7305688710505401E-07 
    9.7409386135228480E-17 
    3.2873265592098582E-39 
    2.5999989409643474E-91 
   3.2069982732528174E-212 
    0.0000000000000000E+00 
    0.0000000000000000E+00 
    0.0000000000000000E+00 
    0.0000000000000000E+00 
    0.0000000000000000E+00 
    9.0628562781429889E-01 
    8.6145459987394513E-01 
    7.8583198510950381E-01 
    6.2263922978824271E-01 
    1.8327699217050758E-01 
    2.0358405980605392E-03 
    2.2022111312830525E-08 
    3.9559416700902826E-20 
    8.6848472798341929E-48 
   3.7304799500723704E-113 
   2.9988466560989768E-269 
    0.0000000000000000E+00 
    0.0000000000000000E+00 
    0.0000000000000000E+00 
    0.0000000000000000E+00 
    0.0000000000000000E+00 
    8.7886645299251653E-01 
    8.3901562689872355E-01 
    7.6516663615282776E-01 
    5.6047601731158736E-01 
    9.4503821102529265E-02 
    2.5155917117683301E-04 
    9.7642685163953095E-11 
    3.6865389207240131E-26 
    1.1314819485216846E-63 
   1.3665629942623697E-156 
    0.0000000000000000E+00 
    0.0000000000000000E+00 
    0.0000000000000000E+00 
    0.0000000000000000E+00 
    0.0000000000000000E+00 
    0.0000000000000000E+00 
    8.4750117341737241E-01 
    8.1283341348119720E-01 
    7.3677740150501003E-01 
    4.2418493168579463E-01 
    2.4332270914412323E-02 
    5.3883451976992902E-06 
    3.5845306070057836E-15 
    1.1091741236150662E-38 
    3.8879332457982006E-99 
   1.0014269553264313E-251 
    0.0000000000000000E+00 
    0.0000000000000000E+00 
    0.0000000000000000E+00 
    0.0000000000000000E+00 
    0.0000000000000000E+00 
    0.0000000000000000E+00 
    8.0943097372800743E-01 
    7.7988471854593455E-01 
    6.8878856610055739E-01 
    2.0141097341173897E-01 
    1.4210051392501422E-03 
    1.0902896918091646E-09 
    3.8482850207752374E-26 
    3.2254767389685185E-69 
   4.0442663738612589E-188 
    0.0000000000000000E+00 
    0.0000000000000000E+00 
    0.0000000000000000E+00 
    0.0000000000000000E+00 
    0.0000000000000000E+00 
    0.0000000000000000E+00 
    0.0000000000000000E+00 
    7.5572667719536246E-01 
    7.2875681217246258E-01 
    5.0682292485686320E-01 
    1.9857610828622006E-02 
    4.3513894409316399E-07 
    5.5193752297901848E-20 
    2.1061313641908508E-56 
   1.0659062604964987E-163 
    0.0000000000000000E+00 
    0.0000000000000000E+00 
    0.0000000000000000E+00 
    0.0000000000000000E+00 
    0.0000000000000000E+00 
    0.0000000000000000E+00 
    0.0000000000000000E+00 
    0.0000000000000000E+00 
    6.4003199551338463E-01 
    5.6741601278448939E-01 
    5.9088898010487403E-02 
    5.8552727306686686E-06 
    1.6265058236482100E-17 
    1.3658061514573227E-51 
   1.5570638797988560E-154 
    0.0000000000000000E+00 
    0.0000000000000000E+00 
    0.0000000000000000E+00 
    0.0000000000000000E+00 
    0.0000000000000000E+00 
    0.0000000000000000E+00 
    0.0000000000000000E+00 
    0.0000000000000000E+00 
    0.0000000000000000E+00 
    2.1049574741467575E-01 
    7.2138503548230273E-02 
    1.5713275247288683E-05 
    1.2513161129846932E-16 
    6.9810788715527226E-50 
   2.6294726560342396E-151 
    0.0000000000000000E+00 
    0.0000000000000000E+00 
    0.0000000000000000E+00 
    0.0000000000000000E+00 
    0.0000000000000000E+00 
    0.0000000000000000E+00 
    0.0000000000000000E+00 
    0.0000000000000000E+00 
    0.0000000000000000E+00 
    0.0000000000000000E+00 
    1.4142498214255480E-03 
    1.6683931524595730E-05 
    2.2658384016769435E-16 
    2.2693717931373547E-49 
   2.3577476210049096E-150 
    0.0000000000000000E+00 
    0.0000000000000000E+00 
    0.0000000000000000E+00 
    0.0000000000000000E+00 
    0.0000000000000000E+00 
    0.0000000000000000E+00 
    0.0000000000000000E+00 
    0.0000000000000000E+00 
    0.0000000000000000E+00 
    0.0000000000000000E+00 
    0.0000000000000000E+00 
    6.4338576344527345E-10 
    1.5683876907511058E-16 
    2.3930153637310139E-49 
   3.2308702233638056E-150 
    0.0000000000000000E+00 
    0.0000000000000000E+00 
    0.0000000000000000E+00 
    0.0000000000000000E+00 
    0.0000000000000000E+00 
    0.0000000000000000E+00 
    0.0000000000000000E+00 
    0.0000000000000000E+00 
    0.0000000000000000E+00 
    0.0000000000000000E+00 
    0.0000000000000000E+00 
    0.0000000000000000E+00 
    5.2177298231828599E-27 
    7.2731919149322834E-50 
   1.7045460429966896E-150 
    0.0000000000000000E+00 
    0.0000000000000000E+00 
    0.0000000000000000E+00 
    0.0000000000000000E+00 
    0.0000000000000000E+00 
    0.0000000000000000E+00 
    0.0000000000000000E+00 
    0.0000000000000000E+00 
    0.0000000000000000E+00 
    0.0000000000000000E+00 
    0.0000000000000000E+00 
    0.0000000000000000E+00 
    0.0000000000000000E+00 
    2.3598409327524117E-73 
   9.2794960729883171E-152 
    0.0000000000000000E+00 
    0.0000000000000000E+00 
    0.0000000000000000E+00 
    0.0000000000000000E+00 
    0.0000000000000000E+00 
    0.0000000000000000E+00 
    0.0000000000000000E+00 
    0.0000000000000000E+00 
    0.0000000000000000E+00 
    0.0000000000000000E+00 
    0.0000000000000000E+00 
    0.0000000000000000E+00 
    0.0000000000000000E+00 
    0.0000000000000000E+00 
   1.1662221848590460E-199 
    0.0000000000000000E+00 
    0.0000000000000000E+00 
    0.0000000000000000E+00 
    0.0000000000000000E+00 
    0.0000000000000000E+00 
    0.0000000000000000E+00 
    0.0000000000000000E+00 
    0.0000000000000000E+00 
    0.0000000000000000E+00 
    0.0000000000000000E+00 
    0.0000000000000000E+00 
    0.0000000000000000E+00 
    0.0000000000000000E+00 
    0.0000000000000000E+00 
    0.0000000000000000E+00 
