# vtk DataFile Version 2.0
Pressure Field Data 
ASCII 
DATASET UNSTRUCTURED_GRID 

POINTS 289 double 

    0.0000000000000000E+00     0.0000000000000000E+00     0.0000000000000000E+00 
    1.0000000000000000E+00     0.0000000000000000E+00     0.0000000000000000E+00 
    1.0000000000000000E+00     1.0000000000000000E+00     0.0000000000000000E+00 
    0.0000000000000000E+00     1.0000000000000000E+00     0.0000000000000000E+00 
    6.2499999999872928E-02     0.0000000000000000E+00     0.0000000000000000E+00 
    1.2499999999977310E-01     0.0000000000000000E+00     0.0000000000000000E+00 
    1.8749999999959341E-01     0.0000000000000000E+00     0.0000000000000000E+00 
    2.4999999999941089E-01     0.0000000000000000E+00     0.0000000000000000E+00 
    3.1249999999922851E-01     0.0000000000000000E+00     0.0000000000000000E+00 
    3.7499999999904610E-01     0.0000000000000000E+00     0.0000000000000000E+00 
    4.3749999999886358E-01     0.0000000000000000E+00     0.0000000000000000E+00 
    4.9999999999869210E-01     0.0000000000000000E+00     0.0000000000000000E+00 
    5.6249999999884603E-01     0.0000000000000000E+00     0.0000000000000000E+00 
    6.2499999999901090E-01     0.0000000000000000E+00     0.0000000000000000E+00 
    6.8749999999917577E-01     0.0000000000000000E+00     0.0000000000000000E+00 
    7.4999999999934064E-01     0.0000000000000000E+00     0.0000000000000000E+00 
    8.1249999999950551E-01     0.0000000000000000E+00     0.0000000000000000E+00 
    8.7499999999967026E-01     0.0000000000000000E+00     0.0000000000000000E+00 
    9.3749999999983513E-01     0.0000000000000000E+00     0.0000000000000000E+00 
    1.0000000000000000E+00     6.2499999999872928E-02     0.0000000000000000E+00 
    1.0000000000000000E+00     1.2499999999977310E-01     0.0000000000000000E+00 
    1.0000000000000000E+00     1.8749999999959341E-01     0.0000000000000000E+00 
    1.0000000000000000E+00     2.4999999999941089E-01     0.0000000000000000E+00 
    1.0000000000000000E+00     3.1249999999922851E-01     0.0000000000000000E+00 
    1.0000000000000000E+00     3.7499999999904610E-01     0.0000000000000000E+00 
    1.0000000000000000E+00     4.3749999999886358E-01     0.0000000000000000E+00 
    1.0000000000000000E+00     4.9999999999869210E-01     0.0000000000000000E+00 
    1.0000000000000000E+00     5.6249999999884603E-01     0.0000000000000000E+00 
    1.0000000000000000E+00     6.2499999999901090E-01     0.0000000000000000E+00 
    1.0000000000000000E+00     6.8749999999917577E-01     0.0000000000000000E+00 
    1.0000000000000000E+00     7.4999999999934064E-01     0.0000000000000000E+00 
    1.0000000000000000E+00     8.1249999999950551E-01     0.0000000000000000E+00 
    1.0000000000000000E+00     8.7499999999967026E-01     0.0000000000000000E+00 
    1.0000000000000000E+00     9.3749999999983513E-01     0.0000000000000000E+00 
    9.3749999999973976E-01     1.0000000000000000E+00     0.0000000000000000E+00 
    8.7499999999950118E-01     1.0000000000000000E+00     0.0000000000000000E+00 
    8.1249999999991318E-01     1.0000000000000000E+00     0.0000000000000000E+00 
    7.5000000000034706E-01     1.0000000000000000E+00     0.0000000000000000E+00 
    6.8750000000078049E-01     1.0000000000000000E+00     0.0000000000000000E+00 
    6.2500000000121403E-01     1.0000000000000000E+00     0.0000000000000000E+00 
    5.6250000000164757E-01     1.0000000000000000E+00     0.0000000000000000E+00 
    5.0000000000205946E-01     1.0000000000000000E+00     0.0000000000000000E+00 
    4.3750000000182099E-01     1.0000000000000000E+00     0.0000000000000000E+00 
    3.7500000000156092E-01     1.0000000000000000E+00     0.0000000000000000E+00 
    3.1250000000130068E-01     1.0000000000000000E+00     0.0000000000000000E+00 
    2.5000000000104050E-01     1.0000000000000000E+00     0.0000000000000000E+00 
    1.8750000000078040E-01     1.0000000000000000E+00     0.0000000000000000E+00 
    1.2500000000052031E-01     1.0000000000000000E+00     0.0000000000000000E+00 
    6.2500000000260125E-02     1.0000000000000000E+00     0.0000000000000000E+00 
    0.0000000000000000E+00     9.3749999999973976E-01     0.0000000000000000E+00 
    0.0000000000000000E+00     8.7499999999950118E-01     0.0000000000000000E+00 
    0.0000000000000000E+00     8.1249999999991318E-01     0.0000000000000000E+00 
    0.0000000000000000E+00     7.5000000000034706E-01     0.0000000000000000E+00 
    0.0000000000000000E+00     6.8750000000078049E-01     0.0000000000000000E+00 
    0.0000000000000000E+00     6.2500000000121403E-01     0.0000000000000000E+00 
    0.0000000000000000E+00     5.6250000000164757E-01     0.0000000000000000E+00 
    0.0000000000000000E+00     5.0000000000205946E-01     0.0000000000000000E+00 
    0.0000000000000000E+00     4.3750000000182099E-01     0.0000000000000000E+00 
    0.0000000000000000E+00     3.7500000000156092E-01     0.0000000000000000E+00 
    0.0000000000000000E+00     3.1250000000130068E-01     0.0000000000000000E+00 
    0.0000000000000000E+00     2.5000000000104050E-01     0.0000000000000000E+00 
    0.0000000000000000E+00     1.8750000000078040E-01     0.0000000000000000E+00 
    0.0000000000000000E+00     1.2500000000052031E-01     0.0000000000000000E+00 
    0.0000000000000000E+00     6.2500000000260125E-02     0.0000000000000000E+00 
    6.2499999999897131E-02     6.2500000000235922E-02     0.0000000000000000E+00 
    6.2499999999921327E-02     1.2500000000047351E-01     0.0000000000000000E+00 
    6.2499999999945530E-02     1.8750000000070621E-01     0.0000000000000000E+00 
    6.2499999999969733E-02     2.5000000000093858E-01     0.0000000000000000E+00 
    6.2499999999993928E-02     3.1250000000117117E-01     0.0000000000000000E+00 
    6.2500000000018124E-02     3.7500000000140382E-01     0.0000000000000000E+00 
    6.2500000000042327E-02     4.3750000000163619E-01     0.0000000000000000E+00 
    6.2500000000066530E-02     5.0000000000184897E-01     0.0000000000000000E+00 
    6.2500000000090733E-02     5.6250000000147260E-01     0.0000000000000000E+00 
    6.2500000000114922E-02     6.2500000000107636E-01     0.0000000000000000E+00 
    6.2500000000139125E-02     6.8750000000068034E-01     0.0000000000000000E+00 
    6.2500000000163328E-02     7.5000000000028411E-01     0.0000000000000000E+00 
    6.2500000000187531E-02     8.1249999999988787E-01     0.0000000000000000E+00 
    6.2500000000211720E-02     8.7499999999951172E-01     0.0000000000000000E+00 
    6.2500000000235922E-02     9.3749999999974565E-01     0.0000000000000000E+00 
    1.2499999999981980E-01     6.2500000000211733E-02     0.0000000000000000E+00 
    1.2499999999986650E-01     1.2500000000042691E-01     0.0000000000000000E+00 
    1.2499999999991319E-01     1.8750000000063199E-01     0.0000000000000000E+00 
    1.2499999999995989E-01     2.5000000000083678E-01     0.0000000000000000E+00 
    1.2500000000000661E-01     3.1250000000104172E-01     0.0000000000000000E+00 
    1.2500000000005329E-01     3.7500000000124661E-01     0.0000000000000000E+00 
    1.2500000000010000E-01     4.3750000000145117E-01     0.0000000000000000E+00 
    1.2500000000014669E-01     5.0000000000163858E-01     0.0000000000000000E+00 
    1.2500000000019340E-01     5.6250000000129741E-01     0.0000000000000000E+00 
    1.2500000000024011E-01     6.2500000000093847E-01     0.0000000000000000E+00 
    1.2500000000028680E-01     6.8750000000057998E-01     0.0000000000000000E+00 
    1.2500000000033351E-01     7.5000000000022127E-01     0.0000000000000000E+00 
    1.2500000000038020E-01     8.1249999999986211E-01     0.0000000000000000E+00 
    1.2500000000042691E-01     8.7499999999952238E-01     0.0000000000000000E+00 
    1.2500000000047359E-01     9.3749999999975164E-01     0.0000000000000000E+00 
    1.8749999999966760E-01     6.2500000000187531E-02     0.0000000000000000E+00 
    1.8749999999974179E-01     1.2500000000038020E-01     0.0000000000000000E+00 
    1.8749999999981601E-01     1.8750000000055780E-01     0.0000000000000000E+00 
    1.8749999999989009E-01     2.5000000000073502E-01     0.0000000000000000E+00 
    1.8749999999996431E-01     3.1250000000091221E-01     0.0000000000000000E+00 
    1.8750000000003850E-01     3.7500000000108941E-01     0.0000000000000000E+00 
    1.8750000000011269E-01     4.3750000000126649E-01     0.0000000000000000E+00 
    1.8750000000018691E-01     5.0000000000142808E-01     0.0000000000000000E+00 
    1.8750000000026110E-01     5.6250000000112244E-01     0.0000000000000000E+00 
    1.8750000000033529E-01     6.2500000000080080E-01     0.0000000000000000E+00 
    1.8750000000040951E-01     6.8750000000047962E-01     0.0000000000000000E+00 
    1.8750000000048361E-01     7.5000000000015843E-01     0.0000000000000000E+00 
    1.8750000000055780E-01     8.1249999999983680E-01     0.0000000000000000E+00 
    1.8750000000063199E-01     8.7499999999953304E-01     0.0000000000000000E+00 
    1.8750000000070621E-01     9.3749999999975764E-01     0.0000000000000000E+00 
    2.4999999999951281E-01     6.2500000000163314E-02     0.0000000000000000E+00 
    2.4999999999961461E-01     1.2500000000033351E-01     0.0000000000000000E+00 
    2.4999999999971650E-01     1.8750000000048361E-01     0.0000000000000000E+00 
    2.4999999999981831E-01     2.5000000000063310E-01     0.0000000000000000E+00 
    2.4999999999992020E-01     3.1250000000078260E-01     0.0000000000000000E+00 
    2.5000000000002198E-01     3.7500000000093209E-01     0.0000000000000000E+00 
    2.5000000000012390E-01     4.3750000000108180E-01     0.0000000000000000E+00 
    2.5000000000022571E-01     5.0000000000121769E-01     0.0000000000000000E+00 
    2.5000000000032763E-01     5.6250000000094724E-01     0.0000000000000000E+00 
    2.5000000000042938E-01     6.2500000000066314E-01     0.0000000000000000E+00 
    2.5000000000053119E-01     6.8750000000037925E-01     0.0000000000000000E+00 
[...]
CELL_DATA 256 
SCALARS Pressure double 1 
LOOKUP_TABLE default 

    1.3411472153407775E+00 
    1.0981548687169622E+00 
    9.5329106763003968E-01 
    8.3315222532349797E-01 
    7.3011441355827622E-01 
    6.6448408329220876E-01 
    6.1221460552297047E-01 
    5.5922210068754907E-01 
    5.0591038144558942E-01 
    4.5345433373716798E-01 
    4.0306458974054810E-01 
    3.5644338271544651E-01 
    3.1598499950651476E-01 
    2.8459027332443831E-01 
    2.6474910322368239E-01 
    2.5678572299376717E-01 
    1.2660869697509911E+00 
    1.1012072259299130E+00 
    9.6176100279852983E-01 
    8.4177572858444161E-01 
    7.3806432815154599E-01 
    6.7076561951987734E-01 
    6.1774728448524718E-01 
    5.6458312225014806E-01 
    5.1113653925427527E-01 
    4.5843419016736225E-01 
    4.0761343360129620E-01 
    3.6029709270904925E-01 
    3.1882986848020661E-01 
    2.8617876488501615E-01 
    2.6510828071397347E-01 
    2.5642741432447064E-01 
    1.2051796650737365E+00 
    1.0914832195728299E+00 
    9.6503141333297060E-01 
    8.4762958383585052E-01 
    7.4539790047022070E-01 
    6.7744579338138022E-01 
    6.2356146717431116E-01 
    5.7001861840111967E-01 
    5.1633564382101338E-01 
    4.6330344847249350E-01 
    4.1193862957539973E-01 
    3.6375662383582719E-01 
    3.2104438335079322E-01 
    2.8687835523925720E-01 
    2.6442527234576318E-01 
    2.5513828651533599E-01 
    1.1549876704219648E+00 
    1.0749465142968986E+00 
    9.6347066093624512E-01 
    8.5062312698982701E-01 
    7.5208850691527329E-01 
    6.8441204025854596E-01 
    6.2960788943277124E-01 
    5.7554137351269841E-01 
    5.2153421328408978E-01 
    4.6810158504048177E-01 
    4.1609878947098011E-01 
    3.6689958283741719E-01 
    3.2270713634435078E-01 
    2.8672406780664494E-01 
    2.6263721387848477E-01 
    2.5274152510113040E-01 
    1.1128512548574094E+00 
    1.0550713552024813E+00 
    9.5792896397835559E-01 
    8.5105513985889603E-01 
    7.5821442419876484E-01 
    6.9156597408984988E-01 
    6.3581487387307967E-01 
    5.8114999755466046E-01 
    5.2675372752566574E-01 
    4.7286686808642492E-01 
    4.2015411837265426E-01 
    3.6980948545587566E-01 
    3.2390747952951349E-01 
    2.8576065711619852E-01 
    2.5967840446148555E-01 
    2.4905327708487282E-01 
    1.0769204502041727E+00 
    1.0338970037520627E+00 
    9.4926721226430488E-01 
    8.4969887850826686E-01 
    7.6392084744896516E-01 
    6.9878799419217930E-01 
    6.4210735062178703E-01 
    5.8683294258372376E-01 
    5.3201019816856121E-01 
    4.7763520490593359E-01 
    4.2416547943312394E-01 
    3.7257632593286882E-01 
    3.2474981515482343E-01 
    2.8405059507280972E-01 
    2.5548378023002472E-01 
    2.4387009810010510E-01 
    1.0458945335352905E+00 
    1.0126119617523544E+00 
    9.3814906208829607E-01 
    8.4767888863166319E-01 
    7.6940218617079581E-01 
    7.0590041638433754E-01 
    6.4841703676810503E-01 
    5.9257279531104134E-01 
    5.3731442183974321E-01 
    4.8243910297227766E-01 
    4.2819305217031217E-01 
    3.7529634286216729E-01 
    3.2535759883652515E-01 
    2.8168397200238077E-01 
    2.4999493383029081E-01 
    2.3695476991054590E-01 
    1.0188251456137902E+00 
    9.9185691344175864E-01 
    9.2564468157182989E-01 
    8.4608436995370939E-01 
    7.7484905164809337E-01 
    7.1271985784945724E-01 
    6.5468555691360641E-01 
    5.9834985103929295E-01 
    5.4267260865704414E-01 
    4.8730674123167317E-01 
    4.3229454992950866E-01 
    3.7807067883072337E-01 
    3.2587657430096467E-01 
    2.7879087793273954E-01 
    2.4317078203577258E-01 
    2.2801874035079078E-01 
    9.9495172236326757E-01 
    9.7166343513567610E-01 
    9.1412215598138535E-01 
    8.4577060958624761E-01 
    7.8026553566713297E-01 
    7.1916358404641556E-01 
    6.6086886604472839E-01 
    6.0414501464808701E-01 
    5.4808716652161515E-01 
    4.9226115145015042E-01 
    4.3652300542386191E-01 
    3.8100259622986937E-01 
    3.2647639033997666E-01 
    2.7555659755540479E-01 
    2.3500625054490412E-01 
    2.1669888096712631E-01 
    9.7338941462450357E-01 
    9.5324369516816965E-01 
    9.0574345345487428E-01 
    8.4674953994874180E-01 
    7.8543047165476387E-01 
    7.2525560404845679E-01 
    6.6694226031766146E-01 
    6.0994216767669485E-01 
    5.5355751712454793E-01 
    4.9731953699172554E-01 
    4.4092421384440089E-01 
    3.8419294240216256E-01 
    3.2734925614444399E-01 
    2.7223931998427425E-01 
    2.2556451620697709E-01 
    2.0252528447913146E-01 
    9.5637711951779014E-01 
    9.4041174899918534E-01 
    9.0119627768619548E-01 
    8.4850893601333677E-01 
    7.9019451112034600E-01 
    7.3105645517366791E-01 
    6.7289974196414848E-01 
    6.1572963612469633E-01 
    5.5908084987563800E-01 
    5.0249278912497342E-01 
    4.4553404297332572E-01 
    3.8773371632669340E-01 
    3.2870370247555047E-01 
    2.6918860692423086E-01 
    2.1503200769269890E-01 
    1.8487522976446882E-01 
    9.4774508918125866E-01 
    9.3359923871143968E-01 
    8.9916938262747814E-01 
    8.5056146335534311E-01 
    7.9466372181036271E-01 
    7.3663047821964689E-01 
    6.7874938658374873E-01 
    6.2150056764555395E-01 
    5.6465274275278232E-01 
    5.0778528344266383E-01 
    4.5037596658564161E-01 
    3.9169996017514203E-01 
    3.3075098481623599E-01 
    2.6685978096587276E-01 
    2.0381151020511681E-01 
    1.6290588232049694E-01 
    9.4289532540717325E-01 
    9.2984766372575001E-01 
    8.9837596778167417E-01 
    8.5276388870072339E-01 
    7.9900957506491066E-01 
    7.4204956066305017E-01 
    6.8450931405061877E-01 
    6.2725253927334468E-01 
    5.7026763173258543E-01 
    5.1319503905502595E-01 
    4.5545931403051632E-01 
    3.9614086871239468E-01 
    3.3368161765332988E-01 
    2.6581320636448685E-01 
    1.9267902955135988E-01 
    1.3545420677606540E-01 
    9.3977245479973481E-01 
    9.2760252054072934E-01 
    8.9846175902435976E-01 
    8.5530956976926531E-01 
    8.0337545285607037E-01 
    7.4738949543345290E-01 
    6.9020453551064664E-01 
    6.3298676132595333E-01 
    5.7591914871022420E-01 
    5.1871428743978065E-01 
    4.6077878178900350E-01 
    4.0107199848710201E-01 
    3.3763098675222386E-01 
    2.6667541450112908E-01 
    1.8304738842849833E-01 
    1.0088601716190371E-01 
    9.3809327566182843E-01 
    9.2675740334029622E-01 
    8.9951506017651750E-01 
    8.5834628560486270E-01 
    8.0789182743501142E-01 
    7.5272570283059348E-01 
    6.9586411888658883E-01 
    6.3870707164669094E-01 
    5.8160034806819383E-01 
    5.2433042113126216E-01 
    4.6631561299247398E-01 
    4.0647153719145129E-01 
    3.4263819488862202E-01 
    2.7001621512598178E-01 
    1.7740866466501992E-01 
    5.6865558736128710E-02 
    9.3762651468924108E-01 
    9.2723832004293005E-01 
    9.0160808253728142E-01 
    8.6200380791542663E-01 
    8.1267701406633475E-01 
    7.5813082540135979E-01 
    7.0151871192785620E-01 
    6.4441882457946298E-01 
    5.8730382556404470E-01 
    5.3002719465257031E-01 
    4.7204042445023148E-01 
    4.1228383593889317E-01 
    3.4861596155553887E-01 
    2.7605335626254873E-01 
    1.8007669439448390E-01 
    0.0000000000000000E+00 

SCALARS Saturarion double 1 
LOOKUP_TABLE default 

    1.0000000000000000E+00 
    9.3189567137232421E-01 
    8.4572359369918693E-01 
    7.2836696641817422E-01 
    4.7975383866394394E-01 
    6.8835382873376205E-02 
    1.7888740670938849E-04 
    1.4594420460353200E-10 
    1.9516393717040688E-24 
    6.9545563689550660E-56 
   5.8001122299804593E-127 
   4.3036298810946801E-287 
    0.0000000000000000E+00 
    0.0000000000000000E+00 
    0.0000000000000000E+00 
    0.0000000000000000E+00 
    9.7634502682695545E-01 
    9.2241919348218748E-01 
    8.4304622642284743E-01 
    7.2960665410997894E-01 
    4.8677312549222779E-01 
    7.2372720840416904E-02 
    1.9246007123165906E-04 
    1.5307577348134585E-10 
    1.6531383591232092E-24 
    2.4322128683099809E-56 
   1.0351000727524605E-128 
   7.8348027872227824E-293 
    0.0000000000000000E+00 
    0.0000000000000000E+00 
    0.0000000000000000E+00 
    0.0000000000000000E+00 
    9.5821129126941484E-01 
    9.0919968861025724E-01 
    8.3568701401820522E-01 
    7.2523763376506933E-01 
    4.7204983756392616E-01 
    6.1871492773945845E-02 
    1.1960251770407333E-04 
    4.3180291514361442E-11 
    6.0905077532991586E-26 
    4.5779808273221313E-60 
   2.5431628394185209E-138 
   1.7311427826250602E-317 
    0.0000000000000000E+00 
    0.0000000000000000E+00 
    0.0000000000000000E+00 
    0.0000000000000000E+00 
    9.3834173565920320E-01 
    8.9356100072047617E-01 
    8.2478692270221710E-01 
    7.1521539824712577E-01 
    4.3510031038546965E-01 
    4.2353050976432119E-02 
    4.1329216300445921E-05 
    2.8693049149115569E-12 
    6.1899891089918265E-29 
    1.1115516284097941E-67 
   1.4006468438720986E-157 
    0.0000000000000000E+00 
    0.0000000000000000E+00 
    0.0000000000000000E+00 
    0.0000000000000000E+00 
    0.0000000000000000E+00 
    9.1622381119531560E-01 
    8.7569215705816383E-01 
    8.1084594502792584E-01 
    6.9847828668345591E-01 
    3.6997883340527332E-01 
    2.1181629804223917E-02 
    6.3410290524761196E-06 
    2.4016639043765335E-14 
    2.9589585659792949E-34 
    3.0909848993130292E-81 
   7.0583429292786293E-192 
    0.0000000000000000E+00 
    0.0000000000000000E+00 
    0.0000000000000000E+00 
    0.0000000000000000E+00 
    0.0000000000000000E+00 
    8.9152427519202992E-01 
    8.5546595831529526E-01 
    7.9378022400469661E-01 
    6.7137170922362088E-01 
    2.7162990786306074E-01 
    6.3676343626166629E-03 
    2.5209217781612782E-07 
    5.4461176457749384E-18 
    1.1733698973879414E-43 
   2.3861118207580329E-105 
   2.1030833414485845E-255 
    0.0000000000000000E+00 
    0.0000000000000000E+00 
    0.0000000000000000E+00 
    0.0000000000000000E+00 
    0.0000000000000000E+00 
    8.6362210554138619E-01 
    8.3234522270366118E-01 
    7.7264069984508954E-01 
    6.2217678418549904E-01 
    1.4692011548450634E-01 
    7.1844945300458547E-04 
    7.0864280246403147E-10 
    1.1667298725113566E-24 
    2.1898585494091326E-61 
   2.0014309953269447E-155 
    0.0000000000000000E+00 
    0.0000000000000000E+00 
    0.0000000000000000E+00 
    0.0000000000000000E+00 
    0.0000000000000000E+00 
    0.0000000000000000E+00 
    8.3098866003713745E-01 
    8.0484926737817142E-01 
    7.4413506929547801E-01 
    4.9312246456707165E-01 
    3.5507942340273067E-02 
    9.8060413151874779E-06 
    6.8395222251284486E-15 
    2.0207233018373105E-39 
   2.9829898865037373E-105 
   1.4632820310193240E-277 
    0.0000000000000000E+00 
    0.0000000000000000E+00 
    0.0000000000000000E+00 
    0.0000000000000000E+00 
    0.0000000000000000E+00 
    0.0000000000000000E+00 
    7.8934283419737983E-01 
    7.6864287170901446E-01 
    6.9546147967510152E-01 
    2.1566077284548915E-01 
    1.2643288503555478E-03 
    3.2959266462069796E-10 
    5.9664254430579938E-29 
    1.3584428807610317E-80 
   2.7338854322695824E-226 
    0.0000000000000000E+00 
    0.0000000000000000E+00 
    0.0000000000000000E+00 
    0.0000000000000000E+00 
    0.0000000000000000E+00 
    0.0000000000000000E+00 
    0.0000000000000000E+00 
    7.2320014068330329E-01 
    7.0578862970805123E-01 
    4.7355217402191119E-01 
    1.0506384507526683E-02 
    3.0491332603839476E-08 
    2.2032136408727754E-24 
    1.1493138623150572E-70 
   5.1587176261323310E-207 
    0.0000000000000000E+00 
    0.0000000000000000E+00 
    0.0000000000000000E+00 
    0.0000000000000000E+00 
    0.0000000000000000E+00 
    0.0000000000000000E+00 
    0.0000000000000000E+00 
    0.0000000000000000E+00 
    5.2086692845108051E-01 
    4.3310784238786304E-01 
    2.1301141657084112E-02 
    1.6541337748979428E-07 
    1.1337892085453660E-22 
    4.1982357469373420E-67 
   3.7966574567463002E-200 
    0.0000000000000000E+00 
    0.0000000000000000E+00 
    0.0000000000000000E+00 
    0.0000000000000000E+00 
    0.0000000000000000E+00 
    0.0000000000000000E+00 
    0.0000000000000000E+00 
    0.0000000000000000E+00 
    0.0000000000000000E+00 
    5.4671431328509226E-02 
    1.5576414713318960E-02 
    2.6062115247107791E-07 
    3.7986284613494420E-22 
    5.0246822279685086E-66 
   4.2634301088692888E-198 
    0.0000000000000000E+00 
    0.0000000000000000E+00 
    0.0000000000000000E+00 
    0.0000000000000000E+00 
    0.0000000000000000E+00 
    0.0000000000000000E+00 
    0.0000000000000000E+00 
    0.0000000000000000E+00 
    0.0000000000000000E+00 
    0.0000000000000000E+00 
    1.6540714752164377E-05 
    1.4705305843353850E-07 
    4.0677100684544225E-22 
    7.7081990931018840E-66 
   9.6366142335862047E-198 
    0.0000000000000000E+00 
    0.0000000000000000E+00 
    0.0000000000000000E+00 
    0.0000000000000000E+00 
    0.0000000000000000E+00 
    0.0000000000000000E+00 
    0.0000000000000000E+00 
    0.0000000000000000E+00 
    0.0000000000000000E+00 
    0.0000000000000000E+00 
    0.0000000000000000E+00 
    4.1345550961965513E-15 
    1.2867991226353683E-22 
    4.4480297764507668E-66 
   6.1470569927482732E-198 
    0.0000000000000000E+00 
    0.0000000000000000E+00 
    0.0000000000000000E+00 
    0.0000000000000000E+00 
    0.0000000000000000E+00 
    0.0000000000000000E+00 
    0.0000000000000000E+00 
    0.0000000000000000E+00 
    0.0000000000000000E+00 
    0.0000000000000000E+00 
    0.0000000000000000E+00 
    0.0000000000000000E+00 
    4.9894902069529737E-41 
    3.4236203434029251E-67 
   1.3058703458593047E-198 
    0.0000000000000000E+00 
    0.0000000000000000E+00 
    0.0000000000000000E+00 
    0.0000000000000000E+00 
    0.0000000000000000E+00 
    0.0000000000000000E+00 
    0.0000000000000000E+00 
    0.0000000000000000E+00 
    0.0000000000000000E+00 
    0.0000000000000000E+00 
    0.0000000000000000E+00 
    0.0000000000000000E+00 
    0.0000000000000000E+00 
   3.5920190904371805E-110 
   3.2308520246541830E-201 
    0.0000000000000000E+00 
    0.0000000000000000E+00 
    0.0000000000000000E+00 
    0.0000000000000000E+00 
    0.0000000000000000E+00 
    0.0000000000000000E+00 
    0.0000000000000000E+00 
    0.0000000000000000E+00 
    0.0000000000000000E+00 
    0.0000000000000000E+00 
    0.0000000000000000E+00 
    0.0000000000000000E+00 
    0.0000000000000000E+00 
    0.0000000000000000E+00 
