# vtk DataFile Version 2.0
Pressure Field Data 
ASCII 
DATASET UNSTRUCTURED_GRID 

POINTS 289 double 

    0.0000000000000000E+00     0.0000000000000000E+00     0.0000000000000000E+00 
    1.0000000000000000E+00     0.0000000000000000E+00     0.0000000000000000E+00 
    1.0000000000000000E+00     1.0000000000000000E+00     0.0000000000000000E+00 
    0.0000000000000000E+00     1.0000000000000000E+00     0.0000000000000000E+00 
    6.2499999999872928E-02     0.0000000000000000E+00     0.0000000000000000E+00 
    1.2499999999977310E-01     0.0000000000000000E+00     0.0000000000000000E+00 
    1.8749999999959341E-01     0.0000000000000000E+00     0.0000000000000000E+00 
    2.4999999999941089E-01     0.0000000000000000E+00     0.0000000000000000E+00 
    3.1249999999922851E-01     0.0000000000000000E+00     0.0000000000000000E+00 
    3.7499999999904610E-01     0.0000000000000000E+00     0.0000000000000000E+00 
    4.3749999999886358E-01     0.0000000000000000E+00     0.0000000000000000E+00 
    4.9999999999869210E-01     0.0000000000000000E+00     0.0000000000000000E+00 
    5.6249999999884603E-01     0.0000000000000000E+00     0.0000000000000000E+00 
    6.2499999999901090E-01     0.0000000000000000E+00     0.0000000000000000E+00 
    6.8749999999917577E-01     0.0000000000000000E+00     0.0000000000000000E+00 
    7.4999999999934064E-01     0.0000000000000000E+00     0.0000000000000000E+00 
    8.1249999999950551E-01     0.0000000000000000E+00     0.0000000000000000E+00 
    8.7499999999967026E-01     0.0000000000000000E+00     0.0000000000000000E+00 
    9.3749999999983513E-01     0.0000000000000000E+00     0.0000000000000000E+00 
    1.0000000000000000E+00     6.2499999999872928E-02     0.0000000000000000E+00 
    1.0000000000000000E+00     1.2499999999977310E-01     0.0000000000000000E+00 
    1.0000000000000000E+00     1.8749999999959341E-01     0.0000000000000000E+00 
    1.0000000000000000E+00     2.4999999999941089E-01     0.0000000000000000E+00 
    1.0000000000000000E+00     3.1249999999922851E-01     0.0000000000000000E+00 
    1.0000000000000000E+00     3.7499999999904610E-01     0.0000000000000000E+00 
    1.0000000000000000E+00     4.3749999999886358E-01     0.0000000000000000E+00 
    1.0000000000000000E+00     4.9999999999869210E-01     0.0000000000000000E+00 
    1.0000000000000000E+00     5.6249999999884603E-01     0.0000000000000000E+00 
    1.0000000000000000E+00     6.2499999999901090E-01     0.0000000000000000E+00 
    1.0000000000000000E+00     6.8749999999917577E-01     0.0000000000000000E+00 
    1.0000000000000000E+00     7.4999999999934064E-01     0.0000000000000000E+00 
    1.0000000000000000E+00     8.1249999999950551E-01     0.0000000000000000E+00 
    1.0000000000000000E+00     8.7499999999967026E-01     0.0000000000000000E+00 
    1.0000000000000000E+00     9.3749999999983513E-01     0.0000000000000000E+00 
    9.3749999999973976E-01     1.0000000000000000E+00     0.0000000000000000E+00 
    8.7499999999950118E-01     1.0000000000000000E+00     0.0000000000000000E+00 
    8.1249999999991318E-01     1.0000000000000000E+00     0.0000000000000000E+00 
    7.5000000000034706E-01     1.0000000000000000E+00     0.0000000000000000E+00 
    6.8750000000078049E-01     1.0000000000000000E+00     0.0000000000000000E+00 
    6.2500000000121403E-01     1.0000000000000000E+00     0.0000000000000000E+00 
    5.6250000000164757E-01     1.0000000000000000E+00     0.0000000000000000E+00 
    5.0000000000205946E-01     1.0000000000000000E+00     0.0000000000000000E+00 
    4.3750000000182099E-01     1.0000000000000000E+00     0.0000000000000000E+00 
    3.7500000000156092E-01     1.0000000000000000E+00     0.0000000000000000E+00 
    3.1250000000130068E-01     1.0000000000000000E+00     0.0000000000000000E+00 
    2.5000000000104050E-01     1.0000000000000000E+00     0.0000000000000000E+00 
    1.8750000000078040E-01     1.0000000000000000E+00     0.0000000000000000E+00 
    1.2500000000052031E-01     1.0000000000000000E+00     0.0000000000000000E+00 
    6.2500000000260125E-02     1.0000000000000000E+00     0.0000000000000000E+00 
    0.0000000000000000E+00     9.3749999999973976E-01     0.0000000000000000E+00 
    0.0000000000000000E+00     8.7499999999950118E-01     0.0000000000000000E+00 
    0.0000000000000000E+00     8.1249999999991318E-01     0.0000000000000000E+00 
    0.0000000000000000E+00     7.5000000000034706E-01     0.0000000000000000E+00 
    0.0000000000000000E+00     6.8750000000078049E-01     0.0000000000000000E+00 
    0.0000000000000000E+00     6.2500000000121403E-01     0.0000000000000000E+00 
    0.0000000000000000E+00     5.6250000000164757E-01     0.0000000000000000E+00 
    0.0000000000000000E+00     5.0000000000205946E-01     0.0000000000000000E+00 
    0.0000000000000000E+00     4.3750000000182099E-01     0.0000000000000000E+00 
    0.0000000000000000E+00     3.7500000000156092E-01     0.0000000000000000E+00 
    0.0000000000000000E+00     3.1250000000130068E-01     0.0000000000000000E+00 
    0.0000000000000000E+00     2.5000000000104050E-01     0.0000000000000000E+00 
    0.0000000000000000E+00     1.8750000000078040E-01     0.0000000000000000E+00 
    0.0000000000000000E+00     1.2500000000052031E-01     0.0000000000000000E+00 
    0.0000000000000000E+00     6.2500000000260125E-02     0.0000000000000000E+00 
    6.2499999999897131E-02     6.2500000000235922E-02     0.0000000000000000E+00 
    6.2499999999921327E-02     1.2500000000047351E-01     0.0000000000000000E+00 
    6.2499999999945530E-02     1.8750000000070621E-01     0.0000000000000000E+00 
    6.2499999999969733E-02     2.5000000000093858E-01     0.0000000000000000E+00 
    6.2499999999993928E-02     3.1250000000117117E-01     0.0000000000000000E+00 
    6.2500000000018124E-02     3.7500000000140382E-01     0.0000000000000000E+00 
    6.2500000000042327E-02     4.3750000000163619E-01     0.0000000000000000E+00 
    6.2500000000066530E-02     5.0000000000184897E-01     0.0000000000000000E+00 
    6.2500000000090733E-02     5.6250000000147260E-01     0.0000000000000000E+00 
    6.2500000000114922E-02     6.2500000000107636E-01     0.0000000000000000E+00 
    6.2500000000139125E-02     6.8750000000068034E-01     0.0000000000000000E+00 
    6.2500000000163328E-02     7.5000000000028411E-01     0.0000000000000000E+00 
    6.2500000000187531E-02     8.1249999999988787E-01     0.0000000000000000E+00 
    6.2500000000211720E-02     8.7499999999951172E-01     0.0000000000000000E+00 
    6.2500000000235922E-02     9.3749999999974565E-01     0.0000000000000000E+00 
    1.2499999999981980E-01     6.2500000000211733E-02     0.0000000000000000E+00 
    1.2499999999986650E-01     1.2500000000042691E-01     0.0000000000000000E+00 
    1.2499999999991319E-01     1.8750000000063199E-01     0.0000000000000000E+00 
    1.2499999999995989E-01     2.5000000000083678E-01     0.0000000000000000E+00 
    1.2500000000000661E-01     3.1250000000104172E-01     0.0000000000000000E+00 
    1.2500000000005329E-01     3.7500000000124661E-01     0.0000000000000000E+00 
    1.2500000000010000E-01     4.3750000000145117E-01     0.0000000000000000E+00 
    1.2500000000014669E-01     5.0000000000163858E-01     0.0000000000000000E+00 
    1.2500000000019340E-01     5.6250000000129741E-01     0.0000000000000000E+00 
    1.2500000000024011E-01     6.2500000000093847E-01     0.0000000000000000E+00 
    1.2500000000028680E-01     6.8750000000057998E-01     0.0000000000000000E+00 
    1.2500000000033351E-01     7.5000000000022127E-01     0.0000000000000000E+00 
    1.2500000000038020E-01     8.1249999999986211E-01     0.0000000000000000E+00 
    1.2500000000042691E-01     8.7499999999952238E-01     0.0000000000000000E+00 
    1.2500000000047359E-01     9.3749999999975164E-01     0.0000000000000000E+00 
    1.8749999999966760E-01     6.2500000000187531E-02     0.0000000000000000E+00 
    1.8749999999974179E-01     1.2500000000038020E-01     0.0000000000000000E+00 
    1.8749999999981601E-01     1.8750000000055780E-01     0.0000000000000000E+00 
    1.8749999999989009E-01     2.5000000000073502E-01     0.0000000000000000E+00 
    1.8749999999996431E-01     3.1250000000091221E-01     0.0000000000000000E+00 
    1.8750000000003850E-01     3.7500000000108941E-01     0.0000000000000000E+00 
    1.8750000000011269E-01     4.3750000000126649E-01     0.0000000000000000E+00 
    1.8750000000018691E-01     5.0000000000142808E-01     0.0000000000000000E+00 
    1.8750000000026110E-01     5.6250000000112244E-01     0.0000000000000000E+00 
    1.8750000000033529E-01     6.2500000000080080E-01     0.0000000000000000E+00 
    1.8750000000040951E-01     6.8750000000047962E-01     0.0000000000000000E+00 
    1.8750000000048361E-01     7.5000000000015843E-01     0.0000000000000000E+00 
    1.8750000000055780E-01     8.1249999999983680E-01     0.0000000000000000E+00 
    1.8750000000063199E-01     8.7499999999953304E-01     0.0000000000000000E+00 
    1.8750000000070621E-01     9.3749999999975764E-01     0.0000000000000000E+00 
    2.4999999999951281E-01     6.2500000000163314E-02     0.0000000000000000E+00 
    2.4999999999961461E-01     1.2500000000033351E-01     0.0000000000000000E+00 
    2.4999999999971650E-01     1.8750000000048361E-01     0.0000000000000000E+00 
    2.4999999999981831E-01     2.5000000000063310E-01     0.0000000000000000E+00 
    2.4999999999992020E-01     3.1250000000078260E-01     0.0000000000000000E+00 
    2.5000000000002198E-01     3.7500000000093209E-01     0.0000000000000000E+00 
    2.5000000000012390E-01     4.3750000000108180E-01     0.0000000000000000E+00 
    2.5000000000022571E-01     5.0000000000121769E-01     0.0000000000000000E+00 
    2.5000000000032763E-01     5.6250000000094724E-01     0.0000000000000000E+00 
    2.5000000000042938E-01     6.2500000000066314E-01     0.0000000000000000E+00 
    2.5000000000053119E-01     6.8750000000037925E-01     0.0000000000000000E+00 
[...]
CELL_DATA 256 
SCALARS Pressure double 1 
LOOKUP_TABLE default 

    1.6961449050393596E+00 
    1.4628193925899922E+00 
    1.3300748602716101E+00 
    1.2230354323863279E+00 
    1.1239674924564593E+00 
    1.0270212409216910E+00 
    9.2996319276323924E-01 
    8.3205734886808480E-01 
    7.3339622026459517E-01 
    6.3467747020348009E-01 
    5.3709170610092372E-01 
    4.4213853903097688E-01 
    3.5282823923263817E-01 
    2.9648565205710498E-01 
    2.7161375221741035E-01 
    2.6285289461508660E-01 
    1.6246935141110710E+00 
    1.4668744205713578E+00 
    1.3388741666966193E+00 
    1.2321279646067118E+00 
    1.1331510581583262E+00 
    1.0363334261319155E+00 
    9.3940598649862661E-01 
    8.4158090776406991E-01 
    7.4289622357728846E-01 
    6.4399234572106756E-01 
    5.4600295883806893E-01 
    4.5032957437412008E-01 
    3.5923730985104535E-01 
    2.9914437814856121E-01 
    2.7206751622024200E-01 
    2.6246189078742199E-01 
    1.5691954992613582E+00 
    1.4602248462267393E+00 
    1.3440762332553937E+00 
    1.2398223453668282E+00 
    1.1416438342807416E+00 
    1.0452273140256041E+00 
    9.4853719798186298E-01 
    8.5081390482137575E-01 
    7.5206401089346697E-01 
    6.5287134549080406E-01 
    5.5430463043633738E-01 
    4.5768999181345454E-01 
    3.6482295690253197E-01 
    3.0059875774386835E-01 
    2.7127210301413812E-01 
    2.6104175622923753E-01 
    1.5255161335316678E+00 
    1.4483832785371304E+00 
    1.3459756485380872E+00 
    1.2460191603335751E+00 
    1.1493876498658733E+00 
    1.0536821715946341E+00 
    9.5735910029912796E-01 
    8.5977661466896194E-01 
    7.6093799847589816E-01 
    6.6137366229898065E-01 
    5.6208039091902873E-01 
    4.6431453234961562E-01 
    3.6958275871071922E-01 
    3.0088532127915069E-01 
    2.6913963256610962E-01 
    2.5839027312402024E-01 
    1.4907456748287158E+00 
    1.4345317268417128E+00 
    1.3453177223835595E+00 
    1.2507839446308404E+00 
    1.1563705695630024E+00 
    1.0616935391746725E+00 
    9.6588150891585756E-01 
    8.6849369855468217E-01 
    7.6955967913819079E-01 
    6.6956075950290284E-01 
    5.6941486812712716E-01 
    4.7030190269243388E-01 
    3.7354097429858291E-01 
    3.0004528118100982E-01 
    2.6558834759485178E-01 
    2.5430685774856737E-01 
    1.4628452911688667E+00 
    1.4204810659003335E+00 
    1.3429197429284760E+00 
    1.2543072705107690E+00 
    1.1626306853904869E+00 
    1.0692763273387298E+00 
    9.7412297618712584E-01 
    8.7699456090474903E-01 
    7.7797370854603642E-01 
    6.7749656076919662E-01 
    5.7639519375085368E-01 
    4.7575771386560800E-01 
    3.7674961347937463E-01 
    2.9814994920485588E-01 
    2.6055122315144502E-01 
    2.4858101256305920E-01 
    1.4403646157925869E+00 
    1.4072339792056205E+00 
    1.3395146349004670E+00 
    1.2568514074336397E+00 
    1.1682507628257106E+00 
    1.0764658235408713E+00 
    9.8211154686311730E-01 
    8.8531357051479587E-01 
    7.8622788495898388E-01 
    6.8524731366819391E-01 
    5.8311128193530370E-01 
    4.8079692161266735E-01 
    3.7929561141567741E-01 
    2.9531534563954831E-01 
    2.5398287758484622E-01 
    2.4097934509775287E-01 
    1.4222544066093568E+00 
    1.3953196662659910E+00 
    1.3357017954969586E+00 
    1.2587060900265363E+00 
    1.1733478767058547E+00 
    1.0833166147804596E+00 
    9.8988492464095768E-01 
    8.9349010538211993E-01 
    7.9437307504484833E-01 
    6.9288127732326965E-01 
    5.8965505653232020E-01 
    4.8554445311197469E-01 
    3.8130304350268551E-01 
    2.9171926804791698E-01 
    2.4587457742147112E-01 
    2.3122995551599593E-01 
    1.4077416064941188E+00 
    1.3849928474054136E+00 
    1.3319464053785619E+00 
    1.2601584595927584E+00 
    1.1780618040878588E+00 
    1.0898999707909309E+00 
    9.9749003151239646E-01 
    9.0156838288209173E-01 
    8.0246311937488990E-01 
    7.0046840327148474E-01 
    5.9611873079452815E-01 
    4.9013404318863946E-01 
    3.8293118386417863E-01 
    2.8762743055656398E-01 
    2.3628455356751266E-01 
    2.1900331317795074E-01 
    1.3962449049568362E+00 
    1.3763518197518672E+00 
    1.3285978567448766E+00 
    1.2614757065460471E+00 
    1.1825445548767139E+00 
    1.0963004189274170E+00 
    1.0049820708033397E+00 
    9.0959706628791259E-01 
    8.1055474742175238E-01 
    7.0808024906219291E-01 
    6.0259212610509894E-01 
    4.9470534752312134E-01 
    3.8436862133097194E-01 
    2.8343133513146029E-01 
    2.2539104247331243E-01 
    2.0388728217241517E-01 
    1.3873165436885178E+00 
    1.3694081034844527E+00 
    1.3259132527131574E+00 
    1.2628971191918374E+00 
    1.1869521485435726E+00 
    1.1026121797622082E+00 
    1.0124232925671457E+00 
    9.1762867672788384E-01 
    8.1870752501019672E-01 
    7.1579051748637801E-01 
    6.0915893821373557E-01 
    4.9939896132985401E-01 
    3.8583088710231356E-01 
    2.7969933384608520E-01 
    2.1357613846026691E-01 
    1.8535045487280072E-01 
    1.3806008940693792E+00 
    1.3641269227170789E+00 
    1.3240796620980659E+00 
    1.2646322295403138E+00 
    1.1914388289495528E+00 
    1.1089359391488409E+00 
    1.0198817084028429E+00 
    9.2571889604207147E-01 
    8.2698383126353392E-01 
    7.2367687711315698E-01 
    6.1589190382842274E-01 
    5.0434586910469248E-01 
    3.8759221234945251E-01 
    2.7722699504164111E-01 
    2.0154041044157964E-01 
    1.6267820102989611E-01 
    1.3758028708347450E+00 
    1.3604493294972799E+00 
    1.3232321603227972E+00 
    1.2668619969072852E+00 
    1.1961531357204365E+00 
    1.1153760931226779E+00 
    1.0274300065865978E+00 
    9.3392599478405736E-01 
    8.3544888859312483E-01 
    7.3182520898990755E-01 
    6.2284773379270864E-01 
    5.0963677679529029E-01 
    3.9013126198004183E-01 
    2.7703250420196057E-01 
    1.9042740536948075E-01 
    1.3484008399915387E-01 
    1.3726583338103917E+00 
    1.3582988951643844E+00 
    1.3234635898105240E+00 
    1.2697383743944919E+00 
    1.2012333711675822E+00 
    1.1220374661953645E+00 
    1.0351446401284001E+00 
    9.4231105406162197E-01 
    8.4417138385722701E-01 
    7.4033866287551886E-01 
    6.3006643154538799E-01 
    5.1525112866329803E-01 
    3.9429380331506692E-01 
    2.8012841369834862E-01 
    1.8192139097337320E-01 
    1.0025406200588308E-01 
    1.3708918985027982E+00 
    1.3575605031762348E+00 
    1.3248102917484141E+00 
    1.2733683213349785E+00 
    1.2067927084136092E+00 
    1.1290156536535851E+00 
    1.0431033478851364E+00 
    9.5094191244599047E-01 
    8.5323049780152405E-01 
    7.4936241856576624E-01 
    6.3759316919468667E-01 
    5.2107009807605253E-01 
    4.0126991993426203E-01 
    2.8712265924232455E-01 
    1.7838997825357003E-01 
    5.6502642806286182E-02 
    1.3703766391624512E+00 
    1.3581891660366852E+00 
    1.3273242480638683E+00 
    1.2778628900731490E+00 
    1.2129530922699454E+00 
    1.1364207189958067E+00 
    1.0514004817617733E+00 
    9.5989962278114205E-01 
    8.6271240394944615E-01 
    7.5914357202257876E-01 
    6.4656340696699033E-01 
    5.2942451660182333E-01 
    4.1124908741037364E-01 
    2.9731515346193599E-01 
    1.8318976511239898E-01 
    0.0000000000000000E+00 

SCALARS Saturarion double 1 
LOOKUP_TABLE default 

    1.0000000000000000E+00 
    9.8312947116300231E-01 
    9.6121051602289331E-01 
    9.3738125890760482E-01 
    9.1350091185290661E-01 
    8.9002086761908594E-01 
    8.6684072062192996E-01 
    8.4354353454528119E-01 
    8.1933655381395598E-01 
    7.9265882770126328E-01 
    7.5981427159951154E-01 
    7.0907948958326961E-01 
    5.8128921058237626E-01 
    1.7264535111973228E-01 
    1.2146533722085442E-03 
    1.9662023794315441E-09 
    9.9455301805049179E-01 
    9.8055536133679067E-01 
    9.6023317717543111E-01 
    9.3717127994138094E-01 
    9.1365039610859133E-01 
    8.9037839778506245E-01 
    8.6736146989145269E-01 
    8.4424080268293833E-01 
    8.2028159177148230E-01 
    7.9402788664777579E-01 
    7.6208355104642200E-01 
    7.1403815438367091E-01 
    6.0058343309945728E-01 
    2.2141174199466662E-01 
    2.9287367698835128E-03 
    1.9184750325917892E-08 
    9.9002724065931780E-01 
    9.7680494840542198E-01 
    9.5776907018313429E-01 
    9.3568615057080351E-01 
    9.1276482747440180E-01 
    8.8989606780698316E-01 
    8.6719993410771012E-01 
    8.4438321841237762E-01 
    8.2076949327957671E-01 
    7.9499891081659213E-01 
    7.6393303068822116E-01 
    7.1816847032150399E-01 
    6.1483120883227216E-01 
    2.6318068294201480E-01 
    5.5769275659982853E-03 
    1.0140092052325707E-07 
    9.8469416015661138E-01 
    9.7212290100109189E-01 
    9.5412526556710975E-01 
    9.3304009362040141E-01 
    9.1085751327355058E-01 
    8.8853926997858701E-01 
    8.6629571013460249E-01 
    8.4389620796668752E-01 
    8.2072058588603580E-01 
    7.9549812357789751E-01 
    7.6531978960086144E-01 
    7.2162475130885861E-01 
    6.2670045583815670E-01 
    3.0403617417376055E-01 
    9.8067239522295138E-03 
    4.3333024900485152E-07 
    9.7831569042580502E-01 
    9.6647443640615371E-01 
    9.4942455914906299E-01 
    9.2932235513562034E-01 
    9.0796283199565331E-01 
    8.8630945927799165E-01 
    8.6463162783625702E-01 
    8.4275165621333015E-01 
    8.2010085765215524E-01 
    7.9549126662924430E-01 
    7.6622440952150350E-01 
    7.2448948307101946E-01 
    6.3695441943558806E-01 
    3.4252506673374655E-01 
    1.6003648606634367E-02 
    1.5277145823963580E-06 
    9.7071523125668979E-01 
    9.5976643454881327E-01 
    9.4367350515682025E-01 
    9.2455897242485541E-01 
    9.0408592839989732E-01 
    8.8319292102469804E-01 
    8.6218266981368841E-01 
    8.4091813384745440E-01 
    8.1887483677146389E-01 
    7.9494001975225326E-01 
    7.6661016436362428E-01 
    7.2676173696561830E-01 
    6.4584098813140689E-01 
    3.7767634621604973E-01 
    2.4404003750478191E-02 
    4.5486742865211280E-06 
    9.6171765848085677E-01 
    9.5186907213754157E-01 
    9.3680783405000434E-01 
    9.1871769246367241E-01 
    8.9919412859208714E-01 
    8.7914994971064198E-01 
    8.5890471116022549E-01 
    8.3834980196955677E-01 
    8.1699565722246004E-01 
    7.9379482543722291E-01 
    7.6642197590345584E-01 
    7.2838924858450638E-01 
    6.5343559643865234E-01 
    4.0888040639451845E-01 
    3.4897585663233921E-02 
    1.1551385074172829E-05 
    9.5112060411026278E-01 
    9.4260984831461503E-01 
    9.2870281093366502E-01 
    9.1170764440410568E-01 
    8.9320843133950756E-01 
    8.7410471202525952E-01 
    8.5472478642646865E-01 
    8.3497768809107809E-01 
    8.1439793334287058E-01 
    7.9199038798598020E-01 
    7.6558662019882429E-01 
    7.2928382795665314E-01 
    6.5971841423214828E-01 
    4.3588144883455437E-01 
    4.6926808524619688E-02 
    2.5117805351655695E-05 
    9.3866202572697499E-01 
    9.3175316265854757E-01 
    9.1916243716256951E-01 
    9.0336701098554462E-01 
    8.8598739062579313E-01 
    8.6792850614514794E-01 
    8.4952557862596634E-01 
    8.3069606945138630E-01 
    8.1098620319576042E-01 
    7.8943620076942311E-01 
    7.6400554034860102E-01 
    7.2931780369636168E-01 
    6.6457538189360321E-01 
    4.5829153141334528E-01 
    5.8929058940643840E-02 
    4.5193140199738069E-05 
    9.2396881313174184E-01 
    9.1895969327407501E-01 
    9.0788600766693817E-01 
    8.9343133710583555E-01 
    8.7729473438518013E-01 
    8.6040824331656296E-01 
    8.4311654950894954E-01 
    8.2533725986315676E-01 
    8.0661385912597983E-01 
    7.8599956315149455E-01 
    7.6154057733001490E-01 
    7.2830594895825229E-01 
    6.6775758893896564E-01 
    4.7528203779824862E-01 
    6.8368512878582713E-02 
    6.4284608505503672E-05 
    9.0645869895639908E-01 
    9.0370353539919490E-01 
    8.9439339971442522E-01 
    8.8146268348072154E-01 
    8.6673039942260166E-01 
    8.5118072869135630E-01 
    8.3517399631440536E-01 
    8.1861932150142591E-01 
    8.0103920214922930E-01 
    7.8146964193527424E-01 
    7.5798312026033365E-01 
    7.2596426932188396E-01 
    6.6877222645581658E-01 
    4.8457298086676631E-01 
    7.0730912249852063E-02 
    6.3266544685207745E-05 
    8.8511362558351880E-01 
    8.8507846967278514E-01 
    8.7784634756585112E-01 
    8.6667817739995279E-01 
    8.5356394942090674E-01 
    8.3957354873122469E-01 
    8.2509501197674739E-01 
    8.1001847890002254E-01 
    7.9381908634397769E-01 
    7.7547160982795693E-01 
    7.5298134350113421E-01 
    7.2181298349171252E-01 
    6.6657715308826038E-01 
    4.7905385980642923E-01 
    6.0134019557937499E-02 
    3.3205173136797499E-05 
    8.5781145738390996E-01 
    8.6123275943406064E-01 
    8.5652534312229367E-01 
    8.4744305191578218E-01 
    8.3623623154332605E-01 
    8.2412198467137865E-01 
    8.1154742017152259E-01 
    7.9837505738141556E-01 
    7.8398943947408462E-01 
    7.6722487229069936E-01 
    7.4585531503286040E-01 
    7.1493557568086152E-01 
    6.5855265990316592E-01 
    4.3665681238525078E-01 
    3.4544993846583175E-02 
    5.4242678927166262E-06 
    8.1846875732594293E-01 
    8.2699028945004383E-01 
    8.2563406662663463E-01 
    8.1912516923967171E-01 
    8.1021874981579822E-01 
    8.0045721941979164E-01 
    7.9046652726885869E-01 
    7.8011375270577554E-01 
    7.6862026597584021E-01 
    7.5450278963918227E-01 
    7.3494519405953085E-01 
    7.0341603353061977E-01 
    6.3738201777746006E-01 
    3.3170677669328447E-01 
    1.0606937327805124E-02 
    1.5388009775188998E-07 
    7.3913234717964271E-01 
    7.5853230485425183E-01 
    7.6325640800011196E-01 
    7.6054118234855439E-01 
    7.5455338202838895E-01 
    7.4788405341489139E-01 
    7.4203841070352283E-01 
    7.3746190017230906E-01 
    7.3333205768863541E-01 
    7.2727278024196917E-01 
    7.1472874457266611E-01 
    6.8590060479073167E-01 
    5.9225921494288036E-01 
    1.5609118307933445E-01 
    3.7228688151044151E-04 
    1.3066552513577571E-12 
    4.1624703292967768E-01 
    5.1757593223394438E-01 
    5.4733264263998516E-01 
    5.5294095868944693E-01 
    5.4706116388261949E-01 
    5.3548687074234613E-01 
    5.2192672502950888E-01 
    5.0973749980699312E-01 
    5.0227820587958905E-01 
    4.9929965603883975E-01 
    4.7515468034783109E-01 
    2.9197261472179614E-01 
    3.1659163584741419E-02 
    3.7332455874187203E-05 
    7.4900064684221965E-13 
    1.5993406250848872E-39 
