# vtk DataFile Version 2.0
Pressure Field Data 
ASCII 
DATASET UNSTRUCTURED_GRID 

POINTS 289 double 

    0.0000000000000000E+00     0.0000000000000000E+00     0.0000000000000000E+00 
    1.0000000000000000E+00     0.0000000000000000E+00     0.0000000000000000E+00 
    1.0000000000000000E+00     1.0000000000000000E+00     0.0000000000000000E+00 
    0.0000000000000000E+00     1.0000000000000000E+00     0.0000000000000000E+00 
    6.2499999999872928E-02     0.0000000000000000E+00     0.0000000000000000E+00 
    1.2499999999977310E-01     0.0000000000000000E+00     0.0000000000000000E+00 
    1.8749999999959341E-01     0.0000000000000000E+00     0.0000000000000000E+00 
    2.4999999999941089E-01     0.0000000000000000E+00     0.0000000000000000E+00 
    3.1249999999922851E-01     0.0000000000000000E+00     0.0000000000000000E+00 
    3.7499999999904610E-01     0.0000000000000000E+00     0.0000000000000000E+00 
    4.3749999999886358E-01     0.0000000000000000E+00     0.0000000000000000E+00 
    4.9999999999869210E-01     0.0000000000000000E+00     0.0000000000000000E+00 
    5.6249999999884603E-01     0.0000000000000000E+00     0.0000000000000000E+00 
    6.2499999999901090E-01     0.0000000000000000E+00     0.0000000000000000E+00 
    6.8749999999917577E-01     0.0000000000000000E+00     0.0000000000000000E+00 
    7.4999999999934064E-01     0.0000000000000000E+00     0.0000000000000000E+00 
    8.1249999999950551E-01     0.0000000000000000E+00     0.0000000000000000E+00 
    8.7499999999967026E-01     0.0000000000000000E+00     0.0000000000000000E+00 
    9.3749999999983513E-01     0.0000000000000000E+00     0.0000000000000000E+00 
    1.0000000000000000E+00     6.2499999999872928E-02     0.0000000000000000E+00 
    1.0000000000000000E+00     1.2499999999977310E-01     0.0000000000000000E+00 
    1.0000000000000000E+00     1.8749999999959341E-01     0.0000000000000000E+00 
    1.0000000000000000E+00     2.4999999999941089E-01     0.0000000000000000E+00 
    1.0000000000000000E+00     3.1249999999922851E-01     0.0000000000000000E+00 
    1.0000000000000000E+00     3.7499999999904610E-01     0.0000000000000000E+00 
    1.0000000000000000E+00     4.3749999999886358E-01     0.0000000000000000E+00 
    1.0000000000000000E+00     4.9999999999869210E-01     0.0000000000000000E+00 
    1.0000000000000000E+00     5.6249999999884603E-01     0.0000000000000000E+00 
    1.0000000000000000E+00     6.2499999999901090E-01     0.0000000000000000E+00 
    1.0000000000000000E+00     6.8749999999917577E-01     0.0000000000000000E+00 
    1.0000000000000000E+00     7.4999999999934064E-01     0.0000000000000000E+00 
    1.0000000000000000E+00     8.1249999999950551E-01     0.0000000000000000E+00 
    1.0000000000000000E+00     8.7499999999967026E-01     0.0000000000000000E+00 
    1.0000000000000000E+00     9.3749999999983513E-01     0.0000000000000000E+00 
    9.3749999999973976E-01     1.0000000000000000E+00     0.0000000000000000E+00 
    8.7499999999950118E-01     1.0000000000000000E+00     0.0000000000000000E+00 
    8.1249999999991318E-01     1.0000000000000000E+00     0.0000000000000000E+00 
    7.5000000000034706E-01     1.0000000000000000E+00     0.0000000000000000E+00 
    6.8750000000078049E-01     1.0000000000000000E+00     0.0000000000000000E+00 
    6.2500000000121403E-01     1.0000000000000000E+00     0.0000000000000000E+00 
    5.6250000000164757E-01     1.0000000000000000E+00     0.0000000000000000E+00 
    5.0000000000205946E-01     1.0000000000000000E+00     0.0000000000000000E+00 
    4.3750000000182099E-01     1.0000000000000000E+00     0.0000000000000000E+00 
    3.7500000000156092E-01     1.0000000000000000E+00     0.0000000000000000E+00 
    3.1250000000130068E-01     1.0000000000000000E+00     0.0000000000000000E+00 
    2.5000000000104050E-01     1.0000000000000000E+00     0.0000000000000000E+00 
    1.8750000000078040E-01     1.0000000000000000E+00     0.0000000000000000E+00 
    1.2500000000052031E-01     1.0000000000000000E+00     0.0000000000000000E+00 
    6.2500000000260125E-02     1.0000000000000000E+00     0.0000000000000000E+00 
    0.0000000000000000E+00     9.3749999999973976E-01     0.0000000000000000E+00 
    0.0000000000000000E+00     8.7499999999950118E-01     0.0000000000000000E+00 
    0.0000000000000000E+00     8.1249999999991318E-01     0.0000000000000000E+00 
    0.0000000000000000E+00     7.5000000000034706E-01     0.0000000000000000E+00 
    0.0000000000000000E+00     6.8750000000078049E-01     0.0000000000000000E+00 
    0.0000000000000000E+00     6.2500000000121403E-01     0.0000000000000000E+00 
    0.0000000000000000E+00     5.6250000000164757E-01     0.0000000000000000E+00 
    0.0000000000000000E+00     5.0000000000205946E-01     0.0000000000000000E+00 
    0.0000000000000000E+00     4.3750000000182099E-01     0.0000000000000000E+00 
    0.0000000000000000E+00     3.7500000000156092E-01     0.0000000000000000E+00 
    0.0000000000000000E+00     3.1250000000130068E-01     0.0000000000000000E+00 
    0.0000000000000000E+00     2.5000000000104050E-01     0.0000000000000000E+00 
    0.0000000000000000E+00     1.8750000000078040E-01     0.0000000000000000E+00 
    0.0000000000000000E+00     1.2500000000052031E-01     0.0000000000000000E+00 
    0.0000000000000000E+00     6.2500000000260125E-02     0.0000000000000000E+00 
    6.2499999999897131E-02     6.2500000000235922E-02     0.0000000000000000E+00 
    6.2499999999921327E-02     1.2500000000047351E-01     0.0000000000000000E+00 
    6.2499999999945530E-02     1.8750000000070621E-01     0.0000000000000000E+00 
    6.2499999999969733E-02     2.5000000000093858E-01     0.0000000000000000E+00 
    6.2499999999993928E-02     3.1250000000117117E-01     0.0000000000000000E+00 
    6.2500000000018124E-02     3.7500000000140382E-01     0.0000000000000000E+00 
    6.2500000000042327E-02     4.3750000000163619E-01     0.0000000000000000E+00 
    6.2500000000066530E-02     5.0000000000184897E-01     0.0000000000000000E+00 
    6.2500000000090733E-02     5.6250000000147260E-01     0.0000000000000000E+00 
    6.2500000000114922E-02     6.2500000000107636E-01     0.0000000000000000E+00 
    6.2500000000139125E-02     6.8750000000068034E-01     0.0000000000000000E+00 
    6.2500000000163328E-02     7.5000000000028411E-01     0.0000000000000000E+00 
    6.2500000000187531E-02     8.1249999999988787E-01     0.0000000000000000E+00 
    6.2500000000211720E-02     8.7499999999951172E-01     0.0000000000000000E+00 
    6.2500000000235922E-02     9.3749999999974565E-01     0.0000000000000000E+00 
    1.2499999999981980E-01     6.2500000000211733E-02     0.0000000000000000E+00 
    1.2499999999986650E-01     1.2500000000042691E-01     0.0000000000000000E+00 
    1.2499999999991319E-01     1.8750000000063199E-01     0.0000000000000000E+00 
    1.2499999999995989E-01     2.5000000000083678E-01     0.0000000000000000E+00 
    1.2500000000000661E-01     3.1250000000104172E-01     0.0000000000000000E+00 
    1.2500000000005329E-01     3.7500000000124661E-01     0.0000000000000000E+00 
    1.2500000000010000E-01     4.3750000000145117E-01     0.0000000000000000E+00 
    1.2500000000014669E-01     5.0000000000163858E-01     0.0000000000000000E+00 
    1.2500000000019340E-01     5.6250000000129741E-01     0.0000000000000000E+00 
    1.2500000000024011E-01     6.2500000000093847E-01     0.0000000000000000E+00 
    1.2500000000028680E-01     6.8750000000057998E-01     0.0000000000000000E+00 
    1.2500000000033351E-01     7.5000000000022127E-01     0.0000000000000000E+00 
    1.2500000000038020E-01     8.1249999999986211E-01     0.0000000000000000E+00 
    1.2500000000042691E-01     8.7499999999952238E-01     0.0000000000000000E+00 
    1.2500000000047359E-01     9.3749999999975164E-01     0.0000000000000000E+00 
    1.8749999999966760E-01     6.2500000000187531E-02     0.0000000000000000E+00 
    1.8749999999974179E-01     1.2500000000038020E-01     0.0000000000000000E+00 
    1.8749999999981601E-01     1.8750000000055780E-01     0.0000000000000000E+00 
    1.8749999999989009E-01     2.5000000000073502E-01     0.0000000000000000E+00 
    1.8749999999996431E-01     3.1250000000091221E-01     0.0000000000000000E+00 
    1.8750000000003850E-01     3.7500000000108941E-01     0.0000000000000000E+00 
    1.8750000000011269E-01     4.3750000000126649E-01     0.0000000000000000E+00 
    1.8750000000018691E-01     5.0000000000142808E-01     0.0000000000000000E+00 
    1.8750000000026110E-01     5.6250000000112244E-01     0.0000000000000000E+00 
    1.8750000000033529E-01     6.2500000000080080E-01     0.0000000000000000E+00 
    1.8750000000040951E-01     6.8750000000047962E-01     0.0000000000000000E+00 
    1.8750000000048361E-01     7.5000000000015843E-01     0.0000000000000000E+00 
    1.8750000000055780E-01     8.1249999999983680E-01     0.0000000000000000E+00 
    1.8750000000063199E-01     8.7499999999953304E-01     0.0000000000000000E+00 
    1.8750000000070621E-01     9.3749999999975764E-01     0.0000000000000000E+00 
    2.4999999999951281E-01     6.2500000000163314E-02     0.0000000000000000E+00 
    2.4999999999961461E-01     1.2500000000033351E-01     0.0000000000000000E+00 
    2.4999999999971650E-01     1.8750000000048361E-01     0.0000000000000000E+00 
    2.4999999999981831E-01     2.5000000000063310E-01     0.0000000000000000E+00 
    2.4999999999992020E-01     3.1250000000078260E-01     0.0000000000000000E+00 
    2.5000000000002198E-01     3.7500000000093209E-01     0.0000000000000000E+00 
    2.5000000000012390E-01     4.3750000000108180E-01     0.0000000000000000E+00 
    2.5000000000022571E-01     5.0000000000121769E-01     0.0000000000000000E+00 
    2.5000000000032763E-01     5.6250000000094724E-01     0.0000000000000000E+00 
    2.5000000000042938E-01     6.2500000000066314E-01     0.0000000000000000E+00 
    2.5000000000053119E-01     6.8750000000037925E-01     0.0000000000000000E+00 
[...]
CELL_DATA 256 
SCALARS Pressure double 1 
LOOKUP_TABLE default 

    1.9707545262351218E+00 
    1.7381383058389785E+00 
    1.6064604609787989E+00 
    1.5007477560980795E+00 
    1.4032224363631529E+00 
    1.3079841014652194E+00 
    1.2127278850685728E+00 
    1.1166164055520218E+00 
    1.0196254246838343E+00 
    9.2240087394579540E-01 
    8.2635284067085346E-01 
    7.3380163293246692E-01 
    6.4783773146217394E-01 
    5.7248727720996928E-01 
    5.2799103125648739E-01 
    5.1497179839908347E-01 
    1.8993721678306972E+00 
    1.7421531669058621E+00 
    1.6151742074659852E+00 
    1.5097280218661828E+00 
    1.4122761144007541E+00 
    1.3171584812530417E+00 
    1.2220379428410038E+00 
    1.1260277230318787E+00 
    1.0290436990264247E+00 
    9.3164965211571904E-01 
    8.3514796067181618E-01 
    7.4175159199837304E-01 
    6.5449331090701879E-01 
    5.7707947793406600E-01 
    5.2909751965393004E-01 
    5.1449236365765671E-01 
    1.8439705890710618E+00 
    1.7355103330321440E+00 
    1.6203262270520655E+00 
    1.5173414749689245E+00 
    1.4206705615448714E+00 
    1.3259496999887819E+00 
    1.2310793110097973E+00 
    1.1352044839945130E+00 
    1.0382035115189479E+00 
    9.4055241110607779E-01 
    8.4342181615283540E-01 
    7.4888752269391168E-01 
    6.5994693484976352E-01 
    5.8028880080090572E-01 
    5.2847200111562775E-01 
    5.1259430688645491E-01 
    1.8003994281072500E+00 
    1.7237079061482070E+00 
    1.6222076142751796E+00 
    1.5234865468733907E+00 
    1.4283450636233033E+00 
    1.3343335621101977E+00 
    1.2398496446179867E+00 
    1.1441618703662657E+00 
    1.0471403739664553E+00 
    9.4917234341078927E-01 
    8.5127261202518845E-01 
    7.5533857391418890E-01 
    6.6431285308681820E-01 
    5.8205231335797680E-01 
    5.2600921982069615E-01 
    5.0897726537980303E-01 
    1.7657448595895280E+00 
    1.7099188388943942E+00 
    1.6215586499241532E+00 
    1.5282255514861431E+00 
    1.4352844566035270E+00 
    1.3423015778997014E+00 
    1.2483534957679707E+00 
    1.1529185648180378E+00 
    1.0558919232073047E+00 
    9.5757511206438839E-01 
    8.5880396613983634E-01 
    7.6124481212490847E-01 
    6.6772327045024316E-01 
    5.8234160718520256E-01 
    5.2158093007704975E-01 
    5.0332624137476356E-01 
    1.7379648669019889E+00 
    1.6959470492016326E+00 
    1.6191911866574324E+00 
    1.5317450795081688E+00 
    1.4415230190434161E+00 
    1.3498641110381906E+00 
    1.2566034696277524E+00 
    1.1614968247893063E+00 
    1.0644972714334235E+00 
    9.6582774920256331E-01 
    8.6612439687971321E-01 
    7.6676062246359689E-01 
    6.7033943566061316E-01 
    5.8117573894179786E-01 
    5.1504956148678738E-01 
    4.9527823213508643E-01 
    1.7156061231996353E+00 
    1.6827894056263020E+00 
    1.6158326633415208E+00 
    1.5343029112181741E+00 
    1.4471392336026547E+00 
    1.3570514659921460E+00 
    1.2646210043368009E+00 
    1.1699225038600363E+00 
    1.0729962780368727E+00 
    9.7399718010549274E-01 
    8.7334577631415633E-01 
    7.7205620668195551E-01 
    6.7236179277862818E-01 
    5.7863799798975035E-01 
    5.0626637780238581E-01 
    4.8437156942218712E-01 
    1.6976165122131230E+00 
    1.6709699552894794E+00 
    1.6120770548612617E+00 
    1.5361839574126273E+00 
    1.4522455322158021E+00 
    1.3639129129345582E+00 
    1.2724366283377715E+00 
    1.1782249997143475E+00 
    1.0814288031298360E+00 
    9.8214845102520409E-01 
    8.8058066625976905E-01 
    7.7731677363433338E-01 
    6.7403872031070944E-01 
    5.7489466597453998E-01 
    4.9506846488938555E-01 
    4.6997110939411302E-01 
    1.6832202205747315E+00 
    1.6607386833821554E+00 
    1.6083842092064657E+00 
    1.5376703115177348E+00 
    1.4569767810272594E+00 
    1.3705141856027097E+00 
    1.2800896804779884E+00 
    1.1864371227427239E+00 
    1.0898340065687258E+00 
    9.9034277781605473E-01 
    8.8793852083171398E-01 
    7.8273880396595530E-01 
    6.7567301699921700E-01 
    5.7022179773836912E-01 
    4.8128816931413576E-01 
    4.5115789290739061E-01 
    1.6718334249998439E+00 
    1.6521894572881939E+00 
    1.6050982780541458E+00 
    1.5390239598451718E+00 
    1.4614798783471852E+00 
    1.3769341686861605E+00 
    1.2876276002320095E+00 
    1.1945949188467619E+00 
    1.0982497854626412E+00 
    9.9863561051973893E-01 
    8.9552089724873096E-01 
    7.8852263959062241E-01 
    6.7762374002421533E-01 
    5.6504514318503363E-01 
    4.6480010977344943E-01 
    4.2657709956054207E-01 
    1.6630063194628621E+00 
    1.6453296621410844E+00 
    1.6024712355649153E+00 
    1.5404788783939718E+00 
    1.4659055695713794E+00 
    1.3832614205808280E+00 
    1.2951049660838474E+00 
    1.2027375197969927E+00 
    1.1067124767510623E+00 
    1.0070750025337631E+00 
    9.0341608299630971E-01 
    7.9486081491659100E-01 
    6.8029888005427552E-01 
    5.5999215902993271E-01 
    4.4565496811101790E-01 
    3.9427373709395541E-01 
    1.6563820887510841E+00 
    1.6401208142650447E+00 
    1.6006852365240032E+00 
    1.5422392527779079E+00 
    1.4704026769208671E+00 
    1.3895909706786516E+00 
    1.3025824712189131E+00 
    1.2109071304969183E+00 
    1.1152569935020418E+00 
    1.0157006762453098E+00 
    9.1169392537221006E-01 
    8.0192225492126479E-01 
    6.8413242134140906E-01 
    5.5594242090275747E-01 
    4.2436547917651551E-01 
    3.5161675874337978E-01 
    1.6516661500022938E+00 
    1.6365011897447816E+00 
    1.5998710561180924E+00 
    1.5444809080426789E+00 
    1.4751142139431153E+00 
    1.3960214699184077E+00 
    1.3101259328165469E+00 
    1.2191492914242565E+00 
    1.1239176599666654E+00 
    1.0245443456516861E+00 
    9.2040216202940450E-01 
    8.0983399178471138E-01 
    6.8953903470770561E-01 
    5.5404382911970862E-01 
    4.0236106757251766E-01 
    2.9536307333936496E-01 
    1.6485988436181702E+00 
    1.6343944854020920E+00 
    1.6001195088000153E+00 
    1.5473519656662431E+00 
    1.4801732306825752E+00 
    1.4026516031308274E+00 
    1.3178048170758121E+00 
    1.2275134306970552E+00 
    1.1327303054066811E+00 
    1.0336324530650245E+00 
    9.2956656836834484E-01 
    8.1866486585587495E-01 
    6.9684327499271626E-01 
    5.5564038323167586E-01 
    3.8258911272685048E-01 
    2.2160263826242152E-01 
    1.6469186684110955E+00 
    1.6336949440407607E+00 
    1.6014729303306765E+00 
    1.5509607860149099E+00 
    1.4856896932439190E+00 
    1.4095697272917391E+00 
    1.3256864271717308E+00 
    1.2360523254738516E+00 
    1.1417372413382927E+00 
    1.0429960808089938E+00 
    9.3920288312483202E-01 
    8.2842483237333520E-01 
    7.0619681378459798E-01 
    5.6202683722806757E-01 
    3.7041350592664823E-01 
    1.2525425251317160E-01 
    1.6464154025034712E+00 
    1.6343015924051514E+00 
    1.6039467136749612E+00 
    1.5553900643848260E+00 
    1.4917604962360700E+00 
    1.4168616295116749E+00 
    1.3338415298703625E+00 
    1.2448252714684791E+00 
    1.1509879082195795E+00 
    1.0526696020164097E+00 
    9.4931519217968630E-01 
    8.3905974498325586E-01 
    7.1749165833758066E-01 
    5.7380241871173032E-01 
    3.7525096525973789E-01 
    0.0000000000000000E+00 

SCALARS Saturarion double 1 
LOOKUP_TABLE default 

    1.0000000000000000E+00 
    9.8474510951505034E-01 
    9.6483542280513113E-01 
    9.4316619068967034E-01 
    9.2148952718668231E-01 
    9.0028048960016327E-01 
    8.7952469633960484E-01 
    8.5896811781884397E-01 
    8.3814492872020985E-01 
    8.1623901548862643E-01 
    7.9161794166874122E-01 
    7.6021589714846094E-01 
    7.0796051046248010E-01 
    5.6479319244310811E-01 
    1.6059505915079880E-01 
    1.1761815768805957E-03 
    9.9509133195707544E-01 
    9.8240986547597553E-01 
    9.6393734124147823E-01 
    9.4295322883502586E-01 
    9.2158936471282316E-01 
    9.0055330923607257E-01 
    8.7992553318335132E-01 
    8.5949924780564857E-01 
    8.3884658887388641E-01 
    8.1720412139715037E-01 
    7.9305038599168198E-01 
    7.6265273282637747E-01 
    7.1353256296988743E-01 
    5.8646731864168500E-01 
    2.0916441463963703E-01 
    2.9536439717008020E-03 
    9.9100048103760485E-01 
    9.7900070466225597E-01 
    9.6167436591711919E-01 
    9.4155753890078653E-01 
    9.2071592176453432E-01 
    9.0002411839742069E-01 
    8.7966518600191257E-01 
    8.5948826195253014E-01 
    8.3910812882081454E-01 
    8.1781588935830118E-01 
    7.9419824482616042E-01 
    7.6482610967785059E-01 
    7.1850562365635628E-01 
    6.0368242603665612E-01 
    2.5434730355089563E-01 
    6.0511051690123711E-03 
    9.8616464350005695E-01 
    9.7473307264368114E-01 
    9.5832264500884645E-01 
    9.3908319423917541E-01 
    9.1888315887511351E-01 
    8.9866353640836039E-01 
    8.7869001017365989E-01 
    8.5886685380179173E-01 
    8.3885324189410693E-01 
    8.1799630915241273E-01 
    7.9498940491469972E-01 
    7.6668573070001478E-01 
    7.2299362026157632E-01 
    6.1866877973411483E-01 
    2.9959577732937209E-01 
    1.1369961117696529E-02 
    9.8035959259183769E-01 
    9.6956782435133648E-01 
    9.5398811559760910E-01 
    9.3560783373249790E-01 
    9.1612043044330616E-01 
    8.9647165000393436E-01 
    8.7698286122931501E-01 
    8.5760655728339974E-01 
    8.3804517670788237E-01 
    8.1770254017077171E-01 
    7.9537878138372309E-01 
    7.6819776875393408E-01 
    7.2705984027537596E-01 
    6.3214448138500823E-01 
    3.4340052932548165E-01 
    1.9939408586003297E-02 
    9.7341332253298496E-01 
    9.6341071765779585E-01 
    9.4866864327659461E-01 
    9.3114847737871098E-01 
    9.1242687581074944E-01 
    8.9343094659388544E-01 
    8.7451571391701488E-01 
    8.5567254471438625E-01 
    8.3664367622497426E-01 
    8.1688891872823577E-01 
    7.9531600581727246E-01 
    7.6931499061677222E-01 
    7.3070724356228145E-01 
    6.4441898025295996E-01 
    3.8457800354182425E-01 
    3.3016230940679951E-02 
    9.6515160626358976E-01 
    9.5613149702335987E-01 
    9.4229515161654875E-01 
    9.2566620690274537E-01 
    9.0776385312671393E-01 
    8.8949657469106591E-01 
    8.7123934604457864E-01 
    8.5301319937742426E-01 
    8.3459500979525503E-01 
    8.1549811788540039E-01 
    7.9473812706857783E-01 
    7.6997144687474772E-01 
    7.3389426203995112E-01 
    6.5564456339465482E-01 
    4.2254472580353686E-01 
    5.2068304741886159E-02 
    9.5537147946339329E-01 
    9.4755776713048145E-01 
    9.3474044394891498E-01 
    9.1906543543001729E-01 
    9.0204677314562720E-01 
    8.8458653683156641E-01 
    8.6707367279747394E-01 
    8.4955111765512736E-01 
    8.3182403612619926E-01 
    8.1345470550572763E-01 
    7.9356494532873845E-01 
    7.7007983462759599E-01 
    7.3654289227490877E-01 
    6.6588350573541644E-01 
    4.5727836514078896E-01 
    7.8785566573435967E-02 
    9.4381098322789836E-01 
    9.3745546490702980E-01 
    9.2580838308170599E-01 
    9.1118168132832045E-01 
    8.9512930263858070E-01 
    8.7856503908286943E-01 
    8.6189185167408977E-01 
    8.4516864777491996E-01 
    8.2822152843773744E-01 
    8.1065449479606189E-01 
    7.9169052802515938E-01 
    7.6952502572718284E-01 
    7.3853714451894326E-01 
    6.7512603858951314E-01 
    4.8905972150288368E-01 
    1.1487009764994775E-01 
    9.3010134887821116E-01 
    9.2549065588740098E-01 
    9.1520203535966871E-01 
    9.0175109629523842E-01 
    8.8677189223390596E-01 
    8.7121118507538742E-01 
    8.5549062575225210E-01 
    8.3968091346419105E-01 
    8.2362058528481019E-01 
    8.0694474299731023E-01 
    7.8896713327677714E-01 
    7.6815056657902370E-01 
    7.3971122258667499E-01 
    6.8328789320471284E-01 
    5.1824645721474516E-01 
    1.6141415843561843E-01 
    9.1367725386391152E-01 
    9.1115312509800794E-01 
    9.0245415502618942E-01 
    8.9034387908458257E-01 
    8.7657594984359732E-01 
    8.6215456548702429E-01 
    8.4752921140632087E-01 
    8.3277993838562170E-01 
    8.1774747084224730E-01 
    8.0208256935016908E-01 
    7.8517125073793348E-01 
    7.6573025017820762E-01 
    7.3982166508252700E-01 
    6.9018861639638363E-01 
    5.4511769916379804E-01 
    2.1733299614742349E-01 
    8.9357593575138150E-01 
    8.9358303897229674E-01 
    8.8676574692196652E-01 
    8.7620774195676909E-01 
    8.6382907415279875E-01 
    8.5072299280904062E-01 
    8.3738320513040787E-01 
    8.2389968689239723E-01 
    8.1010227199275331E-01 
    7.9563399188584949E-01 
    7.7992148117157323E-01 
    7.6190116182029266E-01 
    7.3848348396895247E-01 
    6.9549268348721294E-01 
    5.6976487037171786E-01 
    2.7800486935870600E-01 
    8.6786900320630223E-01 
    8.7108549631199461E-01 
    8.6655208870189104E-01 
    8.5782260648931974E-01 
    8.4705860183733506E-01 
    8.3549542907959151E-01 
    8.2370698583264723E-01 
    8.1180531480663531E-01 
    7.9959432292070487E-01 
    7.8666962862950829E-01 
    7.7243849746438475E-01 
    7.5597778971340113E-01 
    7.3500355423066566E-01 
    6.9854665605970201E-01 
    5.9198130749540678E-01 
    3.3732408887554616E-01 
    8.3135004976425952E-01 
    8.3919290930487334E-01 
    8.3763564723042583E-01 
    8.3110907615653618E-01 
    8.2220232008740179E-01 
    8.1242887438296818E-01 
    8.0255530005998277E-01 
    7.9278744975393101E-01 
    7.8290933835021381E-01 
    7.7239920416164276E-01 
    7.6050377606926944E-01 
    7.4622247526139440E-01 
    7.2783083387228775E-01 
    6.9784707766730258E-01 
    6.1099943510554811E-01 
    3.9187485331199234E-01 
    7.6149177134060242E-01 
    7.7862522018814451E-01 
    7.8204869433620505E-01 
    7.7842845428836638E-01 
    7.7144912937603904E-01 
    7.6338381803449440E-01 
    7.5565796387494766E-01 
    7.4904634281865168E-01 
    7.4367994742387666E-01 
    7.3896821742420937E-01 
    7.3356918248393577E-01 
    7.2552485049014970E-01 
    7.1245296025618376E-01 
    6.8986680057906780E-01 
    6.2480131311538023E-01 
    4.4056732132686865E-01 
    4.8993840933492838E-01 
    5.6726595167290417E-01 
    5.9212099641452987E-01 
    5.9685671798698847E-01 
    5.9161411122118168E-01 
    5.8112446270889517E-01 
    5.6812068847745223E-01 
    5.5461173173224698E-01 
    5.4263761824040335E-01 
    5.3466391541697966E-01 
    5.3283974357472064E-01 
    5.3556774353452596E-01 
    5.3270728165971293E-01 
    5.1645141879089607E-01 
    5.3093495773641597E-01 
    4.5309377023885822E-01 
