# vtk DataFile Version 2.0
Pressure Field Data 
ASCII 
DATASET UNSTRUCTURED_GRID 

POINTS 289 double 

    0.0000000000000000E+00     0.0000000000000000E+00     0.0000000000000000E+00 
    1.0000000000000000E+00     0.0000000000000000E+00     0.0000000000000000E+00 
    1.0000000000000000E+00     1.0000000000000000E+00     0.0000000000000000E+00 
    0.0000000000000000E+00     1.0000000000000000E+00     0.0000000000000000E+00 
    6.2499999999872928E-02     0.0000000000000000E+00     0.0000000000000000E+00 
    1.2499999999977310E-01     0.0000000000000000E+00     0.0000000000000000E+00 
    1.8749999999959341E-01     0.0000000000000000E+00     0.0000000000000000E+00 
    2.4999999999941089E-01     0.0000000000000000E+00     0.0000000000000000E+00 
    3.1249999999922851E-01     0.0000000000000000E+00     0.0000000000000000E+00 
    3.7499999999904610E-01     0.0000000000000000E+00     0.0000000000000000E+00 
    4.3749999999886358E-01     0.0000000000000000E+00     0.0000000000000000E+00 
    4.9999999999869210E-01     0.0000000000000000E+00     0.0000000000000000E+00 
    5.6249999999884603E-01     0.0000000000000000E+00     0.0000000000000000E+00 
    6.2499999999901090E-01     0.0000000000000000E+00     0.0000000000000000E+00 
    6.8749999999917577E-01     0.0000000000000000E+00     0.0000000000000000E+00 
    7.4999999999934064E-01     0.0000000000000000E+00     0.0000000000000000E+00 
    8.1249999999950551E-01     0.0000000000000000E+00     0.0000000000000000E+00 
    8.7499999999967026E-01     0.0000000000000000E+00     0.0000000000000000E+00 
    9.3749999999983513E-01     0.0000000000000000E+00     0.0000000000000000E+00 
    1.0000000000000000E+00     6.2499999999872928E-02     0.0000000000000000E+00 
    1.0000000000000000E+00     1.2499999999977310E-01     0.0000000000000000E+00 
    1.0000000000000000E+00     1.8749999999959341E-01     0.0000000000000000E+00 
    1.0000000000000000E+00     2.4999999999941089E-01     0.0000000000000000E+00 
    1.0000000000000000E+00     3.1249999999922851E-01     0.0000000000000000E+00 
    1.0000000000000000E+00     3.7499999999904610E-01     0.0000000000000000E+00 
    1.0000000000000000E+00     4.3749999999886358E-01     0.0000000000000000E+00 
    1.0000000000000000E+00     4.9999999999869210E-01     0.0000000000000000E+00 
    1.0000000000000000E+00     5.6249999999884603E-01     0.0000000000000000E+00 
    1.0000000000000000E+00     6.2499999999901090E-01     0.0000000000000000E+00 
    1.0000000000000000E+00     6.8749999999917577E-01     0.0000000000000000E+00 
    1.0000000000000000E+00     7.4999999999934064E-01     0.0000000000000000E+00 
    1.0000000000000000E+00     8.1249999999950551E-01     0.0000000000000000E+00 
    1.0000000000000000E+00     8.7499999999967026E-01     0.0000000000000000E+00 
    1.0000000000000000E+00     9.3749999999983513E-01     0.0000000000000000E+00 
    9.3749999999973976E-01     1.0000000000000000E+00     0.0000000000000000E+00 
    8.7499999999950118E-01     1.0000000000000000E+00     0.0000000000000000E+00 
    8.1249999999991318E-01     1.0000000000000000E+00     0.0000000000000000E+00 
    7.5000000000034706E-01     1.0000000000000000E+00     0.0000000000000000E+00 
    6.8750000000078049E-01     1.0000000000000000E+00     0.0000000000000000E+00 
    6.2500000000121403E-01     1.0000000000000000E+00     0.0000000000000000E+00 
    5.6250000000164757E-01     1.0000000000000000E+00     0.0000000000000000E+00 
    5.0000000000205946E-01     1.0000000000000000E+00     0.0000000000000000E+00 
    4.3750000000182099E-01     1.0000000000000000E+00     0.0000000000000000E+00 
    3.7500000000156092E-01     1.0000000000000000E+00     0.0000000000000000E+00 
    3.1250000000130068E-01     1.0000000000000000E+00     0.0000000000000000E+00 
    2.5000000000104050E-01     1.0000000000000000E+00     0.0000000000000000E+00 
    1.8750000000078040E-01     1.0000000000000000E+00     0.0000000000000000E+00 
    1.2500000000052031E-01     1.0000000000000000E+00     0.0000000000000000E+00 
    6.2500000000260125E-02     1.0000000000000000E+00     0.0000000000000000E+00 
    0.0000000000000000E+00     9.3749999999973976E-01     0.0000000000000000E+00 
    0.0000000000000000E+00     8.7499999999950118E-01     0.0000000000000000E+00 
    0.0000000000000000E+00     8.1249999999991318E-01     0.0000000000000000E+00 
    0.0000000000000000E+00     7.5000000000034706E-01     0.0000000000000000E+00 
    0.0000000000000000E+00     6.8750000000078049E-01     0.0000000000000000E+00 
    0.0000000000000000E+00     6.2500000000121403E-01     0.0000000000000000E+00 
    0.0000000000000000E+00     5.6250000000164757E-01     0.0000000000000000E+00 
    0.0000000000000000E+00     5.0000000000205946E-01     0.0000000000000000E+00 
    0.0000000000000000E+00     4.3750000000182099E-01     0.0000000000000000E+00 
    0.0000000000000000E+00     3.7500000000156092E-01     0.0000000000000000E+00 
    0.0000000000000000E+00     3.1250000000130068E-01     0.0000000000000000E+00 
    0.0000000000000000E+00     2.5000000000104050E-01     0.0000000000000000E+00 
    0.0000000000000000E+00     1.8750000000078040E-01     0.0000000000000000E+00 
    0.0000000000000000E+00     1.2500000000052031E-01     0.0000000000000000E+00 
    0.0000000000000000E+00     6.2500000000260125E-02     0.0000000000000000E+00 
    6.2499999999897131E-02     6.2500000000235922E-02     0.0000000000000000E+00 
    6.2499999999921327E-02     1.2500000000047351E-01     0.0000000000000000E+00 
    6.2499999999945530E-02     1.8750000000070621E-01     0.0000000000000000E+00 
    6.2499999999969733E-02     2.5000000000093858E-01     0.0000000000000000E+00 
    6.2499999999993928E-02     3.1250000000117117E-01     0.0000000000000000E+00 
    6.2500000000018124E-02     3.7500000000140382E-01     0.0000000000000000E+00 
    6.2500000000042327E-02     4.3750000000163619E-01     0.0000000000000000E+00 
    6.2500000000066530E-02     5.0000000000184897E-01     0.0000000000000000E+00 
    6.2500000000090733E-02     5.6250000000147260E-01     0.0000000000000000E+00 
    6.2500000000114922E-02     6.2500000000107636E-01     0.0000000000000000E+00 
    6.2500000000139125E-02     6.8750000000068034E-01     0.0000000000000000E+00 
    6.2500000000163328E-02     7.5000000000028411E-01     0.0000000000000000E+00 
    6.2500000000187531E-02     8.1249999999988787E-01     0.0000000000000000E+00 
    6.2500000000211720E-02     8.7499999999951172E-01     0.0000000000000000E+00 
    6.2500000000235922E-02     9.3749999999974565E-01     0.0000000000000000E+00 
    1.2499999999981980E-01     6.2500000000211733E-02     0.0000000000000000E+00 
    1.2499999999986650E-01     1.2500000000042691E-01     0.0000000000000000E+00 
    1.2499999999991319E-01     1.8750000000063199E-01     0.0000000000000000E+00 
    1.2499999999995989E-01     2.5000000000083678E-01     0.0000000000000000E+00 
    1.2500000000000661E-01     3.1250000000104172E-01     0.0000000000000000E+00 
    1.2500000000005329E-01     3.7500000000124661E-01     0.0000000000000000E+00 
    1.2500000000010000E-01     4.3750000000145117E-01     0.0000000000000000E+00 
    1.2500000000014669E-01     5.0000000000163858E-01     0.0000000000000000E+00 
    1.2500000000019340E-01     5.6250000000129741E-01     0.0000000000000000E+00 
    1.2500000000024011E-01     6.2500000000093847E-01     0.0000000000000000E+00 
    1.2500000000028680E-01     6.8750000000057998E-01     0.0000000000000000E+00 
    1.2500000000033351E-01     7.5000000000022127E-01     0.0000000000000000E+00 
    1.2500000000038020E-01     8.1249999999986211E-01     0.0000000000000000E+00 
    1.2500000000042691E-01     8.7499999999952238E-01     0.0000000000000000E+00 
    1.2500000000047359E-01     9.3749999999975164E-01     0.0000000000000000E+00 
    1.8749999999966760E-01     6.2500000000187531E-02     0.0000000000000000E+00 
    1.8749999999974179E-01     1.2500000000038020E-01     0.0000000000000000E+00 
    1.8749999999981601E-01     1.8750000000055780E-01     0.0000000000000000E+00 
    1.8749999999989009E-01     2.5000000000073502E-01     0.0000000000000000E+00 
    1.8749999999996431E-01     3.1250000000091221E-01     0.0000000000000000E+00 
    1.8750000000003850E-01     3.7500000000108941E-01     0.0000000000000000E+00 
    1.8750000000011269E-01     4.3750000000126649E-01     0.0000000000000000E+00 
    1.8750000000018691E-01     5.0000000000142808E-01     0.0000000000000000E+00 
    1.8750000000026110E-01     5.6250000000112244E-01     0.0000000000000000E+00 
    1.8750000000033529E-01     6.2500000000080080E-01     0.0000000000000000E+00 
    1.8750000000040951E-01     6.8750000000047962E-01     0.0000000000000000E+00 
    1.8750000000048361E-01     7.5000000000015843E-01     0.0000000000000000E+00 
    1.8750000000055780E-01     8.1249999999983680E-01     0.0000000000000000E+00 
    1.8750000000063199E-01     8.7499999999953304E-01     0.0000000000000000E+00 
    1.8750000000070621E-01     9.3749999999975764E-01     0.0000000000000000E+00 
    2.4999999999951281E-01     6.2500000000163314E-02     0.0000000000000000E+00 
    2.4999999999961461E-01     1.2500000000033351E-01     0.0000000000000000E+00 
    2.4999999999971650E-01     1.8750000000048361E-01     0.0000000000000000E+00 
    2.4999999999981831E-01     2.5000000000063310E-01     0.0000000000000000E+00 
    2.4999999999992020E-01     3.1250000000078260E-01     0.0000000000000000E+00 
    2.5000000000002198E-01     3.7500000000093209E-01     0.0000000000000000E+00 
    2.5000000000012390E-01     4.3750000000108180E-01     0.0000000000000000E+00 
    2.5000000000022571E-01     5.0000000000121769E-01     0.0000000000000000E+00 
    2.5000000000032763E-01     5.6250000000094724E-01     0.0000000000000000E+00 
    2.5000000000042938E-01     6.2500000000066314E-01     0.0000000000000000E+00 
    2.5000000000053119E-01     6.8750000000037925E-01     0.0000000000000000E+00 
[...]
CELL_DATA 256 
SCALARS Pressure double 1 
LOOKUP_TABLE default 

    1.9336841321718481E+00 
    1.7020214916095344E+00 
    1.5718018823502415E+00 
    1.4679432268596762E+00 
    1.3726431575278268E+00 
    1.2800000188486484E+00 
    1.1877330584890426E+00 
    1.0950646767510765E+00 
    1.0020866845810170E+00 
    9.0965546630135596E-01 
    8.1955810445406874E-01 
    7.3480024843952196E-01 
    6.5971820244034218E-01 
    5.9927339110981859E-01 
    5.5739774053920266E-01 
    5.4274039154824161E-01 
    1.8623731710409115E+00 
    1.7059689506041216E+00 
    1.5803845408200092E+00 
    1.4767478459023669E+00 
    1.3814806477826596E+00 
    1.2889166623759294E+00 
    1.1967385114434306E+00 
    1.1041133463325536E+00 
    1.0110638343029650E+00 
    9.1834862022203334E-01 
    8.2762033484933994E-01 
    7.4173571737271726E-01 
    6.6495980938740928E-01 
    6.0242562830922497E-01 
    5.5843222514466051E-01 
    5.4221952420664776E-01 
    1.8070695831785764E+00 
    1.6993105117687461E+00 
    1.5854429295517538E+00 
    1.4842161726281233E+00 
    1.3896859095489003E+00 
    1.2974743480659352E+00 
    1.2054961406088518E+00 
    1.1129434528528610E+00 
    1.0197909156811440E+00 
    9.2669211561062581E-01 
    8.3513861032280368E-01 
    7.4780342136477973E-01 
    6.6887175635944518E-01 
    6.0375431317024408E-01 
    5.5750574358751492E-01 
    5.4000203805816593E-01 
    1.7636056086528236E+00 
    1.6875273879193446E+00 
    1.5872648291726150E+00 
    1.4902454959697489E+00 
    1.3971976564580051E+00 
    1.3056489207607902E+00 
    1.2140045428011477E+00 
    1.1215725006995474E+00 
    1.0283079416174070E+00 
    9.3475709736176471E-01 
    8.4222414952952884E-01 
    7.5315129599236130E-01 
    6.7159911716073628E-01 
    6.0329868664192743E-01 
    5.5436868344962154E-01 
    5.3560006475691657E-01 
    1.7290637404586353E+00 
    1.6737824152666141E+00 
    1.5865854513579911E+00 
    1.4948957498266451E+00 
    1.4039993380409750E+00 
    1.3134312926815572E+00 
    1.2222686733639221E+00 
    1.1300210230926819E+00 
    1.0366566248545359E+00 
    9.4261685215025637E-01 
    8.4899380147290171E-01 
    7.5794089773239304E-01 
    6.7331022673305563E-01 
    6.0112121075425873E-01 
    5.4878570129083104E-01 
    5.2849997826461637E-01 
    1.7013992276571521E+00 
    1.6598720290448197E+00 
    1.5842111389575873E+00 
    1.4983502290047013E+00 
    1.4101230975500703E+00 
    1.3208305921064165E+00 
    1.2303009594079677E+00 
    1.1383125609506228E+00 
    1.0448795533961255E+00 
    9.5034538910706401E-01 
    8.5556889112006218E-01 
    7.6234923334831706E-01 
    6.7420640987448266E-01 
    5.9732651915006174E-01 
    5.4055089528038280E-01 
    5.1816320087439149E-01 
    1.6791561392179262E+00 
    1.6467870172371437E+00 
    1.5808637682745548E+00 
    1.5008627578915836E+00 
    1.4156446034605306E+00 
    1.3278752534904932E+00 
    1.2381220433634623E+00 
    1.1464736057634743E+00 
    1.0530193166967916E+00 
    9.5801568117124147E-01 
    8.6207305872567563E-01 
    7.6656886579845185E-01 
    6.7453072618903842E-01 
    5.9208248885610937E-01 
    5.2950136753780985E-01 
    5.0401168613376457E-01 
    1.6612796960253038E+00 
    1.6350461151525628E+00 
    1.5771317990588580E+00 
    1.5027137959490910E+00 
    1.4206728525866603E+00 
    1.3346120408950957E+00 
    1.2457610048997010E+00 
    1.1545334808369923E+00 
    1.0611176422287243E+00 
    9.6569765836477472E-01 
    8.6862903633347666E-01 
    7.7080573501097593E-01 
    6.7457492430610777E-01 
    5.8564507156668311E-01 
    5.1553424296887795E-01 
    4.8539152919798834E-01 
    1.6469913666433693E+00 
    1.6248944262011675E+00 
    1.5734696104767925E+00 
    1.5041805863763877E+00 
    1.4253386948399467E+00 
    1.3411035356960086E+00 
    1.2532550411742491E+00 
    1.1625241486812201E+00 
    1.0692146019078210E+00 
    9.7345607659208744E-01 
    8.7535437822686124E-01 
    7.7527404198752881E-01 
    6.7468309236196999E-01 
    5.7838829219844234E-01 
    4.9863855292247444E-01 
    4.6151738872069986E-01 
    1.6357046536840150E+00 
    1.6164211941505899E+00 
    1.5702159058044256E+00 
    1.5055199204538054E+00 
    1.4297844521820233E+00 
    1.3474247996123123E+00 
    1.2606487039608705E+00 
    1.1704799678359974E+00 
    1.0773479736236646E+00 
    9.8134846141299592E-01 
    8.8235633582238315E-01 
    7.8018758680082656E-01 
    6.7524948129683371E-01 
    5.7083933582060653E-01 
    4.7895629844133136E-01 
    4.3139960349029816E-01 
    1.6269673069579418E+00 
    1.6096293853762058E+00 
    1.5676172243802167E+00 
    1.5069602742298027E+00 
    1.4341557412804278E+00 
    1.3536598525214920E+00 
    1.2679928561497340E+00 
    1.1784374517303366E+00 
    1.0855528647378325E+00 
    9.8942340641272564E-01 
    8.8972632607322233E-01 
    7.8574723959955051E-01 
    6.7670676453067158E-01 
    5.6371551016593768E-01 
    4.5689166330050723E-01 
    3.9374678119415946E-01 
    1.6204206331373705E+00 
    1.6044763959927713E+00 
    1.5658503767004213E+00 
    1.5087001060895888E+00 
    1.4385957209948139E+00 
    1.3598984000942398E+00 
    1.2753435071374652E+00 
    1.1864350917146613E+00 
    1.0938617140751508E+00 
    9.9771957340394968E-01 
    8.9753477473692767E-01 
    7.9212492975393800E-01 
    6.7949986781013494E-01 
    5.5795369858231481E-01 
    4.3329877946536816E-01 
    3.4682817562156010E-01 
    1.6157694571607768E+00 
    1.6008971346849326E+00 
    1.5650412520421504E+00 
    1.5109095655365070E+00 
    1.4432413317427215E+00 
    1.3662329097789274E+00 
    1.2827605610189703E+00 
    1.1945132497250162E+00 
    1.1023047655645162E+00 
    1.0062657792023098E+00 
    9.0582748411749614E-01 
    7.9944586425125197E-01 
    6.8404023325209173E-01 
    5.5471062043536468E-01 
    4.0979941196226161E-01 
    2.8827012261470841E-01 
    1.6127568853913019E+00 
    1.5988145615763236E+00 
    1.5652778665681228E+00 
    1.5137323948246681E+00 
    1.4482198744391988E+00 
    1.3727551432003333E+00 
    1.2903058237854048E+00 
    1.2027136663259195E+00 
    1.1109108429330370E+00 
    1.0150824605390780E+00 
    9.1462496382354208E-01 
    8.0777271816943685E-01 
    6.9063772565175674E-01 
    5.5528759666915151E-01 
    3.8931719958942762E-01 
    2.1474159793671915E-01 
    1.6111333535689645E+00 
    1.5981319601555584E+00 
    1.5666084950436199E+00 
    1.5172789502557662E+00 
    1.4536391791742409E+00 
    1.3795471722980006E+00 
    1.2980363363434260E+00 
    1.2110754554996899E+00 
    1.1197062323047788E+00 
    1.0241835677084010E+00 
    9.2392580064436702E-01 
    8.1709785580541461E-01 
    6.9941579276736809E-01 
    5.6088201315061892E-01 
    3.7696581543580332E-01 
    1.2141633292400050E-01 
    1.6106416848356417E+00 
    1.5987170323106310E+00 
    1.5690283238419951E+00 
    1.5216156230640521E+00 
    1.4595806282141419E+00 
    1.3866779151794189E+00 
    1.3060028893650681E+00 
    1.2196338653672090E+00 
    1.1287125975815997E+00 
    1.0335731383282392E+00 
    9.3370062426302858E-01 
    8.2732373577741769E-01 
    7.1018730546412245E-01 
    5.7186989973046276E-01 
    3.8127754384941637E-01 
    0.0000000000000000E+00 

SCALARS Saturarion double 1 
LOOKUP_TABLE default 

    1.0000000000000000E+00 
    9.8703572083992241E-01 
    9.6997981572122882E-01 
    9.5135044320479056E-01 
    9.3271805564652144E-01 
    9.1455635802355528E-01 
    8.9691840770699871E-01 
    8.7967125127061019E-01 
    8.6255843780555130E-01 
    8.4516554725279935E-01 
    8.2676723833153665E-01 
    8.0587145183391817E-01 
    7.7855071509935525E-01 
    7.3057098103137563E-01 
    5.9334555054714300E-01 
    1.3795675357065085E-01 
    9.9585073727713569E-01 
    9.8504292191392351E-01 
    9.6920223009418416E-01 
    9.5114683070918327E-01 
    9.3276743144560270E-01 
    9.1473728750073879E-01 
    8.9719037583605232E-01 
    8.8003202870380548E-01 
    8.6303265672768004E-01 
    8.4580833963531432E-01 
    8.2768210678556731E-01 
    8.0726115623763917E-01 
    7.8091507097488899E-01 
    7.3572017185802463E-01 
    6.1154380967076560E-01 
    1.8921480400205201E-01 
    9.9237840514230657E-01 
    9.8212580319330745E-01 
    9.6723953847288346E-01 
    9.4990101708084551E-01 
    9.3194225542021347E-01 
    9.1418117986106373E-01 
    8.9684045893993258E-01 
    8.7987239712148857E-01 
    8.6308027551276190E-01 
    8.4611540902247906E-01 
    8.2835274006655546E-01 
    8.0849786039292915E-01 
    7.8319584643358997E-01 
    7.4068036506320145E-01 
    6.2719553620034318E-01 
    2.3872094071032463E-01 
    9.8825581382072092E-01 
    9.7846041663368910E-01 
    9.6432468109851932E-01 
    9.4770235218039067E-01 
    9.3025690537386474E-01 
    9.1286596267531228E-01 
    8.9582524314059986E-01 
    8.7913488469494017E-01 
    8.6263463198242141E-01 
    8.4601563153956416E-01 
    8.2870961882699468E-01 
    8.0952173041201636E-01 
    7.8535336823334867E-01 
    7.4547079933787697E-01 
    6.4131452441949743E-01 
    2.8679064820029487E-01 
    9.8328167401334143E-01 
    9.7400410879986488E-01 
    9.6054153554406374E-01 
    9.4461303128966911E-01 
    9.2773406795645152E-01 
    9.1079011797224574E-01 
    8.9412821996551406E-01 
    8.7779189636906141E-01 
    8.6165825647462768E-01 
    8.4546186655740563E-01 
    8.2869723952216079E-01 
    8.1027423964189460E-01 
    7.8733840247457121E-01 
    7.5009037798698408E-01 
    6.5441908969415219E-01 
    3.3246309693070508E-01 
    9.7729460406980340E-01 
    9.6866430110912838E-01 
    9.5587828129001962E-01 
    9.4063939656581186E-01 
    9.2436605376864767E-01 
    9.0793228478156429E-01 
    8.9171876990170340E-01 
    8.7580585165438329E-01 
    8.6010679728219486E-01 
    8.4440181978688167E-01 
    8.2825461616611917E-01 
    8.1068903729315756E-01 
    7.8909094650864953E-01 
    7.5451781585905553E-01 
    6.6680774297968959E-01 
    3.7496114783189732E-01 
    9.7012637955901826E-01 
    9.6231392418606887E-01 
    9.5026228669248547E-01 
    9.3573602152876234E-01 
    9.2010847911293558E-01 
    9.0424296526525927E-01 
    8.8854317727780985E-01 
    8.7311984854046565E-01 
    8.5791972347409728E-01 
    8.4276926338828406E-01 
    8.2730738783292590E-01 
    8.1068500392843090E-01 
    7.9053437161983164E-01 
    7.5870919187641306E-01 
    6.7864755374304842E-01 
    4.1408852804176166E-01 
    9.6157834676707743E-01 
    9.5478504701674949E-01 
    9.4356674884549552E-01 
    9.2980439966300588E-01 
    9.1487263355957138E-01 
    8.9963534899303077E-01 
    8.8451532562577351E-01 
    8.6964863737154585E-01 
    8.5501188050488541E-01 
    8.4047644178594583E-01 
    8.2576100952810150E-01 
    8.1015951371224604E-01 
    7.9156844316350516E-01 
    7.6259382697996958E-01 
    6.9001368007484343E-01 
    4.5015839699840882E-01 
    9.5139398246136009E-01 
    9.4585053948436182E-01 
    9.3559988473413336E-01 
    9.2268100600041669E-01 
    9.0851042243237701E-01 
    8.9396926535015675E-01 
    8.7950088185764674E-01 
    8.6526358696824046E-01 
    8.5125966304727574E-01 
    8.3740185118787103E-01 
    8.2349019680069546E-01 
    8.0897854686099191E-01 
    7.9205905508652341E-01 
    7.6606679406317491E-01 
    7.0090834762855470E-01 
    4.8367574775080896E-01 
    9.3921559183046088E-01 
    9.3518901512084773E-01 
    9.2607528977874420E-01 
    9.1410877772663479E-01 
    9.0078475176219130E-01 
    8.8702117777073697E-01 
    8.7328787913780670E-01 
    8.5976462508108253E-01 
    8.4647506661834637E-01 
    8.3336718174712132E-01 
    8.2031920648568468E-01 
    8.0695920323252501E-01 
    7.9182079197584587E-01 
    7.6897484117163062E-01 
    7.1126708753547396E-01 
    5.1512344179712521E-01 
    9.2450464430822310E-01 
    9.2231645710423760E-01 
    9.1454923925017140E-01 
    9.0367664664978864E-01 
    8.9130912040956667E-01 
    8.7842378395877518E-01 
    8.6552722441378815E-01 
    8.5282292047382335E-01 
    8.4035205443541305E-01 
    8.2808902118726313E-01 
    8.1598030004075406E-01 
    8.0383424376633150E-01 
    7.9058354752368309E-01 
    7.7108836544600168E-01 
    7.2095275304413686E-01 
    5.4487098777416632E-01 
    9.0637077449360237E-01 
    9.0643717384949818E-01 
    9.0028073888643267E-01 
    8.9068292482886213E-01 
    8.7941103630781337E-01 
    8.6752855828617204E-01 
    8.5559546337196402E-01 
    8.4384655225868432E-01 
    8.3233893398209613E-01 
    8.2106225974443958E-01 
    8.1001236297232293E-01 
    7.9916741890739684E-01 
    7.8791823707591802E-01 
    7.7203935260555245E-01 
    7.2972933897658365E-01 
    5.7313677006290886E-01 
    8.8311775640873658E-01 
    8.8605066987104120E-01 
    8.8186031570995582E-01 
    8.7376858314960804E-01 
    8.6376007202570160E-01 
    8.5302440495493093E-01 
    8.4220545046185979E-01 
    8.3159050573503801E-01 
    8.2126017524528172E-01 
    8.1120913246946580E-01 
    8.0145254023983281E-01 
    7.9209861118749736E-01 
    7.8302908196776855E-01 
    7.7115626265452997E-01 
    7.3718240546961444E-01 
    5.9995450592482047E-01 
    8.5054217622498962E-01 
    8.5751037216713555E-01 
    8.5585277080692912E-01 
    8.4956006355380120E-01 
    8.4096268822444276E-01 
    8.3146005171582804E-01 
    8.2185502394409848E-01 
    8.1255642336238010E-01 
    8.0371916786354103E-01 
    7.9535879825867428E-01 
    7.8747563479566085E-01 
    7.8021700069291577E-01 
    7.7388910889313101E-01 
    7.6684247025598073E-01 
    7.4241995735590216E-01 
    6.2508372083739216E-01 
    7.9213700705619117E-01 
    8.0665541002333430E-01 
    8.0892765920549814E-01 
    8.0482458055379669E-01 
    7.9747070406052567E-01 
    7.8874587415881758E-01 
    7.7984423623970134E-01 
    7.7154523935692110E-01 
    7.6435507229908473E-01 
    7.5857345717743863E-01 
    7.5433777253052903E-01 
    7.5174779536080572E-01 
    7.5118055607746681E-01 
    7.5246878566460940E-01 
    7.4213920624627672E-01 
    6.4742294457325456E-01 
    5.8808184806189689E-01 
    6.3797550651015167E-01 
    6.5498940269725769E-01 
    6.5750511599962791E-01 
    6.5251055607243491E-01 
    6.4349728976235698E-01 
    6.3245917131139373E-01 
    6.2069179980587108E-01 
    6.0926795211166029E-01 
    5.9944716805644738E-01 
    5.9313431401441208E-01 
    5.9344058815417144E-01 
    6.0542814062090633E-01 
    6.3655532006357729E-01 
    6.8484123231284777E-01 
    6.5425724379787942E-01 
