# vtk DataFile Version 2.0
Pressure Field Data 
ASCII 
DATASET UNSTRUCTURED_GRID 

POINTS 289 double 

    0.0000000000000000E+00     0.0000000000000000E+00     0.0000000000000000E+00 
    1.0000000000000000E+00     0.0000000000000000E+00     0.0000000000000000E+00 
    1.0000000000000000E+00     1.0000000000000000E+00     0.0000000000000000E+00 
    0.0000000000000000E+00     1.0000000000000000E+00     0.0000000000000000E+00 
    6.2499999999872928E-02     0.0000000000000000E+00     0.0000000000000000E+00 
    1.2499999999977310E-01     0.0000000000000000E+00     0.0000000000000000E+00 
    1.8749999999959341E-01     0.0000000000000000E+00     0.0000000000000000E+00 
    2.4999999999941089E-01     0.0000000000000000E+00     0.0000000000000000E+00 
    3.1249999999922851E-01     0.0000000000000000E+00     0.0000000000000000E+00 
    3.7499999999904610E-01     0.0000000000000000E+00     0.0000000000000000E+00 
    4.3749999999886358E-01     0.0000000000000000E+00     0.0000000000000000E+00 
    4.9999999999869210E-01     0.0000000000000000E+00     0.0000000000000000E+00 
    5.6249999999884603E-01     0.0000000000000000E+00     0.0000000000000000E+00 
    6.2499999999901090E-01     0.0000000000000000E+00     0.0000000000000000E+00 
    6.8749999999917577E-01     0.0000000000000000E+00     0.0000000000000000E+00 
    7.4999999999934064E-01     0.0000000000000000E+00     0.0000000000000000E+00 
    8.1249999999950551E-01     0.0000000000000000E+00     0.0000000000000000E+00 
    8.7499999999967026E-01     0.0000000000000000E+00     0.0000000000000000E+00 
    9.3749999999983513E-01     0.0000000000000000E+00     0.0000000000000000E+00 
    1.0000000000000000E+00     6.2499999999872928E-02     0.0000000000000000E+00 
    1.0000000000000000E+00     1.2499999999977310E-01     0.0000000000000000E+00 
    1.0000000000000000E+00     1.8749999999959341E-01     0.0000000000000000E+00 
    1.0000000000000000E+00     2.4999999999941089E-01     0.0000000000000000E+00 
    1.0000000000000000E+00     3.1249999999922851E-01     0.0000000000000000E+00 
    1.0000000000000000E+00     3.7499999999904610E-01     0.0000000000000000E+00 
    1.0000000000000000E+00     4.3749999999886358E-01     0.0000000000000000E+00 
    1.0000000000000000E+00     4.9999999999869210E-01     0.0000000000000000E+00 
    1.0000000000000000E+00     5.6249999999884603E-01     0.0000000000000000E+00 
    1.0000000000000000E+00     6.2499999999901090E-01     0.0000000000000000E+00 
    1.0000000000000000E+00     6.8749999999917577E-01     0.0000000000000000E+00 
    1.0000000000000000E+00     7.4999999999934064E-01     0.0000000000000000E+00 
    1.0000000000000000E+00     8.1249999999950551E-01     0.0000000000000000E+00 
    1.0000000000000000E+00     8.7499999999967026E-01     0.0000000000000000E+00 
    1.0000000000000000E+00     9.3749999999983513E-01     0.0000000000000000E+00 
    9.3749999999973976E-01     1.0000000000000000E+00     0.0000000000000000E+00 
    8.7499999999950118E-01     1.0000000000000000E+00     0.0000000000000000E+00 
    8.1249999999991318E-01     1.0000000000000000E+00     0.0000000000000000E+00 
    7.5000000000034706E-01     1.0000000000000000E+00     0.0000000000000000E+00 
    6.8750000000078049E-01     1.0000000000000000E+00     0.0000000000000000E+00 
    6.2500000000121403E-01     1.0000000000000000E+00     0.0000000000000000E+00 
    5.6250000000164757E-01     1.0000000000000000E+00     0.0000000000000000E+00 
    5.0000000000205946E-01     1.0000000000000000E+00     0.0000000000000000E+00 
    4.3750000000182099E-01     1.0000000000000000E+00     0.0000000000000000E+00 
    3.7500000000156092E-01     1.0000000000000000E+00     0.0000000000000000E+00 
    3.1250000000130068E-01     1.0000000000000000E+00     0.0000000000000000E+00 
    2.5000000000104050E-01     1.0000000000000000E+00     0.0000000000000000E+00 
    1.8750000000078040E-01     1.0000000000000000E+00     0.0000000000000000E+00 
    1.2500000000052031E-01     1.0000000000000000E+00     0.0000000000000000E+00 
    6.2500000000260125E-02     1.0000000000000000E+00     0.0000000000000000E+00 
    0.0000000000000000E+00     9.3749999999973976E-01     0.0000000000000000E+00 
    0.0000000000000000E+00     8.7499999999950118E-01     0.0000000000000000E+00 
    0.0000000000000000E+00     8.1249999999991318E-01     0.0000000000000000E+00 
    0.0000000000000000E+00     7.5000000000034706E-01     0.0000000000000000E+00 
    0.0000000000000000E+00     6.8750000000078049E-01     0.0000000000000000E+00 
    0.0000000000000000E+00     6.2500000000121403E-01     0.0000000000000000E+00 
    0.0000000000000000E+00     5.6250000000164757E-01     0.0000000000000000E+00 
    0.0000000000000000E+00     5.0000000000205946E-01     0.0000000000000000E+00 
    0.0000000000000000E+00     4.3750000000182099E-01     0.0000000000000000E+00 
    0.0000000000000000E+00     3.7500000000156092E-01     0.0000000000000000E+00 
    0.0000000000000000E+00     3.1250000000130068E-01     0.0000000000000000E+00 
    0.0000000000000000E+00     2.5000000000104050E-01     0.0000000000000000E+00 
    0.0000000000000000E+00     1.8750000000078040E-01     0.0000000000000000E+00 
    0.0000000000000000E+00     1.2500000000052031E-01     0.0000000000000000E+00 
    0.0000000000000000E+00     6.2500000000260125E-02     0.0000000000000000E+00 
    6.2499999999897131E-02     6.2500000000235922E-02     0.0000000000000000E+00 
    6.2499999999921327E-02     1.2500000000047351E-01     0.0000000000000000E+00 
    6.2499999999945530E-02     1.8750000000070621E-01     0.0000000000000000E+00 
    6.2499999999969733E-02     2.5000000000093858E-01     0.0000000000000000E+00 
    6.2499999999993928E-02     3.1250000000117117E-01     0.0000000000000000E+00 
    6.2500000000018124E-02     3.7500000000140382E-01     0.0000000000000000E+00 
    6.2500000000042327E-02     4.3750000000163619E-01     0.0000000000000000E+00 
    6.2500000000066530E-02     5.0000000000184897E-01     0.0000000000000000E+00 
    6.2500000000090733E-02     5.6250000000147260E-01     0.0000000000000000E+00 
    6.2500000000114922E-02     6.2500000000107636E-01     0.0000000000000000E+00 
    6.2500000000139125E-02     6.8750000000068034E-01     0.0000000000000000E+00 
    6.2500000000163328E-02     7.5000000000028411E-01     0.0000000000000000E+00 
    6.2500000000187531E-02     8.1249999999988787E-01     0.0000000000000000E+00 
    6.2500000000211720E-02     8.7499999999951172E-01     0.0000000000000000E+00 
    6.2500000000235922E-02     9.3749999999974565E-01     0.0000000000000000E+00 
    1.2499999999981980E-01     6.2500000000211733E-02     0.0000000000000000E+00 
    1.2499999999986650E-01     1.2500000000042691E-01     0.0000000000000000E+00 
    1.2499999999991319E-01     1.8750000000063199E-01     0.0000000000000000E+00 
    1.2499999999995989E-01     2.5000000000083678E-01     0.0000000000000000E+00 
    1.2500000000000661E-01     3.1250000000104172E-01     0.0000000000000000E+00 
    1.2500000000005329E-01     3.7500000000124661E-01     0.0000000000000000E+00 
    1.2500000000010000E-01     4.3750000000145117E-01     0.0000000000000000E+00 
    1.2500000000014669E-01     5.0000000000163858E-01     0.0000000000000000E+00 
    1.2500000000019340E-01     5.6250000000129741E-01     0.0000000000000000E+00 
    1.2500000000024011E-01     6.2500000000093847E-01     0.0000000000000000E+00 
    1.2500000000028680E-01     6.8750000000057998E-01     0.0000000000000000E+00 
    1.2500000000033351E-01     7.5000000000022127E-01     0.0000000000000000E+00 
    1.2500000000038020E-01     8.1249999999986211E-01     0.0000000000000000E+00 
    1.2500000000042691E-01     8.7499999999952238E-01     0.0000000000000000E+00 
    1.2500000000047359E-01     9.3749999999975164E-01     0.0000000000000000E+00 
    1.8749999999966760E-01     6.2500000000187531E-02     0.0000000000000000E+00 
    1.8749999999974179E-01     1.2500000000038020E-01     0.0000000000000000E+00 
    1.8749999999981601E-01     1.8750000000055780E-01     0.0000000000000000E+00 
    1.8749999999989009E-01     2.5000000000073502E-01     0.0000000000000000E+00 
    1.8749999999996431E-01     3.1250000000091221E-01     0.0000000000000000E+00 
    1.8750000000003850E-01     3.7500000000108941E-01     0.0000000000000000E+00 
    1.8750000000011269E-01     4.3750000000126649E-01     0.0000000000000000E+00 
    1.8750000000018691E-01     5.0000000000142808E-01     0.0000000000000000E+00 
    1.8750000000026110E-01     5.6250000000112244E-01     0.0000000000000000E+00 
    1.8750000000033529E-01     6.2500000000080080E-01     0.0000000000000000E+00 
    1.8750000000040951E-01     6.8750000000047962E-01     0.0000000000000000E+00 
    1.8750000000048361E-01     7.5000000000015843E-01     0.0000000000000000E+00 
    1.8750000000055780E-01     8.1249999999983680E-01     0.0000000000000000E+00 
    1.8750000000063199E-01     8.7499999999953304E-01     0.0000000000000000E+00 
    1.8750000000070621E-01     9.3749999999975764E-01     0.0000000000000000E+00 
    2.4999999999951281E-01     6.2500000000163314E-02     0.0000000000000000E+00 
    2.4999999999961461E-01     1.2500000000033351E-01     0.0000000000000000E+00 
    2.4999999999971650E-01     1.8750000000048361E-01     0.0000000000000000E+00 
    2.4999999999981831E-01     2.5000000000063310E-01     0.0000000000000000E+00 
    2.4999999999992020E-01     3.1250000000078260E-01     0.0000000000000000E+00 
    2.5000000000002198E-01     3.7500000000093209E-01     0.0000000000000000E+00 
    2.5000000000012390E-01     4.3750000000108180E-01     0.0000000000000000E+00 
    2.5000000000022571E-01     5.0000000000121769E-01     0.0000000000000000E+00 
    2.5000000000032763E-01     5.6250000000094724E-01     0.0000000000000000E+00 
    2.5000000000042938E-01     6.2500000000066314E-01     0.0000000000000000E+00 
    2.5000000000053119E-01     6.8750000000037925E-01     0.0000000000000000E+00 
[...]
CELL_DATA 256 
SCALARS Pressure double 1 
LOOKUP_TABLE default 

    1.9014276329252435E+00 
    1.6701384538071875E+00 
    1.5404913675918250E+00 
    1.4373598902542699E+00 
    1.3429275521710016E+00 
    1.2512844645714634E+00 
    1.1601454811251959E+00 
    1.0687315299017748E+00 
    9.7713505672420153E-01 
    8.8621436267862974E-01 
    7.9776057561339109E-01 
    7.1479566927710880E-01 
    6.4172764417264760E-01 
    5.8375211105321478E-01 
    5.4483297385986629E-01 
    5.2963976105800270E-01 
    1.8301407996379746E+00 
    1.6740574408194584E+00 
    1.5490210982167960E+00 
    1.4460947368020740E+00 
    1.3516807298729916E+00 
    1.2601032863808919E+00 
    1.1690401200252138E+00 
    1.0776566913405774E+00 
    9.8597632746070840E-01 
    8.9475974483110454E-01 
    8.0566314995806942E-01 
    7.2155589212575022E-01 
    6.4676260294251475E-01 
    5.8663934324220068E-01 
    5.4564678279523227E-01 
    5.2901680999327860E-01 
    1.7748698382398025E+00 
    1.6673888690227039E+00 
    1.5540397192205406E+00 
    1.4535040091455571E+00 
    1.3598113382549948E+00 
    1.2685722567506241E+00 
    1.1776957324156789E+00 
    1.0863720021027752E+00 
    9.9457654391888439E-01 
    9.0296555141000501E-01 
    8.1303427779181847E-01 
    7.2746508506765639E-01 
    6.5048895441881138E-01 
    5.8771162072897609E-01 
    5.4440780740758832E-01 
    5.2653865833620372E-01 
    1.7314408271876758E+00 
    1.6556077390894846E+00 
    1.5558338026988090E+00 
    1.4594845281302342E+00 
    1.3672577241183244E+00 
    1.2766668977708335E+00 
    1.1861106119752531E+00 
    1.0948946273932523E+00 
    1.0029752497456956E+00 
    9.1090224049802959E-01 
    8.1998438784181937E-01 
    7.3267109506642392E-01 
    6.5305485977102418E-01 
    5.8702302290138442E-01 
    5.4091001906081126E-01 
    5.2176757972189969E-01 
    1.6969351322029036E+00 
    1.6418732371587270E+00 
    1.5551367352577956E+00 
    1.4640953339833740E+00 
    1.3740026998389712E+00 
    1.2843775939013395E+00 
    1.1942892482806118E+00 
    1.1032446335726116E+00 
    1.0112135800697020E+00 
    9.1864227343247384E-01 
    8.2662925882297811E-01 
    7.3733485219073336E-01 
    6.5463125542441913E-01 
    5.8465154568466227E-01 
    5.3497988344037339E-01 
    5.1427712407599246E-01 
    1.6693072033946901E+00 
    1.6279791588261130E+00 
    1.5527529006655727E+00 
    1.4675185194979228E+00 
    1.3800775286368800E+00 
    1.2917127502204380E+00 
    1.2022434421932009E+00 
    1.1114449659747301E+00 
    1.0193334358499140E+00 
    9.2625869010567319E-01 
    8.3308881679958713E-01 
    7.4163194747176919E-01 
    6.5542056259746084E-01 
    5.8071461866058749E-01 
    5.2646886871979059E-01 
    5.0362237886354844E-01 
    1.6471003375600268E+00 
    1.6149141916998930E+00 
    1.5494022219367416E+00 
    1.4700064921205998E+00 
    1.3855567840447764E+00 
    1.2986998902504017E+00 
    1.2099930498740117E+00 
    1.1195213910080810E+00 
    1.0273766145438583E+00 
    9.3382336397325760E-01 
    8.3948497486923968E-01 
    7.4575259649428183E-01 
    6.5566473107404633E-01 
    5.7538803068706657E-01 
    5.1525618307092891E-01 
    4.8930411537456453E-01 
    1.6292589363918282E+00 
    1.6031952642144540E+00 
    1.5456712440762621E+00 
    1.4718381392273603E+00 
    1.3905481759855662E+00 
    1.3053846836976104E+00 
    1.2175662015955002E+00 
    1.1275023740704979E+00 
    1.0353839528930973E+00 
    9.4140502440555407E-01 
    8.4593846072142720E-01 
    7.4989944188566782E-01 
    6.5565178526215318E-01 
    5.6892969151526107E-01 
    5.0126485176618374E-01 
    4.7072885209143994E-01 
    1.6150035957871498E+00 
    1.5930658313553241E+00 
    1.5420124645971178E+00 
    1.4732890111653567E+00 
    1.3951810915013929E+00 
    1.3118284339730819E+00 
    1.2249989736475630E+00 
    1.1354188781045451E+00 
    1.0433945365471109E+00 
    9.4906716360734833E-01 
    8.5256464568326984E-01 
    7.5428255227178209E-01 
    6.5571931799649996E-01 
    5.6170898808216863E-01 
    4.8449617615057217E-01 
    4.4716026758538874E-01 
    1.6037469168256762E+00 
    1.5846135736458093E+00 
    1.5387627224622291E+00 
    1.4746141036707845E+00 
    1.3995962227572512E+00 
    1.3181047353757205E+00 
    1.2323346094760677E+00 
    1.1433041019769281E+00 
    1.0514450552978731E+00 
    9.5686601769545487E-01 
    8.5946855574094105E-01 
    7.5911101574322570E-01 
    6.5625241881986396E-01 
    5.5424122571323942E-01 
    4.6509229209747671E-01 
    4.1765482173884189E-01 
    1.5950357687686858E+00 
    1.5778399476240055E+00 
    1.5361666987852653E+00 
    1.4760400060750500E+00 
    1.4039373944252604E+00 
    1.3242959388696918E+00 
    1.2396224490674923E+00 
    1.1511932047022382E+00 
    1.0595694007659622E+00 
    9.6484888624120291E-01 
    8.6673949324838073E-01 
    7.6458080651505356E-01 
    6.5767237624631136E-01 
    5.4722387667248296E-01 
    4.4344414811693800E-01 
    3.8097141672988860E-01 
    1.5885106903580735E+00 
    1.5727009073885341E+00 
    1.5343993647491228E+00 
    1.4777632209151297E+00 
    1.4083458211720465E+00 
    1.3304898643352858E+00 
    1.2469167215381014E+00 
    1.1591230656573566E+00 
    1.0677986044441024E+00 
    9.7305311101614744E-01 
    8.7444601247537146E-01 
    7.7085928471445764E-01 
    6.6041141340288478E-01 
    5.4156551330048097E-01 
    4.2037455427632903E-01 
    3.3543965185977670E-01 
    1.5838760532610971E+00 
    1.5691301102038520E+00 
    1.5335848889691306E+00 
    1.4799519588430345E+00 
    1.4129564006417064E+00 
    1.3367768780779792E+00 
    1.2542752332342766E+00 
    1.1671320611190590E+00 
    1.0761611635337442E+00 
    9.8150603633820954E-01 
    8.8263231537374975E-01 
    7.7806794823007697E-01 
    6.6486843961883058E-01 
    5.3838640487429668E-01 
    3.9744646985432164E-01 
    2.7876154511244106E-01 
    1.5808754349959773E+00 
    1.5670500128803775E+00 
    1.5338101745467339E+00 
    1.4827484440577390E+00 
    1.4178945833508179E+00 
    1.3432465685284551E+00 
    1.2617573402281272E+00 
    1.1752593510425020E+00 
    1.0846834382595643E+00 
    9.9022602186801079E-01 
    8.9131723015673170E-01 
    7.8626685168359267E-01 
    6.7134290927421136E-01 
    5.3894567197325183E-01 
    3.7748063648940977E-01 
    2.0770100987281059E-01 
    1.5792625989271531E+00 
    1.5663665152196331E+00 
    1.5351252206607018E+00 
    1.4862637377648957E+00 
    1.4232678679183370E+00 
    1.3499796164561937E+00 
    1.2694176176136525E+00 
    1.1835405858572692E+00 
    1.0933875181897661E+00 
    9.9922260012835051E-01 
    9.0049537127627810E-01 
    7.9544488814679493E-01 
    6.7995050939805590E-01 
    5.4439805822728704E-01 
    3.6541257406948602E-01 
    1.1753672753089538E-01 
    1.5787742952665940E+00 
    1.5669440634112968E+00 
    1.5375232815569029E+00 
    1.4905621663962711E+00 
    1.4291550870260123E+00 
    1.3570417548809535E+00 
    1.2773028190843594E+00 
    1.1920059015195530E+00 
    1.1022888735086509E+00 
    1.0084930881288492E+00 
    9.1013167023779784E-01 
    8.0550270949651792E-01 
    6.9050873004328162E-01 
    5.5510871194800793E-01 
    3.6949522907954641E-01 
    0.0000000000000000E+00 

SCALARS Saturarion double 1 
LOOKUP_TABLE default 

    1.0000000000000000E+00 
    9.8789286950800315E-01 
    9.7190820154547519E-01 
    9.5441464006644083E-01 
    9.3690705459822499E-01 
    9.1985105359173724E-01 
    9.0331487956930712E-01 
    8.8719337828402112E-01 
    8.7127332744355690E-01 
    8.5521354103640546E-01 
    8.3843332912554247E-01 
    8.1979177056655073E-01 
    7.9649387643486980E-01 
    7.5915717957240880E-01 
    6.6414199162897647E-01 
    2.5536990738005116E-01 
    9.9613365299582168E-01 
    9.8602928246135024E-01 
    9.7117798958572632E-01 
    9.5421831397400558E-01 
    9.3694303285431613E-01 
    9.2000507396991604E-01 
    9.0354878262709870E-01 
    8.8750477225624325E-01 
    8.7168434533392969E-01 
    8.5577307195957719E-01 
    8.3923000985228968E-01 
    8.2098776570468368E-01 
    7.9844412110447271E-01 
    7.6298834316899533E-01 
    6.7540021608543011E-01 
    3.1657091321455505E-01 
    9.9289318335371468E-01 
    9.8329862603395057E-01 
    9.6933205689967872E-01 
    9.5303531625748894E-01 
    9.3614499478530755E-01 
    9.1945025283018600E-01 
    9.0317922712567678E-01 
    8.8730679057559281E-01 
    8.7167478273156973E-01 
    8.5600033955086585E-01 
    8.3978573008835955E-01 
    8.2203631501149055E-01 
    8.0032828191284688E-01 
    7.6674857251641049E-01 
    6.8568693286333970E-01 
    3.6676085760838006E-01 
    9.8903974316988352E-01 
    9.7986284033977245E-01 
    9.6658738110468601E-01 
    9.5094938855739941E-01 
    9.3452727766909127E-01 
    9.1816712767361397E-01 
    9.0216666826493574E-01 
    8.8654630506596355E-01 
    8.7118227186438857E-01 
    8.5582811610918397E-01 
    8.4003435832818540E-01 
    8.2288059992547380E-01 
    8.0210824066233366E-01 
    7.7043302504356870E-01 
    6.9533628186825680E-01 
    4.0932920691373059E-01 
    9.8438163025009973E-01 
    9.7567878496923055E-01 
    9.6302015803959928E-01 
    9.4801727882778519E-01 
    9.3211023460826048E-01 
    9.1615369029756066E-01 
    9.0049500184349585E-01 
    8.8519639843665254E-01 
    8.7016984555119614E-01 
    8.5520927486472909E-01 
    8.3991982709080604E-01 
    8.2346107377191469E-01 
    8.0373205885094490E-01 
    7.7401800578867463E-01 
    7.0454257771931172E-01 
    4.4611643261320394E-01 
    9.7876274029263055E-01 
    9.7065553937064553E-01 
    9.5861577884346005E-01 
    9.4424200741458697E-01 
    9.2888416686842890E-01 
    9.1338763124499400E-01 
    8.9813315192362664E-01 
    8.8321907983305559E-01 
    8.6859248280462775E-01 
    8.5409041339706526E-01 
    8.3937958912983401E-01 
    8.2370948634829755E-01 
    8.0513656249151677E-01 
    7.7746582248665441E-01 
    7.1341636898946947E-01 
    4.7864412934482414E-01 
    9.7201866311805307E-01 
    9.6466848166937857E-01 
    9.5330134946924494E-01 
    9.3957666793741335E-01 
    9.2480342481972233E-01 
    9.0981857099094721E-01 
    8.9502659616792313E-01 
    8.8055639857093937E-01 
    8.6638816148033015E-01 
    8.5240331433089411E-01 
    8.3833693449543834E-01 
    8.2354231097425756E-01 
    8.0624217003963350E-01 
    7.8072146367017414E-01 
    7.2200888855094725E-01 
    5.0807123206588545E-01 
    9.6395417122481153E-01 
    9.5755284321207002E-01 
    9.4695153001607379E-01 
    9.3392290822765756E-01 
    9.1977899722977963E-01 
    9.0535917489351347E-01 
    8.9108828523016537E-01 
    8.7712152208537075E-01 
    8.6346936458195578E-01 
    8.5005712646880660E-01 
    8.3669379913641284E-01 
    8.2285360105794125E-01 
    8.0694563788261164E-01 
    7.8370696687952313E-01 
    7.3032322217203183E-01 
    5.3524093767666525E-01 
    9.5431680884890235E-01 
    9.4908583205544073E-01 
    9.3937776836470566E-01 
    9.2711915748718765E-01 
    9.1366382162640025E-01 
    8.9986947713949517E-01 
    8.8618306055709173E-01 
    8.7278372329437437E-01 
    8.5970903500450790E-01 
    8.4692569441543020E-01 
    8.3431954768968997E-01 
    8.2150430671287011E-01 
    8.0710902748883240E-01 
    7.8631234265241290E-01 
    7.3831759366980554E-01 
    5.6075105443828333E-01 
    9.4275520689470016E-01 
    9.3895273557152970E-01 
    9.3029952062026444E-01 
    9.1891292536433145E-01 
    9.0622403186858014E-01 
    8.9312764622466712E-01 
    8.8009874221244644E-01 
    8.6734042048786819E-01 
    8.5491424923038262E-01 
    8.4282366344933191E-01 
    8.3103004728815033E-01 
    8.1930335654536091E-01 
    8.0654087315053646E-01 
    7.8837968294114802E-01 
    7.4590172911587049E-01 
    5.8500846441592236E-01 
    9.2874287266527966E-01 
    9.2668135790702344E-01 
    9.1928402397214870E-01 
    9.0890267316048523E-01 
    8.9708082075596063E-01 
    8.8477162335977855E-01 
    8.7248813802545200E-01 
    8.6046050465528012E-01 
    8.4877216589610704E-01 
    8.3745669894697017E-01 
    8.2654379198713968E-01 
    8.1596936868081160E-01 
    8.0496006108974272E-01 
    7.8967249256413097E-01 
    7.5292354817875540E-01 
    6.0826037223324714E-01 
    9.1141692343854142E-01 
    9.1150102571689162E-01 
    9.0561367272060556E-01 
    8.9640828327487765E-01 
    8.8558082484807676E-01 
    8.7416821621100549E-01 
    8.6273724207029656E-01 
    8.5155342278909574E-01 
    8.4072304642901619E-01 
    8.3030252689092154E-01 
    8.2037560326737802E-01 
    8.1103955016469820E-01 
    8.0191517993230355E-01 
    7.8980839518860435E-01 
    7.5913556132381121E-01 
    6.3060221786995252E-01 
    8.8916006117268276E-01 
    8.9197882768328063E-01 
    8.8794170433154707E-01 
    8.8013080053848958E-01 
    8.7045091423172216E-01 
    8.6005813948302012E-01 
    8.4959992389963990E-01 
    8.3939765493968244E-01 
    8.2959164374367655E-01 
    8.2025857314386164E-01 
    8.1151648942385102E-01 
    8.0359632708024042E-01 
    7.9655747418716039E-01 
    7.8807914887862351E-01 
    7.6410275611968992E-01 
    6.5195619221661361E-01 
    8.5808793010764361E-01 
    8.6473116072462153E-01 
    8.6307551818574924E-01 
    8.5693528765245186E-01 
    8.4853748412686592E-01 
    8.3922625967260145E-01 
    8.2979032687740895E-01 
    8.2066610028028819E-01 
    8.1207958132622304E-01 
    8.0415916623688055E-01 
    7.9705277770330285E-01 
    7.9107366929788359E-01 
    7.8669257419013783E-01 
    7.8276269257692621E-01 
    7.6686272829785396E-01 
    6.7197422682808627E-01 
    8.0355628282388469E-01 
    8.1717554989529484E-01 
    8.1914333273905626E-01 
    8.1501875955894931E-01 
    8.0773813767474734E-01 
    7.9905321792948003E-01 
    7.9007060280283137E-01 
    7.8152594011486154E-01 
    7.7394641287085120E-01 
    7.6775329241054424E-01 
    7.6334327735948015E-01 
    7.6121504776418614E-01 
    7.6218057479700141E-01 
    7.6649050149035247E-01 
    7.6372084832521181E-01 
    6.8940889746876655E-01 
    6.2190184707742646E-01 
    6.6417284328350379E-01 
    6.7851420292564746E-01 
    6.8010929701302170E-01 
    6.7503298805453216E-01 
    6.6639469835147369E-01 
    6.5598527896416348E-01 
    6.4495805694813046E-01 
    6.3424177767289214E-01 
    6.2490297313641707E-01 
    6.1858321461004162E-01 
    6.1813016266797671E-01 
    6.2851867499471681E-01 
    6.5747167769326009E-01 
    7.0613962842684630E-01 
    6.9200306014763902E-01 
