# vtk DataFile Version 2.0
Pressure Field Data 
ASCII 
DATASET UNSTRUCTURED_GRID 

POINTS 289 double 

    0.0000000000000000E+00     0.0000000000000000E+00     0.0000000000000000E+00 
    1.0000000000000000E+00     0.0000000000000000E+00     0.0000000000000000E+00 
    1.0000000000000000E+00     1.0000000000000000E+00     0.0000000000000000E+00 
    0.0000000000000000E+00     1.0000000000000000E+00     0.0000000000000000E+00 
    6.2499999999872928E-02     0.0000000000000000E+00     0.0000000000000000E+00 
    1.2499999999977310E-01     0.0000000000000000E+00     0.0000000000000000E+00 
    1.8749999999959341E-01     0.0000000000000000E+00     0.0000000000000000E+00 
    2.4999999999941089E-01     0.0000000000000000E+00     0.0000000000000000E+00 
    3.1249999999922851E-01     0.0000000000000000E+00     0.0000000000000000E+00 
    3.7499999999904610E-01     0.0000000000000000E+00     0.0000000000000000E+00 
    4.3749999999886358E-01     0.0000000000000000E+00     0.0000000000000000E+00 
    4.9999999999869210E-01     0.0000000000000000E+00     0.0000000000000000E+00 
    5.6249999999884603E-01     0.0000000000000000E+00     0.0000000000000000E+00 
    6.2499999999901090E-01     0.0000000000000000E+00     0.0000000000000000E+00 
    6.8749999999917577E-01     0.0000000000000000E+00     0.0000000000000000E+00 
    7.4999999999934064E-01     0.0000000000000000E+00     0.0000000000000000E+00 
    8.1249999999950551E-01     0.0000000000000000E+00     0.0000000000000000E+00 
    8.7499999999967026E-01     0.0000000000000000E+00     0.0000000000000000E+00 
    9.3749999999983513E-01     0.0000000000000000E+00     0.0000000000000000E+00 
    1.0000000000000000E+00     6.2499999999872928E-02     0.0000000000000000E+00 
    1.0000000000000000E+00     1.2499999999977310E-01     0.0000000000000000E+00 
    1.0000000000000000E+00     1.8749999999959341E-01     0.0000000000000000E+00 
    1.0000000000000000E+00     2.4999999999941089E-01     0.0000000000000000E+00 
    1.0000000000000000E+00     3.1249999999922851E-01     0.0000000000000000E+00 
    1.0000000000000000E+00     3.7499999999904610E-01     0.0000000000000000E+00 
    1.0000000000000000E+00     4.3749999999886358E-01     0.0000000000000000E+00 
    1.0000000000000000E+00     4.9999999999869210E-01     0.0000000000000000E+00 
    1.0000000000000000E+00     5.6249999999884603E-01     0.0000000000000000E+00 
    1.0000000000000000E+00     6.2499999999901090E-01     0.0000000000000000E+00 
    1.0000000000000000E+00     6.8749999999917577E-01     0.0000000000000000E+00 
    1.0000000000000000E+00     7.4999999999934064E-01     0.0000000000000000E+00 
    1.0000000000000000E+00     8.1249999999950551E-01     0.0000000000000000E+00 
    1.0000000000000000E+00     8.7499999999967026E-01     0.0000000000000000E+00 
    1.0000000000000000E+00     9.3749999999983513E-01     0.0000000000000000E+00 
    9.3749999999973976E-01     1.0000000000000000E+00     0.0000000000000000E+00 
    8.7499999999950118E-01     1.0000000000000000E+00     0.0000000000000000E+00 
    8.1249999999991318E-01     1.0000000000000000E+00     0.0000000000000000E+00 
    7.5000000000034706E-01     1.0000000000000000E+00     0.0000000000000000E+00 
    6.8750000000078049E-01     1.0000000000000000E+00     0.0000000000000000E+00 
    6.2500000000121403E-01     1.0000000000000000E+00     0.0000000000000000E+00 
    5.6250000000164757E-01     1.0000000000000000E+00     0.0000000000000000E+00 
    5.0000000000205946E-01     1.0000000000000000E+00     0.0000000000000000E+00 
    4.3750000000182099E-01     1.0000000000000000E+00     0.0000000000000000E+00 
    3.7500000000156092E-01     1.0000000000000000E+00     0.0000000000000000E+00 
    3.1250000000130068E-01     1.0000000000000000E+00     0.0000000000000000E+00 
    2.5000000000104050E-01     1.0000000000000000E+00     0.0000000000000000E+00 
    1.8750000000078040E-01     1.0000000000000000E+00     0.0000000000000000E+00 
    1.2500000000052031E-01     1.0000000000000000E+00     0.0000000000000000E+00 
    6.2500000000260125E-02     1.0000000000000000E+00     0.0000000000000000E+00 
    0.0000000000000000E+00     9.3749999999973976E-01     0.0000000000000000E+00 
    0.0000000000000000E+00     8.7499999999950118E-01     0.0000000000000000E+00 
    0.0000000000000000E+00     8.1249999999991318E-01     0.0000000000000000E+00 
    0.0000000000000000E+00     7.5000000000034706E-01     0.0000000000000000E+00 
    0.0000000000000000E+00     6.8750000000078049E-01     0.0000000000000000E+00 
    0.0000000000000000E+00     6.2500000000121403E-01     0.0000000000000000E+00 
    0.0000000000000000E+00     5.6250000000164757E-01     0.0000000000000000E+00 
    0.0000000000000000E+00     5.0000000000205946E-01     0.0000000000000000E+00 
    0.0000000000000000E+00     4.3750000000182099E-01     0.0000000000000000E+00 
    0.0000000000000000E+00     3.7500000000156092E-01     0.0000000000000000E+00 
    0.0000000000000000E+00     3.1250000000130068E-01     0.0000000000000000E+00 
    0.0000000000000000E+00     2.5000000000104050E-01     0.0000000000000000E+00 
    0.0000000000000000E+00     1.8750000000078040E-01     0.0000000000000000E+00 
    0.0000000000000000E+00     1.2500000000052031E-01     0.0000000000000000E+00 
    0.0000000000000000E+00     6.2500000000260125E-02     0.0000000000000000E+00 
    6.2499999999897131E-02     6.2500000000235922E-02     0.0000000000000000E+00 
    6.2499999999921327E-02     1.2500000000047351E-01     0.0000000000000000E+00 
    6.2499999999945530E-02     1.8750000000070621E-01     0.0000000000000000E+00 
    6.2499999999969733E-02     2.5000000000093858E-01     0.0000000000000000E+00 
    6.2499999999993928E-02     3.1250000000117117E-01     0.0000000000000000E+00 
    6.2500000000018124E-02     3.7500000000140382E-01     0.0000000000000000E+00 
    6.2500000000042327E-02     4.3750000000163619E-01     0.0000000000000000E+00 
    6.2500000000066530E-02     5.0000000000184897E-01     0.0000000000000000E+00 
    6.2500000000090733E-02     5.6250000000147260E-01     0.0000000000000000E+00 
    6.2500000000114922E-02     6.2500000000107636E-01     0.0000000000000000E+00 
    6.2500000000139125E-02     6.8750000000068034E-01     0.0000000000000000E+00 
    6.2500000000163328E-02     7.5000000000028411E-01     0.0000000000000000E+00 
    6.2500000000187531E-02     8.1249999999988787E-01     0.0000000000000000E+00 
    6.2500000000211720E-02     8.7499999999951172E-01     0.0000000000000000E+00 
    6.2500000000235922E-02     9.3749999999974565E-01     0.0000000000000000E+00 
    1.2499999999981980E-01     6.2500000000211733E-02     0.0000000000000000E+00 
    1.2499999999986650E-01     1.2500000000042691E-01     0.0000000000000000E+00 
    1.2499999999991319E-01     1.8750000000063199E-01     0.0000000000000000E+00 
    1.2499999999995989E-01     2.5000000000083678E-01     0.0000000000000000E+00 
    1.2500000000000661E-01     3.1250000000104172E-01     0.0000000000000000E+00 
    1.2500000000005329E-01     3.7500000000124661E-01     0.0000000000000000E+00 
    1.2500000000010000E-01     4.3750000000145117E-01     0.0000000000000000E+00 
    1.2500000000014669E-01     5.0000000000163858E-01     0.0000000000000000E+00 
    1.2500000000019340E-01     5.6250000000129741E-01     0.0000000000000000E+00 
    1.2500000000024011E-01     6.2500000000093847E-01     0.0000000000000000E+00 
    1.2500000000028680E-01     6.8750000000057998E-01     0.0000000000000000E+00 
    1.2500000000033351E-01     7.5000000000022127E-01     0.0000000000000000E+00 
    1.2500000000038020E-01     8.1249999999986211E-01     0.0000000000000000E+00 
    1.2500000000042691E-01     8.7499999999952238E-01     0.0000000000000000E+00 
    1.2500000000047359E-01     9.3749999999975164E-01     0.0000000000000000E+00 
    1.8749999999966760E-01     6.2500000000187531E-02     0.0000000000000000E+00 
    1.8749999999974179E-01     1.2500000000038020E-01     0.0000000000000000E+00 
    1.8749999999981601E-01     1.8750000000055780E-01     0.0000000000000000E+00 
    1.8749999999989009E-01     2.5000000000073502E-01     0.0000000000000000E+00 
    1.8749999999996431E-01     3.1250000000091221E-01     0.0000000000000000E+00 
    1.8750000000003850E-01     3.7500000000108941E-01     0.0000000000000000E+00 
    1.8750000000011269E-01     4.3750000000126649E-01     0.0000000000000000E+00 
    1.8750000000018691E-01     5.0000000000142808E-01     0.0000000000000000E+00 
    1.8750000000026110E-01     5.6250000000112244E-01     0.0000000000000000E+00 
    1.8750000000033529E-01     6.2500000000080080E-01     0.0000000000000000E+00 
    1.8750000000040951E-01     6.8750000000047962E-01     0.0000000000000000E+00 
    1.8750000000048361E-01     7.5000000000015843E-01     0.0000000000000000E+00 
    1.8750000000055780E-01     8.1249999999983680E-01     0.0000000000000000E+00 
    1.8750000000063199E-01     8.7499999999953304E-01     0.0000000000000000E+00 
    1.8750000000070621E-01     9.3749999999975764E-01     0.0000000000000000E+00 
    2.4999999999951281E-01     6.2500000000163314E-02     0.0000000000000000E+00 
    2.4999999999961461E-01     1.2500000000033351E-01     0.0000000000000000E+00 
    2.4999999999971650E-01     1.8750000000048361E-01     0.0000000000000000E+00 
    2.4999999999981831E-01     2.5000000000063310E-01     0.0000000000000000E+00 
    2.4999999999992020E-01     3.1250000000078260E-01     0.0000000000000000E+00 
    2.5000000000002198E-01     3.7500000000093209E-01     0.0000000000000000E+00 
    2.5000000000012390E-01     4.3750000000108180E-01     0.0000000000000000E+00 
    2.5000000000022571E-01     5.0000000000121769E-01     0.0000000000000000E+00 
    2.5000000000032763E-01     5.6250000000094724E-01     0.0000000000000000E+00 
    2.5000000000042938E-01     6.2500000000066314E-01     0.0000000000000000E+00 
    2.5000000000053119E-01     6.8750000000037925E-01     0.0000000000000000E+00 
[...]
CELL_DATA 256 
SCALARS Pressure double 1 
LOOKUP_TABLE default 

    1.5181808780918316E+00 
    1.2832841269605941E+00 
    1.1485487634079257E+00 
    1.0396109692169340E+00 
    9.3908927192289671E-01 
    8.4145194355932029E-01 
    7.4466953415286641E-01 
    6.4792682061715201E-01 
    5.5067191140293137E-01 
    4.5530411735120846E-01 
    3.9246588231470236E-01 
    3.4885208930249018E-01 
    3.1131856632927951E-01 
    2.8132056184501902E-01 
    2.6210869863756647E-01 
    2.5435427558578289E-01 
    1.4462966244103643E+00 
    1.2872510014290142E+00 
    1.1573250875849588E+00 
    1.0486518480653160E+00 
    9.4814509294613880E-01 
    8.5053149824647833E-01 
    7.5376919779981988E-01 
    6.5702107832978895E-01 
    5.5962327919187393E-01 
    4.6296702023888853E-01 
    3.9770597122927975E-01 
    3.5266530525814832E-01 
    3.1409227258564115E-01 
    2.8287730083884560E-01 
    2.6246382428305942E-01 
    2.5400565163309269E-01 
    1.3901713835838998E+00 
    1.2802596961506183E+00 
    1.1622894844244382E+00 
    1.0560828213929621E+00 
    9.5628438399580618E-01 
    8.5894776941069761E-01 
    7.6229316510338241E-01 
    6.6554499496639541E-01 
    5.6799611349340162E-01 
    4.7034135244718195E-01 
    4.0302743190811402E-01 
    3.5637439415116801E-01 
    3.1639152065887655E-01 
    2.8362204116588613E-01 
    2.6181863592037086E-01 
    2.5275142725844824E-01 
    1.3457481611097950E+00 
    1.2678845003761969E+00 
    1.1637537295275098E+00 
    1.0618144741968227E+00 
    9.6345649650427700E-01 
    8.6668457245040231E-01 
    7.7024500878373769E-01 
    6.7351932571221285E-01 
    5.7581251046569693E-01 
    4.7741377589276146E-01 
    4.0845663311970176E-01 
    3.6006723929239892E-01 
    3.1830396322775090E-01 
    2.8359818993745906E-01 
    2.6011519753925499E-01 
    2.5041914793287479E-01 
    1.3101472049757210E+00 
    1.2533501292167486E+00 
    1.1624877025349287E+00 
    1.0659270028322998E+00 
    9.6965936289838650E-01 
    8.7374277839156200E-01 
    7.7763437529733026E-01 
    6.8096243553197566E-01 
    5.8309218762325721E-01 
    4.8421862522414161E-01 
    4.1403951853898857E-01 
    3.6382903867921007E-01 
    3.1992234942510311E-01 
    2.8285498949433902E-01 
    2.5729088719618159E-01 
    2.4682792924219851E-01 
    1.2813550472611488E+00 
    1.2385035328532081E+00 
    1.1593362670471064E+00 
    1.0686295201603162E+00 
    9.7494347705273654E-01 
    8.8014389295914885E-01 
    7.8447912061020220E-01 
    6.8789338473259520E-01 
    5.8984227398016609E-01 
    4.9084093954711733E-01 
    4.1984139545145999E-01 
    3.6774401633166981E-01 
    3.2134841666441571E-01 
    2.8145537108811008E-01 
    2.5328149497284436E-01 
    2.4177567800023897E-01 
    1.2579449247772829E+00 
    1.2243800212020524E+00 
    1.1550615247423279E+00 
    1.0702060129641922E+00 
    9.7940658145607973E-01 
    8.8593144712077110E-01 
    7.9080660531399971E-01 
    6.9433481559450538E-01 
    5.9605394350283458E-01 
    4.9741941208858170E-01 
    4.2594301978141413E-01 
    3.7188921029299926E-01 
    3.2269622039304185E-01 
    2.7948572393006044E-01 
    2.4802699427821967E-01 
    2.3502471481811213E-01 
    1.2388900033640133E+00 
    1.2115394657552117E+00 
    1.1502931940784076E+00 
    1.0709706577765832E+00 
    9.8318328539282762E-01 
    8.9117027253336423E-01 
    7.9665385059929916E-01 
    7.0031613275695559E-01 
    6.0170995399425953E-01 
    5.0413320347295654E-01 
    4.3243572784041101E-01 
    3.7632954284589054E-01 
    3.2409472863592703E-01 
    2.7706818694588969E-01 
    2.4148206984406129E-01 
    2.2628406826498629E-01 
    1.2234381745633007E+00 
    1.2002659535187383E+00 
    1.1455278221102749E+00 
    1.0712375166515664E+00 
    9.8643339768093785E-01 
    8.9594432480590513E-01 
    8.0206620086522529E-01 
    7.0587380126310451E-01 
    6.0682896930622054E-01 
    5.1117136349200909E-01 
    4.3940894862887647E-01 
    3.8111567419194442E-01 
    3.2568936022348638E-01 
    2.7437587571536959E-01 
    2.3363476985900999E-01 
    2.1518614657626520E-01 
    1.2110268026645015E+00 
    1.1906859320830485E+00 
    1.1411472077697009E+00 
    1.0713030668366641E+00 
    9.8933128550803118E-01 
    9.0035396779538068E-01 
    8.0709471776580133E-01 
    7.1103991606176209E-01 
    6.1156075720337777E-01 
    5.1868419965544099E-01 
    4.4692179300716955E-01 
    3.8628501175031360E-01 
    3.2764138540189192E-01 
    2.7165082140036151E-01 
    2.2453883099616959E-01 
    2.0125451512905279E-01 
    1.2012230525949574E+00 
    1.1828373505451639E+00 
    1.1374417729560040E+00 
    1.0714381678792035E+00 
    9.9205716529520727E-01 
    9.0451352012353470E-01 
    8.1179409983577822E-01 
    7.1580521594218294E-01 
    6.1632866270094455E-01 
    5.2673842587509467E-01 
    4.5494504043669387E-01 
    3.9186361170680178E-01 
    3.3012315444392265E-01 
    2.6922289355768014E-01 
    2.1436888743793614E-01 
    1.8385790925267728E-01 
    1.1936797324131401E+00 
    1.1767085304203000E+00 
    1.1346321112715199E+00 
    1.0718859225939883E+00 
    9.9479003150703693E-01 
    9.0854918938802864E-01 
    8.1622314946937613E-01 
    7.2008236079075905E-01 
    6.2184281049791712E-01 
    5.3533731836798493E-01 
    4.6329795172829191E-01 
    3.9785867580750855E-01 
    3.3330588771295033E-01 
    2.6752481120425292E-01 
    2.0351391398877589E-01 
    1.6214304688280376E-01 
    1.1880978965692246E+00 
    1.1722557716363291E+00 
    1.1328843124541130E+00 
    1.0728615387674194E+00 
    9.9770016443021770E-01 
    9.1259648662650128E-01 
    8.2043082546826895E-01 
    7.2399576998961213E-01 
    6.2874196069922550E-01 
    5.4449051538219451E-01 
    4.7171389544912989E-01 
    4.0424487121274905E-01 
    3.3733705136770376E-01 
    2.6709212218726219E-01 
    1.9273455904609024E-01 
    1.3493470753388109E-01 
    1.1841807288885686E+00 
    1.1693946807194355E+00 
    1.1323086782234431E+00 
    1.0745449750454703E+00 
    1.0009323550763287E+00 
    9.1679230821681823E-01 
    8.2433225194421167E-01 
    7.2890652303347869E-01 
    6.3711109172938074E-01 
    5.5395373428430728E-01 
    4.7999955342481321E-01 
    4.1096004091508342E-01 
    3.4230698079910621E-01 
    2.6852507944941595E-01 
    1.8342734941290323E-01 
    1.0058498567980358E-01 
    1.1815971526140869E+00 
    1.1679692182498227E+00 
    1.1329287528801903E+00 
    1.0770412036321488E+00 
    1.0045259307722156E+00 
    9.2119445825381996E-01 
    8.2966124173752331E-01 
    7.3611018138914597E-01 
    6.4629550733464491E-01 
    5.6317002777785674E-01 
    4.8805750557873434E-01 
    4.1791013172533847E-01 
    3.4820933516885355E-01 
    2.7236656640057760E-01 
    1.7806790644029497E-01 
    5.6743085927142792E-02 
    1.1809863102759828E+00 
    1.1685856899776637E+00 
    1.1354220639700539E+00 
    1.0813122721372370E+00 
    1.0099906365291422E+00 
    9.2767800666403577E-01 
    8.3750475150667281E-01 
    7.4485868303906932E-01 
    6.5543732513862496E-01 
    5.7180714476383354E-01 
    4.9581082762662071E-01 
    4.2497584991158821E-01 
    3.5491255288761892E-01 
    2.7880756588958017E-01 
    1.8095445312895644E-01 
    0.0000000000000000E+00 

SCALARS Saturarion double 1 
LOOKUP_TABLE default 

    1.0000000000000000E+00 
    9.7629618033520194E-01 
    9.4589124252742496E-01 
    9.1272713883318901E-01 
    8.7890590411955094E-01 
    8.4445552419731706E-01 
    8.0816094279185346E-01 
    7.6638703576046507E-01 
    7.0640553299548248E-01 
    5.5862771370752418E-01 
    1.3572863825526313E-01 
    6.3285005043870444E-04 
    3.5303549501643747E-10 
    1.8603531217430454E-26 
    1.2526532902408898E-69 
   1.5348210456786815E-184 
    9.9225281999186288E-01 
    9.7273434351526911E-01 
    9.4462068332062898E-01 
    9.1258967643675870E-01 
    8.7934054784207472E-01 
    8.4527446135284179E-01 
    8.0939031964800079E-01 
    7.6840123426793638E-01 
    7.1102634598827208E-01 
    5.7783735542938364E-01 
    1.6709014923752658E-01 
    1.2156456164221432E-03 
    1.8407718332565560E-09 
    1.1776966053630613E-24 
    4.2318403534074390E-65 
   2.8895537895693206E-173 
    9.8590041606702050E-01 
    9.6758956384975270E-01 
    9.4138391649298403E-01 
    9.1082427834708235E-01 
    8.7850484940360518E-01 
    8.4508595345671755E-01 
    8.0976437980962235E-01 
    7.6948660768897048E-01 
    7.1365025624930434E-01 
    5.8676618493681965E-01 
    1.8333601802622443E-01 
    1.6371156334583285E-03 
    3.8366641192971347E-09 
    6.6142623086675484E-24 
    2.1244284903837971E-63 
   1.3227014673248390E-169 
    9.7851633421593331E-01 
    9.6124090595974443E-01 
    9.3662179632218601E-01 
    9.0758706805252332E-01 
    8.7640770973109605E-01 
    8.4383172257389349E-01 
    8.0919675898438015E-01 
    7.6959758044570026E-01 
    7.1474991948995759E-01 
    5.9093810087504173E-01 
    1.9149869167866274E-01 
    1.8753404045560988E-03 
    5.1273970646569177E-09 
    1.0690128630534723E-23 
    2.8839636768698348E-63 
   1.7202936129501584E-170 
    9.6982154454366620E-01 
    9.5368592555282383E-01 
    9.3053721550254720E-01 
    9.0302115444118858E-01 
    8.7310773787696672E-01 
    8.4152231398435606E-01 
    8.0767697931366178E-01 
    7.6873409577708551E-01 
    7.1443000289727954E-01 
    5.9029564452217098E-01 
    1.8935381903587684E-01 
    1.7822910648522697E-03 
    4.1025396056018649E-09 
    4.1100653559302114E-24 
    6.2057719199461802E-65 
   1.2985574204018287E-176 
    9.5964023547607291E-01 
    9.4485190417688569E-01 
    9.2318558910321002E-01 
    8.9719979631546187E-01 
    8.6864202015605130E-01 
    8.3816456019653152E-01 
    8.0519419674422843E-01 
    7.6687127674784183E-01 
    7.1260916722829659E-01 
    5.8398126995829713E-01 
    1.7586017928265690E-01 
    1.3676709841015623E-03 
    1.8041820726005111E-09 
    2.8264941538715430E-25 
    9.0912188173982886E-69 
   3.1972430735201267E-189 
    9.4781393392639857E-01 
    9.3462747824982817E-01 
    9.1453718521652949E-01 
    8.9013113613729322E-01 
    8.6301261811500063E-01 
    8.3374584562838761E-01 
    8.0172150623307503E-01 
    7.6395284873768377E-01 
    7.0908835729084119E-01 
    5.7022321825516464E-01 
    1.5100142783439169E-01 
    8.1090109287587522E-04 
    3.8341955258857810E-10 
    2.2134730964281334E-27 
    2.0049600014190384E-75 
   1.1801284077150058E-210 
    9.3416091845372473E-01 
    9.2285626139489541E-01 
    9.0449344668008058E-01 
    8.8175935055072563E-01 
    8.5617674898232343E-01 
    8.2822269676500071E-01 
    7.9720470517815656E-01 
    7.5987645849239582E-01 
    7.0348998099802662E-01 
    5.4599089754251628E-01 
    1.1676687041731948E-01 
    3.4569826184991227E-04 
    3.0901880037710393E-11 
    8.5584873681042893E-31 
    3.7471996728508424E-86 
   3.5963168746076660E-245 
    9.1843083240907664E-01 
    9.0931068874760990E-01 
    8.9287550734769960E-01 
    8.7195200215627777E-01 
    8.4802997554497694E-01 
    8.2150369303157356E-01 
    7.9154376827079942E-01 
    7.5445535131354258E-01 
    6.9498222520708819E-01 
    5.0417552259479381E-01 
    7.5625296290201649E-02 
    8.6683976354474520E-05 
    4.9488005080959720E-13 
    2.2633976947125896E-36 
   6.4594458344952549E-104 
   1.8025993332051874E-302 
    9.0023040384002362E-01 
    8.9363653297784684E-01 
    8.7938172570853368E-01 
    8.6046293306499622E-01 
    8.3837105941888734E-01 
    8.1341686741414243E-01 
    7.8455671173518271E-01 
    7.4734692408072112E-01 
    6.8189750648983660E-01 
    4.3819540312421290E-01 
    3.8099993049285422E-02 
    1.0270233329489979E-05 
    7.3926568038222990E-16 
    1.6935516308604525E-45 
   1.5147686367086470E-133 
    0.0000000000000000E+00 
    8.7886872266135907E-01 
    8.7522915875382779E-01 
    8.6348297024724729E-01 
    8.4684076809661457E-01 
    8.2682147670870698E-01 
    8.0363984209782835E-01 
    7.7590211913279694E-01 
    7.3785282457460755E-01 
    6.6003167185567502E-01 
    3.3620907628287477E-01 
    1.1880775663348669E-02 
    2.6959895397860479E-07 
    8.6497193842763054E-21 
    6.2721843809237526E-62 
   1.8776874434678453E-190 
    0.0000000000000000E+00 
    8.5294988143100725E-01 
    8.5290599930996946E-01 
    8.4414053585518489E-01 
    8.3018200141946985E-01 
    8.1261216363045774E-01 
    7.9151257293931276E-01 
    7.6486841780461434E-01 
    7.2430908893100743E-01 
    6.1699133862824240E-01 
    2.0084296870537693E-01 
    1.4536574892542644E-03 
    3.5728504997816836E-10 
    1.1393976215381682E-30 
    8.5267937816861161E-97 
    0.0000000000000000E+00 
    0.0000000000000000E+00 
    8.1899487679618732E-01 
    8.2380754431357295E-01 
    8.1886308874596003E-01 
    8.0831118491062337E-01 
    7.9387600828035976E-01 
    7.7537346135068164E-01 
    7.4967820430741205E-01 
    7.0241018138339140E-01 
    5.1065044545786586E-01 
    6.1482767316974801E-02 
    1.8720681294119384E-05 
    7.1970713480888160E-17 
    6.4684848154466802E-57 
   3.1093889641160143E-207 
    0.0000000000000000E+00 
    0.0000000000000000E+00 
    7.6444503397350982E-01 
    7.7787384067720688E-01 
    7.7906576622537971E-01 
    7.7381788890420211E-01 
    7.6417654922856670E-01 
    7.4930151145006663E-01 
    7.2334156403972549E-01 
    6.5063158705778801E-01 
    2.2652050246885305E-01 
    9.6156965779327017E-04 
    2.0020094557714681E-12 
    6.5024229132441381E-47 
   2.0969262002605080E-197 
    0.0000000000000000E+00 
    0.0000000000000000E+00 
    0.0000000000000000E+00 
    6.1533431474943934E-01 
    6.6119779670627610E-01 
    6.8106755567111221E-01 
    6.8900635282431710E-01 
    6.8863925083409905E-01 
    6.7433060428804337E-01 
    6.0694775703919712E-01 
    1.8293063433458950E-01 
    1.9800350503686241E-04 
    8.8637928592126781E-16 
    5.5943500875283683E-58 
   6.6397039774128210E-234 
    0.0000000000000000E+00 
    0.0000000000000000E+00 
    0.0000000000000000E+00 
    0.0000000000000000E+00 
    1.3703311994672696E-01 
    2.8639166607525507E-01 
    3.2439847992479554E-01 
    3.1637689216883114E-01 
    2.5913327404141168E-01 
    1.4074100842624088E-01 
    2.4476111892772195E-02 
    1.0112340704332972E-05 
    1.0839922974184875E-19 
    1.5875618250460604E-68 
   4.8599538433340992E-265 
    0.0000000000000000E+00 
    0.0000000000000000E+00 
    0.0000000000000000E+00 
    0.0000000000000000E+00 
    0.0000000000000000E+00 
