# vtk DataFile Version 2.0
Pressure Field Data 
ASCII 
DATASET UNSTRUCTURED_GRID 

POINTS 289 double 

    0.0000000000000000E+00     0.0000000000000000E+00     0.0000000000000000E+00 
    1.0000000000000000E+00     0.0000000000000000E+00     0.0000000000000000E+00 
    1.0000000000000000E+00     1.0000000000000000E+00     0.0000000000000000E+00 
    0.0000000000000000E+00     1.0000000000000000E+00     0.0000000000000000E+00 
    6.2499999999872928E-02     0.0000000000000000E+00     0.0000000000000000E+00 
    1.2499999999977310E-01     0.0000000000000000E+00     0.0000000000000000E+00 
    1.8749999999959341E-01     0.0000000000000000E+00     0.0000000000000000E+00 
    2.4999999999941089E-01     0.0000000000000000E+00     0.0000000000000000E+00 
    3.1249999999922851E-01     0.0000000000000000E+00     0.0000000000000000E+00 
    3.7499999999904610E-01     0.0000000000000000E+00     0.0000000000000000E+00 
    4.3749999999886358E-01     0.0000000000000000E+00     0.0000000000000000E+00 
    4.9999999999869210E-01     0.0000000000000000E+00     0.0000000000000000E+00 
    5.6249999999884603E-01     0.0000000000000000E+00     0.0000000000000000E+00 
    6.2499999999901090E-01     0.0000000000000000E+00     0.0000000000000000E+00 
    6.8749999999917577E-01     0.0000000000000000E+00     0.0000000000000000E+00 
    7.4999999999934064E-01     0.0000000000000000E+00     0.0000000000000000E+00 
    8.1249999999950551E-01     0.0000000000000000E+00     0.0000000000000000E+00 
    8.7499999999967026E-01     0.0000000000000000E+00     0.0000000000000000E+00 
    9.3749999999983513E-01     0.0000000000000000E+00     0.0000000000000000E+00 
    1.0000000000000000E+00     6.2499999999872928E-02     0.0000000000000000E+00 
    1.0000000000000000E+00     1.2499999999977310E-01     0.0000000000000000E+00 
    1.0000000000000000E+00     1.8749999999959341E-01     0.0000000000000000E+00 
    1.0000000000000000E+00     2.4999999999941089E-01     0.0000000000000000E+00 
    1.0000000000000000E+00     3.1249999999922851E-01     0.0000000000000000E+00 
    1.0000000000000000E+00     3.7499999999904610E-01     0.0000000000000000E+00 
    1.0000000000000000E+00     4.3749999999886358E-01     0.0000000000000000E+00 
    1.0000000000000000E+00     4.9999999999869210E-01     0.0000000000000000E+00 
    1.0000000000000000E+00     5.6249999999884603E-01     0.0000000000000000E+00 
    1.0000000000000000E+00     6.2499999999901090E-01     0.0000000000000000E+00 
    1.0000000000000000E+00     6.8749999999917577E-01     0.0000000000000000E+00 
    1.0000000000000000E+00     7.4999999999934064E-01     0.0000000000000000E+00 
    1.0000000000000000E+00     8.1249999999950551E-01     0.0000000000000000E+00 
    1.0000000000000000E+00     8.7499999999967026E-01     0.0000000000000000E+00 
    1.0000000000000000E+00     9.3749999999983513E-01     0.0000000000000000E+00 
    9.3749999999973976E-01     1.0000000000000000E+00     0.0000000000000000E+00 
    8.7499999999950118E-01     1.0000000000000000E+00     0.0000000000000000E+00 
    8.1249999999991318E-01     1.0000000000000000E+00     0.0000000000000000E+00 
    7.5000000000034706E-01     1.0000000000000000E+00     0.0000000000000000E+00 
    6.8750000000078049E-01     1.0000000000000000E+00     0.0000000000000000E+00 
    6.2500000000121403E-01     1.0000000000000000E+00     0.0000000000000000E+00 
    5.6250000000164757E-01     1.0000000000000000E+00     0.0000000000000000E+00 
    5.0000000000205946E-01     1.0000000000000000E+00     0.0000000000000000E+00 
    4.3750000000182099E-01     1.0000000000000000E+00     0.0000000000000000E+00 
    3.7500000000156092E-01     1.0000000000000000E+00     0.0000000000000000E+00 
    3.1250000000130068E-01     1.0000000000000000E+00     0.0000000000000000E+00 
    2.5000000000104050E-01     1.0000000000000000E+00     0.0000000000000000E+00 
    1.8750000000078040E-01     1.0000000000000000E+00     0.0000000000000000E+00 
    1.2500000000052031E-01     1.0000000000000000E+00     0.0000000000000000E+00 
    6.2500000000260125E-02     1.0000000000000000E+00     0.0000000000000000E+00 
    0.0000000000000000E+00     9.3749999999973976E-01     0.0000000000000000E+00 
    0.0000000000000000E+00     8.7499999999950118E-01     0.0000000000000000E+00 
    0.0000000000000000E+00     8.1249999999991318E-01     0.0000000000000000E+00 
    0.0000000000000000E+00     7.5000000000034706E-01     0.0000000000000000E+00 
    0.0000000000000000E+00     6.8750000000078049E-01     0.0000000000000000E+00 
    0.0000000000000000E+00     6.2500000000121403E-01     0.0000000000000000E+00 
    0.0000000000000000E+00     5.6250000000164757E-01     0.0000000000000000E+00 
    0.0000000000000000E+00     5.0000000000205946E-01     0.0000000000000000E+00 
    0.0000000000000000E+00     4.3750000000182099E-01     0.0000000000000000E+00 
    0.0000000000000000E+00     3.7500000000156092E-01     0.0000000000000000E+00 
    0.0000000000000000E+00     3.1250000000130068E-01     0.0000000000000000E+00 
    0.0000000000000000E+00     2.5000000000104050E-01     0.0000000000000000E+00 
    0.0000000000000000E+00     1.8750000000078040E-01     0.0000000000000000E+00 
    0.0000000000000000E+00     1.2500000000052031E-01     0.0000000000000000E+00 
    0.0000000000000000E+00     6.2500000000260125E-02     0.0000000000000000E+00 
    6.2499999999897131E-02     6.2500000000235922E-02     0.0000000000000000E+00 
    6.2499999999921327E-02     1.2500000000047351E-01     0.0000000000000000E+00 
    6.2499999999945530E-02     1.8750000000070621E-01     0.0000000000000000E+00 
    6.2499999999969733E-02     2.5000000000093858E-01     0.0000000000000000E+00 
    6.2499999999993928E-02     3.1250000000117117E-01     0.0000000000000000E+00 
    6.2500000000018124E-02     3.7500000000140382E-01     0.0000000000000000E+00 
    6.2500000000042327E-02     4.3750000000163619E-01     0.0000000000000000E+00 
    6.2500000000066530E-02     5.0000000000184897E-01     0.0000000000000000E+00 
    6.2500000000090733E-02     5.6250000000147260E-01     0.0000000000000000E+00 
    6.2500000000114922E-02     6.2500000000107636E-01     0.0000000000000000E+00 
    6.2500000000139125E-02     6.8750000000068034E-01     0.0000000000000000E+00 
    6.2500000000163328E-02     7.5000000000028411E-01     0.0000000000000000E+00 
    6.2500000000187531E-02     8.1249999999988787E-01     0.0000000000000000E+00 
    6.2500000000211720E-02     8.7499999999951172E-01     0.0000000000000000E+00 
    6.2500000000235922E-02     9.3749999999974565E-01     0.0000000000000000E+00 
    1.2499999999981980E-01     6.2500000000211733E-02     0.0000000000000000E+00 
    1.2499999999986650E-01     1.2500000000042691E-01     0.0000000000000000E+00 
    1.2499999999991319E-01     1.8750000000063199E-01     0.0000000000000000E+00 
    1.2499999999995989E-01     2.5000000000083678E-01     0.0000000000000000E+00 
    1.2500000000000661E-01     3.1250000000104172E-01     0.0000000000000000E+00 
    1.2500000000005329E-01     3.7500000000124661E-01     0.0000000000000000E+00 
    1.2500000000010000E-01     4.3750000000145117E-01     0.0000000000000000E+00 
    1.2500000000014669E-01     5.0000000000163858E-01     0.0000000000000000E+00 
    1.2500000000019340E-01     5.6250000000129741E-01     0.0000000000000000E+00 
    1.2500000000024011E-01     6.2500000000093847E-01     0.0000000000000000E+00 
    1.2500000000028680E-01     6.8750000000057998E-01     0.0000000000000000E+00 
    1.2500000000033351E-01     7.5000000000022127E-01     0.0000000000000000E+00 
    1.2500000000038020E-01     8.1249999999986211E-01     0.0000000000000000E+00 
    1.2500000000042691E-01     8.7499999999952238E-01     0.0000000000000000E+00 
    1.2500000000047359E-01     9.3749999999975164E-01     0.0000000000000000E+00 
    1.8749999999966760E-01     6.2500000000187531E-02     0.0000000000000000E+00 
    1.8749999999974179E-01     1.2500000000038020E-01     0.0000000000000000E+00 
    1.8749999999981601E-01     1.8750000000055780E-01     0.0000000000000000E+00 
    1.8749999999989009E-01     2.5000000000073502E-01     0.0000000000000000E+00 
    1.8749999999996431E-01     3.1250000000091221E-01     0.0000000000000000E+00 
    1.8750000000003850E-01     3.7500000000108941E-01     0.0000000000000000E+00 
    1.8750000000011269E-01     4.3750000000126649E-01     0.0000000000000000E+00 
    1.8750000000018691E-01     5.0000000000142808E-01     0.0000000000000000E+00 
    1.8750000000026110E-01     5.6250000000112244E-01     0.0000000000000000E+00 
    1.8750000000033529E-01     6.2500000000080080E-01     0.0000000000000000E+00 
    1.8750000000040951E-01     6.8750000000047962E-01     0.0000000000000000E+00 
    1.8750000000048361E-01     7.5000000000015843E-01     0.0000000000000000E+00 
    1.8750000000055780E-01     8.1249999999983680E-01     0.0000000000000000E+00 
    1.8750000000063199E-01     8.7499999999953304E-01     0.0000000000000000E+00 
    1.8750000000070621E-01     9.3749999999975764E-01     0.0000000000000000E+00 
    2.4999999999951281E-01     6.2500000000163314E-02     0.0000000000000000E+00 
    2.4999999999961461E-01     1.2500000000033351E-01     0.0000000000000000E+00 
    2.4999999999971650E-01     1.8750000000048361E-01     0.0000000000000000E+00 
    2.4999999999981831E-01     2.5000000000063310E-01     0.0000000000000000E+00 
    2.4999999999992020E-01     3.1250000000078260E-01     0.0000000000000000E+00 
    2.5000000000002198E-01     3.7500000000093209E-01     0.0000000000000000E+00 
    2.5000000000012390E-01     4.3750000000108180E-01     0.0000000000000000E+00 
    2.5000000000022571E-01     5.0000000000121769E-01     0.0000000000000000E+00 
    2.5000000000032763E-01     5.6250000000094724E-01     0.0000000000000000E+00 
    2.5000000000042938E-01     6.2500000000066314E-01     0.0000000000000000E+00 
    2.5000000000053119E-01     6.8750000000037925E-01     0.0000000000000000E+00 
[...]
CELL_DATA 256 
SCALARS Pressure double 1 
LOOKUP_TABLE default 

    1.3236322121669852E+00 
    1.0735111377892406E+00 
    9.1930869992414221E-01 
    7.9798215215550350E-01 
    7.2469580022034430E-01 
    6.6966817806118539E-01 
    6.1526327532530134E-01 
    5.6068211009639357E-01 
    5.0665419705842885E-01 
    4.5384857430828068E-01 
    4.0328211755710902E-01 
    3.5657025148549243E-01 
    3.1606534065656205E-01 
    2.8464728343424672E-01 
    2.6479539658853601E-01 
    2.5682843192072902E-01 
    1.2469447912311054E+00 
    1.0762661346487998E+00 
    9.2744968077071632E-01 
    8.0625487285614550E-01 
    7.3131991537520169E-01 
    6.7538124348419304E-01 
    6.2074593511459675E-01 
    5.6607186179739610E-01 
    5.1189972193994948E-01 
    4.5883901262445154E-01 
    4.0783654022181826E-01 
    3.6042683704164952E-01 
    3.1891161413926084E-01 
    2.8623634553593608E-01 
    2.6515464838975711E-01 
    2.5646995737337075E-01 
    1.1835307452488120E+00 
    1.0651629990459048E+00 
    9.2946650050634072E-01 
    8.1284508127392829E-01 
    7.3810502335944184E-01 
    6.8131328979654249E-01 
    6.2627714242985832E-01 
    5.7144085254284704E-01 
    5.1707941635762245E-01 
    4.6370106494819080E-01 
    4.1215858287905921E-01 
    3.6388480382963684E-01 
    3.2112522078608707E-01 
    2.8693526389735474E-01 
    2.6447100860854533E-01 
    2.5518023177270915E-01 
    1.1304130729006248E+00 
    1.0464547167319840E+00 
    9.2587279254391119E-01 
    8.1783628821110965E-01 
    7.4488424667442088E-01 
    6.8735782098949094E-01 
    6.3185086444562855E-01 
    5.7680180764567157E-01 
    5.2221565672108894E-01 
    4.6847187000562474E-01 
    4.1630568164831599E-01 
    3.6702116614290892E-01 
    3.2278445304809461E-01 
    2.8677891002361133E-01 
    2.6268152880137124E-01 
    2.5278236547414967E-01 
    1.0850851795248639E+00 
    1.0237306940582538E+00 
    9.1823504918007415E-01 
    8.2157109742903423E-01 
    7.5152782978889787E-01 
    6.9339858896806394E-01 
    6.3744702202722048E-01 
    5.8216246841960329E-01 
    5.2732937078260045E-01 
    4.7318847844615408E-01 
    4.2033727292571887E-01 
    3.6991902146073963E-01 
    3.2397844592021535E-01 
    2.8581192918524406E-01 
    2.5972044943007450E-01 
    2.4909245255280496E-01 
    1.0457984332081642E+00 
    9.9886917177287615E-01 
    9.0880145204969764E-01 
    8.2454534721623374E-01 
    7.5786325201019400E-01 
    6.9933991272663398E-01 
    6.4303936599637301E-01 
    5.8752622479573180E-01 
    5.3243933428708412E-01 
    4.7788688769543214E-01 
    4.2431396940722710E-01 
    3.7266817163958560E-01 
    3.2481149173764329E-01 
    2.8409673900279142E-01 
    2.5552268041244769E-01 
    2.4390702162390931E-01 
    1.0112699409172361E+00 
    9.7332795915211279E-01 
    8.9965384347123878E-01 
    8.2721238304906142E-01 
    7.6368428768994934E-01 
    7.0511406318036751E-01 
    6.4860219189715784E-01 
    5.9289349423929161E-01 
    5.3756177792028337E-01 
    4.8260101385779053E-01 
    4.2829628519481844E-01 
    3.7536492970950075E-01 
    3.2540706463640989E-01 
    2.8172344147284190E-01 
    2.5002982680663605E-01 
    2.3698885700024949E-01 
    9.8006008845383630E-01 
    9.5074825979395383E-01 
    8.9283389401804447E-01 
    8.2975021562039930E-01 
    7.6888943895477790E-01 
    7.1068013293185017E-01 
    6.5411485794834368E-01 
    5.9826329474263784E-01 
    5.4271024236590226E-01 
    4.8736163688110784E-01 
    4.3234286946774703E-01 
    3.7811080476312497E-01 
    3.2591107129944191E-01 
    2.7882221302179994E-01 
    2.4320086140084254E-01 
    2.2804944192267607E-01 
    9.5431506115364406E-01 
    9.3434480639907602E-01 
    8.8845504716703605E-01 
    8.3203179619819767E-01 
    7.7354098003541172E-01 
    7.1602650824298797E-01 
    6.5956471583312337E-01 
    6.0363467907448187E-01 
    5.4789560362847034E-01 
    4.9219536857008994E-01 
    4.3650826144656346E-01 
    3.8100972488628465E-01 
    3.2649347701532083E-01 
    2.7557850522044414E-01 
    2.3503081287825894E-01 
    2.1672571879859545E-01 
    9.4017193144493127E-01 
    9.2430252627733600E-01 
    8.8550895136031593E-01 
    8.3388729377487669E-01 
    7.7777725972983502E-01 
    7.2117031560134170E-01 
    6.6494867901400534E-01 
    6.0900786018766617E-01 
    5.5312620517954803E-01 
    4.9712371578057601E-01 
    4.4084026598130266E-01 
    3.8416349141733802E-01 
    3.2734696227622606E-01 
    2.7225075662315751E-01 
    2.2558300939081441E-01 
    2.0254788829728954E-01 
    9.3173547987058936E-01 
    9.1778127306305546E-01 
    8.8332092546640772E-01 
    8.3552559831179973E-01 
    7.8173176061896665E-01 
    7.2614970662931499E-01 
    6.7027320794201606E-01 
    6.1438492699630665E-01 
    5.5840805419189066E-01 
    5.0216233604831817E-01 
    4.4537717166535068E-01 
    3.8766531890760714E-01 
    3.2868067720398964E-01 
    2.6918885892839295E-01 
    2.1504407817474469E-01 
    1.8489337480180701E-01 
    9.2560028177198606E-01 
    9.1290275959639267E-01 
    8.8173187180116230E-01 
    8.3718687487736254E-01 
    7.8553776067433267E-01 
    7.3101634597276566E-01 
    6.7555310304427629E-01 
    6.1977013159098460E-01 
    5.6374505720651846E-01 
    5.0732059781644900E-01 
    4.5014518047916741E-01 
    3.9159168760727853E-01 
    3.3070663047768006E-01 
    2.6684853903836614E-01 
    2.0381704645324825E-01 
    1.6291952605990354E-01 
    9.2123921157003175E-01 
    9.0946843327413673E-01 
    8.8088800064173078E-01 
    8.3905732666388333E-01 
    7.8932356593362007E-01 
    7.3582993190006130E-01 
    6.8080973803364253E-01 
    6.2516981157459417E-01 
    5.6913928236721267E-01 
    5.1260154771635602E-01 
    4.5515655309944603E-01 
    3.9599340551548678E-01 
    3.3361620298262279E-01 
    2.6579062953046417E-01 
    1.9267819860202573E-01 
    1.3546352361497044E-01 
    9.1840691765060201E-01 
    9.0739756682039152E-01 
    8.8088861898276649E-01 
    8.4129237478306584E-01 
    7.9320875470759444E-01 
    7.4065392219134862E-01 
    6.8606912946346998E-01 
    6.3059204418566273E-01 
    5.7459123657311995E-01 
    5.1800234039363791E-01 
    4.6040902423023800E-01 
    4.0088776590816666E-01 
    3.3754573443696284E-01 
    2.6664218018963998E-01 
    1.8304066202292404E-01 
    1.0089142988571630E-01 
    9.1688379167673073E-01 
    9.0661294396910774E-01 
    8.8180690271422424E-01 
    8.4402312227478726E-01 
    7.9730323230703481E-01 
    7.4555237588338219E-01 
    6.9136005681563606E-01 
    6.3604612221129764E-01 
    5.8010013752748435E-01 
    5.2351510051786210E-01 
    4.6588689928891369E-01 
    4.0625476407688899E-01 
    3.4253533994971880E-01 
    2.6997355247587246E-01 
    1.7739683086627545E-01 
    5.6867766050604764E-02 
    9.1646042371446346E-01 
    9.0704386001534287E-01 
    8.8370173419101239E-01 
    8.4736319144082173E-01 
    8.0170765548647460E-01 
    7.5058776016117512E-01 
    6.9671234381563363E-01 
    6.4154192027235823E-01 
    5.8566415037581954E-01 
    5.2912808325256688E-01 
    4.7156381426219457E-01 
    4.1204057844141267E-01 
    3.4849877838350907E-01 
    2.7600306099592825E-01 
    1.8006084956481772E-01 
    0.0000000000000000E+00 

SCALARS Saturarion double 1 
LOOKUP_TABLE default 

    1.0000000000000000E+00 
    9.0401822937016607E-01 
    7.7508544634256626E-01 
    5.2369764000351959E-01 
    8.9814859637500771E-02 
    3.6123877354100648E-04 
    8.9752169704344033E-10 
    2.2447335574406687E-22 
    1.3323822505858463E-50 
   1.0931835234185800E-113 
   1.4449543368684203E-254 
    0.0000000000000000E+00 
    0.0000000000000000E+00 
    0.0000000000000000E+00 
    0.0000000000000000E+00 
    0.0000000000000000E+00 
    9.6592265130225130E-01 
    8.9112683349352750E-01 
    7.7108267715516010E-01 
    5.2064035432420297E-01 
    8.5789050738700107E-02 
    2.9544524391099668E-04 
    4.7825770162705915E-10 
    3.6623796174932096E-23 
    8.4724573548257387E-53 
   1.0885485221213400E-119 
   8.3541070103859787E-271 
    0.0000000000000000E+00 
    0.0000000000000000E+00 
    0.0000000000000000E+00 
    0.0000000000000000E+00 
    0.0000000000000000E+00 
    9.4058801155683736E-01 
    8.7329218354813842E-01 
    7.5956427493995382E-01 
    4.9125711019077378E-01 
    6.3733127384988431E-02 
    1.2255511304422071E-04 
    4.9617808099186381E-11 
    1.1529702528455897E-25 
    3.5769163540264121E-59 
   4.8240806742945654E-136 
   5.9458255619950271E-313 
    0.0000000000000000E+00 
    0.0000000000000000E+00 
    0.0000000000000000E+00 
    0.0000000000000000E+00 
    0.0000000000000000E+00 
    9.1334498115988483E-01 
    8.5228320409372826E-01 
    7.4108869465896499E-01 
    4.2883575770811866E-01 
    3.3946688619285778E-02 
    2.1458786402930161E-05 
    6.0167609325138557E-13 
    1.4943969551502310E-30 
    9.1245802397446394E-72 
   1.0001772680185718E-168 
    0.0000000000000000E+00 
    0.0000000000000000E+00 
    0.0000000000000000E+00 
    0.0000000000000000E+00 
    0.0000000000000000E+00 
    0.0000000000000000E+00 
    8.8320834945226967E-01 
    8.2802436515168043E-01 
    7.1342014373859886E-01 
    3.2127026473532572E-01 
    1.0460088462589938E-02 
    9.2402699613201237E-07 
    1.6308451838096096E-16 
    4.9244596519507425E-40 
    1.3238244666254049E-96 
   1.0838032102955405E-232 
    0.0000000000000000E+00 
    0.0000000000000000E+00 
    0.0000000000000000E+00 
    0.0000000000000000E+00 
    0.0000000000000000E+00 
    0.0000000000000000E+00 
    8.4893175688402644E-01 
    7.9927607721394944E-01 
    6.6656403487974769E-01 
    1.7385705879676977E-01 
    1.0999287144600992E-03 
    1.7699674859812766E-09 
    6.8378778657166318E-24 
    3.1233718418000211E-59 
   7.1256571097833527E-149 
    0.0000000000000000E+00 
    0.0000000000000000E+00 
    0.0000000000000000E+00 
    0.0000000000000000E+00 
    0.0000000000000000E+00 
    0.0000000000000000E+00 
    0.0000000000000000E+00 
    8.0734445684014455E-01 
    7.6133989178771999E-01 
    5.3822635280362985E-01 
    3.5818804906073622E-02 
    6.6818273548309343E-06 
    1.9912966773730155E-15 
    1.6800086233864809E-40 
   8.9925811631541502E-112 
   5.6163573943716612E-315 
    0.0000000000000000E+00 
    0.0000000000000000E+00 
    0.0000000000000000E+00 
    0.0000000000000000E+00 
    0.0000000000000000E+00 
    0.0000000000000000E+00 
    0.0000000000000000E+00 
    7.4766680789750506E-01 
    6.9199708463520393E-01 
    1.7785732780368929E-01 
    4.6795137167696197E-04 
    1.8276618507590339E-11 
    6.5894362552106798E-33 
    1.2837304144656585E-96 
   3.1536529516356019E-280 
    0.0000000000000000E+00 
    0.0000000000000000E+00 
    0.0000000000000000E+00 
    0.0000000000000000E+00 
    0.0000000000000000E+00 
    0.0000000000000000E+00 
    0.0000000000000000E+00 
    0.0000000000000000E+00 
    6.0417921764998184E-01 
    3.5398222441746258E-01 
    2.9062125668764373E-03 
    5.9163195306715185E-10 
    5.5659657717468262E-30 
    2.0016510869200147E-90 
   7.5334889878257273E-265 
    0.0000000000000000E+00 
    0.0000000000000000E+00 
    0.0000000000000000E+00 
    0.0000000000000000E+00 
    0.0000000000000000E+00 
    0.0000000000000000E+00 
    0.0000000000000000E+00 
    0.0000000000000000E+00 
    0.0000000000000000E+00 
    1.3550863048621009E-01 
    5.4948085865136323E-03 
    2.1977020880920744E-09 
    7.0883340338245315E-29 
    4.5021279784797700E-88 
   1.7366636538505795E-258 
    0.0000000000000000E+00 
    0.0000000000000000E+00 
    0.0000000000000000E+00 
    0.0000000000000000E+00 
    0.0000000000000000E+00 
    0.0000000000000000E+00 
    0.0000000000000000E+00 
    0.0000000000000000E+00 
    0.0000000000000000E+00 
    0.0000000000000000E+00 
    2.7377437948224382E-04 
    3.0310970101030718E-09 
    1.7141811594181926E-28 
    2.9952972068111932E-87 
   4.2814590960958311E-256 
    0.0000000000000000E+00 
    0.0000000000000000E+00 
    0.0000000000000000E+00 
    0.0000000000000000E+00 
    0.0000000000000000E+00 
    0.0000000000000000E+00 
    0.0000000000000000E+00 
    0.0000000000000000E+00 
    0.0000000000000000E+00 
    0.0000000000000000E+00 
    0.0000000000000000E+00 
    5.0227894162173124E-12 
    1.6432188732795334E-28 
    5.0345470561321127E-87 
   2.5228921420990599E-255 
    0.0000000000000000E+00 
    0.0000000000000000E+00 
    0.0000000000000000E+00 
    0.0000000000000000E+00 
    0.0000000000000000E+00 
    0.0000000000000000E+00 
    0.0000000000000000E+00 
    0.0000000000000000E+00 
    0.0000000000000000E+00 
    0.0000000000000000E+00 
    0.0000000000000000E+00 
    0.0000000000000000E+00 
    1.9706052207130025E-33 
    3.1474698208952847E-87 
   3.5460462625724456E-255 
    0.0000000000000000E+00 
    0.0000000000000000E+00 
    0.0000000000000000E+00 
    0.0000000000000000E+00 
    0.0000000000000000E+00 
    0.0000000000000000E+00 
    0.0000000000000000E+00 
    0.0000000000000000E+00 
    0.0000000000000000E+00 
    0.0000000000000000E+00 
    0.0000000000000000E+00 
    0.0000000000000000E+00 
    0.0000000000000000E+00 
    4.2984883616048767E-93 
   1.6819284305468007E-255 
    0.0000000000000000E+00 
    0.0000000000000000E+00 
    0.0000000000000000E+00 
    0.0000000000000000E+00 
    0.0000000000000000E+00 
    0.0000000000000000E+00 
    0.0000000000000000E+00 
    0.0000000000000000E+00 
    0.0000000000000000E+00 
    0.0000000000000000E+00 
    0.0000000000000000E+00 
    0.0000000000000000E+00 
    0.0000000000000000E+00 
    0.0000000000000000E+00 
   3.9779541780178344E-259 
    0.0000000000000000E+00 
    0.0000000000000000E+00 
    0.0000000000000000E+00 
    0.0000000000000000E+00 
    0.0000000000000000E+00 
    0.0000000000000000E+00 
    0.0000000000000000E+00 
    0.0000000000000000E+00 
    0.0000000000000000E+00 
    0.0000000000000000E+00 
    0.0000000000000000E+00 
    0.0000000000000000E+00 
    0.0000000000000000E+00 
    0.0000000000000000E+00 
    0.0000000000000000E+00 
    0.0000000000000000E+00 
    0.0000000000000000E+00 
    0.0000000000000000E+00 
    0.0000000000000000E+00 
    0.0000000000000000E+00 
    0.0000000000000000E+00 
    0.0000000000000000E+00 
    0.0000000000000000E+00 
    0.0000000000000000E+00 
    0.0000000000000000E+00 
    0.0000000000000000E+00 
    0.0000000000000000E+00 
    0.0000000000000000E+00 
    0.0000000000000000E+00 
    0.0000000000000000E+00 
    0.0000000000000000E+00 
