# vtk DataFile Version 2.0
Pressure Field Data 
ASCII 
DATASET UNSTRUCTURED_GRID 

POINTS 289 double 

    0.0000000000000000E+00     0.0000000000000000E+00     0.0000000000000000E+00 
    1.0000000000000000E+00     0.0000000000000000E+00     0.0000000000000000E+00 
    1.0000000000000000E+00     1.0000000000000000E+00     0.0000000000000000E+00 
    0.0000000000000000E+00     1.0000000000000000E+00     0.0000000000000000E+00 
    6.2499999999872928E-02     0.0000000000000000E+00     0.0000000000000000E+00 
    1.2499999999977310E-01     0.0000000000000000E+00     0.0000000000000000E+00 
    1.8749999999959341E-01     0.0000000000000000E+00     0.0000000000000000E+00 
    2.4999999999941089E-01     0.0000000000000000E+00     0.0000000000000000E+00 
    3.1249999999922851E-01     0.0000000000000000E+00     0.0000000000000000E+00 
    3.7499999999904610E-01     0.0000000000000000E+00     0.0000000000000000E+00 
    4.3749999999886358E-01     0.0000000000000000E+00     0.0000000000000000E+00 
    4.9999999999869210E-01     0.0000000000000000E+00     0.0000000000000000E+00 
    5.6249999999884603E-01     0.0000000000000000E+00     0.0000000000000000E+00 
    6.2499999999901090E-01     0.0000000000000000E+00     0.0000000000000000E+00 
    6.8749999999917577E-01     0.0000000000000000E+00     0.0000000000000000E+00 
    7.4999999999934064E-01     0.0000000000000000E+00     0.0000000000000000E+00 
    8.1249999999950551E-01     0.0000000000000000E+00     0.0000000000000000E+00 
    8.7499999999967026E-01     0.0000000000000000E+00     0.0000000000000000E+00 
    9.3749999999983513E-01     0.0000000000000000E+00     0.0000000000000000E+00 
    1.0000000000000000E+00     6.2499999999872928E-02     0.0000000000000000E+00 
    1.0000000000000000E+00     1.2499999999977310E-01     0.0000000000000000E+00 
    1.0000000000000000E+00     1.8749999999959341E-01     0.0000000000000000E+00 
    1.0000000000000000E+00     2.4999999999941089E-01     0.0000000000000000E+00 
    1.0000000000000000E+00     3.1249999999922851E-01     0.0000000000000000E+00 
    1.0000000000000000E+00     3.7499999999904610E-01     0.0000000000000000E+00 
    1.0000000000000000E+00     4.3749999999886358E-01     0.0000000000000000E+00 
    1.0000000000000000E+00     4.9999999999869210E-01     0.0000000000000000E+00 
    1.0000000000000000E+00     5.6249999999884603E-01     0.0000000000000000E+00 
    1.0000000000000000E+00     6.2499999999901090E-01     0.0000000000000000E+00 
    1.0000000000000000E+00     6.8749999999917577E-01     0.0000000000000000E+00 
    1.0000000000000000E+00     7.4999999999934064E-01     0.0000000000000000E+00 
    1.0000000000000000E+00     8.1249999999950551E-01     0.0000000000000000E+00 
    1.0000000000000000E+00     8.7499999999967026E-01     0.0000000000000000E+00 
    1.0000000000000000E+00     9.3749999999983513E-01     0.0000000000000000E+00 
    9.3749999999973976E-01     1.0000000000000000E+00     0.0000000000000000E+00 
    8.7499999999950118E-01     1.0000000000000000E+00     0.0000000000000000E+00 
    8.1249999999991318E-01     1.0000000000000000E+00     0.0000000000000000E+00 
    7.5000000000034706E-01     1.0000000000000000E+00     0.0000000000000000E+00 
    6.8750000000078049E-01     1.0000000000000000E+00     0.0000000000000000E+00 
    6.2500000000121403E-01     1.0000000000000000E+00     0.0000000000000000E+00 
    5.6250000000164757E-01     1.0000000000000000E+00     0.0000000000000000E+00 
    5.0000000000205946E-01     1.0000000000000000E+00     0.0000000000000000E+00 
    4.3750000000182099E-01     1.0000000000000000E+00     0.0000000000000000E+00 
    3.7500000000156092E-01     1.0000000000000000E+00     0.0000000000000000E+00 
    3.1250000000130068E-01     1.0000000000000000E+00     0.0000000000000000E+00 
    2.5000000000104050E-01     1.0000000000000000E+00     0.0000000000000000E+00 
    1.8750000000078040E-01     1.0000000000000000E+00     0.0000000000000000E+00 
    1.2500000000052031E-01     1.0000000000000000E+00     0.0000000000000000E+00 
    6.2500000000260125E-02     1.0000000000000000E+00     0.0000000000000000E+00 
    0.0000000000000000E+00     9.3749999999973976E-01     0.0000000000000000E+00 
    0.0000000000000000E+00     8.7499999999950118E-01     0.0000000000000000E+00 
    0.0000000000000000E+00     8.1249999999991318E-01     0.0000000000000000E+00 
    0.0000000000000000E+00     7.5000000000034706E-01     0.0000000000000000E+00 
    0.0000000000000000E+00     6.8750000000078049E-01     0.0000000000000000E+00 
    0.0000000000000000E+00     6.2500000000121403E-01     0.0000000000000000E+00 
    0.0000000000000000E+00     5.6250000000164757E-01     0.0000000000000000E+00 
    0.0000000000000000E+00     5.0000000000205946E-01     0.0000000000000000E+00 
    0.0000000000000000E+00     4.3750000000182099E-01     0.0000000000000000E+00 
    0.0000000000000000E+00     3.7500000000156092E-01     0.0000000000000000E+00 
    0.0000000000000000E+00     3.1250000000130068E-01     0.0000000000000000E+00 
    0.0000000000000000E+00     2.5000000000104050E-01     0.0000000000000000E+00 
    0.0000000000000000E+00     1.8750000000078040E-01     0.0000000000000000E+00 
    0.0000000000000000E+00     1.2500000000052031E-01     0.0000000000000000E+00 
    0.0000000000000000E+00     6.2500000000260125E-02     0.0000000000000000E+00 
    6.2499999999897131E-02     6.2500000000235922E-02     0.0000000000000000E+00 
    6.2499999999921327E-02     1.2500000000047351E-01     0.0000000000000000E+00 
    6.2499999999945530E-02     1.8750000000070621E-01     0.0000000000000000E+00 
    6.2499999999969733E-02     2.5000000000093858E-01     0.0000000000000000E+00 
    6.2499999999993928E-02     3.1250000000117117E-01     0.0000000000000000E+00 
    6.2500000000018124E-02     3.7500000000140382E-01     0.0000000000000000E+00 
    6.2500000000042327E-02     4.3750000000163619E-01     0.0000000000000000E+00 
    6.2500000000066530E-02     5.0000000000184897E-01     0.0000000000000000E+00 
    6.2500000000090733E-02     5.6250000000147260E-01     0.0000000000000000E+00 
    6.2500000000114922E-02     6.2500000000107636E-01     0.0000000000000000E+00 
    6.2500000000139125E-02     6.8750000000068034E-01     0.0000000000000000E+00 
    6.2500000000163328E-02     7.5000000000028411E-01     0.0000000000000000E+00 
    6.2500000000187531E-02     8.1249999999988787E-01     0.0000000000000000E+00 
    6.2500000000211720E-02     8.7499999999951172E-01     0.0000000000000000E+00 
    6.2500000000235922E-02     9.3749999999974565E-01     0.0000000000000000E+00 
    1.2499999999981980E-01     6.2500000000211733E-02     0.0000000000000000E+00 
    1.2499999999986650E-01     1.2500000000042691E-01     0.0000000000000000E+00 
    1.2499999999991319E-01     1.8750000000063199E-01     0.0000000000000000E+00 
    1.2499999999995989E-01     2.5000000000083678E-01     0.0000000000000000E+00 
    1.2500000000000661E-01     3.1250000000104172E-01     0.0000000000000000E+00 
    1.2500000000005329E-01     3.7500000000124661E-01     0.0000000000000000E+00 
    1.2500000000010000E-01     4.3750000000145117E-01     0.0000000000000000E+00 
    1.2500000000014669E-01     5.0000000000163858E-01     0.0000000000000000E+00 
    1.2500000000019340E-01     5.6250000000129741E-01     0.0000000000000000E+00 
    1.2500000000024011E-01     6.2500000000093847E-01     0.0000000000000000E+00 
    1.2500000000028680E-01     6.8750000000057998E-01     0.0000000000000000E+00 
    1.2500000000033351E-01     7.5000000000022127E-01     0.0000000000000000E+00 
    1.2500000000038020E-01     8.1249999999986211E-01     0.0000000000000000E+00 
    1.2500000000042691E-01     8.7499999999952238E-01     0.0000000000000000E+00 
    1.2500000000047359E-01     9.3749999999975164E-01     0.0000000000000000E+00 
    1.8749999999966760E-01     6.2500000000187531E-02     0.0000000000000000E+00 
    1.8749999999974179E-01     1.2500000000038020E-01     0.0000000000000000E+00 
    1.8749999999981601E-01     1.8750000000055780E-01     0.0000000000000000E+00 
    1.8749999999989009E-01     2.5000000000073502E-01     0.0000000000000000E+00 
    1.8749999999996431E-01     3.1250000000091221E-01     0.0000000000000000E+00 
    1.8750000000003850E-01     3.7500000000108941E-01     0.0000000000000000E+00 
    1.8750000000011269E-01     4.3750000000126649E-01     0.0000000000000000E+00 
    1.8750000000018691E-01     5.0000000000142808E-01     0.0000000000000000E+00 
    1.8750000000026110E-01     5.6250000000112244E-01     0.0000000000000000E+00 
    1.8750000000033529E-01     6.2500000000080080E-01     0.0000000000000000E+00 
    1.8750000000040951E-01     6.8750000000047962E-01     0.0000000000000000E+00 
    1.8750000000048361E-01     7.5000000000015843E-01     0.0000000000000000E+00 
    1.8750000000055780E-01     8.1249999999983680E-01     0.0000000000000000E+00 
    1.8750000000063199E-01     8.7499999999953304E-01     0.0000000000000000E+00 
    1.8750000000070621E-01     9.3749999999975764E-01     0.0000000000000000E+00 
    2.4999999999951281E-01     6.2500000000163314E-02     0.0000000000000000E+00 
    2.4999999999961461E-01     1.2500000000033351E-01     0.0000000000000000E+00 
    2.4999999999971650E-01     1.8750000000048361E-01     0.0000000000000000E+00 
    2.4999999999981831E-01     2.5000000000063310E-01     0.0000000000000000E+00 
    2.4999999999992020E-01     3.1250000000078260E-01     0.0000000000000000E+00 
    2.5000000000002198E-01     3.7500000000093209E-01     0.0000000000000000E+00 
    2.5000000000012390E-01     4.3750000000108180E-01     0.0000000000000000E+00 
    2.5000000000022571E-01     5.0000000000121769E-01     0.0000000000000000E+00 
    2.5000000000032763E-01     5.6250000000094724E-01     0.0000000000000000E+00 
    2.5000000000042938E-01     6.2500000000066314E-01     0.0000000000000000E+00 
    2.5000000000053119E-01     6.8750000000037925E-01     0.0000000000000000E+00 
[...]
CELL_DATA 256 
SCALARS Pressure double 1 
LOOKUP_TABLE default 

    1.7250168283439677E+00 
    1.4918842696427361E+00 
    1.3594268637691789E+00 
    1.2527387750057422E+00 
    1.1540686720618827E+00 
    1.0575427040424759E+00 
    9.6089096060202706E-01 
    8.6332543220936564E-01 
    7.6487943957060200E-01 
    6.6621902933596477E-01 
    5.6860303715183091E-01 
    4.7376911914939884E-01 
    3.8394067831936357E-01 
    3.1656438272168019E-01 
    2.8723141163730515E-01 
    2.7775674411710122E-01 
    1.6535862746987129E+00 
    1.4959297364043271E+00 
    1.3682047429103079E+00 
    1.2618039342267904E+00 
    1.1632226005910677E+00 
    1.0668275624938623E+00 
    9.7031501775658846E-01 
    8.7284609750694420E-01 
    7.7439711921819565E-01 
    6.7556782561875450E-01 
    5.7754750732367521E-01 
    4.8200278348688769E-01 
    3.9081084575199537E-01 
    3.1987235697437100E-01 
    2.8781560658343586E-01 
    2.7734022048720131E-01 
    1.5981175185615122E+00 
    1.4892844618191459E+00 
    1.3733961102643988E+00 
    1.2694807792013678E+00 
    1.1716962200842704E+00 
    1.0757066654452634E+00 
    9.7944392895481569E-01 
    8.8209865603325444E-01 
    7.8361234457777262E-01 
    6.8451615310542213E-01 
    5.8591652854338905E-01 
    4.8940991959937730E-01 
    3.9673394120355038E-01 
    3.2187414814425674E-01 
    2.8704825966817815E-01 
    2.7581211828181551E-01 
    1.5544712325712986E+00 
    1.4774568435821513E+00 
    1.3752944387340511E+00 
    1.2756690779396886E+00 
    1.1794302928795579E+00 
    1.0841577709959855E+00 
    9.8827799550146089E-01 
    8.9110136971063303E-01 
    7.9256254531630765E-01 
    6.9312432314847083E-01 
    5.9379644352168526E-01 
    4.9609367447072039E-01 
    4.0170114589580580E-01 
    3.2266035084295441E-01 
    2.8483890082580166E-01 
    2.7294412958398412E-01 
    1.5197363876272341E+00 
    1.4636262171208945E+00 
    1.3746434774978953E+00 
    1.2804332400256189E+00 
    1.1864116155427187E+00 
    1.0921747265225654E+00 
    9.9682482728756561E-01 
    8.9987659749758231E-01 
    8.0128809526275535E-01 
    7.0145552604875361E-01 
    6.0127690154859714E-01 
    5.0216332151668019E-01 
    4.0576285531139900E-01 
    3.2230615027162185E-01 
    2.8109171437155217E-01 
    2.6850685168654564E-01 
    1.4918731346005596E+00 
    1.4496013750092251E+00 
    1.3722588360021533E+00 
    1.2839624966466827E+00 
    1.1926768431785379E+00 
    1.0997705763540020E+00 
    1.0051004976511231E+00 
    9.0845100289338809E-01 
    8.0983212584948461E-01 
    7.0957569098190143E-01 
    6.0845170911931257E-01 
    5.0773798937295500E-01 
    4.0901454174086965E-01 
    3.2089082264710284E-01 
    2.7570987133112540E-01 
    2.6225586132868206E-01 
    1.4694301679620911E+00 
    1.4363832445955245E+00 
    1.3688717488347386E+00 
    1.2865176389591579E+00 
    1.1983071759748252E+00 
    1.1069785944553636E+00 
    1.0131302822699935E+00 
    9.1685563578480400E-01 
    8.1824020273622833E-01 
    7.1755304163155265E-01 
    6.1541867143238060E-01 
    5.1294784520830861E-01 
    4.1159266291676783E-01 
    3.1850780532096085E-01 
    2.6860085324938909E-01 
    2.5391773064570744E-01 
    1.4513573476970285E+00 
    1.4244994640431847E+00 
    1.3650799488227499E+00 
    1.2883868420867794E+00 
    1.2034180370007983E+00 
    1.1138512474792979E+00 
    1.0209488379528482E+00 
    9.2512585390467217E-01 
    8.2655989443041400E-01 
    7.2545745379092674E-01 
    6.2227867859740071E-01 
    5.1793315146422858E-01 
    4.1367178176093428E-01 
    3.1527959998986788E-01 
    2.5969338681305920E-01 
    2.4317557039121571E-01 
    1.4368807717077943E+00 
    1.4142033212924023E+00 
    1.3613469896489139E+00 
    1.2898556447902261E+00 
    1.2081475045641488E+00 
    1.1204576314414403E+00 
    1.0285998112812444E+00 
    9.3330106162020621E-01 
    8.3484024193826478E-01 
    7.3335971490874541E-01 
    6.2913428429356044E-01 
    5.2284127743806708E-01 
    4.1546303929825706E-01 
    3.1138225575514361E-01 
    2.4897328323348852E-01 
    2.2965370288768303E-01 
    1.4254183775131244E+00 
    1.4055917814459000E+00 
    1.3580206781825941E+00 
    1.2911896171505493E+00 
    1.2126458765869794E+00 
    1.1268801095459680E+00 
    1.0361349964604651E+00 
    9.4142428730698280E-01 
    8.4313114035011472E-01 
    7.4133079139879687E-01 
    6.3608810944289673E-01 
    5.2782123657865820E-01 
    4.1721163558579216E-01 
    3.0708138523695327E-01 
    2.3654698892470147E-01 
    2.1290058057661584E-01 
    1.4165218175483056E+00 
    1.3986751332204101E+00 
    1.3553565825404796E+00 
    1.2926264276096142E+00 
    1.2170674720762789E+00 
    1.1332108120814188E+00 
    1.0436132453755680E+00 
    9.4954167676424006E-01 
    8.5148265766287534E-01 
    7.4944121145000830E-01 
    6.4324164916354076E-01 
    5.3301523688449970E-01 
    4.1918813328429144E-01 
    3.0278784224894995E-01 
    2.2275045594600143E-01 
    1.9236971049789275E-01 
    1.4098351611622260E+00 
    1.3934175126748889E+00 
    1.3535403202335339E+00 
    1.2943740126558287E+00 
    1.2215648601645090E+00 
    1.1395484584910145E+00 
    1.0510993674986038E+00 
    9.5770205518386819E-01 
    8.5994435857850360E-01 
    7.5776064168844048E-01 
    6.5069545719117194E-01 
    5.3854725689005434E-01 
    4.2166386336526823E-01 
    2.9915130142852109E-01 
    2.0833568390978383E-01 
    1.6740583330897338E-01 
    1.4050635675383099E+00 
    1.3897591830029097E+00 
    1.3527057210278028E+00 
    1.2966118312693200E+00 
    1.2262849439965076E+00 
    1.1459956090524843E+00 
    1.0586632211928428E+00 
    9.6595684886861688E-01 
    8.6856488373964613E-01 
    7.6635773729778889E-01 
    6.5855224794316580E-01 
    5.4451010800102562E-01 
    4.2485498704756036E-01 
    2.9722102131186201E-01 
    1.9476286343960997E-01 
    1.3724401230815356E-01 
    1.4019443999821777E+00 
    1.3876238277589241E+00 
    1.3529450870932798E+00 
    1.2994907404486047E+00 
    1.2313645081849725E+00 
    1.1526552848230518E+00 
    1.0663787862430263E+00 
    9.7436093604302021E-01 
    8.7739281435883876E-01 
    7.7530095027478130E-01 
    6.6692587695511096E-01 
    5.5095280729158014E-01 
    4.2887338710569206E-01 
    2.9846623890291785E-01 
    1.8433371667683213E-01 
    1.0086963395855360E-01 
    1.4002066278637104E+00 
    1.3868991540915898E+00 
    1.3542965512465146E+00 
    1.3031180641184323E+00 
    1.2369156974504760E+00 
    1.1596208969086437E+00 
    1.0743205928455462E+00 
    9.8297593913739278E-01 
    8.8648453671873029E-01 
    7.8466763360950720E-01 
    6.7597126638712335E-01 
    5.5787150828409449E-01 
    4.3401848699312806E-01 
    3.0437437556355978E-01 
    1.8004610783202873E-01 
    5.6387934835766609E-02 
    1.3996949859908976E+00 
    1.3875211652959727E+00 
    1.3567995520150433E+00 
    1.3075951243786659E+00 
    1.2430519911773583E+00 
    1.1669946777595752E+00 
    1.0825760736613448E+00 
    9.9187644903994199E-01 
    8.9590318817274650E-01 
    7.9453551401184375E-01 
    6.8600959307056164E-01 
    5.6680139719322853E-01 
    4.4278544174149348E-01 
    3.1493758567512525E-01 
    1.8570207722043683E-01 
    0.0000000000000000E+00 

SCALARS Saturarion double 1 
LOOKUP_TABLE default 

    1.0000000000000000E+00 
    9.8359666654823086E-01 
    9.6225861034513516E-01 
    9.3905588994299993E-01 
    9.1581868086096463E-01 
    8.9300756708896956E-01 
    8.7055087280424992E-01 
    8.4808731874945287E-01 
    8.2494104724835471E-01 
    7.9983229821865298E-01 
    7.6989726271315817E-01 
    7.2677855401407221E-01 
    6.3352993817429437E-01 
    3.0297232670746910E-01 
    8.9756044735621408E-03 
    3.7094353156543934E-07 
    9.9470890661459355E-01 
    9.8109139030855097E-01 
    9.6130368705452285E-01 
    9.3884422899733522E-01 
    9.1595265114789826E-01 
    8.9333903495098166E-01 
    8.7103474354194066E-01 
    8.4873296502476203E-01 
    8.2580827504173071E-01 
    8.0106462107172116E-01 
    7.7185545195698002E-01 
    7.3066455465954094E-01 
    6.4612882350646195E-01 
    3.5422376501927344E-01 
    1.7481924243541974E-02 
    2.1628015466438638E-06 
    9.9030876377088417E-01 
    9.7743913915818481E-01 
    9.5889681594495257E-01 
    9.3738359860256426E-01 
    9.1506884750954032E-01 
    8.9284111090189267E-01 
    8.7084228897446392E-01 
    8.4882807631223478E-01 
    8.2622570001700490E-01 
    8.0191864606721897E-01 
    7.7345474594444830E-01 
    7.3400472764593250E-01 
    6.5604673225130605E-01 
    3.9429045048838385E-01 
    2.8617932523593306E-02 
    8.1545805461083010E-06 
    9.8511893697930986E-01 
    9.7287600921427431E-01 
    9.5533608827402505E-01 
    9.3478530040449737E-01 
    9.1318077652705010E-01 
    8.9148067023100186E-01 
    8.6991497840699950E-01 
    8.4829973162067651E-01 
    8.2611424661474098E-01 
    8.0231807703457081E-01 
    7.7463725857893750E-01 
    7.3683617592155659E-01 
    6.6448847789946708E-01 
    4.3033571517085145E-01 
    4.3970698371864854E-02 
    2.6262780242837682E-05 
    9.7890514945271867E-01 
    9.6736579602346573E-01 
    9.5073931508452880E-01 
    9.3113516111751060E-01 
    9.1032132153949685E-01 
    8.8925871066054574E-01 
    8.6823553012415100E-01 
    8.4711949876024295E-01 
    8.2543874393211802E-01 
    8.0222540339361459E-01 
    7.7537299649118130E-01 
    7.3918508868261923E-01 
    6.7190678608130650E-01 
    4.6233012387380618E-01 
    6.3787174870731975E-02 
    7.3862324039604223E-05 
    9.7149188841543921E-01 
    9.6081486471133759E-01 
    9.4511038375785728E-01 
    9.2645648475697584E-01 
    9.0649378071562992E-01 
    8.8616029614886649E-01 
    8.6577788869670802E-01 
    8.4525473519346972E-01 
    8.2416208801534052E-01 
    8.0160003083667353E-01 
    7.7562090583292642E-01 
    7.4103188290801125E-01 
    6.7844823993965409E-01 
    4.9053190368993566E-01 
    8.8004597780003413E-02 
    1.8528117956050029E-04 
    9.6270402183234960E-01 
    9.5309305127737753E-01 
    9.3838344771574789E-01 
    9.2071491867736444E-01 
    9.0166358716464334E-01 
    8.8214405080821401E-01 
    8.6249623300231471E-01 
    8.4265766145567544E-01 
    8.2223519912674081E-01 
    8.0039030350429996E-01 
    7.7532473394489210E-01 
    7.4232167437672125E-01 
    6.8413231090411630E-01 
    5.1531961829458106E-01 
    1.1612000174848794E-01 
    4.2031181962095675E-04 
    9.5233873311777362E-01 
    9.4402764947857110E-01 
    9.3043284285844907E-01 
    9.1381801123074291E-01 
    8.9574989585156251E-01 
    8.7713210586990298E-01 
    8.5831524387931568E-01 
    8.3925652659906613E-01 
    8.1958958679811733E-01 
    7.9852825117216875E-01 
    7.7441127960908906E-01 
    7.4297142645283232E-01 
    6.8890783693384150E-01 
    5.3703975603413656E-01 
    1.4723797516312204E-01 
    8.7186485227208957E-04 
    9.4013374298607411E-01 
    9.3338325732335847E-01 
    9.2106228368461573E-01 
    9.0560290596666893E-01 
    8.8860954194958086E-01 
    8.7099335630947716E-01 
    8.5311444650967805E-01 
    8.3494171353846391E-01 
    8.1612544509725138E-01 
    7.9591980012086527E-01 
    7.7278312238121794E-01 
    7.4286665294807019E-01 
    6.9266221693324881E-01 
    5.5591126538030455E-01 
    1.7964370654663311E-01 
    1.6470330554833265E-03 
    9.2571699945095820E-01 
    9.2082188106576746E-01 
    9.0997188763226489E-01 
    8.9580499195525609E-01 
    8.8000488736401716E-01 
    8.6351194222708805E-01 
    8.4669903673853431E-01 
    8.2953994789896590E-01 
    8.1168979129946861E-01 
    7.9242694454855267E-01 
    7.7030432533008086E-01 
    7.4184811937593975E-01 
    6.9520404906946709E-01 
    5.7194681299516992E-01 
    2.1100138691151449E-01 
    2.8085964713093358E-03 
    9.0851114131443911E-01 
    9.0582202759530506E-01 
    8.9668501168645187E-01 
    8.8398828730622525E-01 
    8.6953569635802497E-01 
    8.5432176324289677E-01 
    8.3873940047757345E-01 
    8.2276079519120171E-01 
    8.0603092627225981E-01 
    7.8783025257328954E-01 
    7.6676983888632566E-01 
    7.3968177232911803E-01 
    6.9621293945997242E-01 
    5.8482673001249075E-01 
    2.3750503584136698E-01 
    4.1618357267248531E-03 
    8.8751480277164030E-01 
    8.8749120422452743E-01 
    8.8037473775990949E-01 
    8.6937837321883193E-01 
    8.5647583733825949E-01 
    8.4274896113369746E-01 
    8.2862446816851287E-01 
    8.1406635013192818E-01 
    7.9868798148982023E-01 
    7.8173883942215994E-01 
    7.6183279403303250E-01 
    7.3598864016347232E-01 
    6.9511204188677100E-01 
    5.9352089822970944E-01 
    2.5229915221299404E-01 
    4.8953795422305929E-03 
    8.6066525145123984E-01 
    8.6402521375655095E-01 
    8.5936176059050517E-01 
    8.5037373223390478E-01 
    8.3928963263514722E-01 
    8.2733795973443136E-01 
    8.1501303007951620E-01 
    8.0226959511042706E-01 
    7.8865588602317604E-01 
    7.7332960914991344E-01 
    7.5480928730838548E-01 
    7.3006984811065123E-01 
    6.9069884791352509E-01 
    5.9465898791224348E-01 
    2.3812076187794759E-01 
    3.5520481249742761E-03 
    8.2215026023738835E-01 
    8.3046582716857287E-01 
    8.2903770377245245E-01 
    8.2250622095381032E-01 
    8.1358062002356735E-01 
    8.0380235621671570E-01 
    7.9385430293905446E-01 
    7.8373064168635764E-01 
    7.7286959861436488E-01 
    7.6020184177054073E-01 
    7.4391938921755629E-01 
    7.2041367660909161E-01 
    6.8011531079555421E-01 
    5.7406535570556505E-01 
    1.7064376758189576E-01 
    1.0797811606058218E-03 
    7.4571118762056454E-01 
    7.6439665935124024E-01 
    7.6868720974271021E-01 
    7.6564731989183354E-01 
    7.5929443054980084E-01 
    7.5212689850666004E-01 
    7.4564659387341004E-01 
    7.4045317687451262E-01 
    7.3611921090425037E-01 
    7.3101046218985333E-01 
    7.2209604947376904E-01 
    7.0396230264853388E-01 
    6.6254810016447641E-01 
    4.9736749058207008E-01 
    6.3105827671833925E-02 
    3.5636893645980277E-05 
    4.3772143203775588E-01 
    5.3193909959942653E-01 
    5.6040233854694410E-01 
    5.6582565097423854E-01 
    5.6015110393970236E-01 
    5.4884493505939935E-01 
    5.3526649012561700E-01 
    5.2230037566135279E-01 
    5.1311888231225589E-01 
    5.1016523601581931E-01 
    5.0775275695045874E-01 
    4.5745858834786790E-01 
    2.2085354449771760E-01 
    1.4716648186223511E-02 
    1.9741011238189459E-05 
    5.8296980204379373E-15 
