# vtk DataFile Version 2.0
Pressure Field Data 
ASCII 
DATASET UNSTRUCTURED_GRID 

POINTS 289 double 

    0.0000000000000000E+00     0.0000000000000000E+00     0.0000000000000000E+00 
    1.0000000000000000E+00     0.0000000000000000E+00     0.0000000000000000E+00 
    1.0000000000000000E+00     1.0000000000000000E+00     0.0000000000000000E+00 
    0.0000000000000000E+00     1.0000000000000000E+00     0.0000000000000000E+00 
    6.2499999999872928E-02     0.0000000000000000E+00     0.0000000000000000E+00 
    1.2499999999977310E-01     0.0000000000000000E+00     0.0000000000000000E+00 
    1.8749999999959341E-01     0.0000000000000000E+00     0.0000000000000000E+00 
    2.4999999999941089E-01     0.0000000000000000E+00     0.0000000000000000E+00 
    3.1249999999922851E-01     0.0000000000000000E+00     0.0000000000000000E+00 
    3.7499999999904610E-01     0.0000000000000000E+00     0.0000000000000000E+00 
    4.3749999999886358E-01     0.0000000000000000E+00     0.0000000000000000E+00 
    4.9999999999869210E-01     0.0000000000000000E+00     0.0000000000000000E+00 
    5.6249999999884603E-01     0.0000000000000000E+00     0.0000000000000000E+00 
    6.2499999999901090E-01     0.0000000000000000E+00     0.0000000000000000E+00 
    6.8749999999917577E-01     0.0000000000000000E+00     0.0000000000000000E+00 
    7.4999999999934064E-01     0.0000000000000000E+00     0.0000000000000000E+00 
    8.1249999999950551E-01     0.0000000000000000E+00     0.0000000000000000E+00 
    8.7499999999967026E-01     0.0000000000000000E+00     0.0000000000000000E+00 
    9.3749999999983513E-01     0.0000000000000000E+00     0.0000000000000000E+00 
    1.0000000000000000E+00     6.2499999999872928E-02     0.0000000000000000E+00 
    1.0000000000000000E+00     1.2499999999977310E-01     0.0000000000000000E+00 
    1.0000000000000000E+00     1.8749999999959341E-01     0.0000000000000000E+00 
    1.0000000000000000E+00     2.4999999999941089E-01     0.0000000000000000E+00 
    1.0000000000000000E+00     3.1249999999922851E-01     0.0000000000000000E+00 
    1.0000000000000000E+00     3.7499999999904610E-01     0.0000000000000000E+00 
    1.0000000000000000E+00     4.3749999999886358E-01     0.0000000000000000E+00 
    1.0000000000000000E+00     4.9999999999869210E-01     0.0000000000000000E+00 
    1.0000000000000000E+00     5.6249999999884603E-01     0.0000000000000000E+00 
    1.0000000000000000E+00     6.2499999999901090E-01     0.0000000000000000E+00 
    1.0000000000000000E+00     6.8749999999917577E-01     0.0000000000000000E+00 
    1.0000000000000000E+00     7.4999999999934064E-01     0.0000000000000000E+00 
    1.0000000000000000E+00     8.1249999999950551E-01     0.0000000000000000E+00 
    1.0000000000000000E+00     8.7499999999967026E-01     0.0000000000000000E+00 
    1.0000000000000000E+00     9.3749999999983513E-01     0.0000000000000000E+00 
    9.3749999999973976E-01     1.0000000000000000E+00     0.0000000000000000E+00 
    8.7499999999950118E-01     1.0000000000000000E+00     0.0000000000000000E+00 
    8.1249999999991318E-01     1.0000000000000000E+00     0.0000000000000000E+00 
    7.5000000000034706E-01     1.0000000000000000E+00     0.0000000000000000E+00 
    6.8750000000078049E-01     1.0000000000000000E+00     0.0000000000000000E+00 
    6.2500000000121403E-01     1.0000000000000000E+00     0.0000000000000000E+00 
    5.6250000000164757E-01     1.0000000000000000E+00     0.0000000000000000E+00 
    5.0000000000205946E-01     1.0000000000000000E+00     0.0000000000000000E+00 
    4.3750000000182099E-01     1.0000000000000000E+00     0.0000000000000000E+00 
    3.7500000000156092E-01     1.0000000000000000E+00     0.0000000000000000E+00 
    3.1250000000130068E-01     1.0000000000000000E+00     0.0000000000000000E+00 
    2.5000000000104050E-01     1.0000000000000000E+00     0.0000000000000000E+00 
    1.8750000000078040E-01     1.0000000000000000E+00     0.0000000000000000E+00 
    1.2500000000052031E-01     1.0000000000000000E+00     0.0000000000000000E+00 
    6.2500000000260125E-02     1.0000000000000000E+00     0.0000000000000000E+00 
    0.0000000000000000E+00     9.3749999999973976E-01     0.0000000000000000E+00 
    0.0000000000000000E+00     8.7499999999950118E-01     0.0000000000000000E+00 
    0.0000000000000000E+00     8.1249999999991318E-01     0.0000000000000000E+00 
    0.0000000000000000E+00     7.5000000000034706E-01     0.0000000000000000E+00 
    0.0000000000000000E+00     6.8750000000078049E-01     0.0000000000000000E+00 
    0.0000000000000000E+00     6.2500000000121403E-01     0.0000000000000000E+00 
    0.0000000000000000E+00     5.6250000000164757E-01     0.0000000000000000E+00 
    0.0000000000000000E+00     5.0000000000205946E-01     0.0000000000000000E+00 
    0.0000000000000000E+00     4.3750000000182099E-01     0.0000000000000000E+00 
    0.0000000000000000E+00     3.7500000000156092E-01     0.0000000000000000E+00 
    0.0000000000000000E+00     3.1250000000130068E-01     0.0000000000000000E+00 
    0.0000000000000000E+00     2.5000000000104050E-01     0.0000000000000000E+00 
    0.0000000000000000E+00     1.8750000000078040E-01     0.0000000000000000E+00 
    0.0000000000000000E+00     1.2500000000052031E-01     0.0000000000000000E+00 
    0.0000000000000000E+00     6.2500000000260125E-02     0.0000000000000000E+00 
    6.2499999999897131E-02     6.2500000000235922E-02     0.0000000000000000E+00 
    6.2499999999921327E-02     1.2500000000047351E-01     0.0000000000000000E+00 
    6.2499999999945530E-02     1.8750000000070621E-01     0.0000000000000000E+00 
    6.2499999999969733E-02     2.5000000000093858E-01     0.0000000000000000E+00 
    6.2499999999993928E-02     3.1250000000117117E-01     0.0000000000000000E+00 
    6.2500000000018124E-02     3.7500000000140382E-01     0.0000000000000000E+00 
    6.2500000000042327E-02     4.3750000000163619E-01     0.0000000000000000E+00 
    6.2500000000066530E-02     5.0000000000184897E-01     0.0000000000000000E+00 
    6.2500000000090733E-02     5.6250000000147260E-01     0.0000000000000000E+00 
    6.2500000000114922E-02     6.2500000000107636E-01     0.0000000000000000E+00 
    6.2500000000139125E-02     6.8750000000068034E-01     0.0000000000000000E+00 
    6.2500000000163328E-02     7.5000000000028411E-01     0.0000000000000000E+00 
    6.2500000000187531E-02     8.1249999999988787E-01     0.0000000000000000E+00 
    6.2500000000211720E-02     8.7499999999951172E-01     0.0000000000000000E+00 
    6.2500000000235922E-02     9.3749999999974565E-01     0.0000000000000000E+00 
    1.2499999999981980E-01     6.2500000000211733E-02     0.0000000000000000E+00 
    1.2499999999986650E-01     1.2500000000042691E-01     0.0000000000000000E+00 
    1.2499999999991319E-01     1.8750000000063199E-01     0.0000000000000000E+00 
    1.2499999999995989E-01     2.5000000000083678E-01     0.0000000000000000E+00 
    1.2500000000000661E-01     3.1250000000104172E-01     0.0000000000000000E+00 
    1.2500000000005329E-01     3.7500000000124661E-01     0.0000000000000000E+00 
    1.2500000000010000E-01     4.3750000000145117E-01     0.0000000000000000E+00 
    1.2500000000014669E-01     5.0000000000163858E-01     0.0000000000000000E+00 
    1.2500000000019340E-01     5.6250000000129741E-01     0.0000000000000000E+00 
    1.2500000000024011E-01     6.2500000000093847E-01     0.0000000000000000E+00 
    1.2500000000028680E-01     6.8750000000057998E-01     0.0000000000000000E+00 
    1.2500000000033351E-01     7.5000000000022127E-01     0.0000000000000000E+00 
    1.2500000000038020E-01     8.1249999999986211E-01     0.0000000000000000E+00 
    1.2500000000042691E-01     8.7499999999952238E-01     0.0000000000000000E+00 
    1.2500000000047359E-01     9.3749999999975164E-01     0.0000000000000000E+00 
    1.8749999999966760E-01     6.2500000000187531E-02     0.0000000000000000E+00 
    1.8749999999974179E-01     1.2500000000038020E-01     0.0000000000000000E+00 
    1.8749999999981601E-01     1.8750000000055780E-01     0.0000000000000000E+00 
    1.8749999999989009E-01     2.5000000000073502E-01     0.0000000000000000E+00 
    1.8749999999996431E-01     3.1250000000091221E-01     0.0000000000000000E+00 
    1.8750000000003850E-01     3.7500000000108941E-01     0.0000000000000000E+00 
    1.8750000000011269E-01     4.3750000000126649E-01     0.0000000000000000E+00 
    1.8750000000018691E-01     5.0000000000142808E-01     0.0000000000000000E+00 
    1.8750000000026110E-01     5.6250000000112244E-01     0.0000000000000000E+00 
    1.8750000000033529E-01     6.2500000000080080E-01     0.0000000000000000E+00 
    1.8750000000040951E-01     6.8750000000047962E-01     0.0000000000000000E+00 
    1.8750000000048361E-01     7.5000000000015843E-01     0.0000000000000000E+00 
    1.8750000000055780E-01     8.1249999999983680E-01     0.0000000000000000E+00 
    1.8750000000063199E-01     8.7499999999953304E-01     0.0000000000000000E+00 
    1.8750000000070621E-01     9.3749999999975764E-01     0.0000000000000000E+00 
    2.4999999999951281E-01     6.2500000000163314E-02     0.0000000000000000E+00 
    2.4999999999961461E-01     1.2500000000033351E-01     0.0000000000000000E+00 
    2.4999999999971650E-01     1.8750000000048361E-01     0.0000000000000000E+00 
    2.4999999999981831E-01     2.5000000000063310E-01     0.0000000000000000E+00 
    2.4999999999992020E-01     3.1250000000078260E-01     0.0000000000000000E+00 
    2.5000000000002198E-01     3.7500000000093209E-01     0.0000000000000000E+00 
    2.5000000000012390E-01     4.3750000000108180E-01     0.0000000000000000E+00 
    2.5000000000022571E-01     5.0000000000121769E-01     0.0000000000000000E+00 
    2.5000000000032763E-01     5.6250000000094724E-01     0.0000000000000000E+00 
    2.5000000000042938E-01     6.2500000000066314E-01     0.0000000000000000E+00 
    2.5000000000053119E-01     6.8750000000037925E-01     0.0000000000000000E+00 
[...]
CELL_DATA 256 
SCALARS Pressure double 1 
LOOKUP_TABLE default 

    1.8980725257585684E+00 
    1.6653133559675231E+00 
    1.5334178283507258E+00 
    1.4274290365390414E+00 
    1.3295724743566748E+00 
    1.2339473394066354E+00 
    1.1382442523617378E+00 
    1.0416151325883378E+00 
    9.4401378896988575E-01 
    8.4604116269188478E-01 
    7.4901329885018897E-01 
    6.5505764711568415E-01 
    5.6693446008399040E-01 
    4.8967660357074116E-01 
    4.4870619527980055E-01 
    4.3647000368431782E-01 
    1.8266779298730385E+00 
    1.6693374496348556E+00 
    1.5421504265159003E+00 
    1.4364348002321972E+00 
    1.3386577010200160E+00 
    1.2431595094975587E+00 
    1.1475992354154441E+00 
    1.0510805071488141E+00 
    9.5349944173451240E-01 
    8.5537941327628741E-01 
    7.5793736991292737E-01 
    6.6320335623698523E-01 
    5.7384879210777007E-01 
    4.9423996631978934E-01 
    4.4968895141698828E-01 
    4.3598352879174795E-01 
    1.7712593718870997E+00 
    1.6626952949814191E+00 
    1.5473150333527736E+00 
    1.4440685687018433E+00 
    1.3470790365074830E+00 
    1.2519842367537568E+00 
    1.1566816523113672E+00 
    1.0603080086399401E+00 
    9.6272427170957819E-01 
    8.6437128352659087E-01 
    7.6634444576371852E-01 
    6.7055041921627123E-01 
    5.7961512640224500E-01 
    4.9752993083657449E-01 
    4.4903329208712739E-01 
    4.3411825872052795E-01 
    1.7276693565101795E+00 
    1.6508876949966056E+00 
    1.5492032962423063E+00 
    1.4502289806542363E+00 
    1.3547758855012684E+00 
    1.2603973568865920E+00 
    1.1654890550731281E+00 
    1.0693124601934756E+00 
    9.7172287865725759E-01 
    8.7307791936822488E-01 
    7.7432893333449015E-01 
    6.7722300601667140E-01 
    5.8433805187494936E-01 
    4.9952865941603403E-01 
    4.4661699218256323E-01 
    4.3058366747509996E-01 
    1.6929947353339330E+00 
    1.6370892502076568E+00 
    1.5485563379116616E+00 
    1.4549787624674493E+00 
    1.3617333387521569E+00 
    1.2683905194004548E+00 
    1.1740259922785696E+00 
    1.0781122963831302E+00 
    9.8053212051060878E-01 
    8.8156301002853021E-01 
    7.8199020404453423E-01 
    6.8335404637676389E-01 
    5.8813992646171431E-01 
    5.0021966923883132E-01 
    4.4229797673440191E-01 
    4.2508305749641911E-01 
    1.6651940084363157E+00 
    1.6231051209476302E+00 
    1.5461869313205279E+00 
    1.4585050695237525E+00 
    1.3679860536902297E+00 
    1.2759743335899392E+00 
    1.1823051721293243E+00 
    1.0867296625967544E+00 
    9.8919053502597298E-01 
    8.8989185565429130E-01 
    7.8943240119147262E-01 
    6.8908899138768409E-01 
    5.9116802193091922E-01 
    4.9960746648854615E-01 
    4.3593618220117109E-01 
    4.1729533265430663E-01 
    1.6428143347866715E+00 
    1.6099332016789540E+00 
    1.5428234503750833E+00 
    1.4610663566259281E+00 
    1.3736130029415585E+00 
    1.2831794527739759E+00 
    1.1903482447741458E+00 
    1.0951904511744628E+00 
    9.9773766830802990E-01 
    8.9813006441162668E-01 
    7.9676328549891107E-01 
    6.9458784814866492E-01 
    5.9360404924095311E-01 
    4.9774442635548960E-01 
    4.2740689223722567E-01 
    4.0684617280829138E-01 
    1.6248040811458597E+00 
    1.5980984448172257E+00 
    1.5390608017818885E+00 
    1.4629482914100147E+00 
    1.3787272085131952E+00 
    1.2900555960060307E+00 
    1.1981860587134352E+00 
    1.1035242532801235E+00 
    1.0062133642305542E+00 
    9.0634194196015860E-01 
    8.0409203592090817E-01 
    7.0002511016983715E-01 
    5.9567292882379486E-01 
    4.9475867329057516E-01 
    4.1660990813720594E-01 
    3.9326148501321617E-01 
    1.6103879106139962E+00 
    1.5878516702936032E+00 
    1.5353597602672215E+00 
    1.4644337900353666E+00 
    1.3834642190316748E+00 
    1.2966690439601294E+00 
    1.2058583781497318E+00 
    1.1117642209474232E+00 
    1.0146570721783399E+00 
    9.1458866794171956E-01 
    8.1152597570019769E-01 
    7.0558708210762477E-01 
    5.9764919554442697E-01 
    4.9088136115096292E-01 
    4.0347768549033702E-01 
    3.7589194339662740E-01 
    1.5989824491231626E+00 
    1.5792875335515544E+00 
    1.5320654011128914E+00 
    1.4657857180285419E+00 
    1.3879717037408028E+00 
    1.3030993272646745E+00 
    1.2134131712481346E+00 
    1.1199468750580261E+00 
    1.0231072608122922E+00 
    9.2292642305264816E-01 
    8.1916631390174055E-01 
    7.1146601215105798E-01 
    5.9985930300892010E-01 
    4.8647617455475578E-01 
    3.8799609702857268E-01 
    3.5379427909154892E-01 
    1.5901382753100708E+00 
    1.5724141655671229E+00 
    1.5294306172704710E+00 
    1.4672389800344017E+00 
    1.3924012667591363E+00 
    1.3094357553370035E+00 
    1.2209056518607890E+00 
    1.1281119383827156E+00 
    1.0316010644816400E+00 
    9.3140472013431419E-01 
    8.2710320078498711E-01 
    7.1785051958961410E-01 
    6.0267700071011210E-01 
    4.8207554663907853E-01 
    3.7026632045597441E-01 
    3.2555263887870312E-01 
    1.5834988272345094E+00 
    1.5671937647297012E+00 
    1.5276384603601612E+00 
    1.4689987262505899E+00 
    1.3969026765706765E+00 
    1.3157742278733171E+00 
    1.2283972723153893E+00 
    1.1363023158830006E+00 
    1.0401743427419783E+00 
    9.4006530535882848E-01 
    8.3541070943246631E-01 
    7.2491222019349699E-01 
    6.0650708424750654E-01 
    4.7842215230452068E-01 
    3.5066075678708486E-01 
    2.8903891022327149E-01 
    1.5787695034046432E+00 
    1.5635651380432252E+00 
    1.5268205103363546E+00 
    1.4712417347435804E+00 
    1.4016199676289895E+00 
    1.3222144109946965E+00 
    1.2359547831816375E+00 
    1.1445643944266255E+00 
    1.0488624613690702E+00 
    9.4894220577150579E-01 
    8.4414284028419551E-01 
    7.3278952682860865E-01 
    6.1175120591559518E-01 
    4.7649772607847007E-01 
    3.3016486129457090E-01 
    2.4118140372113697E-01 
    1.5756899614530391E+00 
    1.5614520165408197E+00 
    1.5270679986458890E+00 
    1.4741168596722543E+00 
    1.4066871904609315E+00 
    1.3288561816607731E+00 
    1.2436489042228962E+00 
    1.1529487996491217E+00 
    1.0577025268608389E+00 
    9.5806426241574594E-01 
    8.5333279412541219E-01 
    7.4157201622718427E-01 
    6.1875048386875242E-01 
    4.7749095826829308E-01 
    3.1100288927496067E-01 
    1.7790368801137446E-01 
    1.5739963589329085E+00 
    1.5607469863443308E+00 
    1.5284221930233801E+00 
    1.4777321844383775E+00 
    1.4122148605320493E+00 
    1.3357892404537794E+00 
    1.2515489723637718E+00 
    1.1615108433222063E+00 
    1.0667397284624200E+00 
    9.6746621588981152E-01 
    8.6300464609693284E-01 
    7.5129919158362657E-01 
    6.2771661181311433E-01 
    4.8263223575042613E-01 
    2.9737195976411340E-01 
    9.3307110640861390E-02 
    1.5734909621697213E+00 
    1.5613575096404118E+00 
    1.5309039535050086E+00 
    1.4821746617782277E+00 
    1.4183037347378644E+00 
    1.3431033715940068E+00 
    1.2597301734893123E+00 
    1.1703145735646030E+00 
    1.0760281606241369E+00 
    9.7718710920458873E-01 
    8.7317186852301665E-01 
    7.6196423959921589E-01 
    6.3880282931490873E-01 
    4.9354431187001396E-01 
    3.0170016426059276E-01 
    0.0000000000000000E+00 

SCALARS Saturarion double 1 
LOOKUP_TABLE default 

    1.0000000000000000E+00 
    9.8441724613789450E-01 
    9.6409968910947219E-01 
    9.4199357002770667E-01 
    9.1987426818717621E-01 
    8.9821389335890567E-01 
    8.7698361894704879E-01 
    8.5590282290021036E-01 
    8.3445553235374448E-01 
    8.1172004265014830E-01 
    7.8580022121135185E-01 
    7.5178668629113754E-01 
    6.9168559505324767E-01 
    5.1016803306816294E-01 
    9.1810949937096140E-02 
    2.1856268593846613E-04 
    9.9498227121788241E-01 
    9.8203333872433618E-01 
    9.6318512081828334E-01 
    9.4178055054001364E-01 
    9.1998322923885867E-01 
    8.9850258948128114E-01 
    8.7740690826336465E-01 
    8.5646463643537207E-01 
    8.3520062896131264E-01 
    8.1275243202405056E-01 
    7.8735568290920588E-01 
    7.5452351901720671E-01 
    6.9846647854358557E-01 
    5.3946489921221952E-01 
    1.3060851247339145E-01 
    6.5778407512305851E-04 
    9.9080305648234968E-01 
    9.7855451552036088E-01 
    9.6088058746200067E-01 
    9.4036560246154766E-01 
    9.1910588138261284E-01 
    8.9798115568566539E-01 
    8.7716450316864658E-01 
    8.5648203182964755E-01 
    8.3550362309894954E-01 
    8.1342678045649641E-01 
    7.8861273135982579E-01 
    7.5694984890016581E-01 
    7.0435309871078244E-01 
    5.6185971667892476E-01 
    1.6977933060929792E-01 
    1.5464854875274041E-03 
    9.8586589078183373E-01 
    9.7420205421584960E-01 
    9.5746848220510061E-01 
    9.3785487172850068E-01 
    9.1725606602301712E-01 
    8.9661913519347547E-01 
    8.7620132790458749E-01 
    8.5588530187545864E-01 
    8.3528722853370607E-01 
    8.1366505596836813E-01 
    7.8950135068394212E-01 
    7.5902664249903362E-01 
    7.0958865887944156E-01 
    5.8112401279735004E-01 
    2.1237664778456339E-01 
    3.2981406439140928E-03 
    9.7994357563963674E-01 
    9.6893756611931714E-01 
    9.5305807492771577E-01 
    9.3432830307423897E-01 
    9.1446412779460784E-01 
    8.9441685453683573E-01 
    8.7450015793212965E-01 
    8.5464590593206569E-01 
    8.3451498146888592E-01 
    8.1342560131581754E-01 
    7.8997968020568921E-01 
    7.6073056658221272E-01 
    7.1429997093099717E-01 
    5.9821989630311123E-01 
    2.5698062640492941E-01 
    6.5112174160032264E-03 
    9.7286297798232857E-01 
    9.6266688281784185E-01 
    9.4764886964993456E-01 
    9.2980464551954378E-01 
    9.1073033938907333E-01 
    8.9135748196018127E-01 
    8.7203346050703867E-01 
    8.5272954058790285E-01 
    8.3314739069428656E-01 
    8.1266404775792844E-01 
    7.8999976022930007E-01 
    7.6202042050969054E-01 
    7.1851715537871508E-01 
    6.1357328547097056E-01 
    3.0188301593323913E-01 
    1.2053588930114913E-02 
    9.6444947046765683E-01 
    9.5525966064423273E-01 
    9.4117261343849568E-01 
    9.2424619444160405E-01 
    9.0601713765956671E-01 
    8.8739707134125434E-01 
    8.6875288525231109E-01 
    8.5008556289132697E-01 
    8.3113191411791487E-01 
    8.1132460308663268E-01 
    7.8950072891853340E-01 
    7.6283377356271187E-01 
    7.2221085597220791E-01 
    6.2742967603815303E-01 
    3.4539430059367904E-01 
    2.1087878861775763E-02 
    9.5449998103178546E-01 
    9.4654328866146586E-01 
    9.3350243150908829E-01 
    9.1755814417678316E-01 
    9.0024088541532654E-01 
    8.8245467955799139E-01 
    8.6457957108050876E-01 
    8.4663802726174064E-01 
    8.2839513813746146E-01 
    8.0933386782597239E-01 
    7.8840474070699851E-01 
    7.6308604372404698E-01 
    7.2530944385590779E-01 
    6.3992757374765952E-01 
    3.8631308494299937E-01 
    3.5097033885614741E-02 
    9.4275231218876210E-01 
    9.3628318622044571E-01 
    9.2444201138906290E-01 
    9.0957633525376058E-01 
    8.9325599608513251E-01 
    8.7639567466218349E-01 
    8.5938830047057690E-01 
    8.4227136973762717E-01 
    8.2483031324759948E-01 
    8.0659042243338108E-01 
    7.8660880144740486E-01 
    7.6266487365209523E-01 
    7.2770087822602325E-01 
    6.5111618814063388E-01 
    4.2407413773845820E-01 
    5.5833600003544440E-02 
    9.2883663572691944E-01 
    9.2414412803866619E-01 
    9.1369343033430817E-01 
    9.0003652573804283E-01 
    8.8482324902584530E-01 
    8.6900033737053706E-01 
    8.5297793968013857E-01 
    8.3680373246824691E-01 
    8.2027423078433093E-01 
    8.0294556453186905E-01 
    7.8396919582122804E-01 
    7.6141712820765062E-01 
    7.2922182969512095E-01 
    6.6095318751634402E-01 
    4.5864290026641868E-01 
    8.5275739338966927E-02 
    9.1218416007296133E-01 
    9.0961259212367473E-01 
    9.0078661933781290E-01 
    8.8850693835593719E-01 
    8.7454327413019495E-01 
    8.5989907126955079E-01 
    8.4501040227337543E-01 
    8.2993166276212438E-01 
    8.1445903698762445E-01 
    7.9816288938498015E-01 
    7.8026857896928759E-01 
    7.5912102830857875E-01 
    7.2962938857457049E-01 
    6.6928178476300104E-01 
    4.9020310256520860E-01 
    1.2513452708354386E-01 
    8.9182139457943144E-01 
    8.9181954000779073E-01 
    8.8491458147206115E-01 
    8.7422875774921971E-01 
    8.6169929122140188E-01 
    8.4841845417050554E-01 
    8.3486409753873037E-01 
    8.2109614457152069E-01 
    8.0689518074487954E-01 
    7.9182039606465837E-01 
    7.7513684763911661E-01 
    7.5542079078499624E-01 
    7.2853497065127470E-01 
    6.7576475780567813E-01 
    5.1888849735844556E-01 
    1.7570597916569716E-01 
    8.6578316866526950E-01 
    8.6903989623593947E-01 
    8.6446617325535113E-01 
    8.5565870785306508E-01 
    8.4479993457851388E-01 
    8.3312590544120702E-01 
    8.2119207450589715E-01 
    8.0907298864490484E-01 
    7.9651378316058263E-01 
    7.8301764590647083E-01 
    7.6782410368086529E-01 
    7.4965014542801178E-01 
    7.2523249115199095E-01 
    6.7969211773265548E-01 
    5.4452912438881440E-01 
    2.3382758092234152E-01 
    8.2869852107363906E-01 
    8.3667230650846802E-01 
    8.3514534709152310E-01 
    8.2860871070884334E-01 
    8.1968666433802384E-01 
    8.0990367465346724E-01 
    8.0000899018919391E-01 
    7.9015921109782206E-01 
    7.8005765702271079E-01 
    7.6906467357698116E-01 
    7.5623497801137685E-01 
    7.4017954528933672E-01 
    7.1817673073792687E-01 
    6.7933256397144914E-01 
    5.6615946076044887E-01 
    2.9270007022163819E-01 
    7.5703387046378545E-01 
    7.7458560242363905E-01 
    7.7823051529477116E-01 
    7.7474671600323208E-01 
    7.6790921462988249E-01 
    7.6005405780825908E-01 
    7.5263482859768993E-01 
    7.4639724770519789E-01 
    7.4135509239300845E-01 
    7.3668920405261262E-01 
    7.3071235512924992E-01 
    7.2094979198560905E-01 
    7.0390636083682168E-01 
    6.7196869133744130E-01 
    5.8333105095154858E-01 
    3.5809386861194148E-01 
    4.7516778621028311E-01 
    5.5716682327793665E-01 
    5.8310511866110604E-01 
    5.8807413160293753E-01 
    5.8272582804668616E-01 
    5.7199301214409004E-01 
    5.5875936421374262E-01 
    5.4523095164211033E-01 
    5.3374129133235526E-01 
    5.2701296495224592E-01 
    5.2665536754151143E-01 
    5.2746443165171109E-01 
    5.0754742804610531E-01 
    4.3349883687558111E-01 
    3.6011608208698209E-01 
    2.4934792883105211E-01 
