# vtk DataFile Version 2.0
Pressure Field Data 
ASCII 
DATASET UNSTRUCTURED_GRID 

POINTS 289 double 

    0.0000000000000000E+00     0.0000000000000000E+00     0.0000000000000000E+00 
    1.0000000000000000E+00     0.0000000000000000E+00     0.0000000000000000E+00 
    1.0000000000000000E+00     1.0000000000000000E+00     0.0000000000000000E+00 
    0.0000000000000000E+00     1.0000000000000000E+00     0.0000000000000000E+00 
    6.2499999999872928E-02     0.0000000000000000E+00     0.0000000000000000E+00 
    1.2499999999977310E-01     0.0000000000000000E+00     0.0000000000000000E+00 
    1.8749999999959341E-01     0.0000000000000000E+00     0.0000000000000000E+00 
    2.4999999999941089E-01     0.0000000000000000E+00     0.0000000000000000E+00 
    3.1249999999922851E-01     0.0000000000000000E+00     0.0000000000000000E+00 
    3.7499999999904610E-01     0.0000000000000000E+00     0.0000000000000000E+00 
    4.3749999999886358E-01     0.0000000000000000E+00     0.0000000000000000E+00 
    4.9999999999869210E-01     0.0000000000000000E+00     0.0000000000000000E+00 
    5.6249999999884603E-01     0.0000000000000000E+00     0.0000000000000000E+00 
    6.2499999999901090E-01     0.0000000000000000E+00     0.0000000000000000E+00 
    6.8749999999917577E-01     0.0000000000000000E+00     0.0000000000000000E+00 
    7.4999999999934064E-01     0.0000000000000000E+00     0.0000000000000000E+00 
    8.1249999999950551E-01     0.0000000000000000E+00     0.0000000000000000E+00 
    8.7499999999967026E-01     0.0000000000000000E+00     0.0000000000000000E+00 
    9.3749999999983513E-01     0.0000000000000000E+00     0.0000000000000000E+00 
    1.0000000000000000E+00     6.2499999999872928E-02     0.0000000000000000E+00 
    1.0000000000000000E+00     1.2499999999977310E-01     0.0000000000000000E+00 
    1.0000000000000000E+00     1.8749999999959341E-01     0.0000000000000000E+00 
    1.0000000000000000E+00     2.4999999999941089E-01     0.0000000000000000E+00 
    1.0000000000000000E+00     3.1249999999922851E-01     0.0000000000000000E+00 
    1.0000000000000000E+00     3.7499999999904610E-01     0.0000000000000000E+00 
    1.0000000000000000E+00     4.3749999999886358E-01     0.0000000000000000E+00 
    1.0000000000000000E+00     4.9999999999869210E-01     0.0000000000000000E+00 
    1.0000000000000000E+00     5.6249999999884603E-01     0.0000000000000000E+00 
    1.0000000000000000E+00     6.2499999999901090E-01     0.0000000000000000E+00 
    1.0000000000000000E+00     6.8749999999917577E-01     0.0000000000000000E+00 
    1.0000000000000000E+00     7.4999999999934064E-01     0.0000000000000000E+00 
    1.0000000000000000E+00     8.1249999999950551E-01     0.0000000000000000E+00 
    1.0000000000000000E+00     8.7499999999967026E-01     0.0000000000000000E+00 
    1.0000000000000000E+00     9.3749999999983513E-01     0.0000000000000000E+00 
    9.3749999999973976E-01     1.0000000000000000E+00     0.0000000000000000E+00 
    8.7499999999950118E-01     1.0000000000000000E+00     0.0000000000000000E+00 
    8.1249999999991318E-01     1.0000000000000000E+00     0.0000000000000000E+00 
    7.5000000000034706E-01     1.0000000000000000E+00     0.0000000000000000E+00 
    6.8750000000078049E-01     1.0000000000000000E+00     0.0000000000000000E+00 
    6.2500000000121403E-01     1.0000000000000000E+00     0.0000000000000000E+00 
    5.6250000000164757E-01     1.0000000000000000E+00     0.0000000000000000E+00 
    5.0000000000205946E-01     1.0000000000000000E+00     0.0000000000000000E+00 
    4.3750000000182099E-01     1.0000000000000000E+00     0.0000000000000000E+00 
    3.7500000000156092E-01     1.0000000000000000E+00     0.0000000000000000E+00 
    3.1250000000130068E-01     1.0000000000000000E+00     0.0000000000000000E+00 
    2.5000000000104050E-01     1.0000000000000000E+00     0.0000000000000000E+00 
    1.8750000000078040E-01     1.0000000000000000E+00     0.0000000000000000E+00 
    1.2500000000052031E-01     1.0000000000000000E+00     0.0000000000000000E+00 
    6.2500000000260125E-02     1.0000000000000000E+00     0.0000000000000000E+00 
    0.0000000000000000E+00     9.3749999999973976E-01     0.0000000000000000E+00 
    0.0000000000000000E+00     8.7499999999950118E-01     0.0000000000000000E+00 
    0.0000000000000000E+00     8.1249999999991318E-01     0.0000000000000000E+00 
    0.0000000000000000E+00     7.5000000000034706E-01     0.0000000000000000E+00 
    0.0000000000000000E+00     6.8750000000078049E-01     0.0000000000000000E+00 
    0.0000000000000000E+00     6.2500000000121403E-01     0.0000000000000000E+00 
    0.0000000000000000E+00     5.6250000000164757E-01     0.0000000000000000E+00 
    0.0000000000000000E+00     5.0000000000205946E-01     0.0000000000000000E+00 
    0.0000000000000000E+00     4.3750000000182099E-01     0.0000000000000000E+00 
    0.0000000000000000E+00     3.7500000000156092E-01     0.0000000000000000E+00 
    0.0000000000000000E+00     3.1250000000130068E-01     0.0000000000000000E+00 
    0.0000000000000000E+00     2.5000000000104050E-01     0.0000000000000000E+00 
    0.0000000000000000E+00     1.8750000000078040E-01     0.0000000000000000E+00 
    0.0000000000000000E+00     1.2500000000052031E-01     0.0000000000000000E+00 
    0.0000000000000000E+00     6.2500000000260125E-02     0.0000000000000000E+00 
    6.2499999999897131E-02     6.2500000000235922E-02     0.0000000000000000E+00 
    6.2499999999921327E-02     1.2500000000047351E-01     0.0000000000000000E+00 
    6.2499999999945530E-02     1.8750000000070621E-01     0.0000000000000000E+00 
    6.2499999999969733E-02     2.5000000000093858E-01     0.0000000000000000E+00 
    6.2499999999993928E-02     3.1250000000117117E-01     0.0000000000000000E+00 
    6.2500000000018124E-02     3.7500000000140382E-01     0.0000000000000000E+00 
    6.2500000000042327E-02     4.3750000000163619E-01     0.0000000000000000E+00 
    6.2500000000066530E-02     5.0000000000184897E-01     0.0000000000000000E+00 
    6.2500000000090733E-02     5.6250000000147260E-01     0.0000000000000000E+00 
    6.2500000000114922E-02     6.2500000000107636E-01     0.0000000000000000E+00 
    6.2500000000139125E-02     6.8750000000068034E-01     0.0000000000000000E+00 
    6.2500000000163328E-02     7.5000000000028411E-01     0.0000000000000000E+00 
    6.2500000000187531E-02     8.1249999999988787E-01     0.0000000000000000E+00 
    6.2500000000211720E-02     8.7499999999951172E-01     0.0000000000000000E+00 
    6.2500000000235922E-02     9.3749999999974565E-01     0.0000000000000000E+00 
    1.2499999999981980E-01     6.2500000000211733E-02     0.0000000000000000E+00 
    1.2499999999986650E-01     1.2500000000042691E-01     0.0000000000000000E+00 
    1.2499999999991319E-01     1.8750000000063199E-01     0.0000000000000000E+00 
    1.2499999999995989E-01     2.5000000000083678E-01     0.0000000000000000E+00 
    1.2500000000000661E-01     3.1250000000104172E-01     0.0000000000000000E+00 
    1.2500000000005329E-01     3.7500000000124661E-01     0.0000000000000000E+00 
    1.2500000000010000E-01     4.3750000000145117E-01     0.0000000000000000E+00 
    1.2500000000014669E-01     5.0000000000163858E-01     0.0000000000000000E+00 
    1.2500000000019340E-01     5.6250000000129741E-01     0.0000000000000000E+00 
    1.2500000000024011E-01     6.2500000000093847E-01     0.0000000000000000E+00 
    1.2500000000028680E-01     6.8750000000057998E-01     0.0000000000000000E+00 
    1.2500000000033351E-01     7.5000000000022127E-01     0.0000000000000000E+00 
    1.2500000000038020E-01     8.1249999999986211E-01     0.0000000000000000E+00 
    1.2500000000042691E-01     8.7499999999952238E-01     0.0000000000000000E+00 
    1.2500000000047359E-01     9.3749999999975164E-01     0.0000000000000000E+00 
    1.8749999999966760E-01     6.2500000000187531E-02     0.0000000000000000E+00 
    1.8749999999974179E-01     1.2500000000038020E-01     0.0000000000000000E+00 
    1.8749999999981601E-01     1.8750000000055780E-01     0.0000000000000000E+00 
    1.8749999999989009E-01     2.5000000000073502E-01     0.0000000000000000E+00 
    1.8749999999996431E-01     3.1250000000091221E-01     0.0000000000000000E+00 
    1.8750000000003850E-01     3.7500000000108941E-01     0.0000000000000000E+00 
    1.8750000000011269E-01     4.3750000000126649E-01     0.0000000000000000E+00 
    1.8750000000018691E-01     5.0000000000142808E-01     0.0000000000000000E+00 
    1.8750000000026110E-01     5.6250000000112244E-01     0.0000000000000000E+00 
    1.8750000000033529E-01     6.2500000000080080E-01     0.0000000000000000E+00 
    1.8750000000040951E-01     6.8750000000047962E-01     0.0000000000000000E+00 
    1.8750000000048361E-01     7.5000000000015843E-01     0.0000000000000000E+00 
    1.8750000000055780E-01     8.1249999999983680E-01     0.0000000000000000E+00 
    1.8750000000063199E-01     8.7499999999953304E-01     0.0000000000000000E+00 
    1.8750000000070621E-01     9.3749999999975764E-01     0.0000000000000000E+00 
    2.4999999999951281E-01     6.2500000000163314E-02     0.0000000000000000E+00 
    2.4999999999961461E-01     1.2500000000033351E-01     0.0000000000000000E+00 
    2.4999999999971650E-01     1.8750000000048361E-01     0.0000000000000000E+00 
    2.4999999999981831E-01     2.5000000000063310E-01     0.0000000000000000E+00 
    2.4999999999992020E-01     3.1250000000078260E-01     0.0000000000000000E+00 
    2.5000000000002198E-01     3.7500000000093209E-01     0.0000000000000000E+00 
    2.5000000000012390E-01     4.3750000000108180E-01     0.0000000000000000E+00 
    2.5000000000022571E-01     5.0000000000121769E-01     0.0000000000000000E+00 
    2.5000000000032763E-01     5.6250000000094724E-01     0.0000000000000000E+00 
    2.5000000000042938E-01     6.2500000000066314E-01     0.0000000000000000E+00 
    2.5000000000053119E-01     6.8750000000037925E-01     0.0000000000000000E+00 
[...]
CELL_DATA 256 
SCALARS Pressure double 1 
LOOKUP_TABLE default 

    1.4304911256828903E+00 
    1.1949453989636545E+00 
    1.0597545972786719E+00 
    9.5077692314733286E-01 
    8.5050766960032997E-01 
    7.5309413580196771E-01 
    6.5595712227976266E-01 
    5.6020765063890265E-01 
    4.9550993826107831E-01 
    4.4676823876129712E-01 
    3.9953871804842256E-01 
    3.5442810845729988E-01 
    3.1472145746478036E-01 
    2.8369825163814344E-01 
    2.6402656095504345E-01 
    2.5611970352007646E-01 
    1.3579277151616782E+00 
    1.1986025903429367E+00 
    1.0682839434570437E+00 
    9.5957411247475544E-01 
    8.5932872909042091E-01 
    7.6196782386164164E-01 
    6.6481890549005440E-01 
    5.6810887325943249E-01 
    5.0146611314062073E-01 
    4.5173922134586719E-01 
    4.0401265839076422E-01 
    3.5823813809416050E-01 
    3.1754454431789320E-01 
    2.8527785521755206E-01 
    2.6438459395683744E-01 
    2.5576401201009347E-01 
    1.3007902429161722E+00 
    1.1909412723321582E+00 
    1.0727200138695745E+00 
    9.6652102512091198E-01 
    8.6701731470879395E-01 
    7.6997654945547211E-01 
    6.7295360180643182E-01 
    5.7579909597558954E-01 
    5.0779747728567570E-01 
    4.5696817596941791E-01 
    4.0843644757752740E-01 
    3.6173225282989929E-01 
    3.1977563197546238E-01 
    2.8598857056941990E-01 
    2.6371164433666000E-01 
    2.5448431626264351E-01 
    1.2551244993057078E+00 
    1.1776004940697653E+00 
    1.0733809581091909E+00 
    9.7152433704108265E-01 
    8.7351796022278128E-01 
    7.7710086588777516E-01 
    6.8033595322302842E-01 
    5.8326196330131885E-01 
    5.1446596337296935E-01 
    4.6248531932882125E-01 
    4.1287714564531874E-01 
    3.6499715109045833E-01 
    3.2149821328952194E-01 
    2.8586787618694653E-01 
    2.6194618726812041E-01 
    2.5210498562904865E-01 
    1.2180912971106841E+00 
    1.1618486118978724E+00 
    1.0710517001462465E+00 
    9.7466456799550205E-01 
    8.7882451503391268E-01 
    7.8333581247927786E-01 
    6.8693471372257853E-01 
    5.9055339790575101E-01 
    5.2145538554572901E-01 
    4.6829603612398785E-01 
    4.1739227598721951E-01 
    3.6812028391151119E-01 
    3.2280465566732014E-01 
    2.8496217897926868E-01 
    2.5902342816452650E-01 
    2.4844299081386015E-01 
    1.1877102474141048E+00 
    1.1455688363604168E+00 
    1.0665951069106037E+00 
    9.7615409226297045E-01 
    8.8298410107645142E-01 
    7.8869896843636944E-01 
    6.9271538782610542E-01 
    5.9778757308822394E-01 
    5.2877177230907624E-01 
    4.7438617281417483E-01 
    4.2202976995300390E-01 
    3.7119031693047089E-01 
    3.2380010597593284E-01 
    2.8333458029815556E-01 
    2.5487865767604972E-01 
    2.4329529050954482E-01 
    1.1625844821159059E+00 
    1.1298284347748573E+00 
    1.0607919772457064E+00 
    9.7628171920771190E-01 
    8.8609068693317838E-01 
    7.9323417096250037E-01 
    6.9767242648056860E-01 
    6.0510891551071022E-01 
    5.3643775825671125E-01 
    4.8072681740587725E-01 
    4.2682832824318406E-01 
    3.7429714569082106E-01 
    3.2460630895939935E-01 
    2.8107461670778700E-01 
    2.4945317352982613E-01 
    2.3642459078587610E-01 
    1.1417152609506973E+00 
    1.1152163542565836E+00 
    1.0542902102328582E+00 
    9.7536688112200343E-01 
    8.8827269817816434E-01 
    7.9700416084378600E-01 
    7.0191202496175487E-01 
    6.1264531844240444E-01 
    5.4447221048177974E-01 
    4.8728281852135802E-01 
    4.3181796381862664E-01 
    3.7753111293001285E-01 
    3.2536483862277926E-01 
    2.7831055373964642E-01 
    2.4270487973050822E-01 
    2.2754173614465886E-01 
    1.1243770439891865E+00 
    1.1020434418266347E+00 
    1.0476030520298676E+00 
    9.7372844430323491E-01 
    8.8968005706082309E-01 
    8.0005763710985800E-01 
    7.0579244366124505E-01 
    6.2046226210793365E-01 
    5.5283808055693151E-01 
    4.9401959702252463E-01 
    4.3702024757125540E-01 
    3.8098099072685804E-01 
    3.2623886397138302E-01 
    2.7522456919097343E-01 
    2.3462693840426349E-01 
    2.1628243296153660E-01 
    1.1100315890438481E+00 
    1.0904603824827166E+00 
    1.0411261803109293E+00 
    9.7166605673948447E-01 
    8.9047709331926161E-01 
    8.0236805824529889E-01 
    7.0997523515693328E-01 
    6.2857636042576825E-01 
    5.6137718361980726E-01 
    5.0089997862753288E-01 
    4.4244742242716761E-01 
    3.8473026710708652E-01 
    3.2741206538551576E-01 
    2.7207052265583415E-01 
    2.2528001823510813E-01 
    2.0217503123216238E-01 
    1.0982660065383665E+00 
    1.0805252188404175E+00 
    1.0351584060083994E+00 
    9.6944914730823384E-01 
    8.9083827844444052E-01 
    8.0396635510595105E-01 
    7.1513649708631977E-01 
    6.3704665072080768E-01 
    5.6985451769639894E-01 
    5.0787637191554391E-01 
    4.4810037241197004E-01 
    3.8885146128663933E-01 
    3.2908272562850172E-01 
    2.6919254518979657E-01 
    2.1484734206114617E-01 
    1.8459449422132498E-01 
    1.0887421093261749E+00 
    1.0722366790226525E+00 
    1.0299166932341921E+00 
    9.6730976903278632E-01 
    8.9088093080359776E-01 
    8.0576454160180533E-01 
    7.2156206130113354E-01 
    6.4585363754207648E-01 
    5.7811690971865992E-01 
    5.1489363293715484E-01 
    4.5396687518257189E-01 
    3.9339868894415825E-01 
    3.3145049764711154E-01 
    2.6703959854141374E-01 
    2.0372787952312640E-01 
    1.6269512382153084E-01 
    1.0811399022785761E+00 
    1.0655334516145576E+00 
    1.0255329782555638E+00 
    9.6541965896019832E-01 
    8.9081361123765912E-01 
    8.0920100592972943E-01 
    7.2905674518745744E-01 
    6.5464542299248862E-01 
    5.8612569567928752E-01 
    5.2189875758150417E-01 
    4.6002124160178443E-01 
    3.9839943094794811E-01 
    3.3469331801003560E-01 
    2.6616496358193714E-01 
    1.9269334048927514E-01 
    1.3531051589683071E-01 
    1.0750673402541850E+00 
    1.0602317945692696E+00 
    1.0219651135056953E+00 
    9.6404730596273769E-01 
    8.9266268898265289E-01 
    8.1484045762230428E-01 
    7.3713881973282291E-01 
    6.6305834323342072E-01 
    5.9386810236281640E-01 
    5.2884358834391709E-01 
    4.6622510122925565E-01 
    4.0384736953388656E-01 
    3.3893339661882776E-01 
    2.6718759719390561E-01 
    1.8315194439445989E-01 
    1.0080266669259284E-01 
    1.0716723658453053E+00 
    1.0572345436320800E+00 
    1.0209446986945687E+00 
    9.6574453334218091E-01 
    8.9737683005444691E-01 
    8.2183414489112583E-01 
    7.4517907099142555E-01 
    6.7103121190761772E-01 
    6.0132404657807115E-01 
    5.3568234215891386E-01 
    4.7252907764075597E-01 
    4.0969916900651698E-01 
    3.4419641875482243E-01 
    2.7066948411630054E-01 
    1.7759108177410246E-01 
    5.6831616745196004E-02 
    1.0709668218181549E+00 
    1.0576101793477259E+00 
    1.0233154197261527E+00 
    9.7018617783545658E-01 
    9.0362593952416392E-01 
    8.2925606390120543E-01 
    7.5291369081158566E-01 
    6.7861840372969684E-01 
    6.0847512297548290E-01 
    5.4237008337633463E-01 
    4.7887549399172508E-01 
    4.1587835400940970E-01 
    3.5038176201131732E-01 
    2.7682052803347623E-01 
    1.8032010529900763E-01 
    0.0000000000000000E+00 

SCALARS Saturarion double 1 
LOOKUP_TABLE default 

    1.0000000000000000E+00 
    9.6867157130632620E-01 
    9.2890771964823760E-01 
    8.8507556004149202E-01 
    8.3878927314083740E-01 
    7.8771392859964617E-01 
    7.2229681892017883E-01 
    5.8413464955520267E-01 
    1.5763688204315351E-01 
    8.0414030134108876E-04 
    3.2982651463151934E-10 
    4.6297005990671361E-27 
    2.4958470252137786E-70 
   6.8222458601373882E-178 
    0.0000000000000000E+00 
    0.0000000000000000E+00 
    9.8963286337482259E-01 
    9.6403683071069446E-01 
    9.2734792362029750E-01 
    8.8506163156736894E-01 
    8.3962334460410881E-01 
    7.8933845599427499E-01 
    7.2576416355892182E-01 
    5.9819446672739618E-01 
    1.8339594492887695E-01 
    1.2954212811580911E-03 
    1.0783883596707461E-09 
    8.0793463229858966E-26 
    1.8294393718563418E-67 
   1.7497372393917842E-171 
    0.0000000000000000E+00 
    0.0000000000000000E+00 
    9.8124928050543869E-01 
    9.5739896907335165E-01 
    9.2332817023264768E-01 
    8.8305207431422716E-01 
    8.3889700598378025E-01 
    7.8957818132068569E-01 
    7.2715903992762676E-01 
    6.0214008666156515E-01 
    1.9008879997810887E-01 
    1.4281846137471628E-03 
    1.2740673494353478E-09 
    9.2824402826046218E-26 
    1.2083277420482821E-67 
   9.8501444604816098E-173 
    0.0000000000000000E+00 
    0.0000000000000000E+00 
    9.7163739202934440E-01 
    9.4929829827586010E-01 
    9.1743672998041026E-01 
    8.7924142185949761E-01 
    8.3660269737190074E-01 
    7.8835282456805422E-01 
    7.2664569435686743E-01 
    5.9980600824607155E-01 
    1.8376221847006918E-01 
    1.2311181828732235E-03 
    7.3979588881797861E-10 
    1.4033515313459632E-26 
    3.2135228325517325E-70 
   2.6429476395133724E-180 
    0.0000000000000000E+00 
    0.0000000000000000E+00 
    9.6048936885777136E-01 
    9.3977959888486062E-01 
    9.0996739606505805E-01 
    8.7382761145705901E-01 
    8.3281651550261371E-01 
    7.8567739843829165E-01 
    7.2425924768867878E-01 
    5.9032906424140807E-01 
    1.6379930032485271E-01 
    7.9916510777960361E-04 
    1.8733881570224870E-10 
    1.9234900539535375E-28 
    1.2043707672852275E-75 
   1.6018058792667173E-195 
    0.0000000000000000E+00 
    0.0000000000000000E+00 
    9.4764453123963466E-01 
    9.2880142401897603E-01 
    9.0103127341074363E-01 
    8.6692993485523862E-01 
    8.2759519215834509E-01 
    7.8155050998821318E-01 
    7.1986322004772185E-01 
    5.7107594978421372E-01 
    1.3128482603161074E-01 
    3.6459116900252161E-04 
    1.6311289584937633E-11 
    1.1282046733242407E-31 
    6.7991970404546487E-85 
   2.9517423094658160E-221 
    0.0000000000000000E+00 
    0.0000000000000000E+00 
    9.3296867571542252E-01 
    9.1627590891275468E-01 
    8.9063460195422350E-01 
    8.5859011547195774E-01 
    8.2095257348646478E-01 
    7.7592658825127991E-01 
    7.1306779329362857E-01 
    5.3736999765220139E-01 
    9.0259357282093999E-02 
    1.0050071409919649E-04 
    2.9537689250438462E-13 
    6.4940593052614424E-37 
   6.2861975039785151E-100 
   3.6290323392390277E-263 
    0.0000000000000000E+00 
    0.0000000000000000E+00 
    9.1629301395253449E-01 
    9.0205712736201071E-01 
    8.7869732978545889E-01 
    8.4876997237289098E-01 
    8.1284061347443737E-01 
    7.6868658606741269E-01 
    7.0296815125295031E-01 
    4.8108135076075031E-01 
    4.8860810808630022E-02 
    1.2715541006194419E-05 
    4.4600600973824821E-16 
    1.6988507294563039E-45 
   8.7615214504530951E-125 
    0.0000000000000000E+00 
    0.0000000000000000E+00 
    0.0000000000000000E+00 
    8.9734141765680353E-01 
    8.8589869093478302E-01 
    8.6503211307200234E-01 
    8.3732826808516503E-01 
    8.0311617723169704E-01 
    7.5957271320321507E-01 
    6.8734152183783204E-01 
    3.9036140657146307E-01 
    1.7328552770102468E-02 
    3.9089453718378034E-07 
    6.7270362367832649E-21 
    2.2491189571273391E-60 
   3.8746491361344832E-168 
    0.0000000000000000E+00 
    0.0000000000000000E+00 
    0.0000000000000000E+00 
    8.7560026295318871E-01 
    8.6735789476268943E-01 
    8.4927039691208961E-01 
    8.2395333199446485E-01 
    7.9146631082818220E-01 
    7.4801339141665046E-01 
    6.6013962517505176E-01 
    2.6261101560824557E-01 
    2.7347693868849609E-03 
    7.4247704793144628E-10 
    4.3122307656856068E-30 
    1.0038507721704647E-88 
   1.5696457025260283E-256 
    0.0000000000000000E+00 
    0.0000000000000000E+00 
    0.0000000000000000E+00 
    8.5001092830121916E-01 
    8.4555688614003710E-01 
    8.3066265646380699E-01 
    8.0798291432591474E-01 
    7.7723246831055681E-01 
    7.3264233398901879E-01 
    5.9747979414143459E-01 
    1.0797702020695972E-01 
    6.8406556333799052E-05 
    1.0725664527123154E-15 
    2.0132055036855204E-50 
   1.2637605195127954E-156 
    0.0000000000000000E+00 
    0.0000000000000000E+00 
    0.0000000000000000E+00 
    0.0000000000000000E+00 
    8.1803651494197482E-01 
    8.1845895648861544E-01 
    8.0747187542505716E-01 
    7.8786554910960849E-01 
    7.5886833526121789E-01 
    7.0919466237235862E-01 
    4.0319738209764266E-01 
    1.0678726116588974E-02 
    4.2207655493933878E-09 
    4.0766763283034146E-33 
   2.8218592019760989E-113 
    0.0000000000000000E+00 
    0.0000000000000000E+00 
    0.0000000000000000E+00 
    0.0000000000000000E+00 
    0.0000000000000000E+00 
    7.7198242114171278E-01 
    7.8004832443457695E-01 
    7.7467127446615758E-01 
    7.5916160933337717E-01 
    7.3132041583579743E-01 
    6.3633043019955071E-01 
    7.4750028746024502E-02 
    9.6071215272378351E-07 
    3.7243237262019148E-28 
   1.4415113713953074E-105 
    0.0000000000000000E+00 
    0.0000000000000000E+00 
    0.0000000000000000E+00 
    0.0000000000000000E+00 
    0.0000000000000000E+00 
    0.0000000000000000E+00 
    6.7384260109382410E-01 
    7.0276584944267650E-01 
    7.1059289191170050E-01 
    7.0050905011352360E-01 
    6.2943261976993803E-01 
    8.3836613869533436E-02 
    4.6853070373520828E-07 
    2.5446759736355924E-29 
   1.5797748418569190E-109 
    0.0000000000000000E+00 
    0.0000000000000000E+00 
    0.0000000000000000E+00 
    0.0000000000000000E+00 
    0.0000000000000000E+00 
    0.0000000000000000E+00 
    0.0000000000000000E+00 
    2.8390279182273159E-01 
    4.5331268834383009E-01 
    4.4694810334866603E-01 
    2.7644134896051681E-01 
    2.6927020396494569E-02 
    6.8862665763429990E-08 
    2.7733297564722948E-31 
   1.6882762319185778E-114 
    0.0000000000000000E+00 
    0.0000000000000000E+00 
    0.0000000000000000E+00 
    0.0000000000000000E+00 
    0.0000000000000000E+00 
    0.0000000000000000E+00 
    0.0000000000000000E+00 
    0.0000000000000000E+00 
    3.9536269230076929E-03 
    3.0141987407308436E-02 
    1.8060647843831192E-02 
    1.0656246867724614E-03 
    3.3370829849616951E-09 
    6.6180335540968918E-33 
   1.6644441095844834E-117 
    0.0000000000000000E+00 
    0.0000000000000000E+00 
    0.0000000000000000E+00 
    0.0000000000000000E+00 
    0.0000000000000000E+00 
    0.0000000000000000E+00 
    0.0000000000000000E+00 
    0.0000000000000000E+00 
    0.0000000000000000E+00 
