# vtk DataFile Version 2.0
Pressure Field Data 
ASCII 
DATASET UNSTRUCTURED_GRID 

POINTS 289 double 

    0.0000000000000000E+00     0.0000000000000000E+00     0.0000000000000000E+00 
    1.0000000000000000E+00     0.0000000000000000E+00     0.0000000000000000E+00 
    1.0000000000000000E+00     1.0000000000000000E+00     0.0000000000000000E+00 
    0.0000000000000000E+00     1.0000000000000000E+00     0.0000000000000000E+00 
    6.2499999999872928E-02     0.0000000000000000E+00     0.0000000000000000E+00 
    1.2499999999977310E-01     0.0000000000000000E+00     0.0000000000000000E+00 
    1.8749999999959341E-01     0.0000000000000000E+00     0.0000000000000000E+00 
    2.4999999999941089E-01     0.0000000000000000E+00     0.0000000000000000E+00 
    3.1249999999922851E-01     0.0000000000000000E+00     0.0000000000000000E+00 
    3.7499999999904610E-01     0.0000000000000000E+00     0.0000000000000000E+00 
    4.3749999999886358E-01     0.0000000000000000E+00     0.0000000000000000E+00 
    4.9999999999869210E-01     0.0000000000000000E+00     0.0000000000000000E+00 
    5.6249999999884603E-01     0.0000000000000000E+00     0.0000000000000000E+00 
    6.2499999999901090E-01     0.0000000000000000E+00     0.0000000000000000E+00 
    6.8749999999917577E-01     0.0000000000000000E+00     0.0000000000000000E+00 
    7.4999999999934064E-01     0.0000000000000000E+00     0.0000000000000000E+00 
    8.1249999999950551E-01     0.0000000000000000E+00     0.0000000000000000E+00 
    8.7499999999967026E-01     0.0000000000000000E+00     0.0000000000000000E+00 
    9.3749999999983513E-01     0.0000000000000000E+00     0.0000000000000000E+00 
    1.0000000000000000E+00     6.2499999999872928E-02     0.0000000000000000E+00 
    1.0000000000000000E+00     1.2499999999977310E-01     0.0000000000000000E+00 
    1.0000000000000000E+00     1.8749999999959341E-01     0.0000000000000000E+00 
    1.0000000000000000E+00     2.4999999999941089E-01     0.0000000000000000E+00 
    1.0000000000000000E+00     3.1249999999922851E-01     0.0000000000000000E+00 
    1.0000000000000000E+00     3.7499999999904610E-01     0.0000000000000000E+00 
    1.0000000000000000E+00     4.3749999999886358E-01     0.0000000000000000E+00 
    1.0000000000000000E+00     4.9999999999869210E-01     0.0000000000000000E+00 
    1.0000000000000000E+00     5.6249999999884603E-01     0.0000000000000000E+00 
    1.0000000000000000E+00     6.2499999999901090E-01     0.0000000000000000E+00 
    1.0000000000000000E+00     6.8749999999917577E-01     0.0000000000000000E+00 
    1.0000000000000000E+00     7.4999999999934064E-01     0.0000000000000000E+00 
    1.0000000000000000E+00     8.1249999999950551E-01     0.0000000000000000E+00 
    1.0000000000000000E+00     8.7499999999967026E-01     0.0000000000000000E+00 
    1.0000000000000000E+00     9.3749999999983513E-01     0.0000000000000000E+00 
    9.3749999999973976E-01     1.0000000000000000E+00     0.0000000000000000E+00 
    8.7499999999950118E-01     1.0000000000000000E+00     0.0000000000000000E+00 
    8.1249999999991318E-01     1.0000000000000000E+00     0.0000000000000000E+00 
    7.5000000000034706E-01     1.0000000000000000E+00     0.0000000000000000E+00 
    6.8750000000078049E-01     1.0000000000000000E+00     0.0000000000000000E+00 
    6.2500000000121403E-01     1.0000000000000000E+00     0.0000000000000000E+00 
    5.6250000000164757E-01     1.0000000000000000E+00     0.0000000000000000E+00 
    5.0000000000205946E-01     1.0000000000000000E+00     0.0000000000000000E+00 
    4.3750000000182099E-01     1.0000000000000000E+00     0.0000000000000000E+00 
    3.7500000000156092E-01     1.0000000000000000E+00     0.0000000000000000E+00 
    3.1250000000130068E-01     1.0000000000000000E+00     0.0000000000000000E+00 
    2.5000000000104050E-01     1.0000000000000000E+00     0.0000000000000000E+00 
    1.8750000000078040E-01     1.0000000000000000E+00     0.0000000000000000E+00 
    1.2500000000052031E-01     1.0000000000000000E+00     0.0000000000000000E+00 
    6.2500000000260125E-02     1.0000000000000000E+00     0.0000000000000000E+00 
    0.0000000000000000E+00     9.3749999999973976E-01     0.0000000000000000E+00 
    0.0000000000000000E+00     8.7499999999950118E-01     0.0000000000000000E+00 
    0.0000000000000000E+00     8.1249999999991318E-01     0.0000000000000000E+00 
    0.0000000000000000E+00     7.5000000000034706E-01     0.0000000000000000E+00 
    0.0000000000000000E+00     6.8750000000078049E-01     0.0000000000000000E+00 
    0.0000000000000000E+00     6.2500000000121403E-01     0.0000000000000000E+00 
    0.0000000000000000E+00     5.6250000000164757E-01     0.0000000000000000E+00 
    0.0000000000000000E+00     5.0000000000205946E-01     0.0000000000000000E+00 
    0.0000000000000000E+00     4.3750000000182099E-01     0.0000000000000000E+00 
    0.0000000000000000E+00     3.7500000000156092E-01     0.0000000000000000E+00 
    0.0000000000000000E+00     3.1250000000130068E-01     0.0000000000000000E+00 
    0.0000000000000000E+00     2.5000000000104050E-01     0.0000000000000000E+00 
    0.0000000000000000E+00     1.8750000000078040E-01     0.0000000000000000E+00 
    0.0000000000000000E+00     1.2500000000052031E-01     0.0000000000000000E+00 
    0.0000000000000000E+00     6.2500000000260125E-02     0.0000000000000000E+00 
    6.2499999999897131E-02     6.2500000000235922E-02     0.0000000000000000E+00 
    6.2499999999921327E-02     1.2500000000047351E-01     0.0000000000000000E+00 
    6.2499999999945530E-02     1.8750000000070621E-01     0.0000000000000000E+00 
    6.2499999999969733E-02     2.5000000000093858E-01     0.0000000000000000E+00 
    6.2499999999993928E-02     3.1250000000117117E-01     0.0000000000000000E+00 
    6.2500000000018124E-02     3.7500000000140382E-01     0.0000000000000000E+00 
    6.2500000000042327E-02     4.3750000000163619E-01     0.0000000000000000E+00 
    6.2500000000066530E-02     5.0000000000184897E-01     0.0000000000000000E+00 
    6.2500000000090733E-02     5.6250000000147260E-01     0.0000000000000000E+00 
    6.2500000000114922E-02     6.2500000000107636E-01     0.0000000000000000E+00 
    6.2500000000139125E-02     6.8750000000068034E-01     0.0000000000000000E+00 
    6.2500000000163328E-02     7.5000000000028411E-01     0.0000000000000000E+00 
    6.2500000000187531E-02     8.1249999999988787E-01     0.0000000000000000E+00 
    6.2500000000211720E-02     8.7499999999951172E-01     0.0000000000000000E+00 
    6.2500000000235922E-02     9.3749999999974565E-01     0.0000000000000000E+00 
    1.2499999999981980E-01     6.2500000000211733E-02     0.0000000000000000E+00 
    1.2499999999986650E-01     1.2500000000042691E-01     0.0000000000000000E+00 
    1.2499999999991319E-01     1.8750000000063199E-01     0.0000000000000000E+00 
    1.2499999999995989E-01     2.5000000000083678E-01     0.0000000000000000E+00 
    1.2500000000000661E-01     3.1250000000104172E-01     0.0000000000000000E+00 
    1.2500000000005329E-01     3.7500000000124661E-01     0.0000000000000000E+00 
    1.2500000000010000E-01     4.3750000000145117E-01     0.0000000000000000E+00 
    1.2500000000014669E-01     5.0000000000163858E-01     0.0000000000000000E+00 
    1.2500000000019340E-01     5.6250000000129741E-01     0.0000000000000000E+00 
    1.2500000000024011E-01     6.2500000000093847E-01     0.0000000000000000E+00 
    1.2500000000028680E-01     6.8750000000057998E-01     0.0000000000000000E+00 
    1.2500000000033351E-01     7.5000000000022127E-01     0.0000000000000000E+00 
    1.2500000000038020E-01     8.1249999999986211E-01     0.0000000000000000E+00 
    1.2500000000042691E-01     8.7499999999952238E-01     0.0000000000000000E+00 
    1.2500000000047359E-01     9.3749999999975164E-01     0.0000000000000000E+00 
    1.8749999999966760E-01     6.2500000000187531E-02     0.0000000000000000E+00 
    1.8749999999974179E-01     1.2500000000038020E-01     0.0000000000000000E+00 
    1.8749999999981601E-01     1.8750000000055780E-01     0.0000000000000000E+00 
    1.8749999999989009E-01     2.5000000000073502E-01     0.0000000000000000E+00 
    1.8749999999996431E-01     3.1250000000091221E-01     0.0000000000000000E+00 
    1.8750000000003850E-01     3.7500000000108941E-01     0.0000000000000000E+00 
    1.8750000000011269E-01     4.3750000000126649E-01     0.0000000000000000E+00 
    1.8750000000018691E-01     5.0000000000142808E-01     0.0000000000000000E+00 
    1.8750000000026110E-01     5.6250000000112244E-01     0.0000000000000000E+00 
    1.8750000000033529E-01     6.2500000000080080E-01     0.0000000000000000E+00 
    1.8750000000040951E-01     6.8750000000047962E-01     0.0000000000000000E+00 
    1.8750000000048361E-01     7.5000000000015843E-01     0.0000000000000000E+00 
    1.8750000000055780E-01     8.1249999999983680E-01     0.0000000000000000E+00 
    1.8750000000063199E-01     8.7499999999953304E-01     0.0000000000000000E+00 
    1.8750000000070621E-01     9.3749999999975764E-01     0.0000000000000000E+00 
    2.4999999999951281E-01     6.2500000000163314E-02     0.0000000000000000E+00 
    2.4999999999961461E-01     1.2500000000033351E-01     0.0000000000000000E+00 
    2.4999999999971650E-01     1.8750000000048361E-01     0.0000000000000000E+00 
    2.4999999999981831E-01     2.5000000000063310E-01     0.0000000000000000E+00 
    2.4999999999992020E-01     3.1250000000078260E-01     0.0000000000000000E+00 
    2.5000000000002198E-01     3.7500000000093209E-01     0.0000000000000000E+00 
    2.5000000000012390E-01     4.3750000000108180E-01     0.0000000000000000E+00 
    2.5000000000022571E-01     5.0000000000121769E-01     0.0000000000000000E+00 
    2.5000000000032763E-01     5.6250000000094724E-01     0.0000000000000000E+00 
    2.5000000000042938E-01     6.2500000000066314E-01     0.0000000000000000E+00 
    2.5000000000053119E-01     6.8750000000037925E-01     0.0000000000000000E+00 
[...]
CELL_DATA 256 
SCALARS Pressure double 1 
LOOKUP_TABLE default 

    1.7427926846276585E+00 
    1.5097436499562060E+00 
    1.3774113727318591E+00 
    1.2708780262291686E+00 
    1.1723861955009440E+00 
    1.0760543715542776E+00 
    9.7960116453473622E-01 
    8.8222159121305999E-01 
    7.8392829136079578E-01 
    6.8537445717194034E-01 
    5.8784332969138331E-01 
    4.9317863932733486E-01 
    4.0362451200883065E-01 
    3.3233222187851991E-01 
    3.0071055950975867E-01 
    2.9075040057972762E-01 
    1.6713706086611966E+00 
    1.5137846144484919E+00 
    1.3861794756988395E+00 
    1.2799304692605036E+00 
    1.1815257394246779E+00 
    1.0853246729630566E+00 
    9.8901259622165449E-01 
    8.9173416755642754E-01 
    7.9344436694857023E-01 
    6.9472659628165734E-01 
    5.9678767553403933E-01 
    5.0140044021740626E-01 
    4.1057033189069475E-01 
    3.3597268820822124E-01 
    3.0137729528483159E-01 
    2.9031757178499756E-01 
    1.6159137216058546E+00 
    1.5071405465536518E+00 
    1.3913654254660583E+00 
    1.2875985014793392E+00 
    1.1899889960658081E+00 
    1.0941938463264558E+00 
    9.9813475974000077E-01 
    9.0098660652233120E-01 
    8.0266876781957852E-01 
    7.0369155695746277E-01 
    6.0516972226163745E-01 
    5.0879882016795053E-01 
    4.1650157076562033E-01 
    3.3832219299804089E-01 
    3.0064992591262857E-01 
    2.8872003709180422E-01 
    1.5722807957881766E+00 
    1.4953180910636765E+00 
    1.3932622562443804E+00 
    1.2937815984947583E+00 
    1.1977163615728983E+00 
    1.1026391289374957E+00 
    1.0069672413207453E+00 
    9.0999636591419697E-01 
    8.1163844213035707E-01 
    7.1233016108032532E-01 
    6.1307765491806487E-01 
    5.1548176505931598E-01 
    4.2143908625370563E-01 
    3.3947743851287426E-01 
    2.9842900096481140E-01 
    2.8571329820568697E-01 
    1.5375602912918158E+00 
    1.4814954815788774E+00 
    1.3926130932005627E+00 
    1.2985437493744683E+00 
    1.2046941846177028E+00 
    1.1106537780426171E+00 
    1.0155168497834519E+00 
    9.1878487422235966E-01 
    8.2039315551853853E-01 
    7.2070618969747924E-01 
    6.2060359103950347E-01 
    5.2156381402164043E-01 
    4.2545777040201993E-01 
    3.3951171792634999E-01 
    2.9460203532130552E-01 
    2.8104837350811340E-01 
    1.5097119583310632E+00 
    1.4674806595519942E+00 
    1.3902328727777780E+00 
    1.3020736745307067E+00 
    1.2109586042405842E+00 
    1.1182501862184351E+00 
    1.0237987658370857E+00 
    9.2737769320160579E-01 
    8.2897519098880967E-01 
    7.2888608548467582E-01 
    6.2784424467910960E-01 
    5.2716927571123540E-01 
    4.2866962673464803E-01 
    3.3849332661662074E-01 
    2.8904979535567193E-01 
    2.7445808824469564E-01 
    1.4872841201154676E+00 
    1.4542738382312943E+00 
    1.3868521511067009E+00 
    1.3046315955026573E+00 
    1.2165902520503720E+00 
    1.1254609265027551E+00 
    1.0318372854271418E+00 
    9.3580456621405850E-01 
    8.3742890601881570E-01 
    7.3693833146153731E-01 
    6.3490075156984660E-01 
    5.3243364700278739E-01 
    4.3121920798636232E-01 
    3.3649878827663610E-01 
    2.8165495923063055E-01 
    2.6564366839672432E-01 
    1.4692262784883194E+00 
    1.4424020220878326E+00 
    1.3830679914762276E+00 
    1.3065050806989047E+00 
    1.2217039450810387E+00 
    1.1323377315344703E+00 
    1.0396660141859859E+00 
    9.4409932250521489E-01 
    8.4580017488703130E-01 
    7.4493257178383487E-01 
    6.4187779480404006E-01 
    5.3750355420934992E-01 
    4.3328286935298899E-01 
    3.3363038009540513E-01 
    2.7232246896044049E-01 
    2.5426095597549209E-01 
    1.4547641907184372E+00 
    1.4321179170175824E+00 
    1.3793432906524059E+00 
    1.3079790391311161E+00 
    1.2264371310530608E+00 
    1.1389489486045989E+00 
    1.0473275040012358E+00 
    9.5229962306507621E-01 
    8.5413573271069498E-01 
    7.5293853208686889E-01 
    6.4888214741330030E-01 
    5.4253514607075304E-01 
    4.3507018980486717E-01 
    3.3004065981424852E-01 
    2.6101758974385803E-01 
    2.3990479457792874E-01 
    1.4433154870493721E+00 
    1.4235179448457500E+00 
    1.3760252119596259E+00 
    1.3093183967655313E+00 
    1.2309394623238328E+00 
    1.1453761958633273E+00 
    1.0548724507205243E+00 
    9.6044657974392533E-01 
    8.6248245317131256E-01 
    7.6102480866442390E-01 
    6.5602080104211413E-01 
    5.4769049245170975E-01 
    4.3682469814507979E-01 
    3.2596307855051615E-01 
    2.4782846182014992E-01 
    2.2208950049980675E-01 
    1.4344315738211333E+00 
    1.4166118890483801E+00 
    1.3733686960739924E+00 
    1.3107601695573770E+00 
    1.2353646027707892E+00 
    1.1517108769610918E+00 
    1.0623586524859270E+00 
    9.6858433547634015E-01 
    8.7088662469888101E-01 
    7.6925761509344304E-01 
    6.6339902366514270E-01 
    5.5313152105221286E-01 
    4.3882000722019693E-01 
    3.2174933068161871E-01 
    2.3306706697722585E-01 
    2.0022482808323883E-01 
    1.4277563851432753E+00 
    1.4113634352859585E+00 
    1.3715587621712255E+00 
    1.3125116419938652E+00 
    1.2398644584212160E+00 
    1.1580510086020459E+00 
    1.0698499566496098E+00 
    9.7675976284302701E-01 
    8.7939335545729980E-01 
    7.7769958967896524E-01 
    6.7111898230014555E-01 
    5.5901138041415332E-01 
    4.4134529549548929E-01 
    3.1792093701436791E-01 
    2.1744298608963478E-01 
    1.7360060057334414E-01 
    1.4229951594293515E+00 
    1.4077125139113325E+00 
    1.3707287201417893E+00 
    1.3147516509054662E+00 
    1.2445852646431383E+00 
    1.1644984596323755E+00 
    1.0774153731082530E+00 
    9.8502255403319694E-01 
    8.8804643696549368E-01 
    7.8640885413749817E-01 
    6.7928003237488022E-01 
    5.6546427249685294E-01 
    4.4466641108759430E-01 
    3.1529243519631200E-01 
    2.0239255526770353E-01 
    1.4142091303615245E-01 
    1.4198858391442186E+00 
    1.4055828368532903E+00 
    1.3709706348935102E+00 
    1.3176305918558726E+00 
    1.2496631729897274E+00 
    1.1711555240929952E+00 
    1.0851280747212304E+00 
    9.9342616947702522E-01 
    8.9688973398594907E-01 
    7.9543924923034171E-01 
    6.8798292757968216E-01 
    5.7259858891101978E-01 
    4.4893209704545578E-01 
    3.1520942148895809E-01 
    1.9052468669524736E-01 
    1.0285132245465214E-01 
    1.4181591347583062E+00 
    1.4048632655238744E+00 
    1.3723233757878144E+00 
    1.3212559509680284E+00 
    1.2552099202982432E+00 
    1.1781147241481944E+00 
    1.0930613612930900E+00 
    1.0020305488957695E+00 
    9.0597523138435043E-01 
    8.0484917910367182E-01 
    6.9734907540409929E-01 
    5.8051962714425265E-01 
    4.5408063878857824E-01 
    3.1950858558608358E-01 
    1.8559917302280166E-01 
    5.6719328398999326E-02 
    1.4176489669820367E+00 
    1.4054825485557489E+00 
    1.3748216336896284E+00 
    1.3257253743162969E+00 
    1.2613357542578012E+00 
    1.1854752038181249E+00 
    1.1012997863304688E+00 
    1.0109079823825351E+00 
    9.1536306451615401E-01 
    8.1469390583080403E-01 
    7.0754197730538870E-01 
    5.9015555110716278E-01 
    4.6274384728161899E-01 
    3.2946796129978423E-01 
    1.9174174873511490E-01 
    0.0000000000000000E+00 

SCALARS Saturarion double 1 
LOOKUP_TABLE default 

    1.0000000000000000E+00 
    9.8382599789621017E-01 
    9.6277310801245142E-01 
    9.3987736673557576E-01 
    9.1695415445132533E-01 
    8.9446790271525345E-01 
    8.7235992822537700E-01 
    8.5029370805192439E-01 
    8.2764373738250974E-01 
    8.0324665009065233E-01 
    7.7456598833057022E-01 
    7.3447436815072265E-01 
    6.5333360741415403E-01 
    3.6911327108193881E-01 
    1.9232459273797541E-02 
    2.5237153609442595E-06 
    9.9478536590760547E-01 
    9.8135457652854685E-01 
    9.6182932667786802E-01 
    9.3966510377716483E-01 
    9.1708082025792204E-01 
    8.9478698976106008E-01 
    8.7282626922887796E-01 
    8.5091497000346228E-01 
    8.2847491445448906E-01 
    8.0441812283376435E-01 
    7.7639490804815181E-01 
    7.3796023119392884E-01 
    6.6369688395906656E-01 
    4.1624058199313962E-01 
    3.4325270895201418E-02 
    1.2325951960702864E-05 
    9.9044693115685967E-01 
    9.7775065410855799E-01 
    9.5945080563853913E-01 
    9.3821686951289185E-01 
    9.1619834496102737E-01 
    8.9428193322172089E-01 
    8.7261920655874425E-01 
    8.5098755763651057E-01 
    8.2885904991891501E-01 
    8.0521867193008234E-01 
    7.7788707367033560E-01 
    7.4099207703411640E-01 
    6.7211658836912447E-01 
    4.5177377962946674E-01 
    5.2611693259763198E-02 
    4.1009464923788948E-05 
    9.8532757271742344E-01 
    9.7324615224099598E-01 
    9.5593123875798780E-01 
    9.3564252859055963E-01 
    9.1432033190545070E-01 
    8.9292034650326124E-01 
    8.7168115206891261E-01 
    8.5043940243433402E-01 
    8.2871746766581200E-01 
    8.0557120824411654E-01 
    7.7897978623796993E-01 
    7.4357410191295448E-01 
    6.7937613330063995E-01 
    4.8276635872259177E-01 
    7.6123292202346815E-02 
    1.1836335090336515E-04 
    9.7919493819110703E-01 
    9.6780421253333238E-01 
    9.5138602023976282E-01 
    9.3202624685411362E-01 
    9.1147894375963034E-01 
    8.9070302358694942E-01 
    8.6999480776024452E-01 
    8.4924198070054679E-01 
    8.2801452823241861E-01 
    8.0543685214328464E-01 
    7.7963899337469877E-01 
    7.4571359234602552E-01 
    6.8580648867838112E-01 
    5.0996050317624186E-01 
    1.0473103836409092E-01 
    3.0333080315988976E-04 
    9.7187411426604309E-01 
    9.6133099921168974E-01 
    9.4581777045026039E-01 
    9.2739002119107694E-01 
    9.0767660353092194E-01 
    8.8761446572817992E-01 
    8.6753365972556551E-01 
    8.4736211962552299E-01 
    8.2671237893410443E-01 
    8.0477388507004799E-01 
    7.7982159963322106E-01 
    7.4738365963413089E-01 
    6.9151276007359652E-01 
    5.3389249037185216E-01 
    1.3800113058717367E-01 
    7.0498260901463998E-04 
    9.6319003695804550E-01 
    9.5369623919522561E-01 
    9.3915991932678355E-01 
    9.2169851535292147E-01 
    9.0287786175066853E-01 
    8.8361252981799088E-01 
    8.6425112002001125E-01 
    8.4475116269283179E-01 
    8.2476089189667134E-01 
    8.0352948595209950E-01 
    7.7947029034655768E-01 
    7.4852766077656530E-01 
    6.9649601510125980E-01 
    5.5501251632053383E-01 
    1.7506504899356964E-01 
    1.5074945169407743E-03 
    9.5293974243437685E-01 
    9.4472718825375979E-01 
    9.3128640504317706E-01 
    9.1485856072602834E-01 
    8.9700103134935993E-01 
    8.7861841994210255E-01 
    8.6007080047996354E-01 
    8.4133609156156930E-01 
    8.2209010236714608E-01 
    8.0163416521705533E-01 
    7.7851098112660988E-01 
    7.4906336282972974E-01 
    7.0069701971814602E-01 
    5.7365323822168079E-01 
    2.1469184551134715E-01 
    2.9992479688559248E-03 
    9.4086090187937499E-01 
    9.3418860613502863E-01 
    9.2200086693115535E-01 
    9.0670686345321494E-01 
    8.8990218787355191E-01 
    8.7249995063418395E-01 
    8.5487079304362512E-01 
    8.3700550525174311E-01 
    8.1859814125694774E-01 
    7.9899179777202423E-01 
    7.7684532437170828E-01 
    7.4887914469828520E-01 
    7.0400462449493206E-01 
    5.9001467822844911E-01 
    2.5505336884694113E-01 
    5.5556361093196055E-03 
    9.2658202866205297E-01 
    9.2174320879810645E-01 
    9.1100389632243450E-01 
    8.9697882529255091E-01 
    8.8134313751351256E-01 
    8.6504004511410948E-01 
    8.4845436741031055E-01 
    8.3158356382403453E-01 
    8.1412900577580483E-01 
    7.9546137596168609E-01 
    7.7433610767523409E-01 
    7.4782141330344476E-01 
    7.0624279448323435E-01 
    6.0414096399607176E-01 
    2.9417033200734199E-01 
    9.5614380109937495E-03 
    9.0952815364309814E-01 
    9.0687169396416323E-01 
    8.9782061945023584E-01 
    8.8523953120142451E-01 
    8.7092372449273758E-01 
    8.5587140516891014E-01 
    8.4048928088624919E-01 
    8.2477593419726625E-01 
    8.0842625647766486E-01 
    7.9081870003671284E-01 
    7.7077615865204763E-01 
    7.4566652213213214E-01 
    7.0713234420421545E-01 
    6.1586335118215974E-01 
    3.2982089253257890E-01 
    1.5027273202968683E-02 
    8.8870588254131611E-01 
    8.8868820320144537E-01 
    8.8162968009082610E-01 
    8.7071881636189252E-01 
    8.5792018558157657E-01 
    8.4431988867188579E-01 
    8.3036099918846717E-01 
    8.1603829228050317E-01 
    8.0102061935583080E-01 
    7.8466416453470178E-01 
    7.6581421801084137E-01 
    7.4205529038984941E-01 
    7.0619738360321227E-01 
    6.2463591642781136E-01 
    3.5923769777864945E-01 
    2.0651251151621322E-02 
    8.6208064187191014E-01 
    8.6541123164761236E-01 
    8.6077114832492863E-01 
    8.5183146493879713E-01 
    8.4080882238055887E-01 
    8.2893541653000102E-01 
    8.1672532226038630E-01 
    8.0417169879532113E-01 
    7.9088792834034216E-01 
    7.7615267812914057E-01 
    7.5875144106806991E-01 
    7.3632613268916491E-01 
    7.0251181362172233E-01 
    6.2894642875835938E-01 
    3.7416201501811930E-01 
    2.1511710113445191E-02 
    8.2396820096206169E-01 
    8.3218575734247024E-01 
    8.3072635706034681E-01 
    8.2418875634107036E-01 
    8.1525898382735262E-01 
    8.0547563121205568E-01 
    7.9554424036527027E-01 
    7.8551158003252108E-01 
    7.7490263152779881E-01 
    7.6279840273665389E-01 
    7.4772369254779114E-01 
    7.2699490984964044E-01 
    6.9402086474834324E-01 
    6.2363274352077658E-01 
    3.4107819190181271E-01 
    1.2405742136403008E-02 
    7.4890466454881788E-01 
    7.6725815441536094E-01 
    7.7135319718180095E-01 
    7.6817264733745194E-01 
    7.6166357921427452E-01 
    7.5427861930087947E-01 
    7.4751081278225817E-01 
    7.4201487869983085E-01 
    7.3751514617404346E-01 
    7.3265524798407300E-01 
    7.2490075591184244E-01 
    7.1012093259102405E-01 
    6.7952552678664613E-01 
    6.0224579655946275E-01 
    2.1999978040631016E-01 
    1.8672781718753087E-03 
    4.4823901950294848E-01 
    5.3898548783983957E-01 
    5.6677615885519195E-01 
    5.7209163095949511E-01 
    5.6651528053319344E-01 
    5.5535941425800306E-01 
    5.4183298742933794E-01 
    5.2860347996040158E-01 
    5.1862388205274124E-01 
    5.1472595825178846E-01 
    5.1509496387476716E-01 
    4.9524493688998356E-01 
    3.4980250161352233E-01 
    7.3393956835177868E-02 
    1.0780894198631572E-03 
    2.3924821089742841E-09 
