# vtk DataFile Version 2.0
Pressure Field Data 
ASCII 
DATASET UNSTRUCTURED_GRID 

POINTS 289 double 

    0.0000000000000000E+00     0.0000000000000000E+00     0.0000000000000000E+00 
    1.0000000000000000E+00     0.0000000000000000E+00     0.0000000000000000E+00 
    1.0000000000000000E+00     1.0000000000000000E+00     0.0000000000000000E+00 
    0.0000000000000000E+00     1.0000000000000000E+00     0.0000000000000000E+00 
    6.2499999999872928E-02     0.0000000000000000E+00     0.0000000000000000E+00 
    1.2499999999977310E-01     0.0000000000000000E+00     0.0000000000000000E+00 
    1.8749999999959341E-01     0.0000000000000000E+00     0.0000000000000000E+00 
    2.4999999999941089E-01     0.0000000000000000E+00     0.0000000000000000E+00 
    3.1249999999922851E-01     0.0000000000000000E+00     0.0000000000000000E+00 
    3.7499999999904610E-01     0.0000000000000000E+00     0.0000000000000000E+00 
    4.3749999999886358E-01     0.0000000000000000E+00     0.0000000000000000E+00 
    4.9999999999869210E-01     0.0000000000000000E+00     0.0000000000000000E+00 
    5.6249999999884603E-01     0.0000000000000000E+00     0.0000000000000000E+00 
    6.2499999999901090E-01     0.0000000000000000E+00     0.0000000000000000E+00 
    6.8749999999917577E-01     0.0000000000000000E+00     0.0000000000000000E+00 
    7.4999999999934064E-01     0.0000000000000000E+00     0.0000000000000000E+00 
    8.1249999999950551E-01     0.0000000000000000E+00     0.0000000000000000E+00 
    8.7499999999967026E-01     0.0000000000000000E+00     0.0000000000000000E+00 
    9.3749999999983513E-01     0.0000000000000000E+00     0.0000000000000000E+00 
    1.0000000000000000E+00     6.2499999999872928E-02     0.0000000000000000E+00 
    1.0000000000000000E+00     1.2499999999977310E-01     0.0000000000000000E+00 
    1.0000000000000000E+00     1.8749999999959341E-01     0.0000000000000000E+00 
    1.0000000000000000E+00     2.4999999999941089E-01     0.0000000000000000E+00 
    1.0000000000000000E+00     3.1249999999922851E-01     0.0000000000000000E+00 
    1.0000000000000000E+00     3.7499999999904610E-01     0.0000000000000000E+00 
    1.0000000000000000E+00     4.3749999999886358E-01     0.0000000000000000E+00 
    1.0000000000000000E+00     4.9999999999869210E-01     0.0000000000000000E+00 
    1.0000000000000000E+00     5.6249999999884603E-01     0.0000000000000000E+00 
    1.0000000000000000E+00     6.2499999999901090E-01     0.0000000000000000E+00 
    1.0000000000000000E+00     6.8749999999917577E-01     0.0000000000000000E+00 
    1.0000000000000000E+00     7.4999999999934064E-01     0.0000000000000000E+00 
    1.0000000000000000E+00     8.1249999999950551E-01     0.0000000000000000E+00 
    1.0000000000000000E+00     8.7499999999967026E-01     0.0000000000000000E+00 
    1.0000000000000000E+00     9.3749999999983513E-01     0.0000000000000000E+00 
    9.3749999999973976E-01     1.0000000000000000E+00     0.0000000000000000E+00 
    8.7499999999950118E-01     1.0000000000000000E+00     0.0000000000000000E+00 
    8.1249999999991318E-01     1.0000000000000000E+00     0.0000000000000000E+00 
    7.5000000000034706E-01     1.0000000000000000E+00     0.0000000000000000E+00 
    6.8750000000078049E-01     1.0000000000000000E+00     0.0000000000000000E+00 
    6.2500000000121403E-01     1.0000000000000000E+00     0.0000000000000000E+00 
    5.6250000000164757E-01     1.0000000000000000E+00     0.0000000000000000E+00 
    5.0000000000205946E-01     1.0000000000000000E+00     0.0000000000000000E+00 
    4.3750000000182099E-01     1.0000000000000000E+00     0.0000000000000000E+00 
    3.7500000000156092E-01     1.0000000000000000E+00     0.0000000000000000E+00 
    3.1250000000130068E-01     1.0000000000000000E+00     0.0000000000000000E+00 
    2.5000000000104050E-01     1.0000000000000000E+00     0.0000000000000000E+00 
    1.8750000000078040E-01     1.0000000000000000E+00     0.0000000000000000E+00 
    1.2500000000052031E-01     1.0000000000000000E+00     0.0000000000000000E+00 
    6.2500000000260125E-02     1.0000000000000000E+00     0.0000000000000000E+00 
    0.0000000000000000E+00     9.3749999999973976E-01     0.0000000000000000E+00 
    0.0000000000000000E+00     8.7499999999950118E-01     0.0000000000000000E+00 
    0.0000000000000000E+00     8.1249999999991318E-01     0.0000000000000000E+00 
    0.0000000000000000E+00     7.5000000000034706E-01     0.0000000000000000E+00 
    0.0000000000000000E+00     6.8750000000078049E-01     0.0000000000000000E+00 
    0.0000000000000000E+00     6.2500000000121403E-01     0.0000000000000000E+00 
    0.0000000000000000E+00     5.6250000000164757E-01     0.0000000000000000E+00 
    0.0000000000000000E+00     5.0000000000205946E-01     0.0000000000000000E+00 
    0.0000000000000000E+00     4.3750000000182099E-01     0.0000000000000000E+00 
    0.0000000000000000E+00     3.7500000000156092E-01     0.0000000000000000E+00 
    0.0000000000000000E+00     3.1250000000130068E-01     0.0000000000000000E+00 
    0.0000000000000000E+00     2.5000000000104050E-01     0.0000000000000000E+00 
    0.0000000000000000E+00     1.8750000000078040E-01     0.0000000000000000E+00 
    0.0000000000000000E+00     1.2500000000052031E-01     0.0000000000000000E+00 
    0.0000000000000000E+00     6.2500000000260125E-02     0.0000000000000000E+00 
    6.2499999999897131E-02     6.2500000000235922E-02     0.0000000000000000E+00 
    6.2499999999921327E-02     1.2500000000047351E-01     0.0000000000000000E+00 
    6.2499999999945530E-02     1.8750000000070621E-01     0.0000000000000000E+00 
    6.2499999999969733E-02     2.5000000000093858E-01     0.0000000000000000E+00 
    6.2499999999993928E-02     3.1250000000117117E-01     0.0000000000000000E+00 
    6.2500000000018124E-02     3.7500000000140382E-01     0.0000000000000000E+00 
    6.2500000000042327E-02     4.3750000000163619E-01     0.0000000000000000E+00 
    6.2500000000066530E-02     5.0000000000184897E-01     0.0000000000000000E+00 
    6.2500000000090733E-02     5.6250000000147260E-01     0.0000000000000000E+00 
    6.2500000000114922E-02     6.2500000000107636E-01     0.0000000000000000E+00 
    6.2500000000139125E-02     6.8750000000068034E-01     0.0000000000000000E+00 
    6.2500000000163328E-02     7.5000000000028411E-01     0.0000000000000000E+00 
    6.2500000000187531E-02     8.1249999999988787E-01     0.0000000000000000E+00 
    6.2500000000211720E-02     8.7499999999951172E-01     0.0000000000000000E+00 
    6.2500000000235922E-02     9.3749999999974565E-01     0.0000000000000000E+00 
    1.2499999999981980E-01     6.2500000000211733E-02     0.0000000000000000E+00 
    1.2499999999986650E-01     1.2500000000042691E-01     0.0000000000000000E+00 
    1.2499999999991319E-01     1.8750000000063199E-01     0.0000000000000000E+00 
    1.2499999999995989E-01     2.5000000000083678E-01     0.0000000000000000E+00 
    1.2500000000000661E-01     3.1250000000104172E-01     0.0000000000000000E+00 
    1.2500000000005329E-01     3.7500000000124661E-01     0.0000000000000000E+00 
    1.2500000000010000E-01     4.3750000000145117E-01     0.0000000000000000E+00 
    1.2500000000014669E-01     5.0000000000163858E-01     0.0000000000000000E+00 
    1.2500000000019340E-01     5.6250000000129741E-01     0.0000000000000000E+00 
    1.2500000000024011E-01     6.2500000000093847E-01     0.0000000000000000E+00 
    1.2500000000028680E-01     6.8750000000057998E-01     0.0000000000000000E+00 
    1.2500000000033351E-01     7.5000000000022127E-01     0.0000000000000000E+00 
    1.2500000000038020E-01     8.1249999999986211E-01     0.0000000000000000E+00 
    1.2500000000042691E-01     8.7499999999952238E-01     0.0000000000000000E+00 
    1.2500000000047359E-01     9.3749999999975164E-01     0.0000000000000000E+00 
    1.8749999999966760E-01     6.2500000000187531E-02     0.0000000000000000E+00 
    1.8749999999974179E-01     1.2500000000038020E-01     0.0000000000000000E+00 
    1.8749999999981601E-01     1.8750000000055780E-01     0.0000000000000000E+00 
    1.8749999999989009E-01     2.5000000000073502E-01     0.0000000000000000E+00 
    1.8749999999996431E-01     3.1250000000091221E-01     0.0000000000000000E+00 
    1.8750000000003850E-01     3.7500000000108941E-01     0.0000000000000000E+00 
    1.8750000000011269E-01     4.3750000000126649E-01     0.0000000000000000E+00 
    1.8750000000018691E-01     5.0000000000142808E-01     0.0000000000000000E+00 
    1.8750000000026110E-01     5.6250000000112244E-01     0.0000000000000000E+00 
    1.8750000000033529E-01     6.2500000000080080E-01     0.0000000000000000E+00 
    1.8750000000040951E-01     6.8750000000047962E-01     0.0000000000000000E+00 
    1.8750000000048361E-01     7.5000000000015843E-01     0.0000000000000000E+00 
    1.8750000000055780E-01     8.1249999999983680E-01     0.0000000000000000E+00 
    1.8750000000063199E-01     8.7499999999953304E-01     0.0000000000000000E+00 
    1.8750000000070621E-01     9.3749999999975764E-01     0.0000000000000000E+00 
    2.4999999999951281E-01     6.2500000000163314E-02     0.0000000000000000E+00 
    2.4999999999961461E-01     1.2500000000033351E-01     0.0000000000000000E+00 
    2.4999999999971650E-01     1.8750000000048361E-01     0.0000000000000000E+00 
    2.4999999999981831E-01     2.5000000000063310E-01     0.0000000000000000E+00 
    2.4999999999992020E-01     3.1250000000078260E-01     0.0000000000000000E+00 
    2.5000000000002198E-01     3.7500000000093209E-01     0.0000000000000000E+00 
    2.5000000000012390E-01     4.3750000000108180E-01     0.0000000000000000E+00 
    2.5000000000022571E-01     5.0000000000121769E-01     0.0000000000000000E+00 
    2.5000000000032763E-01     5.6250000000094724E-01     0.0000000000000000E+00 
    2.5000000000042938E-01     6.2500000000066314E-01     0.0000000000000000E+00 
    2.5000000000053119E-01     6.8750000000037925E-01     0.0000000000000000E+00 
[...]
CELL_DATA 256 
SCALARS Pressure double 1 
LOOKUP_TABLE default 

    1.6076328341002237E+00 
    1.3734379082146475E+00 
    1.2394584770738959E+00 
    1.1310161750510688E+00 
    1.0305371130723042E+00 
    9.3237548540350246E-01 
    8.3453201131711741E-01 
    7.3646786400882591E-01 
    6.3830412994497754E-01 
    5.4041340050994535E-01 
    4.4325129963116633E-01 
    3.5638128749541331E-01 
    3.0721719088946053E-01 
    2.7783805171709952E-01 
    2.5921409354895403E-01 
    2.5165767493182989E-01 
    1.5360508147142795E+00 
    1.3775113267631920E+00 
    1.2483208024180730E+00 
    1.1401775021101854E+00 
    1.0397675725520816E+00 
    9.4168487590107930E-01 
    8.4389925575189706E-01 
    7.4583573085675303E-01 
    6.4758715010924450E-01 
    5.4948786359234381E-01 
    4.5175544516603577E-01 
    3.6245245071723869E-01 
    3.1042448021188490E-01 
    2.7939485646750473E-01 
    2.5956650822714461E-01 
    2.5131828745408136E-01 
    1.4803670161415494E+00 
    1.3707977979583501E+00 
    1.2535180331025868E+00 
    1.1478729362715401E+00 
    1.0482295519071387E+00 
    9.5048120352612842E-01 
    8.5283948654225938E-01 
    7.5477891335018177E-01 
    6.5639117061782415E-01 
    5.5797821807697612E-01 
    4.5962893405471889E-01 
    3.6795373458036490E-01 
    3.1310125921938903E-01 
    2.8019048469729840E-01 
    2.5895656426491293E-01 
    2.5009711203790302E-01 
    1.4364734541613011E+00 
    1.3588334354190408E+00 
    1.2553521784898636E+00 
    1.1540091439660416E+00 
    1.0558716648410329E+00 
    9.5875037214386327E-01 
    8.6135957171229105E-01 
    7.6331888185617480E-01 
    6.6475345726302104E-01 
    5.6594113993369422E-01 
    4.6688726616726295E-01 
    3.7297507905705518E-01 
    3.1531864292312756E-01 
    2.8025296372871955E-01 
    2.5732672874889206E-01 
    2.4782547957265769E-01 
    1.4014692423776771E+00 
    1.3448159050427906E+00 
    1.2545785719979601E+00 
    1.1586596520244097E+00 
    1.0626901382916063E+00 
    9.6649559139047492E-01 
    8.6947428580616160E-01 
    7.7148071865618617E-01 
    6.7271184010005669E-01 
    5.7343044401101029E-01 
    4.7357857728072861E-01 
    3.7760521279096315E-01 
    3.1717252819344699E-01 
    2.7962956474289502E-01 
    2.5461496432050446E-01 
    2.4432521035494487E-01 
    1.3733227815374396E+00 
    1.3305687705750615E+00 
    1.2520253725681834E+00 
    1.1620245373226625E+00 
    1.0687326918896125E+00 
    9.7374081337244123E-01 
    8.7720792255542568E-01 
    7.7929380935107317E-01 
    6.8030554352633610E-01 
    5.8049865216764351E-01 
    4.7975839677084725E-01 
    3.8195117663850903E-01 
    3.1879694860944136E-01 
    2.7839697349288456E-01 
    2.5075942686232361E-01 
    2.3939616167314276E-01 
    1.3505903245544455E+00 
    1.3171057325114570E+00 
    1.2484366116674832E+00 
    1.1643767192334724E+00 
    1.0740932159925660E+00 
    9.8053208674753789E-01 
    8.8459550452233937E-01 
    7.8679228146641045E-01 
    6.8757548827789094E-01 
    5.8719772812845172E-01 
    4.8547919956576718E-01 
    3.8615341110969637E-01 
    3.2036808189536248E-01 
    2.7666876192038992E-01 
    2.4570466653274353E-01 
    2.3280201677207091E-01 
    1.3322288063500114E+00 
    1.3049659373687532E+00 
    1.2444227630337636E+00 
    1.1660174324017363E+00 
    1.0789014076750305E+00 
    9.8693685709635059E-01 
    8.9168349673353375E-01 
    7.9401519078576099E-01 
    6.9456424834428621E-01 
    5.9358017630175919E-01 
    4.9078280856641426E-01 
    3.9039568072868586E-01 
    3.2210552261277742E-01 
    2.7460244253011806E-01 
    2.3941134913877363E-01 
    2.2425243096337466E-01 
    1.3174707954664704E+00 
    1.2944132457980893E+00 
    1.2404598997921388E+00 
    1.1672459114797631E+00 
    1.0833111273919636E+00 
    9.9304177176086794E-01 
    8.9853007809328811E-01 
    8.0100643365742696E-01 
    7.0131549092076717E-01 
    5.9970063999137191E-01 
    4.9570392243272970E-01 
    3.9490905243370500E-01 
    3.2426835107618712E-01 
    2.7240612848605034E-01 
    2.3187296548877778E-01 
    2.1337918529185088E-01 
    1.3057397822120984E+00 
    1.2855543551714803E+00 
    1.2369079828633085E+00 
    1.1683417742299920E+00 
    1.0874898320897184E+00 
    9.9894972113159008E-01 
    9.0520517772112885E-01 
    8.0781440846468977E-01 
    7.0787257651316404E-01 
    6.0561591003085724E-01 
    5.0029695621075521E-01 
    3.9995486802799041E-01 
    3.2713708371203559E-01 
    2.7034283928044939E-01 
    2.2314523746199705E-01 
    1.9970311477461075E-01 
    1.2965915257284182E+00 
    1.2784083506818182E+00 
    1.2340341700651722E+00 
    1.1695567629005827E+00 
    1.0916101491177035E+00 
    1.0047767667519532E+00 
    9.1179060684394242E-01 
    8.1449150918888702E-01 
    7.1427630999030511E-01 
    6.1137657391822109E-01 
    5.0471610161074520E-01 
    4.0578472344728506E-01 
    3.3097920036244977E-01 
    2.6873639616649275E-01 
    2.1339812912347064E-01 
    1.8258709258690350E-01 
    1.2896718222959291E+00 
    1.2729468311442476E+00 
    1.2320347141606425E+00 
    1.1711124598614526E+00 
    1.0958437159693188E+00 
    1.0106493825192324E+00 
    9.1838071181328484E-01 
    8.2109344509277815E-01 
    7.2056304117291103E-01 
    6.1699750763621941E-01 
    5.0934843418793629E-01 
    4.1258239496310367E-01 
    3.3598430324805101E-01 
    2.6798336412716950E-01 
    2.0300709666272046E-01 
    1.6116790124809310E-01 
    1.2846832429679014E+00 
    1.2691149709471321E+00 
    1.2310521095380007E+00 
    1.1732007118365932E+00 
    1.1003565896790748E+00 
    1.0167020446863870E+00 
    9.2508408733283165E-01 
    8.2767799990934920E-01 
    7.2676566296966882E-01 
    6.2241869728619059E-01 
    5.1486657567428851E-01 
    4.2042331911881919E-01 
    3.4216794761241426E-01 
    2.6855906734834606E-01 
    1.9271005926833956E-01 
    1.3425573829441304E-01 
    1.2813509085633876E+00 
    1.2668343425457598E+00 
    1.2311817271824119E+00 
    1.1759811737946220E+00 
    1.1053034651834546E+00 
    1.0230739949546892E+00 
    9.3202661157815914E-01 
    8.3430144682598550E-01 
    7.3291125795464351E-01 
    6.2766339243190161E-01 
    5.2198694052906225E-01 
    4.2929664719288857E-01 
    3.4933062908757823E-01 
    2.7099047687276567E-01 
    1.8387313196943844E-01 
    1.0018343814921879E-01 
    1.2793724010507628E+00 
    1.2659729549003693E+00 
    1.2324497859039576E+00 
    1.1795606144532387E+00 
    1.1108109524331586E+00 
    1.0299004756172661E+00 
    9.3935510469338923E-01 
    8.4100645323192569E-01 
    7.3891787098380668E-01 
    6.3420469511313304E-01 
    5.3092506872061274E-01 
    4.3885547328066554E-01 
    3.5716409532775961E-01 
    2.7573860935274247E-01 
    1.7893636531267312E-01 
    5.6576765288385088E-02 
    1.2788338251541775E+00 
    1.2666334585751950E+00 
    1.2350118190711024E+00 
    1.1841326629775857E+00 
    1.1170783628866654E+00 
    1.0374088444957101E+00 
    9.4750840643856249E-01 
    8.4892770671616447E-01 
    7.4670376472038613E-01 
    6.4309441609556217E-01 
    5.4083283792624992E-01 
    4.4831918963399964E-01 
    3.6536712284854539E-01 
    2.8291187162569442E-01 
    1.8216057589942330E-01 
    0.0000000000000000E+00 

SCALARS Saturarion double 1 
LOOKUP_TABLE default 

    1.0000000000000000E+00 
    9.8048534042287450E-01 
    9.5527887799276789E-01 
    9.2787091826432222E-01 
    9.0025627303347988E-01 
    8.7279717513697119E-01 
    8.4515923110067503E-01 
    8.1640855680783508E-01 
    7.8443229734767361E-01 
    7.4366064042824831E-01 
    6.7356247712004946E-01 
    4.5104427343087616E-01 
    4.5844229875504766E-02 
    2.7926606211224014E-05 
    1.8258803083412566E-13 
    5.5674193223441552E-34 
    9.9366752698537586E-01 
    9.7752514490990161E-01 
    9.5418159629796084E-01 
    9.2768094697532755E-01 
    9.0050701126400112E-01 
    8.7331885611854521E-01 
    8.4591311030658800E-01 
    8.1745193315190323E-01 
    7.8598706274284158E-01 
    7.4645270211115844E-01 
    6.8107146140228658E-01 
    4.8593724139229189E-01 
    6.7776634133575819E-02 
    8.3556466577613335E-05 
    2.7886121008408426E-12 
    4.5494542533312188E-31 
    9.8843279669105610E-01 
    9.7322672147662448E-01 
    9.5140624957316511E-01 
    9.2607431207277857E-01 
    8.9963045575038569E-01 
    8.7294272871567424E-01 
    8.4594318308001648E-01 
    8.1788843218698359E-01 
    7.8696199478678130E-01 
    7.4845433055305055E-01 
    6.8620625830758053E-01 
    5.0718374540955036E-01 
    8.5792150666398767E-02 
    1.6581283190613964E-04 
    1.5107996219754324E-11 
    2.5470364845464024E-29 
    9.8229694117455613E-01 
    9.6788494272824588E-01 
    9.4731125110618586E-01 
    9.2318172696992140E-01 
    8.9763887293934164E-01 
    8.7162613653199450E-01 
    8.4517878992060214E-01 
    8.1763574344306478E-01 
    7.8728804307834777E-01 
    7.4970009269871252E-01 
    6.8989103194656887E-01 
    5.2355661096121675E-01 
    1.0294771287940482E-01 
    2.8475517401850813E-04 
    5.6169451780065178E-11 
    5.1752724898490605E-28 
    9.7500307726024049E-01 
    9.6147528321996778E-01 
    9.4204910444536460E-01 
    9.1911273174877872E-01 
    8.9457595618182550E-01 
    8.6937430572267405E-01 
    8.4360496623797643E-01 
    8.1666983456960573E-01 
    7.8694463778307011E-01 
    7.5020962596411711E-01 
    6.9237994520265456E-01 
    5.3541874969240233E-01 
    1.1679195616809787E-01 
    4.1489689779692013E-04 
    1.3549459364915994E-10 
    3.2978311150348556E-27 
    9.6637168485820035E-01 
    9.5391008094814822E-01 
    9.3564352659686123E-01 
    9.1391057717663327E-01 
    8.9045895618349991E-01 
    8.6618223533615002E-01 
    8.4120423201336392E-01 
    8.1496660096360818E-01 
    7.8590368468648075E-01 
    7.4995634384780729E-01 
    6.9367122230560185E-01 
    5.4267280421071185E-01 
    1.2528486596032484E-01 
    5.0865070334157837E-04 
    2.0573752058952200E-10 
    5.9843497988324480E-27 
    9.5623108103274901E-01 
    9.4506421517170169E-01 
    9.2804162729454476E-01 
    9.0755724005538208E-01 
    8.8526831026156472E-01 
    8.6202218784501217E-01 
    8.3794399922992835E-01 
    8.1249030282368628E-01 
    7.8412311020693259E-01 
    7.4888217852535099E-01 
    6.9365424515812613E-01 
    5.4472912190856493E-01 
    1.2639099389132163E-01 
    5.1296275193897154E-04 
    1.8358457546118414E-10 
    2.5100438804852713E-27 
    9.4438466034002755E-01 
    9.3476922378837546E-01 
    9.1912670505200489E-01 
    8.9997372867661962E-01 
    8.7893869867557706E-01 
    8.5683334868673677E-01 
    8.3376720028537887E-01 
    8.0918567391482921E-01 
    7.8154148090375142E-01 
    7.4689942245912400E-01 
    6.9212984415030987E-01 
    5.4036496467220252E-01 
    1.1873352600142638E-01 
    4.1248746698395342E-04 
    8.7533354814089850E-11 
    1.7953627898660772E-28 
    9.3057429339107856E-01 
    9.2279113103432153E-01 
    9.0870740903467739E-01 
    8.9100770130138274E-01 
    8.7134277121570514E-01 
    8.5050558735114623E-01 
    8.2857810465201109E-01 
    8.0496548851782623E-01 
    7.7806432686338822E-01 
    7.4386669388310322E-01 
    6.8871509665561492E-01 
    5.2644328301230436E-01 
    1.0024674846630584E-01 
    2.3699432005884469E-04 
    1.6053895886253575E-11 
    7.9873435667896325E-31 
    9.1442184229991263E-01 
    9.0878517001758907E-01 
    8.9648142294458066E-01 
    8.8039994689719547E-01 
    8.6225800324310498E-01 
    8.4284887702259736E-01 
    8.2221606677644643E-01 
    7.9968792840437719E-01 
    7.7354235607240507E-01 
    7.3955808546944635E-01 
    6.8271325009549022E-01 
    4.9800040624010150E-01 
    7.3318053544212239E-02 
    8.9242847753596296E-05 
    8.7767104017892633E-13 
    1.0205075021267592E-34 
    8.9531398746737934E-01 
    8.9220022814082811E-01 
    8.8195110766782969E-01 
    8.6770654782835455E-01 
    8.5129406027642973E-01 
    8.3352849676399754E-01 
    8.1440090943532362E-01 
    7.9310948737927600E-01 
    7.6772152061866783E-01 
    7.3358216372444662E-01 
    6.7267989172691434E-01 
    4.4597049617432127E-01 
    4.1982791838912258E-02 
    1.6350475266742717E-05 
    5.7482900678982759E-15 
    2.2284550748607894E-41 
    8.7212177477827502E-01 
    8.7204401812479659E-01 
    8.6421171184666568E-01 
    8.5210174400667227E-01 
    8.3771036149534783E-01 
    8.2190312568932988E-01 
    8.0459684658878750E-01 
    7.8476948026584825E-01 
    7.6012408092952954E-01 
    7.2517960970571549E-01 
    6.5520338160187785E-01 
    3.5989220710297609E-01 
    1.6056576046036820E-02 
    9.0093087065227338E-07 
    1.0858705360848972E-18 
    8.1758051130290362E-53 
    8.4232229794857216E-01 
    8.4615501789479197E-01 
    8.4129377946251283E-01 
    8.3176248502882133E-01 
    8.1984412120346672E-01 
    8.0651251814207747E-01 
    7.9158045746717431E-01 
    7.7364464973665992E-01 
    7.4974987772487067E-01 
    7.1270616084914196E-01 
    6.2130530007886298E-01 
    2.3693969118886646E-01 
    2.9882432593331932E-03 
    5.3375164172882428E-09 
    1.4267129522536516E-25 
    2.3919764176106347E-74 
    7.9797301362694839E-01 
    8.0789727602455041E-01 
    8.0719343460587556E-01 
    8.0108720538253297E-01 
    7.9251039194693296E-01 
    7.8274128774102347E-01 
    7.7145677939026369E-01 
    7.5655244747955297E-01 
    7.3371522860215388E-01 
    6.9219331156499952E-01 
    5.4614471692524769E-01 
    9.7021532581392123E-02 
    1.0380084408456143E-04 
    6.0586372872434818E-14 
    7.2051464031134981E-43 
   1.4448363464905161E-137 
    6.9904852180997457E-01 
    7.2404558232359773E-01 
    7.3241539695749547E-01 
    7.3275635632157132E-01 
    7.3021468077800589E-01 
    7.2756814327138353E-01 
    7.2491614903558776E-01 
    7.1848903789728669E-01 
    6.9938898560737328E-01 
    6.3695456944016893E-01 
    2.3864318392090633E-01 
    1.2756040607873383E-03 
    1.0394311436583179E-11 
    1.5734554749908994E-40 
   2.2584100071199910E-137 
    0.0000000000000000E+00 
    2.9729869460777120E-01 
    4.3432912578860972E-01 
    4.6970757884313474E-01 
    4.7595627361982878E-01 
    4.6917735927810544E-01 
    4.5668543891627200E-01 
    4.3859156509784752E-01 
    3.8788754430555006E-01 
    2.2959575796914936E-01 
    4.1657270033723728E-02 
    1.5337104272627942E-05 
    2.2337540818966915E-17 
    2.1256954708079575E-43 
   5.2768884418451823E-139 
    0.0000000000000000E+00 
    0.0000000000000000E+00 
