# vtk DataFile Version 2.0
Pressure Field Data 
ASCII 
DATASET UNSTRUCTURED_GRID 

POINTS 289 double 

    0.0000000000000000E+00     0.0000000000000000E+00     0.0000000000000000E+00 
    1.0000000000000000E+00     0.0000000000000000E+00     0.0000000000000000E+00 
    1.0000000000000000E+00     1.0000000000000000E+00     0.0000000000000000E+00 
    0.0000000000000000E+00     1.0000000000000000E+00     0.0000000000000000E+00 
    6.2499999999872928E-02     0.0000000000000000E+00     0.0000000000000000E+00 
    1.2499999999977310E-01     0.0000000000000000E+00     0.0000000000000000E+00 
    1.8749999999959341E-01     0.0000000000000000E+00     0.0000000000000000E+00 
    2.4999999999941089E-01     0.0000000000000000E+00     0.0000000000000000E+00 
    3.1249999999922851E-01     0.0000000000000000E+00     0.0000000000000000E+00 
    3.7499999999904610E-01     0.0000000000000000E+00     0.0000000000000000E+00 
    4.3749999999886358E-01     0.0000000000000000E+00     0.0000000000000000E+00 
    4.9999999999869210E-01     0.0000000000000000E+00     0.0000000000000000E+00 
    5.6249999999884603E-01     0.0000000000000000E+00     0.0000000000000000E+00 
    6.2499999999901090E-01     0.0000000000000000E+00     0.0000000000000000E+00 
    6.8749999999917577E-01     0.0000000000000000E+00     0.0000000000000000E+00 
    7.4999999999934064E-01     0.0000000000000000E+00     0.0000000000000000E+00 
    8.1249999999950551E-01     0.0000000000000000E+00     0.0000000000000000E+00 
    8.7499999999967026E-01     0.0000000000000000E+00     0.0000000000000000E+00 
    9.3749999999983513E-01     0.0000000000000000E+00     0.0000000000000000E+00 
    1.0000000000000000E+00     6.2499999999872928E-02     0.0000000000000000E+00 
    1.0000000000000000E+00     1.2499999999977310E-01     0.0000000000000000E+00 
    1.0000000000000000E+00     1.8749999999959341E-01     0.0000000000000000E+00 
    1.0000000000000000E+00     2.4999999999941089E-01     0.0000000000000000E+00 
    1.0000000000000000E+00     3.1249999999922851E-01     0.0000000000000000E+00 
    1.0000000000000000E+00     3.7499999999904610E-01     0.0000000000000000E+00 
    1.0000000000000000E+00     4.3749999999886358E-01     0.0000000000000000E+00 
    1.0000000000000000E+00     4.9999999999869210E-01     0.0000000000000000E+00 
    1.0000000000000000E+00     5.6249999999884603E-01     0.0000000000000000E+00 
    1.0000000000000000E+00     6.2499999999901090E-01     0.0000000000000000E+00 
    1.0000000000000000E+00     6.8749999999917577E-01     0.0000000000000000E+00 
    1.0000000000000000E+00     7.4999999999934064E-01     0.0000000000000000E+00 
    1.0000000000000000E+00     8.1249999999950551E-01     0.0000000000000000E+00 
    1.0000000000000000E+00     8.7499999999967026E-01     0.0000000000000000E+00 
    1.0000000000000000E+00     9.3749999999983513E-01     0.0000000000000000E+00 
    9.3749999999973976E-01     1.0000000000000000E+00     0.0000000000000000E+00 
    8.7499999999950118E-01     1.0000000000000000E+00     0.0000000000000000E+00 
    8.1249999999991318E-01     1.0000000000000000E+00     0.0000000000000000E+00 
    7.5000000000034706E-01     1.0000000000000000E+00     0.0000000000000000E+00 
    6.8750000000078049E-01     1.0000000000000000E+00     0.0000000000000000E+00 
    6.2500000000121403E-01     1.0000000000000000E+00     0.0000000000000000E+00 
    5.6250000000164757E-01     1.0000000000000000E+00     0.0000000000000000E+00 
    5.0000000000205946E-01     1.0000000000000000E+00     0.0000000000000000E+00 
    4.3750000000182099E-01     1.0000000000000000E+00     0.0000000000000000E+00 
    3.7500000000156092E-01     1.0000000000000000E+00     0.0000000000000000E+00 
    3.1250000000130068E-01     1.0000000000000000E+00     0.0000000000000000E+00 
    2.5000000000104050E-01     1.0000000000000000E+00     0.0000000000000000E+00 
    1.8750000000078040E-01     1.0000000000000000E+00     0.0000000000000000E+00 
    1.2500000000052031E-01     1.0000000000000000E+00     0.0000000000000000E+00 
    6.2500000000260125E-02     1.0000000000000000E+00     0.0000000000000000E+00 
    0.0000000000000000E+00     9.3749999999973976E-01     0.0000000000000000E+00 
    0.0000000000000000E+00     8.7499999999950118E-01     0.0000000000000000E+00 
    0.0000000000000000E+00     8.1249999999991318E-01     0.0000000000000000E+00 
    0.0000000000000000E+00     7.5000000000034706E-01     0.0000000000000000E+00 
    0.0000000000000000E+00     6.8750000000078049E-01     0.0000000000000000E+00 
    0.0000000000000000E+00     6.2500000000121403E-01     0.0000000000000000E+00 
    0.0000000000000000E+00     5.6250000000164757E-01     0.0000000000000000E+00 
    0.0000000000000000E+00     5.0000000000205946E-01     0.0000000000000000E+00 
    0.0000000000000000E+00     4.3750000000182099E-01     0.0000000000000000E+00 
    0.0000000000000000E+00     3.7500000000156092E-01     0.0000000000000000E+00 
    0.0000000000000000E+00     3.1250000000130068E-01     0.0000000000000000E+00 
    0.0000000000000000E+00     2.5000000000104050E-01     0.0000000000000000E+00 
    0.0000000000000000E+00     1.8750000000078040E-01     0.0000000000000000E+00 
    0.0000000000000000E+00     1.2500000000052031E-01     0.0000000000000000E+00 
    0.0000000000000000E+00     6.2500000000260125E-02     0.0000000000000000E+00 
    6.2499999999897131E-02     6.2500000000235922E-02     0.0000000000000000E+00 
    6.2499999999921327E-02     1.2500000000047351E-01     0.0000000000000000E+00 
    6.2499999999945530E-02     1.8750000000070621E-01     0.0000000000000000E+00 
    6.2499999999969733E-02     2.5000000000093858E-01     0.0000000000000000E+00 
    6.2499999999993928E-02     3.1250000000117117E-01     0.0000000000000000E+00 
    6.2500000000018124E-02     3.7500000000140382E-01     0.0000000000000000E+00 
    6.2500000000042327E-02     4.3750000000163619E-01     0.0000000000000000E+00 
    6.2500000000066530E-02     5.0000000000184897E-01     0.0000000000000000E+00 
    6.2500000000090733E-02     5.6250000000147260E-01     0.0000000000000000E+00 
    6.2500000000114922E-02     6.2500000000107636E-01     0.0000000000000000E+00 
    6.2500000000139125E-02     6.8750000000068034E-01     0.0000000000000000E+00 
    6.2500000000163328E-02     7.5000000000028411E-01     0.0000000000000000E+00 
    6.2500000000187531E-02     8.1249999999988787E-01     0.0000000000000000E+00 
    6.2500000000211720E-02     8.7499999999951172E-01     0.0000000000000000E+00 
    6.2500000000235922E-02     9.3749999999974565E-01     0.0000000000000000E+00 
    1.2499999999981980E-01     6.2500000000211733E-02     0.0000000000000000E+00 
    1.2499999999986650E-01     1.2500000000042691E-01     0.0000000000000000E+00 
    1.2499999999991319E-01     1.8750000000063199E-01     0.0000000000000000E+00 
    1.2499999999995989E-01     2.5000000000083678E-01     0.0000000000000000E+00 
    1.2500000000000661E-01     3.1250000000104172E-01     0.0000000000000000E+00 
    1.2500000000005329E-01     3.7500000000124661E-01     0.0000000000000000E+00 
    1.2500000000010000E-01     4.3750000000145117E-01     0.0000000000000000E+00 
    1.2500000000014669E-01     5.0000000000163858E-01     0.0000000000000000E+00 
    1.2500000000019340E-01     5.6250000000129741E-01     0.0000000000000000E+00 
    1.2500000000024011E-01     6.2500000000093847E-01     0.0000000000000000E+00 
    1.2500000000028680E-01     6.8750000000057998E-01     0.0000000000000000E+00 
    1.2500000000033351E-01     7.5000000000022127E-01     0.0000000000000000E+00 
    1.2500000000038020E-01     8.1249999999986211E-01     0.0000000000000000E+00 
    1.2500000000042691E-01     8.7499999999952238E-01     0.0000000000000000E+00 
    1.2500000000047359E-01     9.3749999999975164E-01     0.0000000000000000E+00 
    1.8749999999966760E-01     6.2500000000187531E-02     0.0000000000000000E+00 
    1.8749999999974179E-01     1.2500000000038020E-01     0.0000000000000000E+00 
    1.8749999999981601E-01     1.8750000000055780E-01     0.0000000000000000E+00 
    1.8749999999989009E-01     2.5000000000073502E-01     0.0000000000000000E+00 
    1.8749999999996431E-01     3.1250000000091221E-01     0.0000000000000000E+00 
    1.8750000000003850E-01     3.7500000000108941E-01     0.0000000000000000E+00 
    1.8750000000011269E-01     4.3750000000126649E-01     0.0000000000000000E+00 
    1.8750000000018691E-01     5.0000000000142808E-01     0.0000000000000000E+00 
    1.8750000000026110E-01     5.6250000000112244E-01     0.0000000000000000E+00 
    1.8750000000033529E-01     6.2500000000080080E-01     0.0000000000000000E+00 
    1.8750000000040951E-01     6.8750000000047962E-01     0.0000000000000000E+00 
    1.8750000000048361E-01     7.5000000000015843E-01     0.0000000000000000E+00 
    1.8750000000055780E-01     8.1249999999983680E-01     0.0000000000000000E+00 
    1.8750000000063199E-01     8.7499999999953304E-01     0.0000000000000000E+00 
    1.8750000000070621E-01     9.3749999999975764E-01     0.0000000000000000E+00 
    2.4999999999951281E-01     6.2500000000163314E-02     0.0000000000000000E+00 
    2.4999999999961461E-01     1.2500000000033351E-01     0.0000000000000000E+00 
    2.4999999999971650E-01     1.8750000000048361E-01     0.0000000000000000E+00 
    2.4999999999981831E-01     2.5000000000063310E-01     0.0000000000000000E+00 
    2.4999999999992020E-01     3.1250000000078260E-01     0.0000000000000000E+00 
    2.5000000000002198E-01     3.7500000000093209E-01     0.0000000000000000E+00 
    2.5000000000012390E-01     4.3750000000108180E-01     0.0000000000000000E+00 
    2.5000000000022571E-01     5.0000000000121769E-01     0.0000000000000000E+00 
    2.5000000000032763E-01     5.6250000000094724E-01     0.0000000000000000E+00 
    2.5000000000042938E-01     6.2500000000066314E-01     0.0000000000000000E+00 
    2.5000000000053119E-01     6.8750000000037925E-01     0.0000000000000000E+00 
[...]
CELL_DATA 256 
SCALARS Pressure double 1 
LOOKUP_TABLE default 

    1.3289704815541024E+00 
    1.0816540190075585E+00 
    9.3100129605075210E-01 
    8.0646884307218436E-01 
    7.2493790378039735E-01 
    6.6803156314741785E-01 
    6.1452542874973348E-01 
    5.6032336847061448E-01 
    5.0647034539759905E-01 
    4.5375087389789570E-01 
    4.0322814119987177E-01 
    3.5653874997353441E-01 
    3.1604538483043948E-01 
    2.8463312004649399E-01 
    2.6478389453182472E-01 
    2.5681782009662535E-01 
    1.2529032185923157E+00 
    1.0845345969632629E+00 
    9.3945020372795862E-01 
    8.1480309110561067E-01 
    7.3189824269280312E-01 
    6.7389404609865666E-01 
    6.2000597600136242E-01 
    5.6570496016942240E-01 
    5.1171097233138052E-01 
    4.5873867350881425E-01 
    4.0778117639315914E-01 
    3.6039462084939938E-01 
    3.1889130931939152E-01 
    2.8622204038880350E-01 
    2.6514312786140942E-01 
    2.5645938674598873E-01 
    1.1904502527439289E+00 
    1.0739707463017756E+00 
    9.4213034673685647E-01 
    8.2095008383849999E-01 
    7.3882374087795100E-01 
    6.8008137480970166E-01 
    6.2559650605141992E-01 
    5.7108816563986053E-01 
    5.1689509201138806E-01 
    4.6360243811207208E-01 
    4.1210398455290531E-01 
    3.6385297171454278E-01 
    3.2110514037014026E-01 
    2.8692112535236713E-01 
    2.6445964483941597E-01 
    2.5516980960991786E-01 
    1.1384508540988567E+00 
    1.0561035124489890E+00 
    9.3932391791735859E-01 
    8.2508915717100195E-01 
    7.4557411384907912E-01 
    6.8646012080406016E-01 
    6.3128129451053627E-01 
    5.7648684881810763E-01 
    5.2204620340428476E-01 
    4.6837988844175921E-01 
    4.1625429225703531E-01 
    3.6699096345288290E-01 
    3.2276524473118962E-01 
    2.8676528413269098E-01 
    2.6267051792774421E-01 
    2.5277221771633834E-01 
    1.0943386389380867E+00 
    1.0345281209048971E+00 
    9.3193611999219028E-01 
    8.2773949481264808E-01 
    7.5211671308611616E-01 
    6.9286960981987689E-01 
    6.3702711136463608E-01 
    5.8190716017171651E-01 
    5.2718553330020768E-01 
    4.7310840168115470E-01 
    4.2029173009185999E-01 
    3.6989179790845822E-01 
    3.2396081139929889E-01 
    2.8579918915841296E-01 
    2.5971000217291890E-01 
    2.4908271829174239E-01 
    1.0563193898294230E+00 
    1.0113256456774637E+00 
    9.2154811110316470E-01 
    8.2955688246987358E-01 
    7.5846213479429092E-01 
    6.9916950188546056E-01 
    6.4279323648344455E-01 
    5.8734898060319352E-01 
    5.3233131517858079E-01 
    4.7782399007323512E-01 
    4.2427698091803467E-01 
    3.7264532644546322E-01 
    3.2479616041496207E-01 
    2.8408527163739455E-01 
    2.5551301403496440E-01 
    2.4389784667477071E-01 
    1.0231154668443661E+00 
    9.8745132191633844E-01 
    9.1047088715831281E-01 
    8.3119021372844881E-01 
    7.6452799709308039E-01 
    7.0527355019993654E-01 
    6.4854132084630767E-01 
    5.9280820301189285E-01 
    5.3749852232652173E-01 
    4.8256025849170070E-01 
    4.2827048669010193E-01 
    3.7534784643580832E-01 
    3.2539476204647833E-01 
    2.8171363086262535E-01 
    2.5002115554428472E-01 
    2.3698038656574508E-01 
    9.9370205979404080E-01 
    9.6384475663225377E-01 
    9.0072493030010470E-01 
    8.3303196762638543E-01 
    7.7012519092038989E-01 
    7.1114397438631205E-01 
    6.5424171062699099E-01 
    5.9827912488019752E-01 
    5.4269892583223112E-01 
    4.8734737349396673E-01 
    4.3233067582915879E-01 
    3.7810077943171083E-01 
    3.2590248348492701E-01 
    2.7881442207386342E-01 
    2.4319338565323054E-01 
    2.2804181243888819E-01 
    9.6675518411628258E-01 
    9.4387277721515750E-01 
    8.9414595665881036E-01 
    8.3510120244600672E-01 
    7.7514865066438032E-01 
    7.1677104157490923E-01 
    6.5987559825358033E-01 
    6.0375638144386179E-01 
    5.4794133242907017E-01 
    4.9221108168164945E-01 
    4.3651172373712138E-01 
    3.8100789171264049E-01 
    3.2648921249138191E-01 
    2.7557305570773283E-01 
    2.3502470755550500E-01 
    2.1671904913222123E-01 
    9.4800924611869775E-01 
    9.3101770025092678E-01 
    8.9037478753960408E-01 
    8.3714047863814278E-01 
    7.7967869207883866E-01 
    7.2216789266020898E-01 
    6.6543520301034975E-01 
    6.0923624752730610E-01 
    5.5323189223019109E-01 
    4.9717183552058886E-01 
    4.4086094359589717E-01 
    3.8417075060166855E-01 
    3.2734751348298263E-01 
    2.7224790866552739E-01 
    2.2557841190989386E-01 
    2.0254227053145799E-01 
    9.3795784746660615E-01 
    9.2353413514127636E-01 
    8.8805874856678912E-01 
    8.3893786237336798E-01 
    7.8387547726711682E-01 
    7.2737088520140702E-01 
    6.7092337620085563E-01 
    6.1471738806207166E-01 
    5.5857442097815846E-01 
    5.0224411218790677E-01 
    4.4541602614870851E-01 
    3.8768227047714882E-01 
    3.2868638342273854E-01 
    2.6918879090655767E-01 
    2.1504107669821329E-01 
    1.8488886489843395E-01 
    9.3162743405315329E-01 
    9.1853014724686255E-01 
    8.8646724390851128E-01 
    8.4072384080482931E-01 
    7.8788242104764927E-01 
    7.3243249690071377E-01 
    6.7635238268670461E-01 
    6.2020114413748229E-01 
    5.6397071898394935E-01 
    5.0743603038691754E-01 
    4.5020249421357078E-01 
    3.9161857449159398E-01 
    3.3071764408694448E-01 
    2.6685132898984237E-01 
    2.0381566905272283E-01 
    1.6291613471513175E-01 
    9.2714061211496435E-01 
    9.1501346821121921E-01 
    8.8562965537440663E-01 
    8.4270013203553296E-01 
    7.9183616139691226E-01 
    7.3741423226847691E-01 
    6.8174196709569634E-01 
    6.2569142533677446E-01 
    5.6942088260396906E-01 
    5.1274936406490645E-01 
    4.5523187334746051E-01 
    3.9603006807072810E-01 
    3.3363246069291214E-01 
    2.6579623904961641E-01 
    1.9267840411817216E-01 
    1.3546120762375705E-01 
    9.2422700666414237E-01 
    9.1289332229012243E-01 
    8.8564949244863256E-01 
    8.4502992468576832E-01 
    7.9586353579669100E-01 
    7.4238181675099368E-01 
    6.8711718722941595E-01 
    6.3119430266555143E-01 
    5.7492360288465783E-01 
    5.1818000731394365E-01 
    4.6050113104994933E-01 
    4.0093360916508064E-01 
    3.3756693482095346E-01 
    2.6665044175255509E-01 
    1.8304233349912549E-01 
    1.0089008429343009E-01 
    9.2266020894171963E-01 
    9.1209149011983914E-01 
    8.8660326812002788E-01 
    8.4785085784373704E-01 
    8.0008060624045896E-01 
    7.4740169751031649E-01 
    6.9250630735512009E-01 
    6.3671740082379635E-01 
    5.8047643670823068E-01 
    5.2371886027395886E-01 
    4.6599379461893070E-01 
    4.0630873819190966E-01 
    3.4256092823358592E-01 
    2.6998416092760347E-01 
    1.7739977258621700E-01 
    5.6867217281815215E-02 
    9.2222469765471571E-01 
    9.1253631766111265E-01 
    8.8855299556418310E-01 
    8.5128226115483518E-01 
    8.0459331850388938E-01 
    7.5253863108080310E-01 
    6.9793887656372899E-01 
    6.4226916808984014E-01 
    5.8607602523157787E-01 
    5.2935300338019253E-01 
    4.7168272891423513E-01 
    4.1210117224912612E-01 
    3.4852793914042396E-01 
    2.7601556964818530E-01 
    1.8006478897904632E-01 
    0.0000000000000000E+00 

SCALARS Saturarion double 1 
LOOKUP_TABLE default 

    1.0000000000000000E+00 
    9.1428533254791677E-01 
    8.0230520909230307E-01 
    6.1231821700539701E-01 
    1.9035084427895305E-01 
    2.9757809579689628E-03 
    1.1371909712819663E-07 
    1.1388991981305609E-17 
    3.7484345851237101E-40 
    1.4055731603428389E-90 
   1.6046194136171129E-203 
    0.0000000000000000E+00 
    0.0000000000000000E+00 
    0.0000000000000000E+00 
    0.0000000000000000E+00 
    0.0000000000000000E+00 
    9.6977412521609319E-01 
    9.0263981180628095E-01 
    7.9896416639702306E-01 
    6.1247228362696371E-01 
    1.8974704359646249E-01 
    2.8033462647575717E-03 
    8.8248326166353038E-08 
    4.9504109186772763E-18 
    3.0355134763383256E-41 
    1.0121720016958541E-93 
   2.7046116950231368E-212 
    0.0000000000000000E+00 
    0.0000000000000000E+00 
    0.0000000000000000E+00 
    0.0000000000000000E+00 
    0.0000000000000000E+00 
    9.4706742076471273E-01 
    8.8649798705192162E-01 
    7.8947479405061916E-01 
    5.9723256170346350E-01 
    1.6235540653888286E-01 
    1.6573836324387287E-03 
    2.2073114235570353E-08 
    1.4135776790689523E-19 
    3.5440616624901660E-45 
   1.0114873962748464E-103 
   8.8663344046181878E-238 
    0.0000000000000000E+00 
    0.0000000000000000E+00 
    0.0000000000000000E+00 
    0.0000000000000000E+00 
    0.0000000000000000E+00 
    9.2251376475430136E-01 
    8.6749076458895502E-01 
    7.7492284567016345E-01 
    5.6267898521266202E-01 
    1.1459075134623167E-01 
    5.5941225717842224E-04 
    1.3741114824283772E-09 
    1.2980679672231897E-22 
    7.7620666994097711E-53 
   2.9083704776722627E-123 
   3.8793978349367446E-288 
    0.0000000000000000E+00 
    0.0000000000000000E+00 
    0.0000000000000000E+00 
    0.0000000000000000E+00 
    0.0000000000000000E+00 
    8.9535206346012830E-01 
    8.4570781878174706E-01 
    7.5499851050775879E-01 
    4.9525080697735807E-01 
    5.8586073352036167E-02 
    7.9807251705198829E-05 
    9.8062923292483358E-12 
    4.4696591007857376E-28 
    4.2567411285841508E-67 
   3.4963316608338063E-161 
    0.0000000000000000E+00 
    0.0000000000000000E+00 
    0.0000000000000000E+00 
    0.0000000000000000E+00 
    0.0000000000000000E+00 
    0.0000000000000000E+00 
    8.6480627356442052E-01 
    8.2056757711180284E-01 
    7.2681095488949010E-01 
    3.6933201114381187E-01 
    1.6336191043116545E-02 
    2.4731057507850911E-06 
    1.0421648881272776E-15 
    6.1513456857476285E-39 
    1.3374924137323412E-96 
   5.7675348353460418E-238 
    0.0000000000000000E+00 
    0.0000000000000000E+00 
    0.0000000000000000E+00 
    0.0000000000000000E+00 
    0.0000000000000000E+00 
    0.0000000000000000E+00 
    8.2908426856195083E-01 
    7.9005006780173614E-01 
    6.7903893723436437E-01 
    1.8822494220985075E-01 
    1.3229688398721407E-03 
    1.8187346637835244E-09 
    1.4116195558307849E-24 
    1.0069567887807046E-62 
   4.9499300866256689E-163 
    0.0000000000000000E+00 
    0.0000000000000000E+00 
    0.0000000000000000E+00 
    0.0000000000000000E+00 
    0.0000000000000000E+00 
    0.0000000000000000E+00 
    0.0000000000000000E+00 
    7.8295044136793801E-01 
    7.4676020141714139E-01 
    5.2799539604181223E-01 
    2.8562207220909498E-02 
    2.3976811622221098E-06 
    4.1992249619856528E-17 
    7.9801302436689944E-47 
   1.2255482312840738E-132 
    0.0000000000000000E+00 
    0.0000000000000000E+00 
    0.0000000000000000E+00 
    0.0000000000000000E+00 
    0.0000000000000000E+00 
    0.0000000000000000E+00 
    0.0000000000000000E+00 
    0.0000000000000000E+00 
    7.0494336515359002E-01 
    6.4741520564497645E-01 
    1.1539162097935754E-01 
    7.9563582028177089E-05 
    6.5236409518903166E-14 
    1.0032866833828766E-40 
   6.8120899929371856E-121 
    0.0000000000000000E+00 
    0.0000000000000000E+00 
    0.0000000000000000E+00 
    0.0000000000000000E+00 
    0.0000000000000000E+00 
    0.0000000000000000E+00 
    0.0000000000000000E+00 
    0.0000000000000000E+00 
    0.0000000000000000E+00 
    4.2977596440784449E-01 
    1.8956436764169649E-01 
    3.3141922695457433E-04 
    1.0183398076122435E-12 
    1.9214393892880854E-38 
   1.9004510296880280E-116 
    0.0000000000000000E+00 
    0.0000000000000000E+00 
    0.0000000000000000E+00 
    0.0000000000000000E+00 
    0.0000000000000000E+00 
    0.0000000000000000E+00 
    0.0000000000000000E+00 
    0.0000000000000000E+00 
    0.0000000000000000E+00 
    0.0000000000000000E+00 
    2.3556004117668651E-02 
    4.9653327638094684E-04 
    2.7250407189233901E-12 
    1.2258597814433425E-37 
   6.6802539160504980E-115 
    0.0000000000000000E+00 
    0.0000000000000000E+00 
    0.0000000000000000E+00 
    0.0000000000000000E+00 
    0.0000000000000000E+00 
    0.0000000000000000E+00 
    0.0000000000000000E+00 
    0.0000000000000000E+00 
    0.0000000000000000E+00 
    0.0000000000000000E+00 
    0.0000000000000000E+00 
    1.6696291919901972E-06 
    2.8473910270636139E-12 
    2.0301251886723667E-37 
   1.8945443999169556E-114 
    0.0000000000000000E+00 
    0.0000000000000000E+00 
    0.0000000000000000E+00 
    0.0000000000000000E+00 
    0.0000000000000000E+00 
    0.0000000000000000E+00 
    0.0000000000000000E+00 
    0.0000000000000000E+00 
    0.0000000000000000E+00 
    0.0000000000000000E+00 
    0.0000000000000000E+00 
    0.0000000000000000E+00 
    5.9251132343619267E-18 
    1.2527914403827293E-37 
   1.8441219248637128E-114 
    0.0000000000000000E+00 
    0.0000000000000000E+00 
    0.0000000000000000E+00 
    0.0000000000000000E+00 
    0.0000000000000000E+00 
    0.0000000000000000E+00 
    0.0000000000000000E+00 
    0.0000000000000000E+00 
    0.0000000000000000E+00 
    0.0000000000000000E+00 
    0.0000000000000000E+00 
    0.0000000000000000E+00 
    0.0000000000000000E+00 
    2.4593901999497556E-49 
   4.6675500826383733E-115 
    0.0000000000000000E+00 
    0.0000000000000000E+00 
    0.0000000000000000E+00 
    0.0000000000000000E+00 
    0.0000000000000000E+00 
    0.0000000000000000E+00 
    0.0000000000000000E+00 
    0.0000000000000000E+00 
    0.0000000000000000E+00 
    0.0000000000000000E+00 
    0.0000000000000000E+00 
    0.0000000000000000E+00 
    0.0000000000000000E+00 
    0.0000000000000000E+00 
   1.6621539226113596E-135 
    0.0000000000000000E+00 
    0.0000000000000000E+00 
    0.0000000000000000E+00 
    0.0000000000000000E+00 
    0.0000000000000000E+00 
    0.0000000000000000E+00 
    0.0000000000000000E+00 
    0.0000000000000000E+00 
    0.0000000000000000E+00 
    0.0000000000000000E+00 
    0.0000000000000000E+00 
    0.0000000000000000E+00 
    0.0000000000000000E+00 
    0.0000000000000000E+00 
    0.0000000000000000E+00 
    0.0000000000000000E+00 
    0.0000000000000000E+00 
    0.0000000000000000E+00 
    0.0000000000000000E+00 
    0.0000000000000000E+00 
    0.0000000000000000E+00 
    0.0000000000000000E+00 
    0.0000000000000000E+00 
    0.0000000000000000E+00 
    0.0000000000000000E+00 
    0.0000000000000000E+00 
    0.0000000000000000E+00 
    0.0000000000000000E+00 
    0.0000000000000000E+00 
    0.0000000000000000E+00 
    0.0000000000000000E+00 
