# vtk DataFile Version 2.0
Pressure Field Data 
ASCII 
DATASET UNSTRUCTURED_GRID 

POINTS 289 double 

    0.0000000000000000E+00     0.0000000000000000E+00     0.0000000000000000E+00 
    1.0000000000000000E+00     0.0000000000000000E+00     0.0000000000000000E+00 
    1.0000000000000000E+00     1.0000000000000000E+00     0.0000000000000000E+00 
    0.0000000000000000E+00     1.0000000000000000E+00     0.0000000000000000E+00 
    6.2499999999872928E-02     0.0000000000000000E+00     0.0000000000000000E+00 
    1.2499999999977310E-01     0.0000000000000000E+00     0.0000000000000000E+00 
    1.8749999999959341E-01     0.0000000000000000E+00     0.0000000000000000E+00 
    2.4999999999941089E-01     0.0000000000000000E+00     0.0000000000000000E+00 
    3.1249999999922851E-01     0.0000000000000000E+00     0.0000000000000000E+00 
    3.7499999999904610E-01     0.0000000000000000E+00     0.0000000000000000E+00 
    4.3749999999886358E-01     0.0000000000000000E+00     0.0000000000000000E+00 
    4.9999999999869210E-01     0.0000000000000000E+00     0.0000000000000000E+00 
    5.6249999999884603E-01     0.0000000000000000E+00     0.0000000000000000E+00 
    6.2499999999901090E-01     0.0000000000000000E+00     0.0000000000000000E+00 
    6.8749999999917577E-01     0.0000000000000000E+00     0.0000000000000000E+00 
    7.4999999999934064E-01     0.0000000000000000E+00     0.0000000000000000E+00 
    8.1249999999950551E-01     0.0000000000000000E+00     0.0000000000000000E+00 
    8.7499999999967026E-01     0.0000000000000000E+00     0.0000000000000000E+00 
    9.3749999999983513E-01     0.0000000000000000E+00     0.0000000000000000E+00 
    1.0000000000000000E+00     6.2499999999872928E-02     0.0000000000000000E+00 
    1.0000000000000000E+00     1.2499999999977310E-01     0.0000000000000000E+00 
    1.0000000000000000E+00     1.8749999999959341E-01     0.0000000000000000E+00 
    1.0000000000000000E+00     2.4999999999941089E-01     0.0000000000000000E+00 
    1.0000000000000000E+00     3.1249999999922851E-01     0.0000000000000000E+00 
    1.0000000000000000E+00     3.7499999999904610E-01     0.0000000000000000E+00 
    1.0000000000000000E+00     4.3749999999886358E-01     0.0000000000000000E+00 
    1.0000000000000000E+00     4.9999999999869210E-01     0.0000000000000000E+00 
    1.0000000000000000E+00     5.6249999999884603E-01     0.0000000000000000E+00 
    1.0000000000000000E+00     6.2499999999901090E-01     0.0000000000000000E+00 
    1.0000000000000000E+00     6.8749999999917577E-01     0.0000000000000000E+00 
    1.0000000000000000E+00     7.4999999999934064E-01     0.0000000000000000E+00 
    1.0000000000000000E+00     8.1249999999950551E-01     0.0000000000000000E+00 
    1.0000000000000000E+00     8.7499999999967026E-01     0.0000000000000000E+00 
    1.0000000000000000E+00     9.3749999999983513E-01     0.0000000000000000E+00 
    9.3749999999973976E-01     1.0000000000000000E+00     0.0000000000000000E+00 
    8.7499999999950118E-01     1.0000000000000000E+00     0.0000000000000000E+00 
    8.1249999999991318E-01     1.0000000000000000E+00     0.0000000000000000E+00 
    7.5000000000034706E-01     1.0000000000000000E+00     0.0000000000000000E+00 
    6.8750000000078049E-01     1.0000000000000000E+00     0.0000000000000000E+00 
    6.2500000000121403E-01     1.0000000000000000E+00     0.0000000000000000E+00 
    5.6250000000164757E-01     1.0000000000000000E+00     0.0000000000000000E+00 
    5.0000000000205946E-01     1.0000000000000000E+00     0.0000000000000000E+00 
    4.3750000000182099E-01     1.0000000000000000E+00     0.0000000000000000E+00 
    3.7500000000156092E-01     1.0000000000000000E+00     0.0000000000000000E+00 
    3.1250000000130068E-01     1.0000000000000000E+00     0.0000000000000000E+00 
    2.5000000000104050E-01     1.0000000000000000E+00     0.0000000000000000E+00 
    1.8750000000078040E-01     1.0000000000000000E+00     0.0000000000000000E+00 
    1.2500000000052031E-01     1.0000000000000000E+00     0.0000000000000000E+00 
    6.2500000000260125E-02     1.0000000000000000E+00     0.0000000000000000E+00 
    0.0000000000000000E+00     9.3749999999973976E-01     0.0000000000000000E+00 
    0.0000000000000000E+00     8.7499999999950118E-01     0.0000000000000000E+00 
    0.0000000000000000E+00     8.1249999999991318E-01     0.0000000000000000E+00 
    0.0000000000000000E+00     7.5000000000034706E-01     0.0000000000000000E+00 
    0.0000000000000000E+00     6.8750000000078049E-01     0.0000000000000000E+00 
    0.0000000000000000E+00     6.2500000000121403E-01     0.0000000000000000E+00 
    0.0000000000000000E+00     5.6250000000164757E-01     0.0000000000000000E+00 
    0.0000000000000000E+00     5.0000000000205946E-01     0.0000000000000000E+00 
    0.0000000000000000E+00     4.3750000000182099E-01     0.0000000000000000E+00 
    0.0000000000000000E+00     3.7500000000156092E-01     0.0000000000000000E+00 
    0.0000000000000000E+00     3.1250000000130068E-01     0.0000000000000000E+00 
    0.0000000000000000E+00     2.5000000000104050E-01     0.0000000000000000E+00 
    0.0000000000000000E+00     1.8750000000078040E-01     0.0000000000000000E+00 
    0.0000000000000000E+00     1.2500000000052031E-01     0.0000000000000000E+00 
    0.0000000000000000E+00     6.2500000000260125E-02     0.0000000000000000E+00 
    6.2499999999897131E-02     6.2500000000235922E-02     0.0000000000000000E+00 
    6.2499999999921327E-02     1.2500000000047351E-01     0.0000000000000000E+00 
    6.2499999999945530E-02     1.8750000000070621E-01     0.0000000000000000E+00 
    6.2499999999969733E-02     2.5000000000093858E-01     0.0000000000000000E+00 
    6.2499999999993928E-02     3.1250000000117117E-01     0.0000000000000000E+00 
    6.2500000000018124E-02     3.7500000000140382E-01     0.0000000000000000E+00 
    6.2500000000042327E-02     4.3750000000163619E-01     0.0000000000000000E+00 
    6.2500000000066530E-02     5.0000000000184897E-01     0.0000000000000000E+00 
    6.2500000000090733E-02     5.6250000000147260E-01     0.0000000000000000E+00 
    6.2500000000114922E-02     6.2500000000107636E-01     0.0000000000000000E+00 
    6.2500000000139125E-02     6.8750000000068034E-01     0.0000000000000000E+00 
    6.2500000000163328E-02     7.5000000000028411E-01     0.0000000000000000E+00 
    6.2500000000187531E-02     8.1249999999988787E-01     0.0000000000000000E+00 
    6.2500000000211720E-02     8.7499999999951172E-01     0.0000000000000000E+00 
    6.2500000000235922E-02     9.3749999999974565E-01     0.0000000000000000E+00 
    1.2499999999981980E-01     6.2500000000211733E-02     0.0000000000000000E+00 
    1.2499999999986650E-01     1.2500000000042691E-01     0.0000000000000000E+00 
    1.2499999999991319E-01     1.8750000000063199E-01     0.0000000000000000E+00 
    1.2499999999995989E-01     2.5000000000083678E-01     0.0000000000000000E+00 
    1.2500000000000661E-01     3.1250000000104172E-01     0.0000000000000000E+00 
    1.2500000000005329E-01     3.7500000000124661E-01     0.0000000000000000E+00 
    1.2500000000010000E-01     4.3750000000145117E-01     0.0000000000000000E+00 
    1.2500000000014669E-01     5.0000000000163858E-01     0.0000000000000000E+00 
    1.2500000000019340E-01     5.6250000000129741E-01     0.0000000000000000E+00 
    1.2500000000024011E-01     6.2500000000093847E-01     0.0000000000000000E+00 
    1.2500000000028680E-01     6.8750000000057998E-01     0.0000000000000000E+00 
    1.2500000000033351E-01     7.5000000000022127E-01     0.0000000000000000E+00 
    1.2500000000038020E-01     8.1249999999986211E-01     0.0000000000000000E+00 
    1.2500000000042691E-01     8.7499999999952238E-01     0.0000000000000000E+00 
    1.2500000000047359E-01     9.3749999999975164E-01     0.0000000000000000E+00 
    1.8749999999966760E-01     6.2500000000187531E-02     0.0000000000000000E+00 
    1.8749999999974179E-01     1.2500000000038020E-01     0.0000000000000000E+00 
    1.8749999999981601E-01     1.8750000000055780E-01     0.0000000000000000E+00 
    1.8749999999989009E-01     2.5000000000073502E-01     0.0000000000000000E+00 
    1.8749999999996431E-01     3.1250000000091221E-01     0.0000000000000000E+00 
    1.8750000000003850E-01     3.7500000000108941E-01     0.0000000000000000E+00 
    1.8750000000011269E-01     4.3750000000126649E-01     0.0000000000000000E+00 
    1.8750000000018691E-01     5.0000000000142808E-01     0.0000000000000000E+00 
    1.8750000000026110E-01     5.6250000000112244E-01     0.0000000000000000E+00 
    1.8750000000033529E-01     6.2500000000080080E-01     0.0000000000000000E+00 
    1.8750000000040951E-01     6.8750000000047962E-01     0.0000000000000000E+00 
    1.8750000000048361E-01     7.5000000000015843E-01     0.0000000000000000E+00 
    1.8750000000055780E-01     8.1249999999983680E-01     0.0000000000000000E+00 
    1.8750000000063199E-01     8.7499999999953304E-01     0.0000000000000000E+00 
    1.8750000000070621E-01     9.3749999999975764E-01     0.0000000000000000E+00 
    2.4999999999951281E-01     6.2500000000163314E-02     0.0000000000000000E+00 
    2.4999999999961461E-01     1.2500000000033351E-01     0.0000000000000000E+00 
    2.4999999999971650E-01     1.8750000000048361E-01     0.0000000000000000E+00 
    2.4999999999981831E-01     2.5000000000063310E-01     0.0000000000000000E+00 
    2.4999999999992020E-01     3.1250000000078260E-01     0.0000000000000000E+00 
    2.5000000000002198E-01     3.7500000000093209E-01     0.0000000000000000E+00 
    2.5000000000012390E-01     4.3750000000108180E-01     0.0000000000000000E+00 
    2.5000000000022571E-01     5.0000000000121769E-01     0.0000000000000000E+00 
    2.5000000000032763E-01     5.6250000000094724E-01     0.0000000000000000E+00 
    2.5000000000042938E-01     6.2500000000066314E-01     0.0000000000000000E+00 
    2.5000000000053119E-01     6.8750000000037925E-01     0.0000000000000000E+00 
[...]
CELL_DATA 256 
SCALARS Pressure double 1 
LOOKUP_TABLE default 

    1.9473107319754106E+00 
    1.7154840770070461E+00 
    1.5850133441657748E+00 
    1.4808357841917736E+00 
    1.3851547163852014E+00 
    1.2920712763648747E+00 
    1.1993052301836935E+00 
    1.1060771720635623E+00 
    1.0124743360692068E+00 
    9.1934467559657362E-01 
    8.2845993055542000E-01 
    7.4279387384831985E-01 
    6.6660593869081997E-01 
    6.0468750568400087E-01 
    5.6123873643137068E-01 
    5.4686357296481003E-01 
    1.8759885229906923E+00 
    1.7194436801679722E+00 
    1.5936189482211780E+00 
    1.4896708011406821E+00 
    1.3940291160343476E+00 
    1.3010310288421727E+00 
    1.2083600158107777E+00 
    1.1151817078890855E+00 
    1.0215145169522863E+00 
    9.2810917922758429E-01 
    8.3660423901034453E-01 
    7.4982793762885780E-01 
    6.7197546260008922E-01 
    6.0800623009657706E-01 
    5.6236668432163950E-01 
    5.4638229017268403E-01 
    1.8206696302307888E+00 
    1.7127889992313572E+00 
    1.5986942402996915E+00 
    1.4971645926488000E+00 
    1.4022668525812503E+00 
    1.3096276827987066E+00 
    1.2171630631586259E+00 
    1.1240639646286381E+00 
    1.0303010637170773E+00 
    9.3652047875208555E-01 
    8.4420082535060137E-01 
    7.5599008402968992E-01 
    6.7601219954289726E-01 
    6.0951282709725974E-01 
    5.6158886797251828E-01 
    5.4429428869321683E-01 
    1.7771891115813636E+00 
    1.7010040452472821E+00 
    1.6005275508526102E+00 
    1.5032146577412597E+00 
    1.4098067921016606E+00 
    1.3178371968497016E+00 
    1.2257130431930012E+00 
    1.1327414847689574E+00 
    1.0388739956383846E+00 
    9.4464966826988572E-01 
    8.5136065087301493E-01 
    7.6142733452433453E-01 
    6.7885863934374646E-01 
    6.0923845936587895E-01 
    5.5866206291524034E-01 
    5.4012250938323636E-01 
    1.7426300097964265E+00 
    1.6872533121310220E+00 
    1.5998549238779542E+00 
    1.5078813368699933E+00 
    1.4166326627546317E+00 
    1.3256506932295542E+00 
    1.2340150624753625E+00 
    1.1412349017212076E+00 
    1.0472750870296890E+00 
    9.5257005376384252E-01 
    8.5820042919238471E-01 
    7.6630047239885879E-01 
    6.8068020186396894E-01 
    6.0723577890000591E-01 
    5.5333191112975955E-01 
    5.3333498900218246E-01 
    1.7149479724833034E+00 
    1.6733344454524972E+00 
    1.5974835996371801E+00 
    1.5113484747384847E+00 
    1.4227770005489258E+00 
    1.3330776031980072E+00 
    1.2420817773766109E+00 
    1.1495679225949573E+00 
    1.0555470493697623E+00 
    9.6035574810573421E-01 
    8.6484152009740489E-01 
    7.7078606260223870E-01 
    6.8167565074358960E-01 
    6.0359902909470609E-01 
    5.4535655957541862E-01 
    5.2334297287398734E-01 
    1.6926874515815071E+00 
    1.6602392049667456E+00 
    1.5941363534348651E+00 
    1.5138705466833564E+00 
    1.4283159684185569E+00 
    1.3401467544304411E+00 
    1.2499341388875140E+00 
    1.1577672740911433E+00 
    1.0637326605065811E+00 
    9.6807991645704261E-01 
    8.7140779304835403E-01 
    7.7507669754921349E-01 
    6.8208644593601420E-01 
    5.9848725012104964E-01 
    5.3453450186054152E-01 
    5.0950254617554858E-01 
    1.6747940679027065E+00 
    1.6484871675039769E+00 
    1.5904025300824962E+00 
    1.5157287370267041E+00 
    1.4333591491290651E+00 
    1.3469053930641104E+00 
    1.2576016169921862E+00 
    1.1658625871067878E+00 
    1.0718739019992440E+00 
    9.7581276409389350E-01 
    8.7802239970638141E-01 
    7.7937888474059103E-01 
    6.8220410818953414E-01 
    5.9215078184364511E-01 
    5.2073320018398606E-01 
    4.9110065419567644E-01 
    1.6604897085541381E+00 
    1.6383242066385213E+00 
    1.5867373813653491E+00 
    1.5172010719787150E+00 
    1.4380380629712595E+00 
    1.3534166719648648E+00 
    1.2651218854207242E+00 
    1.1738862092251006E+00 
    1.0800111662237164E+00 
    9.8361939293046452E-01 
    8.8480347281140848E-01 
    7.8390791691981820E-01 
    6.8237406054250827E-01 
    5.8496205067591911E-01 
    5.0392430566585966E-01 
    4.6730870946233033E-01 
    1.6491883003120364E+00 
    1.6298402960931686E+00 
    1.5834804766536517E+00 
    1.5185451754398578E+00 
    1.4424957828030189E+00 
    1.3597563169225850E+00 
    1.2725400665945634E+00 
    1.1818729703568462E+00 
    1.0881826213957735E+00 
    9.9155773049108353E-01 
    8.9185894641228569E-01 
    7.8887911521681531E-01 
    6.8299344885599977E-01 
    5.7745093690476157E-01 
    4.8424324825337034E-01 
    4.3710554354212605E-01 
    1.6404379973564451E+00 
    1.6230391040723835E+00 
    1.5808792182935552E+00 
    1.5199903998384174E+00 
    1.4468787548314437E+00 
    1.3660091107576517E+00 
    1.2799077012224347E+00 
    1.1898599574307891E+00 
    1.0964238460029814E+00 
    9.9967681771918948E-01 
    8.9928095575447475E-01 
    7.9449512850551107E-01 
    6.8449920954729204E-01 
    5.7034188881750381E-01 
    4.6209709091362300E-01 
    3.9917281239550445E-01 
    1.6338804445517539E+00 
    1.6178786902761013E+00 
    1.5791112680848254E+00 
    1.5217361124297271E+00 
    1.4513310420071523E+00 
    1.3722656297255373E+00 
    1.2872816051679292E+00 
    1.1978863667428079E+00 
    1.1047678582046816E+00 
    1.0080158148230649E+00 
    9.0714061512643485E-01 
    8.0092968719975455E-01 
    6.8734148411144969E-01 
    5.6458344625919343E-01 
    4.3835293491433747E-01 
    3.5175157003955554E-01 
    1.6292206377153111E+00 
    1.6142945254840724E+00 
    1.5783033034953762E+00 
    1.5239533618625170E+00 
    1.4559905398645845E+00 
    1.3786193234266604E+00 
    1.2947226516116879E+00 
    1.2059934548862248E+00 
    1.1132456575681215E+00 
    1.0166041400571242E+00 
    9.1548436115177434E-01 
    8.0830956360495587E-01 
    6.9193720023115513E-01 
    5.6134825327846594E-01 
    4.1465884665881736E-01 
    2.9243450511820512E-01 
    1.6262013871312984E+00 
    1.6122097555873234E+00 
    1.5785438253513786E+00 
    1.5267865864430830E+00 
    1.4609854249515632E+00 
    1.3851629966790893E+00 
    1.3022938194764810E+00 
    1.2142241772022937E+00 
    1.1218871960578825E+00 
    1.0254631517386428E+00 
    9.2433343829709125E-01 
    8.1669863622000594E-01 
    6.9860108904253748E-01 
    5.6195678888040157E-01 
    3.9398489458035840E-01 
    2.1784894418272188E-01 
    1.6245714582827824E+00 
    1.6115263520436551E+00 
    1.5798802378142724E+00 
    1.5303458013638398E+00 
    1.4664237338571584E+00 
    1.3919794853474274E+00 
    1.3100534673374364E+00 
    1.2226194621018316E+00 
    1.1307209205059181E+00 
    1.0346090510523451E+00 
    9.3368847500207519E-01 
    8.2609114051747101E-01 
    7.0746075930154917E-01 
    5.6762698248074217E-01 
    3.8152537832691857E-01 
    1.2312421211402462E-01 
    1.6240781096044605E+00 
    1.6121148011477100E+00 
    1.5823094960673176E+00 
    1.5346989615347466E+00 
    1.4723884847382913E+00 
    1.3991395908603153E+00 
    1.3180546977879459E+00 
    1.2312174461800649E+00 
    1.1397719652962839E+00 
    1.0440496515079203E+00 
    9.4352350610535396E-01 
    8.3639150417175445E-01 
    7.1832928340375568E-01 
    5.7874610246716607E-01 
    3.8594987031501837E-01 
    0.0000000000000000E+00 

SCALARS Saturarion double 1 
LOOKUP_TABLE default 

    1.0000000000000000E+00 
    9.8665218746854544E-01 
    9.6911769396123337E-01 
    9.4998018098724990E-01 
    9.3084265152611023E-01 
    9.1218126363367358E-01 
    8.9404087453060210E-01 
    8.7627382685775457E-01 
    8.5860005015898233E-01 
    8.4056349829529564E-01 
    8.2135318596645002E-01 
    7.9925959935709145E-01 
    7.6961697856636535E-01 
    7.1486539808794525E-01 
    5.4919902578532664E-01 
    9.3770865243313475E-02 
    9.9572391302631424E-01 
    9.8460175717169551E-01 
    9.6831930350644635E-01 
    9.4977395514518215E-01 
    9.3089895016561031E-01 
    9.1237547044428491E-01 
    8.9433148986637445E-01 
    8.7665885314345693E-01 
    8.5910558442736573E-01 
    8.4124826445447387E-01 
    8.2232953571947176E-01 
    8.0075597717205693E-01 
    7.7223277724987383E-01 
    7.2092765493124500E-01 
    5.7275815110706496E-01 
    1.3632889228916592E-01 
    9.9214789453420393E-01 
    9.8160161188700046E-01 
    9.6630513592979128E-01 
    9.4850120956546569E-01 
    9.3006320817826704E-01 
    9.1182073164649946E-01 
    8.9399266266148003E-01 
    8.7651909642448000E-01 
    8.5918210373650838E-01 
    8.4159550060067578E-01 
    8.2305897419107932E-01 
    8.0209376783374509E-01 
    7.7474682527898220E-01 
    7.2667900525923346E-01 
    5.9228329392853563E-01 
    1.8032330694916593E-01 
    9.8790525423863240E-01 
    9.7783423096095878E-01 
    9.6331531160581496E-01 
    9.4625378699403573E-01 
    9.2834978556177561E-01 
    9.1049378170229922E-01 
    8.9297924932089046E-01 
    8.7579517923174910E-01 
    8.5876110888556034E-01 
    8.4153247535376707E-01 
    8.2347063489341399E-01 
    8.0321200261748160E-01 
    7.7712030948610733E-01 
    7.3217399353494683E-01 
    6.0952733257838465E-01 
    2.2617023130114292E-01 
    9.8279059254766421E-01 
    9.7325732723835368E-01 
    9.5943724845956835E-01 
    9.4309638140310637E-01 
    9.2578244543936250E-01 
    9.0839334696087704E-01 
    8.9127459824101463E-01 
    8.7445927593860773E-01 
    8.5780504667384327E-01 
    8.4101230128910420E-01 
    8.2350970514655630E-01 
    8.0405336088463419E-01 
    7.7930739623681000E-01 
    7.3743692164931551E-01 
    6.2528247813597904E-01 
    2.7285782206919085E-01 
    9.7664040239310013E-01 
    9.6777776835789497E-01 
    9.5466052548466618E-01 
    9.3903694427072815E-01 
    9.2235449873566533E-01 
    9.0549858427495156E-01 
    8.8884839474915256E-01 
    8.7247411283570742E-01 
    8.5627003280068970E-01 
    8.3998342835162587E-01 
    8.2311627697126555E-01 
    8.0455296399963572E-01 
    7.8125112414420306E-01 
    7.4246251763339466E-01 
    6.3999537493240499E-01 
    3.1888666312238167E-01 
    9.6928504147289596E-01 
    9.6126762094729912E-01 
    9.4891282466763360E-01 
    9.3403088656832189E-01 
    9.1802229091825982E-01 
    9.0176055037238978E-01 
    8.8564745123223609E-01 
    8.6978343955894777E-01 
    8.5409641375196799E-01 
    8.3838078046613052E-01 
    8.2221738579240200E-01 
    8.0463125549240577E-01 
    7.8287725390554463E-01 
    7.4721677490648697E-01 
    6.5392761022284496E-01 
    3.6280428593009822E-01 
    9.6052466365622380E-01 
    9.5355781809969531E-01 
    9.4206693320011714E-01 
    9.2797986306023372E-01 
    9.1269747498795928E-01 
    8.9709290630939809E-01 
    8.8158631898193252E-01 
    8.6630297835919379E-01 
    8.5120037058586051E-01 
    8.3611829442553143E-01 
    8.2072041990682987E-01 
    8.0418751748207040E-01 
    7.8408758838152481E-01 
    7.5163518002754004E-01 
    6.6721696937868880E-01 
    4.0386239954641084E-01 
    9.5010131768633044E-01 
    9.4441962132191881E-01 
    9.3392992439297895E-01 
    9.2071977131259897E-01 
    9.0623180612174881E-01 
    8.9135572973767019E-01 
    8.7653140486670855E-01 
    8.6190542545578031E-01 
    8.4746023375322010E-01 
    8.3307693601092281E-01 
    8.1850288992719289E-01 
    8.0309038691198487E-01 
    7.8475018912161698E-01 
    7.5561678769584895E-01 
    6.7990666152564405E-01 
    4.4205140029658446E-01 
    9.3765491558701342E-01 
    9.3352904623393529E-01 
    9.2421313988041709E-01 
    9.1199188344348048E-01 
    8.9838717042879179E-01 
    8.8432521330988123E-01 
    8.7027140136336134E-01 
    8.5639243983183477E-01 
    8.4269080280720920E-01 
    8.2908210132888716E-01 
    8.1539330275833044E-01 
    8.0116104361818496E-01 
    7.8468263368278079E-01 
    7.5901135708652356E-01 
    6.9195837526471149E-01 
    4.7770442236876953E-01 
    9.2264198063708169E-01 
    9.2039720610905640E-01 
    9.1246837772797973E-01 
    9.0138134344276899E-01 
    8.8877420170832078E-01 
    8.7563244068678281E-01 
    8.6245727241062875E-01 
    8.4943724593224856E-01 
    8.3659013908773283E-01 
    8.2385620358586742E-01 
    8.1113081979627311E-01 
    7.9813907689090602E-01 
    7.8361986767699576E-01 
    7.6159265100861162E-01 
    7.0325136781336639E-01 
    5.1119852213070260E-01 
    9.0416007067423820E-01 
    9.0421750547249236E-01 
    8.9794455334294487E-01 
    8.8817732021470697E-01 
    8.7671259412790736E-01 
    8.6462314250967209E-01 
    8.5246291784382222E-01 
    8.4044930740077517E-01 
    8.2861232869764023E-01 
    8.1690382471931500E-01 
    8.0526662066368648E-01 
    7.9360096442532890E-01 
    7.8114275734242644E-01 
    7.6299864066008460E-01 
    7.1356084322315505E-01 
    5.4281176379291962E-01 
    8.8047655030108929E-01 
    8.8345852320102269E-01 
    8.7920377190513477E-01 
    8.7099391546648874E-01 
    8.6084691266115754E-01 
    8.4996469358896365E-01 
    8.3898591438031089E-01 
    8.2817770839945093E-01 
    8.1758746378308400E-01 
    8.0716426608574043E-01 
    7.9686352379102099E-01 
    7.8671539120566114E-01 
    7.7647968007303392E-01 
    7.6257280723288834E-01 
    7.2248476445376508E-01 
    5.7264849548643892E-01 
    8.4723620320374993E-01 
    8.5434888333059222E-01 
    8.5269644742165884E-01 
    8.4634624687063664E-01 
    8.3767376537977722E-01 
    8.2810128494764679E-01 
    8.1843404245487494E-01 
    8.0906136665199802E-01 
    8.0009604562276815E-01 
    7.9149022039826156E-01 
    7.8316206542882139E-01 
    7.7516196940197435E-01 
    7.6768929794213381E-01 
    7.5877525647714572E-01 
    7.2916426022256631E-01 
    6.0053977131396641E-01 
    7.8703500409578064E-01 
    8.0196534340419501E-01 
    8.0439169469052618E-01 
    8.0032174115748178E-01 
    7.9296714360825182E-01 
    7.8426819665503689E-01 
    7.7545907912559198E-01 
    7.6733409571971101E-01 
    7.6037524617999530E-01 
    7.5479912633143154E-01 
    7.5058457638868081E-01 
    7.4760357937134736E-01 
    7.4599771075551891E-01 
    7.4539330920359048E-01 
    7.3049384326293165E-01 
    6.2547413309905031E-01 
    5.7239504281313514E-01 
    6.2616620833982850E-01 
    6.4445668693886893E-01 
    6.4738928001465679E-01 
    6.4241095352816657E-01 
    6.3319957691700068E-01 
    6.2184951385408815E-01 
    6.0973225157368760E-01 
    5.9800492549264928E-01 
    5.8804272849349826E-01 
    5.8188704601800167E-01 
    5.8269605010168157E-01 
    5.9532836454259574E-01 
    6.2696009704239075E-01 
    6.7404889878096497E-01 
    6.3454127546106642E-01 
