# vtk DataFile Version 2.0
Pressure Field Data 
ASCII 
DATASET UNSTRUCTURED_GRID 

POINTS 289 double 

    0.0000000000000000E+00     0.0000000000000000E+00     0.0000000000000000E+00 
    1.0000000000000000E+00     0.0000000000000000E+00     0.0000000000000000E+00 
    1.0000000000000000E+00     1.0000000000000000E+00     0.0000000000000000E+00 
    0.0000000000000000E+00     1.0000000000000000E+00     0.0000000000000000E+00 
    6.2499999999872928E-02     0.0000000000000000E+00     0.0000000000000000E+00 
    1.2499999999977310E-01     0.0000000000000000E+00     0.0000000000000000E+00 
    1.8749999999959341E-01     0.0000000000000000E+00     0.0000000000000000E+00 
    2.4999999999941089E-01     0.0000000000000000E+00     0.0000000000000000E+00 
    3.1249999999922851E-01     0.0000000000000000E+00     0.0000000000000000E+00 
    3.7499999999904610E-01     0.0000000000000000E+00     0.0000000000000000E+00 
    4.3749999999886358E-01     0.0000000000000000E+00     0.0000000000000000E+00 
    4.9999999999869210E-01     0.0000000000000000E+00     0.0000000000000000E+00 
    5.6249999999884603E-01     0.0000000000000000E+00     0.0000000000000000E+00 
    6.2499999999901090E-01     0.0000000000000000E+00     0.0000000000000000E+00 
    6.8749999999917577E-01     0.0000000000000000E+00     0.0000000000000000E+00 
    7.4999999999934064E-01     0.0000000000000000E+00     0.0000000000000000E+00 
    8.1249999999950551E-01     0.0000000000000000E+00     0.0000000000000000E+00 
    8.7499999999967026E-01     0.0000000000000000E+00     0.0000000000000000E+00 
    9.3749999999983513E-01     0.0000000000000000E+00     0.0000000000000000E+00 
    1.0000000000000000E+00     6.2499999999872928E-02     0.0000000000000000E+00 
    1.0000000000000000E+00     1.2499999999977310E-01     0.0000000000000000E+00 
    1.0000000000000000E+00     1.8749999999959341E-01     0.0000000000000000E+00 
    1.0000000000000000E+00     2.4999999999941089E-01     0.0000000000000000E+00 
    1.0000000000000000E+00     3.1249999999922851E-01     0.0000000000000000E+00 
    1.0000000000000000E+00     3.7499999999904610E-01     0.0000000000000000E+00 
    1.0000000000000000E+00     4.3749999999886358E-01     0.0000000000000000E+00 
    1.0000000000000000E+00     4.9999999999869210E-01     0.0000000000000000E+00 
    1.0000000000000000E+00     5.6249999999884603E-01     0.0000000000000000E+00 
    1.0000000000000000E+00     6.2499999999901090E-01     0.0000000000000000E+00 
    1.0000000000000000E+00     6.8749999999917577E-01     0.0000000000000000E+00 
    1.0000000000000000E+00     7.4999999999934064E-01     0.0000000000000000E+00 
    1.0000000000000000E+00     8.1249999999950551E-01     0.0000000000000000E+00 
    1.0000000000000000E+00     8.7499999999967026E-01     0.0000000000000000E+00 
    1.0000000000000000E+00     9.3749999999983513E-01     0.0000000000000000E+00 
    9.3749999999973976E-01     1.0000000000000000E+00     0.0000000000000000E+00 
    8.7499999999950118E-01     1.0000000000000000E+00     0.0000000000000000E+00 
    8.1249999999991318E-01     1.0000000000000000E+00     0.0000000000000000E+00 
    7.5000000000034706E-01     1.0000000000000000E+00     0.0000000000000000E+00 
    6.8750000000078049E-01     1.0000000000000000E+00     0.0000000000000000E+00 
    6.2500000000121403E-01     1.0000000000000000E+00     0.0000000000000000E+00 
    5.6250000000164757E-01     1.0000000000000000E+00     0.0000000000000000E+00 
    5.0000000000205946E-01     1.0000000000000000E+00     0.0000000000000000E+00 
    4.3750000000182099E-01     1.0000000000000000E+00     0.0000000000000000E+00 
    3.7500000000156092E-01     1.0000000000000000E+00     0.0000000000000000E+00 
    3.1250000000130068E-01     1.0000000000000000E+00     0.0000000000000000E+00 
    2.5000000000104050E-01     1.0000000000000000E+00     0.0000000000000000E+00 
    1.8750000000078040E-01     1.0000000000000000E+00     0.0000000000000000E+00 
    1.2500000000052031E-01     1.0000000000000000E+00     0.0000000000000000E+00 
    6.2500000000260125E-02     1.0000000000000000E+00     0.0000000000000000E+00 
    0.0000000000000000E+00     9.3749999999973976E-01     0.0000000000000000E+00 
    0.0000000000000000E+00     8.7499999999950118E-01     0.0000000000000000E+00 
    0.0000000000000000E+00     8.1249999999991318E-01     0.0000000000000000E+00 
    0.0000000000000000E+00     7.5000000000034706E-01     0.0000000000000000E+00 
    0.0000000000000000E+00     6.8750000000078049E-01     0.0000000000000000E+00 
    0.0000000000000000E+00     6.2500000000121403E-01     0.0000000000000000E+00 
    0.0000000000000000E+00     5.6250000000164757E-01     0.0000000000000000E+00 
    0.0000000000000000E+00     5.0000000000205946E-01     0.0000000000000000E+00 
    0.0000000000000000E+00     4.3750000000182099E-01     0.0000000000000000E+00 
    0.0000000000000000E+00     3.7500000000156092E-01     0.0000000000000000E+00 
    0.0000000000000000E+00     3.1250000000130068E-01     0.0000000000000000E+00 
    0.0000000000000000E+00     2.5000000000104050E-01     0.0000000000000000E+00 
    0.0000000000000000E+00     1.8750000000078040E-01     0.0000000000000000E+00 
    0.0000000000000000E+00     1.2500000000052031E-01     0.0000000000000000E+00 
    0.0000000000000000E+00     6.2500000000260125E-02     0.0000000000000000E+00 
    6.2499999999897131E-02     6.2500000000235922E-02     0.0000000000000000E+00 
    6.2499999999921327E-02     1.2500000000047351E-01     0.0000000000000000E+00 
    6.2499999999945530E-02     1.8750000000070621E-01     0.0000000000000000E+00 
    6.2499999999969733E-02     2.5000000000093858E-01     0.0000000000000000E+00 
    6.2499999999993928E-02     3.1250000000117117E-01     0.0000000000000000E+00 
    6.2500000000018124E-02     3.7500000000140382E-01     0.0000000000000000E+00 
    6.2500000000042327E-02     4.3750000000163619E-01     0.0000000000000000E+00 
    6.2500000000066530E-02     5.0000000000184897E-01     0.0000000000000000E+00 
    6.2500000000090733E-02     5.6250000000147260E-01     0.0000000000000000E+00 
    6.2500000000114922E-02     6.2500000000107636E-01     0.0000000000000000E+00 
    6.2500000000139125E-02     6.8750000000068034E-01     0.0000000000000000E+00 
    6.2500000000163328E-02     7.5000000000028411E-01     0.0000000000000000E+00 
    6.2500000000187531E-02     8.1249999999988787E-01     0.0000000000000000E+00 
    6.2500000000211720E-02     8.7499999999951172E-01     0.0000000000000000E+00 
    6.2500000000235922E-02     9.3749999999974565E-01     0.0000000000000000E+00 
    1.2499999999981980E-01     6.2500000000211733E-02     0.0000000000000000E+00 
    1.2499999999986650E-01     1.2500000000042691E-01     0.0000000000000000E+00 
    1.2499999999991319E-01     1.8750000000063199E-01     0.0000000000000000E+00 
    1.2499999999995989E-01     2.5000000000083678E-01     0.0000000000000000E+00 
    1.2500000000000661E-01     3.1250000000104172E-01     0.0000000000000000E+00 
    1.2500000000005329E-01     3.7500000000124661E-01     0.0000000000000000E+00 
    1.2500000000010000E-01     4.3750000000145117E-01     0.0000000000000000E+00 
    1.2500000000014669E-01     5.0000000000163858E-01     0.0000000000000000E+00 
    1.2500000000019340E-01     5.6250000000129741E-01     0.0000000000000000E+00 
    1.2500000000024011E-01     6.2500000000093847E-01     0.0000000000000000E+00 
    1.2500000000028680E-01     6.8750000000057998E-01     0.0000000000000000E+00 
    1.2500000000033351E-01     7.5000000000022127E-01     0.0000000000000000E+00 
    1.2500000000038020E-01     8.1249999999986211E-01     0.0000000000000000E+00 
    1.2500000000042691E-01     8.7499999999952238E-01     0.0000000000000000E+00 
    1.2500000000047359E-01     9.3749999999975164E-01     0.0000000000000000E+00 
    1.8749999999966760E-01     6.2500000000187531E-02     0.0000000000000000E+00 
    1.8749999999974179E-01     1.2500000000038020E-01     0.0000000000000000E+00 
    1.8749999999981601E-01     1.8750000000055780E-01     0.0000000000000000E+00 
    1.8749999999989009E-01     2.5000000000073502E-01     0.0000000000000000E+00 
    1.8749999999996431E-01     3.1250000000091221E-01     0.0000000000000000E+00 
    1.8750000000003850E-01     3.7500000000108941E-01     0.0000000000000000E+00 
    1.8750000000011269E-01     4.3750000000126649E-01     0.0000000000000000E+00 
    1.8750000000018691E-01     5.0000000000142808E-01     0.0000000000000000E+00 
    1.8750000000026110E-01     5.6250000000112244E-01     0.0000000000000000E+00 
    1.8750000000033529E-01     6.2500000000080080E-01     0.0000000000000000E+00 
    1.8750000000040951E-01     6.8750000000047962E-01     0.0000000000000000E+00 
    1.8750000000048361E-01     7.5000000000015843E-01     0.0000000000000000E+00 
    1.8750000000055780E-01     8.1249999999983680E-01     0.0000000000000000E+00 
    1.8750000000063199E-01     8.7499999999953304E-01     0.0000000000000000E+00 
    1.8750000000070621E-01     9.3749999999975764E-01     0.0000000000000000E+00 
    2.4999999999951281E-01     6.2500000000163314E-02     0.0000000000000000E+00 
    2.4999999999961461E-01     1.2500000000033351E-01     0.0000000000000000E+00 
    2.4999999999971650E-01     1.8750000000048361E-01     0.0000000000000000E+00 
    2.4999999999981831E-01     2.5000000000063310E-01     0.0000000000000000E+00 
    2.4999999999992020E-01     3.1250000000078260E-01     0.0000000000000000E+00 
    2.5000000000002198E-01     3.7500000000093209E-01     0.0000000000000000E+00 
    2.5000000000012390E-01     4.3750000000108180E-01     0.0000000000000000E+00 
    2.5000000000022571E-01     5.0000000000121769E-01     0.0000000000000000E+00 
    2.5000000000032763E-01     5.6250000000094724E-01     0.0000000000000000E+00 
    2.5000000000042938E-01     6.2500000000066314E-01     0.0000000000000000E+00 
    2.5000000000053119E-01     6.8750000000037925E-01     0.0000000000000000E+00 
[...]
CELL_DATA 256 
SCALARS Pressure double 1 
LOOKUP_TABLE default 

    1.9721545234018802E+00 
    1.7395483446588311E+00 
    1.6078858397069116E+00 
    1.5021926882528960E+00 
    1.4046910177491512E+00 
    1.3094806707527731E+00 
    1.2142575049918172E+00 
    1.1181856335392144E+00 
    1.0212436346304976E+00 
    9.2408257647639691E-01 
    8.2812174087206847E-01 
    7.3569744647584123E-01 
    6.4992505911640053E-01 
    5.7479768306205159E-01 
    5.3013287757058480E-01 
    5.1708182511969081E-01 
    1.9007729961731421E+00 
    1.7435625374975983E+00 
    1.6165982332049582E+00 
    1.5111711099925369E+00 
    1.4137423776436031E+00 
    1.3186521985696400E+00 
    1.2235640299931334E+00 
    1.1275924529269354E+00 
    1.0306559280566980E+00 
    9.3332298359090393E-01 
    8.3690460241634002E-01 
    7.4362919743063938E-01 
    6.5655620196288378E-01 
    5.7937945726398732E-01 
    5.3124593819460664E-01 
    5.1660391285043972E-01 
    1.8453725684664590E+00 
    1.7369196208729754E+00 
    1.6217493243417567E+00 
    1.5187830629417964E+00 
    1.4221348029048690E+00 
    1.3274408130878994E+00 
    1.2326020425284390E+00 
    1.1367647758702868E+00 
    1.0398096186928205E+00 
    9.4221688508161716E-01 
    8.4516513582959796E-01 
    7.5074491616065298E-01 
    6.6198114817177334E-01 
    5.8256848559976149E-01 
    5.3062298542824105E-01 
    5.1470721116762874E-01 
    1.8018026819136048E+00 
    1.7251175108590229E+00 
    1.6236301716568657E+00 
    1.5249269684872480E+00 
    1.4298075792164258E+00 
    1.3358223317082496E+00 
    1.2413692319138627E+00 
    1.1457178542468041E+00 
    1.0487403474048191E+00 
    9.5082769171048320E-01 
    8.5300186198087646E-01 
    7.5717407150088545E-01 
    6.6631452764425936E-01 
    5.8430053352447364E-01 
    5.2815977200161046E-01 
    5.1109066998475738E-01 
    1.7671494661155978E+00 
    1.7113290474359031E+00 
    1.6229809999376918E+00 
    1.5296651161164045E+00 
    1.4367455326694027E+00 
    1.3437882697093586E+00 
    1.2498701772631051E+00 
    1.1544704337033311E+00 
    1.0574858744591209E+00 
    9.5922128729340916E-01 
    8.6051875040994619E-01 
    7.6305718351444041E-01 
    6.6968906476320444E-01 
    5.8454771156793339E-01 
    5.2372822558834786E-01 
    5.0543756796184358E-01 
    1.7393708703072321E+00 
    1.6973580640389752E+00 
    1.6206136003497764E+00 
    1.5331840613193530E+00 
    1.4429829228178690E+00 
    1.3513489875220122E+00 
    1.2581175023930651E+00 
    1.1630448252847767E+00 
    1.0660854252408252E+00 
    9.6746491940494739E-01 
    8.6782469479012525E-01 
    7.6854920193498044E-01 
    6.7226672614382388E-01 
    5.8333049548670868E-01 
    5.1718921714130417E-01 
    4.9738110167717720E-01 
    1.7170135354158951E+00 
    1.6842013596879200E+00 
    1.6172553491053661E+00 
    1.5357415411927713E+00 
    1.4485982048855457E+00 
    1.3585347779407457E+00 
    1.2661326548507825E+00 
    1.1714669247743119E+00 
    1.0745789577061733E+00 
    9.7562571455152602E-01 
    8.7503195095932951E-01 
    7.7382098554911571E-01 
    6.7424887268656986E-01 
    5.8073365375884345E-01 
    5.0838999828937437E-01 
    4.8645253302923142E-01 
    1.6990253128911601E+00 
    1.6723829202048641E+00 
    1.6135001584544930E+00 
    1.5376224171966519E+00 
    1.4537037755256947E+00 
    1.3653948908963636E+00 
    1.2739461625382846E+00 
    1.1797661590161319E+00 
    1.0830064119368235E+00 
    9.8376889648997223E-01 
    8.8225345388294152E-01 
    7.7905847198868294E-01 
    6.7588503947738210E-01 
    5.7692477255950747E-01 
    4.9716117996855996E-01 
    4.7200509109161787E-01 
    1.6846303572530827E+00 
    1.6621526741958312E+00 
    1.6098078138535543E+00 
    1.5391087283419804E+00 
    1.4584344581594237E+00 
    1.3719950311320335E+00 
    1.2815973532288381E+00 
    1.1879753532918784E+00 
    1.0914070059011460E+00 
    9.9195582536156157E-01 
    8.8959899650928453E-01 
    7.8445890760808146E-01 
    6.7747948442536832E-01 
    5.7218152505809816E-01 
    4.8332727618906407E-01 
    4.5310262902147663E-01 
    1.6732448146527588E+00 
    1.6536044354778487E+00 
    1.6065224043790709E+00 
    1.5404624020663191E+00 
    1.4629371011314798E+00 
    1.3784140452910048E+00 
    1.2891336442178629E+00 
    1.1961305532803528E+00 
    1.0998186707103261E+00 
    1.0002420539271846E+00 
    8.9717041357624316E-01 
    7.9022337775216234E-01 
    6.7939303192343203E-01 
    5.6693246078651349E-01 
    4.6675686430095947E-01 
    4.2836913091543716E-01 
    1.6644188525505172E+00 
    1.6467455382876928E+00 
    1.6038958416154738E+00 
    1.5419173515201179E+00 
    1.4673623926660018E+00 
    1.3847404441296687E+00 
    1.2966095799209658E+00 
    1.2042708747443949E+00 
    1.1082777521014986E+00 
    1.0086756909088326E+00 
    9.0505618224524442E-01 
    7.9654505396067832E-01 
    6.8203561441380756E-01 
    5.6180963277790430E-01 
    4.4750260702579359E-01 
    3.9583442472487562E-01 
    1.6577956377578675E+00 
    1.6415374521578214E+00 
    1.6021102189488934E+00 
    1.5436776964461243E+00 
    1.4718590906871418E+00 
    1.3910691988540693E+00 
    1.3040858060794640E+00 
    1.2124384896696723E+00 
    1.1168191464336805E+00 
    1.0172964643824920E+00 
    9.1332623119856471E-01 
    8.0359329727013296E-01 
    6.8584304377002736E-01 
    5.5769863343863646E-01 
    4.2609270221960577E-01 
    3.5287873612196086E-01 
    1.6530805874288605E+00 
    1.6379184163981211E+00 
    1.6012962561075288E+00 
    1.5459191963097034E+00 
    1.4765701383757788E+00 
    1.3974988901442826E+00 
    1.3116280756296321E+00 
    1.2206788850973924E+00 
    1.1254771340402041E+00 
    1.0261360448919425E+00 
    9.2202826188348164E-01 
    8.1149529358013339E-01 
    6.9123135422573967E-01 
    5.5575335507327217E-01 
    4.0397999394159656E-01 
    2.9630244757033664E-01 
    1.6500140864531769E+00 
    1.6358121245397579E+00 
    1.6015447381697936E+00 
    1.5487899217419625E+00 
    1.4816285163040912E+00 
    1.4041281190020385E+00 
    1.3193057644163895E+00 
    1.2290414010276776E+00 
    1.1342874591432923E+00 
    1.0352207745312616E+00 
    9.3118789340814379E-01 
    8.2031970462319581E-01 
    6.9852573420769215E-01 
    5.5732232693383355E-01 
    3.8413173008460161E-01 
    2.2223936374199194E-01 
    1.6483347907907824E+00 
    1.6351129319388191E+00 
    1.6028980734359588E+00 
    1.5523982520977451E+00 
    1.4871441530575100E+00 
    1.4110451491210461E+00 
    1.3271860309791750E+00 
    1.2375786277692460E+00 
    1.1432922132412118E+00 
    1.0445814765730372E+00 
    9.4082050604534906E-01 
    8.3007586804631162E-01 
    7.0787750456707998E-01 
    5.6370224789039647E-01 
    3.7192684156172534E-01 
    1.2562828552125854E-01 
    1.6478316694738104E+00 
    1.6357193180851390E+00 
    1.6053713001836021E+00 
    1.5568266053280302E+00 
    1.4932136893491730E+00 
    1.4183355004908857E+00 
    1.3353393378516025E+00 
    1.2463495155420130E+00 
    1.1525404638347392E+00 
    1.0542521079784812E+00 
    9.5092953170062144E-01 
    8.4070789502056176E-01 
    7.1917301749355766E-01 
    5.7547922995112322E-01 
    3.7676043286096467E-01 
    0.0000000000000000E+00 

SCALARS Saturarion double 1 
LOOKUP_TABLE default 

    1.0000000000000000E+00 
    9.8476979923575381E-01 
    9.6489083050268309E-01 
    9.4325447206615698E-01 
    9.2161105534862775E-01 
    9.0043582151840673E-01 
    8.7971541432454448E-01 
    8.5919767928732438E-01 
    8.3842027583065926E-01 
    8.1657430881991300E-01 
    7.9204502459796522E-01 
    7.6082177594401246E-01 
    7.0907898256535018E-01 
    5.6831876434962192E-01 
    1.6627784099298992E-01 
    1.3071435376394349E-03 
    9.9509954123737687E-01 
    9.8243822346118126E-01 
    9.6399399844401257E-01 
    9.4304152812228248E-01 
    9.2171022633085919E-01 
    9.0070747595045142E-01 
    8.8011460730535407E-01 
    8.5972657709816802E-01 
    8.3911881028317159E-01 
    8.1753465214924081E-01 
    7.9346896885066198E-01 
    7.6323861051565378E-01 
    7.1457483939730448E-01 
    5.8951829454532545E-01 
    2.1535781246177649E-01 
    3.2465359066819036E-03 
    9.9101534646735068E-01 
    9.7903431652643380E-01 
    9.6173416734845496E-01 
    9.4164731119520362E-01 
    9.2083710896205340E-01 
    9.0017774301512021E-01 
    8.7985296670714574E-01 
    8.5971353936093031E-01 
    8.3937736934930718E-01 
    8.1814197611880535E-01 
    7.9460923593255761E-01 
    7.6539493844686046E-01 
    7.1948900421402506E-01 
    6.0640814361982343E-01 
    2.6074105886299931E-01 
    6.5927135007451988E-03 
    9.8618714748835379E-01 
    9.7477308674800134E-01 
    9.5838701569557350E-01 
    9.3917573818751543E-01 
    9.1900567217518703E-01 
    8.9881732286150673E-01 
    8.7887695623097006E-01 
    8.5909036722857890E-01 
    8.3911972609730978E-01 
    8.1831828799842610E-01 
    7.9539360175653917E-01 
    7.6723983926507244E-01 
    7.2392836831023200E-01 
    6.2112820203366115E-01 
    3.0592021430139615E-01 
    1.2284120120367699E-02 
    9.8039094446156694E-01 
    9.6961533464208671E-01 
    9.5405823133506751E-01 
    9.3570427524390465E-01 
    9.1624519606280830E-01 
    8.9662628410895384E-01 
    8.7716943727772778E-01 
    8.5782860033916786E-01 
    8.3830910890700294E-01 
    8.1802066426586084E-01 
    7.9577676353767612E-01 
    7.6873882511514502E-01 
    7.2795243066663862E-01 
    6.3437818810983360E-01 
    3.4943039617964144E-01 
    2.1371180689864138E-02 
    9.7345482037976916E-01 
    9.6346681560204361E-01 
    9.4874555896347945E-01 
    9.3124981411969432E-01 
    9.1255473609896709E-01 
    8.9358706406173138E-01 
    8.7470234848587480E-01 
    8.5589337242703101E-01 
    8.3690520417369207E-01 
    8.1720334624937385E-01 
    7.9570818121881837E-01 
    7.6984426132250838E-01 
    7.3156243708302648E-01 
    6.4645947710415064E-01 
    3.9017269600976989E-01 
    3.5122613030284834E-02 
    9.6520458275258680E-01 
    9.5619728428070239E-01 
    9.4237986319211731E-01 
    9.2577334788849064E-01 
    9.0789557167271018E-01 
    8.8965474530904376E-01 
    8.7142640404837690E-01 
    8.5323299517932549E-01 
    8.3485419306155484E-01 
    8.1580889239834598E-01 
    7.9512474820217771E-01 
    7.7048994824870531E-01 
    7.3471602267424174E-01 
    6.5751860892131053E-01 
    4.2765577979448161E-01 
    5.5009282718724101E-02 
    9.5543728013612617E-01 
    9.4763436559539316E-01 
    9.3483392672217591E-01 
    9.1917923434788817E-01 
    9.0218304533668359E-01 
    8.8474725446960956E-01 
    8.6726143031519809E-01 
    8.4976995803776834E-01 
    8.3208080621477387E-01 
    8.1376171828040278E-01 
    7.9394608601151495E-01 
    7.7058837609488473E-01 
    7.3733475691643369E-01 
    6.6761335141849187E-01 
    4.6192034328708975E-01 
    8.2709876970509744E-02 
    9.4389097640853392E-01 
    9.3754403979401058E-01 
    9.2591162975249819E-01 
    9.1130297199197774E-01 
    8.9527077241344732E-01 
    8.7872871526079310E-01 
    8.6208046759917523E-01 
    8.4538645655271116E-01 
    8.2847563339438901E-01 
    8.1095742931900106E-01 
    7.9206603662764574E-01 
    7.7002419494440077E-01 
    7.3930236700396657E-01 
    6.7673047897896377E-01 
    4.9327701897835979E-01 
    1.1987122903468457E-01 
    9.3019698696120190E-01 
    9.2559247399980793E-01 
    9.1531611782847433E-01 
    9.0188074763756332E-01 
    8.8691918538910985E-01 
    8.7137815047239897E-01 
    8.5568010746180290E-01 
    8.3989739474622027E-01 
    8.2387150030883605E-01 
    8.0724297948519330E-01 
    7.8933654779817108E-01 
    7.6864067508227851E-01 
    7.4045283798500383E-01 
    6.8478323520395223E-01 
    5.2209048552922899E-01 
    1.6741762912877295E-01 
    9.1379025244253098E-01 
    9.1126970556182030E-01 
    9.0258036247502571E-01 
    8.9048291547887370E-01 
    8.7672976017706572E-01 
    8.6232510216512503E-01 
    8.4771937798395980E-01 
    8.3299446988380910E-01 
    8.1799423840137375E-01 
    8.0237500291098551E-01 
    7.8553363347627991E-01 
    7.6621122863309576E-01 
    7.4054255065578745E-01 
    6.9158966226207297E-01 
    5.4863504996463197E-01 
    2.2393284544964778E-01 
    8.9370881135931834E-01 
    8.9371659169162887E-01 
    8.8690597276625271E-01 
    8.7635768598132169E-01 
    8.6399043897483263E-01 
    8.5089749845942630E-01 
    8.3757369419807548E-01 
    8.2411114983163725E-01 
    8.1034317967568092E-01 
    7.9591862562597904E-01 
    7.8027502676313398E-01 
    7.6237231601228606E-01 
    7.3918649481606347E-01 
    6.9681399620845685E-01 
    5.7299332825226679E-01 
    2.8451176529542144E-01 
    8.6802699889568169E-01 
    8.7124047505884650E-01 
    8.6671019989566278E-01 
    8.5798672606113002E-01 
    8.4722998675549011E-01 
    8.3567521912038834E-01 
    8.2389761294592367E-01 
    8.1201188374643885E-01 
    7.9982610993747472E-01 
    7.8694234789238060E-01 
    7.7277918260644030E-01 
    7.5643681189263734E-01 
    7.3569176122332558E-01 
    6.9980507341316633E-01 
    5.9495282456812426E-01 
    3.4325690715987262E-01 
    8.3155056316525877E-01 
    8.3938366064885961E-01 
    8.3782430418630194E-01 
    8.3129875073166237E-01 
    8.2239345960715782E-01 
    8.1262103338067815E-01 
    8.0274918613343216E-01 
    7.9298723252655878E-01 
    7.8312491954161523E-01 
    7.7264877797820886E-01 
    7.6081858696330784E-01 
    7.4665879139630542E-01 
    7.2850495656581049E-01 
    6.9906850783625840E-01 
    6.1375042849939299E-01 
    3.9714352036890038E-01 
    7.6182633150640033E-01 
    7.7892889915874008E-01 
    7.8233640385533421E-01 
    7.7870670270103859E-01 
    7.7171775084604610E-01 
    7.6363797469960437E-01 
    7.5589059933403679E-01 
    7.4925216334274058E-01 
    7.4386159439244326E-01 
    7.3914418793792191E-01 
    7.3378213161480665E-01 
    7.2585228963792503E-01 
    7.1303949224834462E-01 
    6.9102612983712031E-01 
    6.2732666450990582E-01 
    4.4517574215760020E-01 
    4.9104524986732734E-01 
    5.6802702366929192E-01 
    5.9279929087216099E-01 
    5.9751636857655221E-01 
    5.9228110915276388E-01 
    5.8180988754547858E-01 
    5.6882499857258273E-01 
    5.5532211171631263E-01 
    5.4332137225932031E-01 
    5.3526855541992813E-01 
    5.3333812564602567E-01 
    5.3613576669320773E-01 
    5.3414833646649063E-01 
    5.2066885018579023E-01 
    5.3742826110314768E-01 
    4.5866036498374124E-01 
