# vtk DataFile Version 2.0
Pressure Field Data 
ASCII 
DATASET UNSTRUCTURED_GRID 

POINTS 289 double 

    0.0000000000000000E+00     0.0000000000000000E+00     0.0000000000000000E+00 
    1.0000000000000000E+00     0.0000000000000000E+00     0.0000000000000000E+00 
    1.0000000000000000E+00     1.0000000000000000E+00     0.0000000000000000E+00 
    0.0000000000000000E+00     1.0000000000000000E+00     0.0000000000000000E+00 
    6.2499999999872928E-02     0.0000000000000000E+00     0.0000000000000000E+00 
    1.2499999999977310E-01     0.0000000000000000E+00     0.0000000000000000E+00 
    1.8749999999959341E-01     0.0000000000000000E+00     0.0000000000000000E+00 
    2.4999999999941089E-01     0.0000000000000000E+00     0.0000000000000000E+00 
    3.1249999999922851E-01     0.0000000000000000E+00     0.0000000000000000E+00 
    3.7499999999904610E-01     0.0000000000000000E+00     0.0000000000000000E+00 
    4.3749999999886358E-01     0.0000000000000000E+00     0.0000000000000000E+00 
    4.9999999999869210E-01     0.0000000000000000E+00     0.0000000000000000E+00 
    5.6249999999884603E-01     0.0000000000000000E+00     0.0000000000000000E+00 
    6.2499999999901090E-01     0.0000000000000000E+00     0.0000000000000000E+00 
    6.8749999999917577E-01     0.0000000000000000E+00     0.0000000000000000E+00 
    7.4999999999934064E-01     0.0000000000000000E+00     0.0000000000000000E+00 
    8.1249999999950551E-01     0.0000000000000000E+00     0.0000000000000000E+00 
    8.7499999999967026E-01     0.0000000000000000E+00     0.0000000000000000E+00 
    9.3749999999983513E-01     0.0000000000000000E+00     0.0000000000000000E+00 
    1.0000000000000000E+00     6.2499999999872928E-02     0.0000000000000000E+00 
    1.0000000000000000E+00     1.2499999999977310E-01     0.0000000000000000E+00 
    1.0000000000000000E+00     1.8749999999959341E-01     0.0000000000000000E+00 
    1.0000000000000000E+00     2.4999999999941089E-01     0.0000000000000000E+00 
    1.0000000000000000E+00     3.1249999999922851E-01     0.0000000000000000E+00 
    1.0000000000000000E+00     3.7499999999904610E-01     0.0000000000000000E+00 
    1.0000000000000000E+00     4.3749999999886358E-01     0.0000000000000000E+00 
    1.0000000000000000E+00     4.9999999999869210E-01     0.0000000000000000E+00 
    1.0000000000000000E+00     5.6249999999884603E-01     0.0000000000000000E+00 
    1.0000000000000000E+00     6.2499999999901090E-01     0.0000000000000000E+00 
    1.0000000000000000E+00     6.8749999999917577E-01     0.0000000000000000E+00 
    1.0000000000000000E+00     7.4999999999934064E-01     0.0000000000000000E+00 
    1.0000000000000000E+00     8.1249999999950551E-01     0.0000000000000000E+00 
    1.0000000000000000E+00     8.7499999999967026E-01     0.0000000000000000E+00 
    1.0000000000000000E+00     9.3749999999983513E-01     0.0000000000000000E+00 
    9.3749999999973976E-01     1.0000000000000000E+00     0.0000000000000000E+00 
    8.7499999999950118E-01     1.0000000000000000E+00     0.0000000000000000E+00 
    8.1249999999991318E-01     1.0000000000000000E+00     0.0000000000000000E+00 
    7.5000000000034706E-01     1.0000000000000000E+00     0.0000000000000000E+00 
    6.8750000000078049E-01     1.0000000000000000E+00     0.0000000000000000E+00 
    6.2500000000121403E-01     1.0000000000000000E+00     0.0000000000000000E+00 
    5.6250000000164757E-01     1.0000000000000000E+00     0.0000000000000000E+00 
    5.0000000000205946E-01     1.0000000000000000E+00     0.0000000000000000E+00 
    4.3750000000182099E-01     1.0000000000000000E+00     0.0000000000000000E+00 
    3.7500000000156092E-01     1.0000000000000000E+00     0.0000000000000000E+00 
    3.1250000000130068E-01     1.0000000000000000E+00     0.0000000000000000E+00 
    2.5000000000104050E-01     1.0000000000000000E+00     0.0000000000000000E+00 
    1.8750000000078040E-01     1.0000000000000000E+00     0.0000000000000000E+00 
    1.2500000000052031E-01     1.0000000000000000E+00     0.0000000000000000E+00 
    6.2500000000260125E-02     1.0000000000000000E+00     0.0000000000000000E+00 
    0.0000000000000000E+00     9.3749999999973976E-01     0.0000000000000000E+00 
    0.0000000000000000E+00     8.7499999999950118E-01     0.0000000000000000E+00 
    0.0000000000000000E+00     8.1249999999991318E-01     0.0000000000000000E+00 
    0.0000000000000000E+00     7.5000000000034706E-01     0.0000000000000000E+00 
    0.0000000000000000E+00     6.8750000000078049E-01     0.0000000000000000E+00 
    0.0000000000000000E+00     6.2500000000121403E-01     0.0000000000000000E+00 
    0.0000000000000000E+00     5.6250000000164757E-01     0.0000000000000000E+00 
    0.0000000000000000E+00     5.0000000000205946E-01     0.0000000000000000E+00 
    0.0000000000000000E+00     4.3750000000182099E-01     0.0000000000000000E+00 
    0.0000000000000000E+00     3.7500000000156092E-01     0.0000000000000000E+00 
    0.0000000000000000E+00     3.1250000000130068E-01     0.0000000000000000E+00 
    0.0000000000000000E+00     2.5000000000104050E-01     0.0000000000000000E+00 
    0.0000000000000000E+00     1.8750000000078040E-01     0.0000000000000000E+00 
    0.0000000000000000E+00     1.2500000000052031E-01     0.0000000000000000E+00 
    0.0000000000000000E+00     6.2500000000260125E-02     0.0000000000000000E+00 
    6.2499999999897131E-02     6.2500000000235922E-02     0.0000000000000000E+00 
    6.2499999999921327E-02     1.2500000000047351E-01     0.0000000000000000E+00 
    6.2499999999945530E-02     1.8750000000070621E-01     0.0000000000000000E+00 
    6.2499999999969733E-02     2.5000000000093858E-01     0.0000000000000000E+00 
    6.2499999999993928E-02     3.1250000000117117E-01     0.0000000000000000E+00 
    6.2500000000018124E-02     3.7500000000140382E-01     0.0000000000000000E+00 
    6.2500000000042327E-02     4.3750000000163619E-01     0.0000000000000000E+00 
    6.2500000000066530E-02     5.0000000000184897E-01     0.0000000000000000E+00 
    6.2500000000090733E-02     5.6250000000147260E-01     0.0000000000000000E+00 
    6.2500000000114922E-02     6.2500000000107636E-01     0.0000000000000000E+00 
    6.2500000000139125E-02     6.8750000000068034E-01     0.0000000000000000E+00 
    6.2500000000163328E-02     7.5000000000028411E-01     0.0000000000000000E+00 
    6.2500000000187531E-02     8.1249999999988787E-01     0.0000000000000000E+00 
    6.2500000000211720E-02     8.7499999999951172E-01     0.0000000000000000E+00 
    6.2500000000235922E-02     9.3749999999974565E-01     0.0000000000000000E+00 
    1.2499999999981980E-01     6.2500000000211733E-02     0.0000000000000000E+00 
    1.2499999999986650E-01     1.2500000000042691E-01     0.0000000000000000E+00 
    1.2499999999991319E-01     1.8750000000063199E-01     0.0000000000000000E+00 
    1.2499999999995989E-01     2.5000000000083678E-01     0.0000000000000000E+00 
    1.2500000000000661E-01     3.1250000000104172E-01     0.0000000000000000E+00 
    1.2500000000005329E-01     3.7500000000124661E-01     0.0000000000000000E+00 
    1.2500000000010000E-01     4.3750000000145117E-01     0.0000000000000000E+00 
    1.2500000000014669E-01     5.0000000000163858E-01     0.0000000000000000E+00 
    1.2500000000019340E-01     5.6250000000129741E-01     0.0000000000000000E+00 
    1.2500000000024011E-01     6.2500000000093847E-01     0.0000000000000000E+00 
    1.2500000000028680E-01     6.8750000000057998E-01     0.0000000000000000E+00 
    1.2500000000033351E-01     7.5000000000022127E-01     0.0000000000000000E+00 
    1.2500000000038020E-01     8.1249999999986211E-01     0.0000000000000000E+00 
    1.2500000000042691E-01     8.7499999999952238E-01     0.0000000000000000E+00 
    1.2500000000047359E-01     9.3749999999975164E-01     0.0000000000000000E+00 
    1.8749999999966760E-01     6.2500000000187531E-02     0.0000000000000000E+00 
    1.8749999999974179E-01     1.2500000000038020E-01     0.0000000000000000E+00 
    1.8749999999981601E-01     1.8750000000055780E-01     0.0000000000000000E+00 
    1.8749999999989009E-01     2.5000000000073502E-01     0.0000000000000000E+00 
    1.8749999999996431E-01     3.1250000000091221E-01     0.0000000000000000E+00 
    1.8750000000003850E-01     3.7500000000108941E-01     0.0000000000000000E+00 
    1.8750000000011269E-01     4.3750000000126649E-01     0.0000000000000000E+00 
    1.8750000000018691E-01     5.0000000000142808E-01     0.0000000000000000E+00 
    1.8750000000026110E-01     5.6250000000112244E-01     0.0000000000000000E+00 
    1.8750000000033529E-01     6.2500000000080080E-01     0.0000000000000000E+00 
    1.8750000000040951E-01     6.8750000000047962E-01     0.0000000000000000E+00 
    1.8750000000048361E-01     7.5000000000015843E-01     0.0000000000000000E+00 
    1.8750000000055780E-01     8.1249999999983680E-01     0.0000000000000000E+00 
    1.8750000000063199E-01     8.7499999999953304E-01     0.0000000000000000E+00 
    1.8750000000070621E-01     9.3749999999975764E-01     0.0000000000000000E+00 
    2.4999999999951281E-01     6.2500000000163314E-02     0.0000000000000000E+00 
    2.4999999999961461E-01     1.2500000000033351E-01     0.0000000000000000E+00 
    2.4999999999971650E-01     1.8750000000048361E-01     0.0000000000000000E+00 
    2.4999999999981831E-01     2.5000000000063310E-01     0.0000000000000000E+00 
    2.4999999999992020E-01     3.1250000000078260E-01     0.0000000000000000E+00 
    2.5000000000002198E-01     3.7500000000093209E-01     0.0000000000000000E+00 
    2.5000000000012390E-01     4.3750000000108180E-01     0.0000000000000000E+00 
    2.5000000000022571E-01     5.0000000000121769E-01     0.0000000000000000E+00 
    2.5000000000032763E-01     5.6250000000094724E-01     0.0000000000000000E+00 
    2.5000000000042938E-01     6.2500000000066314E-01     0.0000000000000000E+00 
    2.5000000000053119E-01     6.8750000000037925E-01     0.0000000000000000E+00 
[...]
CELL_DATA 256 
SCALARS Pressure double 1 
LOOKUP_TABLE default 

    1.9808277461058608E+00 
    1.7483611251558169E+00 
    1.6169118691804236E+00 
    1.5114904652223276E+00 
    1.4143171177629175E+00 
    1.3194945275357808E+00 
    1.2247276652509151E+00 
    1.1291996403206963E+00 
    1.0329247695796691E+00 
    9.3661892023398063E-01 
    8.4181676381107140E-01 
    7.5105630012916014E-01 
    6.6777936109859803E-01 
    5.9583072485360034E-01 
    5.4945539858689851E-01 
    5.3606579090110940E-01 
    1.9094575752347214E+00 
    1.7523659267320857E+00 
    1.6256053835126247E+00 
    1.5204432239943839E+00 
    1.4233363153005212E+00 
    1.3286266600505066E+00 
    1.2339857008509443E+00 
    1.1385452681260950E+00 
    1.0422566403139484E+00 
    9.4574827542294260E-01 
    8.5043899485797358E-01 
    7.5875037886918817E-01 
    6.7408225476494543E-01 
    6.0020077059248533E-01 
    5.5064664900317883E-01 
    5.3561057396926670E-01 
    1.8540728520940879E+00 
    1.7457216567324254E+00 
    1.6307434193496531E+00 
    1.5280342322392502E+00 
    1.4317006542872932E+00 
    1.3373793152260975E+00 
    1.2429777411613177E+00 
    1.1476574077590418E+00 
    1.0513283533150657E+00 
    9.5452522485425140E-01 
    8.5852583368251978E-01 
    7.6560380872628830E-01 
    6.7912785237962614E-01 
    6.0303915926527640E-01 
    5.5006446686952926E-01 
    5.3373947870101746E-01 
    1.8105203196909863E+00 
    1.7339236683031096E+00 
    1.6326165385953721E+00 
    1.5341617685944058E+00 
    1.4393494084121632E+00 
    1.3457284683592710E+00 
    1.2517019066732025E+00 
    1.1565521933258882E+00 
    1.0601771700043168E+00 
    9.6301592097320365E-01 
    8.6617987319735945E-01 
    7.7175068779838762E-01 
    6.8303699388157246E-01 
    6.0428839652615873E-01 
    5.4760790133236981E-01 
    5.3013398810136436E-01 
    1.7758854969042452E+00 
    1.7201432510492007E+00 
    1.6319641950104324E+00 
    1.5388877835323689E+00 
    1.4462672591079706E+00 
    1.3536656848047661E+00 
    1.2601631109538340E+00 
    1.1652491616632430E+00 
    1.0688423951825290E+00 
    9.7128899431747873E-01 
    8.7350949622781382E-01 
    7.7733754963135571E-01 
    6.8595033037249442E-01 
    6.0393960756313980E-01 
    5.4313580953521623E-01 
    5.2444114470699943E-01 
    1.7481258713939227E+00 
    1.7061830782724363E+00 
    1.6295973343239869E+00 
    1.5423983460704707E+00 
    1.4524881970402230E+00 
    1.3612012638012920E+00 
    1.2683742016082358E+00 
    1.1737712944567833E+00 
    1.0773646677575774E+00 
    9.7941435087277673E-01 
    8.8062819950685367E-01 
    7.8252642273744522E-01 
    6.8803943751355445E-01 
    6.0203347965386556E-01 
    5.3647113343336572E-01 
    5.1622813766244802E-01 
    1.7257876477716485E+00 
    1.6930389961461414E+00 
    1.6262424724416626E+00 
    1.5449505981822136E+00 
    1.4580902939013607E+00 
    1.3683653234228594E+00 
    1.2763567279116714E+00 
    1.1821450124424513E+00 
    1.0857851767916888E+00 
    9.8746158670762529E-01 
    8.8765285551249562E-01 
    7.8749608309332253E-01 
    6.8951718447252763E-01 
    5.9867108608460529E-01 
    5.2739757290060552E-01 
    5.0491992601717917E-01 
    1.7078182389373824E+00 
    1.6812341516569012E+00 
    1.6224926625185521E+00 
    1.5468287225300150E+00 
    1.4631854562187612E+00 
    1.3752068232629890E+00 
    1.2841411878672440E+00 
    1.1904001009764682E+00 
    1.0941448652160497E+00 
    9.9549810276221995E-01 
    8.9470081764580434E-01 
    7.9244095558178118E-01 
    6.9064717336603032E-01 
    5.9403563484257871E-01 
    5.1566631756946435E-01 
    4.8971624378800738E-01 
    1.6934413612567358E+00 
    1.6710176995277588E+00 
    1.6188068330378156E+00 
    1.5483140104195494E+00 
    1.4679079162015094E+00 
    1.3817910594098533E+00 
    1.2917667392598133E+00 
    1.1985695609565123E+00 
    1.1024836875175676E+00 
    1.0035870440258199E+00 
    9.0188585057481074E-01 
    7.9756689843867901E-01 
    6.9175068360898384E-01 
    5.8842813861670096E-01 
    5.0103357904552448E-01 
    4.6949351863380956E-01 
    1.6820727414617480E+00 
    1.6624827208350630E+00 
    1.6155282156512376E+00 
    1.5496675811623828E+00 
    1.4724038326344111E+00 
    1.3881963471324166E+00 
    1.2992804805171176E+00 
    1.2066894178257397E+00 
    1.1108400169875696E+00 
    1.0117852699106826E+00 
    9.0931305028050369E-01 
    8.0308306240964522E-01 
    6.9320779277304090E-01 
    5.8231563656425600E-01 
    4.8336342967564411E-01 
    4.4273056071056499E-01 
    1.6732621797560800E+00 
    1.6556358529173614E+00 
    1.6129078649854744E+00 
    1.5511224859748798E+00 
    1.4768231064167325E+00 
    1.3945105354712204E+00 
    1.3067364762780331E+00 
    1.2147985589026780E+00 
    1.1192503294801543E+00 
    1.0201416567497712E+00 
    9.1707320636466161E-01 
    8.0918932823656331E-01 
    6.9544773576685026E-01 
    5.7638317406350348E-01 
    4.6282328707278769E-01 
    4.0751791137559845E-01 
    1.6666525878668939E+00 
    1.6504379231880553E+00 
    1.6111270332024328E+00 
    1.5528819418602131E+00 
    1.4813136118407049E+00 
    1.4008277907219553E+00 
    1.3141947100719218E+00 
    1.2229386995342499E+00 
    1.1277493259282072E+00 
    1.0286961304543334E+00 
    9.2523744284055776E-01 
    8.1605965753214171E-01 
    6.9892268596828644E-01 
    5.7157241711072670E-01 
    4.4015267410004011E-01 
    3.6160377551396844E-01 
    1.6619493667560092E+00 
    1.6468266631894644E+00 
    1.6103156787308102E+00 
    1.5551208101058549E+00 
    1.4860173277297348E+00 
    1.4072457261586153E+00 
    1.3217200435738554E+00 
    1.2311545880107362E+00 
    1.1363707272489678E+00 
    1.0374799694678847E+00 
    9.3385346123126955E-01 
    8.2382322682025810E-01 
    7.0405962131217081E-01 
    5.6908211249348517E-01 
    4.1700151552085041E-01 
    3.0227095748380112E-01 
    1.6588934804137914E+00 
    1.6447257105359663E+00 
    1.6105641783972584E+00 
    1.5579864659472089E+00 
    1.4910662892178390E+00 
    1.4138617996832370E+00 
    1.3293806122431744E+00 
    1.2394943514930774E+00 
    1.1451491491266443E+00 
    1.0465183749267111E+00 
    9.4294558492041081E-01 
    8.3254784922618397E-01 
    7.1118815527132018E-01 
    5.7028714064141561E-01 
    3.9645729703108545E-01 
    2.2595957133643646E-01 
    1.6572256908625431E+00 
    1.6440309472571135E+00 
    1.6119159284138926E+00 
    1.5615875612560974E+00 
    1.4965699423395531E+00 
    1.4207630435265841E+00 
    1.3372416462015466E+00 
    1.2480080736407861E+00 
    1.1541237413718688E+00 
    1.0558388376572394E+00 
    9.5252525621394890E-01 
    8.4223788472350014E-01 
    7.2045610492983903E-01 
    5.7648650870434581E-01 
    3.8396620061687209E-01 
    1.2769641174288326E-01 
    1.6567245307273279E+00 
    1.6446337901392105E+00 
    1.6143813932540936E+00 
    1.5660029304154279E+00 
    1.5026216349625086E+00 
    1.4280314925029678E+00 
    1.3453695950154059E+00 
    1.2567500633165050E+00 
    1.1633384492021699E+00 
    1.0654696370052519E+00 
    9.6258800622038521E-01 
    8.5282117675865521E-01 
    7.3170858499470304E-01 
    5.8817775183024590E-01 
    3.8876216883007092E-01 
    0.0000000000000000E+00 

SCALARS Saturarion double 1 
LOOKUP_TABLE default 

    1.0000000000000000E+00 
    9.8511299768339933E-01 
    9.6566108165848485E-01 
    9.4448133853426164E-01 
    9.2329889111276997E-01 
    9.0259101183570467E-01 
    8.8235775306705866E-01 
    8.6237133386673659E-01 
    8.4221406319133674E-01 
    8.2116809775331234E-01 
    7.9783781751982419E-01 
    7.6888112352762294E-01 
    7.2336687773238084E-01 
    6.1055679819200082E-01 
    2.4878452024397615E-01 
    4.6057045060481942E-03 
    9.9521360262154868E-01 
    9.8283246496189325E-01 
    9.6478173226910702E-01 
    9.4426883742539713E-01 
    9.2338908923452978E-01 
    9.0284690051626082E-01 
    8.8273475576679583E-01 
    8.6287029168415563E-01 
    8.4287112123762808E-01 
    8.2206624409693363E-01 
    7.9915325018838002E-01 
    7.7105082008743597E-01 
    7.2796734439561872E-01 
    6.2635769783381956E-01 
    3.0124521763561035E-01 
    1.0003821245184567E-02 
    9.9122195814315373E-01 
    9.7950170317247842E-01 
    9.6256581833020882E-01 
    9.4289542305622398E-01 
    9.2252095058076378E-01 
    9.0231023557271661E-01 
    8.8245596006030580E-01 
    8.6282993772770133E-01 
    8.4309019535400842E-01 
    8.2261539801620365E-01 
    8.0019607872108101E-01 
    7.7299445998740335E-01 
    7.3217545988053301E-01 
    6.3949369443264092E-01 
    3.4600420374840080E-01 
    1.8182814158988234E-02 
    9.8650005320530931E-01 
    9.7532967058268583E-01 
    9.5928249779774022E-01 
    9.4046283216676263E-01 
    9.2070855214624558E-01 
    9.0095283661491876E-01 
    8.8146934148656997E-01 
    8.6218359587328752E-01 
    8.4279624330756231E-01 
    8.2273800734744518E-01 
    8.0089308626088584E-01 
    7.7465480138160148E-01 
    7.3602659562692574E-01 
    6.5114912030624927E-01 
    3.8737358400416749E-01 
    3.0461914291145909E-02 
    9.8082708735253776E-01 
    9.7027644809767033E-01 
    9.5503401936111165E-01 
    9.3704614296785971E-01 
    9.1798014499522895E-01 
    8.9877451938987030E-01 
    8.7975784001378088E-01 
    8.6090288485573829E-01 
    8.4195222970162831E-01 
    8.2239007725198454E-01 
    8.0119625219875668E-01 
    7.7598963972574986E-01 
    7.3953838358469326E-01 
    6.6179215382599166E-01 
    4.2506566288580733E-01 
    4.7939087517246341E-02 
    9.7403243392823624E-01 
    9.6424780127480447E-01 
    9.4981648328483603E-01 
    9.3266049308841315E-01 
    9.1433364029590658E-01 
    8.9575704144143964E-01 
    8.7729290592152076E-01 
    8.5895241387279120E-01 
    8.4051706928131198E-01 
    8.2152456548741937E-01 
    8.0105278649170053E-01 
    7.7694640633933854E-01 
    7.4269208436632872E-01 
    6.7162468882326898E-01 
    4.5918650222757429E-01 
    7.1807048225941278E-02 
    9.6594244570546073E-01 
    9.5711367840968287E-01 
    9.4355997917171208E-01 
    9.2726568326230097E-01 
    9.0972925860210074E-01 
    8.9185460166521435E-01 
    8.7402439828450151E-01 
    8.5627952361244142E-01 
    8.3843573583360975E-01 
    8.2008245529409907E-01 
    8.0039746745130536E-01 
    7.7745565247461068E-01 
    7.4543571872013537E-01 
    6.8072843462135424E-01 
    4.9014048919877090E-01 
    1.0330550551799600E-01 
    9.5635442056152331E-01 
    9.4870204452797369E-01 
    9.3613705587735319E-01 
    9.2076535335052845E-01 
    9.0408144532657420E-01 
    8.8698412197996024E-01 
    8.6987095657242519E-01 
    8.5280525774884275E-01 
    8.3563120865874596E-01 
    8.1798606066427271E-01 
    7.9914744211021194E-01 
    7.7742704550954767E-01 
    7.4768558401355512E-01 
    6.8911265798039578E-01 
    5.1842334167850768E-01 
    1.4347976060141654E-01 
    9.4500681126724084E-01 
    9.3877954660793539E-01 
    9.2735189716715849E-01 
    9.1299478984322024E-01 
    8.9724317029791789E-01 
    8.8100865637682413E-01 
    8.6470406754340845E-01 
    8.4840975541644148E-01 
    8.3199157180470174E-01 
    8.1512811152155595E-01 
    7.9719339410852119E-01 
    7.7674210098560703E-01 
    7.4932177152740786E-01 
    6.9672748339170210E-01 
    5.4448452203371134E-01 
    1.9235367079774524E-01 
    9.3153216806147365E-01 
    9.2701383018594863E-01 
    9.1690881968350413E-01 
    9.0369074813776784E-01 
    8.8897471010872164E-01 
    8.7370621722559250E-01 
    8.5831833854657891E-01 
    8.4290497797558905E-01 
    8.2734593532009015E-01 
    8.1135136460996271E-01 
    7.9438289272974871E-01 
    7.7524007593170630E-01 
    7.5017515645312083E-01 
    7.0345967364735074E-01 
    5.6865101888198077E-01 
    2.4769093065031603E-01 
    9.1536912613124699E-01 
    9.1289849249377053E-01 
    9.0434388611218564E-01 
    8.9242584077018428E-01 
    8.7887862236074588E-01 
    8.6470585266375855E-01 
    8.5037039536380155E-01 
    8.3597829558836734E-01 
    8.2141426950171881E-01 
    8.0640575664753289E-01 
    7.9048521888527379E-01 
    7.7268869517357908E-01 
    7.4999922418188658E-01 
    7.0911065049850353E-01 
    5.9108287168532803E-01 
    3.0480681890668204E-01 
    8.9556677182439770E-01 
    8.9558396764347770E-01 
    8.8886713440143572E-01 
    8.7845530151158169E-01 
    8.6624782104459774E-01 
    8.5333742060077145E-01 
    8.4023356641907077E-01 
    8.2705674537836360E-01 
    8.1368579939755692E-01 
    7.9984419120158512E-01 
    7.8510586914106484E-01 
    7.6871490281046917E-01 
    7.4840652305785460E-01 
    7.1334016240309994E-01 
    6.1174524918683171E-01 
    3.5944221291167483E-01 
    8.7023675174731940E-01 
    8.7340840026895250E-01 
    8.6892302776275465E-01 
    8.6028503533151057E-01 
    8.4963119700725942E-01 
    8.3819422976495928E-01 
    8.2656597748211624E-01 
    8.1489633076757906E-01 
    8.0304815641165650E-01 
    7.9070671223664113E-01 
    7.7743262380027056E-01 
    7.6260757129721835E-01 
    7.4470100573836717E-01 
    7.1551552669052143E-01 
    6.3035879067419576E-01 
    4.0990039309815041E-01 
    8.3435047016114305E-01 
    8.4204908318569327E-01 
    8.4046319959673099E-01 
    8.3395543824570806E-01 
    8.2507496152051840E-01 
    8.1532108210969700E-01 
    8.0547554365028995E-01 
    7.9579250811636659E-01 
    7.8613694273318901E-01 
    7.7610358932441748E-01 
    7.6511770884590347E-01 
    7.5250595165244150E-01 
    7.3728127850827074E-01 
    7.1421305838693783E-01 
    6.4618197087962215E-01 
    4.5585677259124147E-01 
    7.6646243152172078E-01 
    7.8314372692062972E-01 
    7.8633878580132655E-01 
    7.8258867616129024E-01 
    7.7548035019335382E-01 
    7.6721830866323604E-01 
    7.5919383494260662E-01 
    7.5220270327244709E-01 
    7.4648284396230435E-01 
    7.4166258654612960E-01 
    7.3673745038518079E-01 
    7.3022722951676133E-01 
    7.2059190470802659E-01 
    7.0524729947019560E-01 
    6.5687625654361947E-01 
    4.9680400002483760E-01 
    5.0634242442728516E-01 
    5.7861413760946412E-01 
    6.0222166961173063E-01 
    6.0666455613585391E-01 
    6.0152165878358910E-01 
    5.9130566246459271E-01 
    5.7860017639727668E-01 
    5.6523590284215008E-01 
    5.5298719294722254E-01 
    5.4403367519750279E-01 
    5.4075824145869344E-01 
    5.4392219938230801E-01 
    5.5052961661818778E-01 
    5.6285913560454803E-01 
    5.9423620875859906E-01 
    5.1460618711356665E-01 
