# vtk DataFile Version 2.0
Pressure Field Data 
ASCII 
DATASET UNSTRUCTURED_GRID 

POINTS 289 double 

    0.0000000000000000E+00     0.0000000000000000E+00     0.0000000000000000E+00 
    1.0000000000000000E+00     0.0000000000000000E+00     0.0000000000000000E+00 
    1.0000000000000000E+00     1.0000000000000000E+00     0.0000000000000000E+00 
    0.0000000000000000E+00     1.0000000000000000E+00     0.0000000000000000E+00 
    6.2499999999872928E-02     0.0000000000000000E+00     0.0000000000000000E+00 
    1.2499999999977310E-01     0.0000000000000000E+00     0.0000000000000000E+00 
    1.8749999999959341E-01     0.0000000000000000E+00     0.0000000000000000E+00 
    2.4999999999941089E-01     0.0000000000000000E+00     0.0000000000000000E+00 
    3.1249999999922851E-01     0.0000000000000000E+00     0.0000000000000000E+00 
    3.7499999999904610E-01     0.0000000000000000E+00     0.0000000000000000E+00 
    4.3749999999886358E-01     0.0000000000000000E+00     0.0000000000000000E+00 
    4.9999999999869210E-01     0.0000000000000000E+00     0.0000000000000000E+00 
    5.6249999999884603E-01     0.0000000000000000E+00     0.0000000000000000E+00 
    6.2499999999901090E-01     0.0000000000000000E+00     0.0000000000000000E+00 
    6.8749999999917577E-01     0.0000000000000000E+00     0.0000000000000000E+00 
    7.4999999999934064E-01     0.0000000000000000E+00     0.0000000000000000E+00 
    8.1249999999950551E-01     0.0000000000000000E+00     0.0000000000000000E+00 
    8.7499999999967026E-01     0.0000000000000000E+00     0.0000000000000000E+00 
    9.3749999999983513E-01     0.0000000000000000E+00     0.0000000000000000E+00 
    1.0000000000000000E+00     6.2499999999872928E-02     0.0000000000000000E+00 
    1.0000000000000000E+00     1.2499999999977310E-01     0.0000000000000000E+00 
    1.0000000000000000E+00     1.8749999999959341E-01     0.0000000000000000E+00 
    1.0000000000000000E+00     2.4999999999941089E-01     0.0000000000000000E+00 
    1.0000000000000000E+00     3.1249999999922851E-01     0.0000000000000000E+00 
    1.0000000000000000E+00     3.7499999999904610E-01     0.0000000000000000E+00 
    1.0000000000000000E+00     4.3749999999886358E-01     0.0000000000000000E+00 
    1.0000000000000000E+00     4.9999999999869210E-01     0.0000000000000000E+00 
    1.0000000000000000E+00     5.6249999999884603E-01     0.0000000000000000E+00 
    1.0000000000000000E+00     6.2499999999901090E-01     0.0000000000000000E+00 
    1.0000000000000000E+00     6.8749999999917577E-01     0.0000000000000000E+00 
    1.0000000000000000E+00     7.4999999999934064E-01     0.0000000000000000E+00 
    1.0000000000000000E+00     8.1249999999950551E-01     0.0000000000000000E+00 
    1.0000000000000000E+00     8.7499999999967026E-01     0.0000000000000000E+00 
    1.0000000000000000E+00     9.3749999999983513E-01     0.0000000000000000E+00 
    9.3749999999973976E-01     1.0000000000000000E+00     0.0000000000000000E+00 
    8.7499999999950118E-01     1.0000000000000000E+00     0.0000000000000000E+00 
    8.1249999999991318E-01     1.0000000000000000E+00     0.0000000000000000E+00 
    7.5000000000034706E-01     1.0000000000000000E+00     0.0000000000000000E+00 
    6.8750000000078049E-01     1.0000000000000000E+00     0.0000000000000000E+00 
    6.2500000000121403E-01     1.0000000000000000E+00     0.0000000000000000E+00 
    5.6250000000164757E-01     1.0000000000000000E+00     0.0000000000000000E+00 
    5.0000000000205946E-01     1.0000000000000000E+00     0.0000000000000000E+00 
    4.3750000000182099E-01     1.0000000000000000E+00     0.0000000000000000E+00 
    3.7500000000156092E-01     1.0000000000000000E+00     0.0000000000000000E+00 
    3.1250000000130068E-01     1.0000000000000000E+00     0.0000000000000000E+00 
    2.5000000000104050E-01     1.0000000000000000E+00     0.0000000000000000E+00 
    1.8750000000078040E-01     1.0000000000000000E+00     0.0000000000000000E+00 
    1.2500000000052031E-01     1.0000000000000000E+00     0.0000000000000000E+00 
    6.2500000000260125E-02     1.0000000000000000E+00     0.0000000000000000E+00 
    0.0000000000000000E+00     9.3749999999973976E-01     0.0000000000000000E+00 
    0.0000000000000000E+00     8.7499999999950118E-01     0.0000000000000000E+00 
    0.0000000000000000E+00     8.1249999999991318E-01     0.0000000000000000E+00 
    0.0000000000000000E+00     7.5000000000034706E-01     0.0000000000000000E+00 
    0.0000000000000000E+00     6.8750000000078049E-01     0.0000000000000000E+00 
    0.0000000000000000E+00     6.2500000000121403E-01     0.0000000000000000E+00 
    0.0000000000000000E+00     5.6250000000164757E-01     0.0000000000000000E+00 
    0.0000000000000000E+00     5.0000000000205946E-01     0.0000000000000000E+00 
    0.0000000000000000E+00     4.3750000000182099E-01     0.0000000000000000E+00 
    0.0000000000000000E+00     3.7500000000156092E-01     0.0000000000000000E+00 
    0.0000000000000000E+00     3.1250000000130068E-01     0.0000000000000000E+00 
    0.0000000000000000E+00     2.5000000000104050E-01     0.0000000000000000E+00 
    0.0000000000000000E+00     1.8750000000078040E-01     0.0000000000000000E+00 
    0.0000000000000000E+00     1.2500000000052031E-01     0.0000000000000000E+00 
    0.0000000000000000E+00     6.2500000000260125E-02     0.0000000000000000E+00 
    6.2499999999897131E-02     6.2500000000235922E-02     0.0000000000000000E+00 
    6.2499999999921327E-02     1.2500000000047351E-01     0.0000000000000000E+00 
    6.2499999999945530E-02     1.8750000000070621E-01     0.0000000000000000E+00 
    6.2499999999969733E-02     2.5000000000093858E-01     0.0000000000000000E+00 
    6.2499999999993928E-02     3.1250000000117117E-01     0.0000000000000000E+00 
    6.2500000000018124E-02     3.7500000000140382E-01     0.0000000000000000E+00 
    6.2500000000042327E-02     4.3750000000163619E-01     0.0000000000000000E+00 
    6.2500000000066530E-02     5.0000000000184897E-01     0.0000000000000000E+00 
    6.2500000000090733E-02     5.6250000000147260E-01     0.0000000000000000E+00 
    6.2500000000114922E-02     6.2500000000107636E-01     0.0000000000000000E+00 
    6.2500000000139125E-02     6.8750000000068034E-01     0.0000000000000000E+00 
    6.2500000000163328E-02     7.5000000000028411E-01     0.0000000000000000E+00 
    6.2500000000187531E-02     8.1249999999988787E-01     0.0000000000000000E+00 
    6.2500000000211720E-02     8.7499999999951172E-01     0.0000000000000000E+00 
    6.2500000000235922E-02     9.3749999999974565E-01     0.0000000000000000E+00 
    1.2499999999981980E-01     6.2500000000211733E-02     0.0000000000000000E+00 
    1.2499999999986650E-01     1.2500000000042691E-01     0.0000000000000000E+00 
    1.2499999999991319E-01     1.8750000000063199E-01     0.0000000000000000E+00 
    1.2499999999995989E-01     2.5000000000083678E-01     0.0000000000000000E+00 
    1.2500000000000661E-01     3.1250000000104172E-01     0.0000000000000000E+00 
    1.2500000000005329E-01     3.7500000000124661E-01     0.0000000000000000E+00 
    1.2500000000010000E-01     4.3750000000145117E-01     0.0000000000000000E+00 
    1.2500000000014669E-01     5.0000000000163858E-01     0.0000000000000000E+00 
    1.2500000000019340E-01     5.6250000000129741E-01     0.0000000000000000E+00 
    1.2500000000024011E-01     6.2500000000093847E-01     0.0000000000000000E+00 
    1.2500000000028680E-01     6.8750000000057998E-01     0.0000000000000000E+00 
    1.2500000000033351E-01     7.5000000000022127E-01     0.0000000000000000E+00 
    1.2500000000038020E-01     8.1249999999986211E-01     0.0000000000000000E+00 
    1.2500000000042691E-01     8.7499999999952238E-01     0.0000000000000000E+00 
    1.2500000000047359E-01     9.3749999999975164E-01     0.0000000000000000E+00 
    1.8749999999966760E-01     6.2500000000187531E-02     0.0000000000000000E+00 
    1.8749999999974179E-01     1.2500000000038020E-01     0.0000000000000000E+00 
    1.8749999999981601E-01     1.8750000000055780E-01     0.0000000000000000E+00 
    1.8749999999989009E-01     2.5000000000073502E-01     0.0000000000000000E+00 
    1.8749999999996431E-01     3.1250000000091221E-01     0.0000000000000000E+00 
    1.8750000000003850E-01     3.7500000000108941E-01     0.0000000000000000E+00 
    1.8750000000011269E-01     4.3750000000126649E-01     0.0000000000000000E+00 
    1.8750000000018691E-01     5.0000000000142808E-01     0.0000000000000000E+00 
    1.8750000000026110E-01     5.6250000000112244E-01     0.0000000000000000E+00 
    1.8750000000033529E-01     6.2500000000080080E-01     0.0000000000000000E+00 
    1.8750000000040951E-01     6.8750000000047962E-01     0.0000000000000000E+00 
    1.8750000000048361E-01     7.5000000000015843E-01     0.0000000000000000E+00 
    1.8750000000055780E-01     8.1249999999983680E-01     0.0000000000000000E+00 
    1.8750000000063199E-01     8.7499999999953304E-01     0.0000000000000000E+00 
    1.8750000000070621E-01     9.3749999999975764E-01     0.0000000000000000E+00 
    2.4999999999951281E-01     6.2500000000163314E-02     0.0000000000000000E+00 
    2.4999999999961461E-01     1.2500000000033351E-01     0.0000000000000000E+00 
    2.4999999999971650E-01     1.8750000000048361E-01     0.0000000000000000E+00 
    2.4999999999981831E-01     2.5000000000063310E-01     0.0000000000000000E+00 
    2.4999999999992020E-01     3.1250000000078260E-01     0.0000000000000000E+00 
    2.5000000000002198E-01     3.7500000000093209E-01     0.0000000000000000E+00 
    2.5000000000012390E-01     4.3750000000108180E-01     0.0000000000000000E+00 
    2.5000000000022571E-01     5.0000000000121769E-01     0.0000000000000000E+00 
    2.5000000000032763E-01     5.6250000000094724E-01     0.0000000000000000E+00 
    2.5000000000042938E-01     6.2500000000066314E-01     0.0000000000000000E+00 
    2.5000000000053119E-01     6.8750000000037925E-01     0.0000000000000000E+00 
[...]
CELL_DATA 256 
SCALARS Pressure double 1 
LOOKUP_TABLE default 

    1.4084514078043517E+00 
    1.1724409427002642E+00 
    1.0367319223453419E+00 
    9.2721516562947182E-01 
    8.2622185095311651E-01 
    7.2764588724280788E-01 
    6.2935036146672796E-01 
    5.5160818637205578E-01 
    4.9762334779666934E-01 
    4.4929131443480624E-01 
    4.0083419534776643E-01 
    3.5516066507134286E-01 
    3.1517853811543434E-01 
    2.8402017386207873E-01 
    2.6428702957854028E-01 
    2.5635970436333971E-01 
    1.3355832259034321E+00 
    1.1759845141348950E+00 
    1.0451999398635334E+00 
    9.3598218074254569E-01 
    8.3504883499579230E-01 
    7.3651844011237821E-01 
    6.3769410184148878E-01 
    5.5839091957012632E-01 
    5.0306843946502322E-01 
    4.5419882427598174E-01 
    4.0533039417436639E-01 
    3.5898602979730648E-01 
    3.1800943334779019E-01 
    2.8560297601616569E-01 
    2.6464547232323316E-01 
    2.5600306489234032E-01 
    1.2779887108322927E+00 
    1.1680464751062398E+00 
    1.0494536177398472E+00 
    9.4280071706745172E-01 
    8.4265935618548882E-01 
    7.4446623152797275E-01 
    6.4543801831023140E-01 
    5.6541853901115591E-01 
    5.0892844670405679E-01 
    4.5923884765550099E-01 
    4.0970632406064528E-01 
    3.6246544687045790E-01 
    3.2023408402923531E-01 
    2.8630956844327449E-01 
    2.6396886275388881E-01 
    2.5471995270100206E-01 
    1.2317626905073205E+00 
    1.1542961598286323E+00 
    1.0498131815664262E+00 
    9.4757497119009715E-01 
    8.4899640036466695E-01 
    7.5147644118554990E-01 
    6.5251855353281929E-01 
    5.7264898611511850E-01 
    5.1520382915243601E-01 
    4.6444654198483881E-01 
    4.1403064243118237E-01 
    3.6568268633981887E-01 
    3.2193420498228675E-01 
    2.8617653261571724E-01 
    2.6219518925729024E-01 
    2.5233430876378382E-01 
    1.1940834414114496E+00 
    1.1380215436426284E+00 
    1.0470698064800976E+00 
    9.5038469488148425E-01 
    8.5404888575677973E-01 
    7.5753808514934906E-01 
    6.5898681462099884E-01 
    5.8005764693558048E-01 
    5.2187019624808351E-01 
    4.6984377806882266E-01 
    4.1836545639260414E-01 
    3.6872457938946263E-01 
    3.2320119528772651E-01 
    2.8524969593231370E-01 
    2.5925933311243782E-01 
    2.4866280742506738E-01 
    1.1629838030000659E+00 
    1.1211214020926985E+00 
    1.0420938905815083E+00 
    9.5144295018957470E-01 
    8.5785724445566502E-01 
    7.6263455815167880E-01 
    6.6500944272563722E-01 
    5.8763930883745363E-01 
    5.2887798976716105E-01 
    4.7543918615725794E-01 
    4.2276623216033998E-01 
    3.7168120534694798E-01 
    3.2414015075167968E-01 
    2.8359197895969596E-01 
    2.5509646773932254E-01 
    2.4350226540778699E-01 
    1.1370779187674327E+00 
    1.1046757965334391E+00 
    1.0356737912114227E+00 
    9.5104019443935883E-01 
    8.6051129378097058E-01 
    7.6673369556975113E-01 
    6.7086562357442947E-01 
    5.9541256839974177E-01 
    5.3614663875731583E-01 
    4.8122883827132457E-01 
    4.2728141683553084E-01 
    3.7464560713019129E-01 
    3.2487369477914591E-01 
    2.8129318679601156E-01 
    2.4964801528141956E-01 
    2.3661542220660692E-01 
    1.1153763732881499E+00 
    1.0892841145485630E+00 
    1.0284641853815277E+00 
    9.4949715238916310E-01 
    8.6214398610622178E-01 
    7.6981621155427005E-01 
    6.7689099528916097E-01 
    6.0342733052235620E-01 
    5.4357255225988943E-01 
    4.8719777225360444E-01 
    4.3195179754417812E-01 
    3.7771264731672682E-01 
    3.2554515336101458E-01 
    2.7848232110543558E-01 
    2.4287226794887917E-01 
    2.2771334816647687E-01 
    1.0971611427665580E+00 
    1.0752651070336268E+00 
    1.0209836196266635E+00 
    9.4713097993863260E-01 
    8.6291224885148832E-01 
    7.7204014926810272E-01 
    6.8336097506109916E-01 
    6.1174407889875970E-01 
    5.5105914180309890E-01 
    4.9332319366199645E-01 
    4.3680966352707518E-01 
    3.8097660807168121E-01 
    3.2632021755858687E-01 
    2.7534275202299241E-01 
    2.3476304769995654E-01 
    2.1643217901344164E-01 
    1.0818988317084164E+00 
    1.0627737800724659E+00 
    1.0136306405945965E+00 
    9.4423496084858694E-01 
    8.6293173141999147E-01 
    7.7405376034620321E-01 
    6.9037911286422982E-01 
    6.2032711052458456E-01 
    5.5854382862315644E-01 
    4.9957864857278950E-01 
    4.4187779955381473E-01 
    3.8452717339968828E-01 
    3.2738573402471260E-01 
    2.7212995186215860E-01 
    2.2538194775521880E-01 
    2.0230090156753161E-01 
    1.0691761822931181E+00 
    1.0518658598744921E+00 
    1.0067016627619316E+00 
    9.4107329215902380E-01 
    8.6219391396845790E-01 
    7.7690591136058340E-01 
    6.9792475975521506E-01 
    6.2892924417102680E-01 
    5.6598794254685503E-01 
    5.0593618302992327E-01 
    4.4716821441536958E-01 
    3.8844357501351656E-01 
    3.2894366917206408E-01 
    2.6919003091535321E-01 
    2.1491335892134458E-01 
    1.8469531985042273E-01 
    1.0586416812921813E+00 
    1.0425221595177827E+00 
    1.0003979940966679E+00 
    9.3783441491420660E-01 
    8.6156056120842073E-01 
    7.8134405752563618E-01 
    7.0594321080626388E-01 
    6.3727272197900808E-01 
    5.7335185101993413E-01 
    5.1236559698369644E-01 
    4.5268065021387854E-01 
    3.9278704464602643E-01 
    3.3119775719023686E-01 
    2.6697423052243546E-01 
    2.0375762731721259E-01 
    1.6277076978708202E-01 
    1.0499246514338620E+00 
    1.0346199790679862E+00 
    9.9478249737080537E-01 
    9.3480164432159485E-01 
    8.6281668542945145E-01 
    7.8731829761449024E-01 
    7.1410817801848381E-01 
    6.4526935053025580E-01 
    5.8059443739275118E-01 
    5.1883354675579474E-01 
    4.5840137836183875E-01 
    3.9759240934632478E-01 
    3.3433029553850369E-01 
    2.6603833707011337E-01 
    1.9268799955025329E-01 
    1.3536205791166211E-01 
    1.0427851175590470E+00 
    1.0279143600756901E+00 
    9.9052455521887728E-01 
    9.3443906406518795E-01 
    8.6671748850712393E-01 
    7.9419315323899553E-01 
    7.2199370857267819E-01 
    6.5293597610894605E-01 
    5.8768186375999210E-01 
    5.2530400622392659E-01 
    4.6430302454716782E-01 
    4.0286069438188837E-01 
    3.3846801440268320E-01 
    2.6700395926093301E-01 
    1.8311432976915412E-01 
    1.0083254704556305E-01 
    1.0398323724603042E+00 
    1.0254991775880899E+00 
    9.9038594762759036E-01 
    9.3735433408604629E-01 
    8.7222221600091454E-01 
    8.0126972498381965E-01 
    7.2951320897038041E-01 
    6.6029283529914817E-01 
    5.9458755588506995E-01 
    5.3173920674234421E-01 
    4.7034592413013121E-01 
    4.0855569835752287E-01 
    3.4364116213348728E-01 
    2.7043579907401655E-01 
    1.7752566239953321E-01 
    5.6843778147936640E-02 
    1.0392149016937418E+00 
    1.0260298010569211E+00 
    9.9293855686853771E-01 
    9.4199126493447982E-01 
    8.7840450420699068E-01 
    8.0827395354616027E-01 
    7.3676212089179116E-01 
    6.6735626125787295E-01 
    6.0128875219443079E-01 
    5.3810034714454935E-01 
    4.7648098224509877E-01 
    4.1460775098352565E-01 
    3.4975361999644816E-01 
    2.7654646689069451E-01 
    1.8023292252137335E-01 
    0.0000000000000000E+00 

SCALARS Saturarion double 1 
LOOKUP_TABLE default 

    1.0000000000000000E+00 
    9.6507229092729729E-01 
    9.2092724760956124E-01 
    8.7188577393509636E-01 
    8.1876011286147576E-01 
    7.5609888659172020E-01 
    6.5833430396477233E-01 
    3.4377566750414268E-01 
    1.3290929872543685E-02 
    8.3152796235218974E-07 
    1.3394487108152774E-17 
    1.9477313108309239E-44 
   7.4589261161999137E-110 
   5.8578662832915936E-267 
    0.0000000000000000E+00 
    0.0000000000000000E+00 
    9.8837528830903032E-01 
    9.5993981357161551E-01 
    9.1923990161524038E-01 
    8.7194348095590601E-01 
    8.1983866733911959E-01 
    7.5841096412870779E-01 
    6.6522036718611011E-01 
    3.7015368455237335E-01 
    1.7676525372228236E-02 
    1.6811920098685681E-06 
    6.8172488829639713E-17 
    7.4998102659363394E-43 
   2.2158041835541439E-106 
   1.4452782369137084E-259 
    0.0000000000000000E+00 
    0.0000000000000000E+00 
    9.7903202226613828E-01 
    9.5261488197098898E-01 
    9.1487040478084314E-01 
    8.6983330285605021E-01 
    8.1917818783931085E-01 
    7.5889796010994237E-01 
    6.6719620410412683E-01 
    3.7403665543043002E-01 
    1.8229421709739138E-02 
    1.7170166700139065E-06 
    6.0024966656119392E-17 
    3.5120074047766480E-43 
   1.1138355053649280E-107 
   6.3162522851897928E-264 
    0.0000000000000000E+00 
    0.0000000000000000E+00 
    9.6838201584586736E-01 
    9.4371581385287973E-01 
    9.0847407577879524E-01 
    8.6576357781841184E-01 
    8.1676152913463074E-01 
    7.5751747261088942E-01 
    6.6536391843421672E-01 
    3.6262449581874778E-01 
    1.5738138707975035E-02 
    1.0530240374060358E-06 
    1.3285231528839488E-17 
    4.3125714006718824E-45 
   4.2734307235638331E-113 
   8.0552360594748988E-279 
    0.0000000000000000E+00 
    0.0000000000000000E+00 
    9.5610539951871265E-01 
    9.3331000469038117E-01 
    9.0038504736722258E-01 
    8.5995353982941081E-01 
    8.1266736679343343E-01 
    7.5428643695861619E-01 
    6.5944177443708119E-01 
    3.3457205193459405E-01 
    1.1035546901389038E-02 
    3.5356899096771497E-07 
    5.6882275338601025E-19 
    6.4813677389341837E-49 
   1.4652877071398378E-123 
   9.0459722068436519E-307 
    0.0000000000000000E+00 
    0.0000000000000000E+00 
    9.4204724574041521E-01 
    9.2136865859657324E-01 
    8.9073658546505785E-01 
    8.5253707381278498E-01 
    8.0694729447219049E-01 
    7.4915560012712490E-01 
    6.4816177154860688E-01 
    2.8851479376979905E-01 
    5.9131687650459570E-03 
    5.3917158337842773E-08 
    2.6958289379215483E-21 
    2.2848027453015929E-55 
   4.6731913106168376E-141 
    0.0000000000000000E+00 
    0.0000000000000000E+00 
    0.0000000000000000E+00 
    9.2607788251826650E-01 
    9.0780878736367643E-01 
    8.7954431870916649E-01 
    8.4355963848684878E-01 
    7.9959202369573401E-01 
    7.4195595090871735E-01 
    6.2837472514376791E-01 
    2.2329283205072864E-01 
    2.1323190955351806E-03 
    2.5863119302115399E-09 
    4.5702762354306244E-25 
    7.2766224286614374E-66 
   1.6126023539992255E-169 
    0.0000000000000000E+00 
    0.0000000000000000E+00 
    0.0000000000000000E+00 
    9.0801836261366442E-01 
    8.9247591475979993E-01 
    8.6672256196599173E-01 
    8.3296961728424990E-01 
    7.9049699261347095E-01 
    7.3226392826752329E-01 
    5.9244197919727781E-01 
    1.4330620830672020E-01 
    4.1182770462878568E-04 
    1.8118152892927125E-11 
    2.7171533630210396E-31 
    2.6561486019110233E-83 
   6.8891902294973533E-218 
    0.0000000000000000E+00 
    0.0000000000000000E+00 
    0.0000000000000000E+00 
    8.8754638812153774E-01 
    8.7508670305634206E-01 
    8.5205136655054325E-01 
    8.2057983359786746E-01 
    7.7940042951747646E-01 
    7.1897634754099393E-01 
    5.2158419540697809E-01 
    6.3873548761706145E-02 
    2.5115627690145465E-05 
    3.3887261069733384E-15 
    3.8406377062669358E-42 
   6.2139221968689866E-115 
   7.1791095628127242E-308 
    0.0000000000000000E+00 
    0.0000000000000000E+00 
    0.0000000000000000E+00 
    8.6401712720446577E-01 
    8.5509477667923961E-01 
    8.3506776200861732E-01 
    8.0595736312395450E-01 
    7.6573079724276094E-01 
    6.9907753609012524E-01 
    3.8969738867269177E-01 
    1.3693512194662867E-02 
    1.2384081619176781E-07 
    2.7204805334368896E-22 
    2.9944594877707321E-64 
   7.8076882446541715E-180 
    0.0000000000000000E+00 
    0.0000000000000000E+00 
    0.0000000000000000E+00 
    0.0000000000000000E+00 
    8.3600777866662423E-01 
    8.3133495956977266E-01 
    8.1475831731303927E-01 
    7.8811715901294710E-01 
    7.4818104837104382E-01 
    6.6511559142126575E-01 
    1.9094397907347804E-01 
    4.7019330067576650E-04 
    1.0056282055991684E-12 
    2.8367462157769425E-39 
   2.0483059680054463E-118 
    0.0000000000000000E+00 
    0.0000000000000000E+00 
    0.0000000000000000E+00 
    0.0000000000000000E+00 
    0.0000000000000000E+00 
    7.9981721384125470E-01 
    8.0085898691988144E-01 
    7.8856151026809163E-01 
    7.6454191033613716E-01 
    7.2293390899428889E-01 
    4.8875318147336855E-01 
    1.9429968404545882E-02 
    2.0401877746194982E-08 
    1.9163810990780739E-28 
    8.0603943067280293E-96 
   1.0842406609169579E-312 
    0.0000000000000000E+00 
    0.0000000000000000E+00 
    0.0000000000000000E+00 
    0.0000000000000000E+00 
    0.0000000000000000E+00 
    7.4280886233296162E-01 
    7.5387724422767666E-01 
    7.4821578792419063E-01 
    7.2693364767699342E-01 
    6.5945532872120816E-01 
    6.9600667693376930E-02 
    3.3238940517138175E-07 
    1.5503408692445518E-26 
    1.8139191838559280E-92 
   5.9950513990457124E-306 
    0.0000000000000000E+00 
    0.0000000000000000E+00 
    0.0000000000000000E+00 
    0.0000000000000000E+00 
    0.0000000000000000E+00 
    0.0000000000000000E+00 
    5.8476073327585298E-01 
    6.3961243139159829E-01 
    6.4856101925402210E-01 
    5.3389250235610008E-01 
    5.2422307621447325E-02 
    1.6199068980426744E-07 
    1.4945142931260053E-27 
    7.7329990677983086E-95 
   4.6102079632420601E-311 
    0.0000000000000000E+00 
    0.0000000000000000E+00 
    0.0000000000000000E+00 
    0.0000000000000000E+00 
    0.0000000000000000E+00 
    0.0000000000000000E+00 
    0.0000000000000000E+00 
    1.0459928882704034E-01 
    2.3976054335618857E-01 
    1.5996585980571465E-01 
    1.1911360782889624E-02 
    3.6094636807473011E-08 
    8.1807446074180627E-29 
    2.3740427009729525E-97 
   3.1899850394436258E-316 
    0.0000000000000000E+00 
    0.0000000000000000E+00 
    0.0000000000000000E+00 
    0.0000000000000000E+00 
    0.0000000000000000E+00 
    0.0000000000000000E+00 
    0.0000000000000000E+00 
    0.0000000000000000E+00 
    1.0947414130161055E-04 
    1.6944858626613012E-03 
    1.6120754227060943E-04 
    1.3074011871270681E-09 
    5.0001854508432491E-30 
    4.5678742016947764E-99 
   1.5304177445578453E-319 
    0.0000000000000000E+00 
    0.0000000000000000E+00 
    0.0000000000000000E+00 
    0.0000000000000000E+00 
    0.0000000000000000E+00 
    0.0000000000000000E+00 
    0.0000000000000000E+00 
    0.0000000000000000E+00 
    0.0000000000000000E+00 
