# vtk DataFile Version 2.0
Pressure Field Data 
ASCII 
DATASET UNSTRUCTURED_GRID 

POINTS 289 double 

    0.0000000000000000E+00     0.0000000000000000E+00     0.0000000000000000E+00 
    1.0000000000000000E+00     0.0000000000000000E+00     0.0000000000000000E+00 
    1.0000000000000000E+00     1.0000000000000000E+00     0.0000000000000000E+00 
    0.0000000000000000E+00     1.0000000000000000E+00     0.0000000000000000E+00 
    6.2499999999872928E-02     0.0000000000000000E+00     0.0000000000000000E+00 
    1.2499999999977310E-01     0.0000000000000000E+00     0.0000000000000000E+00 
    1.8749999999959341E-01     0.0000000000000000E+00     0.0000000000000000E+00 
    2.4999999999941089E-01     0.0000000000000000E+00     0.0000000000000000E+00 
    3.1249999999922851E-01     0.0000000000000000E+00     0.0000000000000000E+00 
    3.7499999999904610E-01     0.0000000000000000E+00     0.0000000000000000E+00 
    4.3749999999886358E-01     0.0000000000000000E+00     0.0000000000000000E+00 
    4.9999999999869210E-01     0.0000000000000000E+00     0.0000000000000000E+00 
    5.6249999999884603E-01     0.0000000000000000E+00     0.0000000000000000E+00 
    6.2499999999901090E-01     0.0000000000000000E+00     0.0000000000000000E+00 
    6.8749999999917577E-01     0.0000000000000000E+00     0.0000000000000000E+00 
    7.4999999999934064E-01     0.0000000000000000E+00     0.0000000000000000E+00 
    8.1249999999950551E-01     0.0000000000000000E+00     0.0000000000000000E+00 
    8.7499999999967026E-01     0.0000000000000000E+00     0.0000000000000000E+00 
    9.3749999999983513E-01     0.0000000000000000E+00     0.0000000000000000E+00 
    1.0000000000000000E+00     6.2499999999872928E-02     0.0000000000000000E+00 
    1.0000000000000000E+00     1.2499999999977310E-01     0.0000000000000000E+00 
    1.0000000000000000E+00     1.8749999999959341E-01     0.0000000000000000E+00 
    1.0000000000000000E+00     2.4999999999941089E-01     0.0000000000000000E+00 
    1.0000000000000000E+00     3.1249999999922851E-01     0.0000000000000000E+00 
    1.0000000000000000E+00     3.7499999999904610E-01     0.0000000000000000E+00 
    1.0000000000000000E+00     4.3749999999886358E-01     0.0000000000000000E+00 
    1.0000000000000000E+00     4.9999999999869210E-01     0.0000000000000000E+00 
    1.0000000000000000E+00     5.6249999999884603E-01     0.0000000000000000E+00 
    1.0000000000000000E+00     6.2499999999901090E-01     0.0000000000000000E+00 
    1.0000000000000000E+00     6.8749999999917577E-01     0.0000000000000000E+00 
    1.0000000000000000E+00     7.4999999999934064E-01     0.0000000000000000E+00 
    1.0000000000000000E+00     8.1249999999950551E-01     0.0000000000000000E+00 
    1.0000000000000000E+00     8.7499999999967026E-01     0.0000000000000000E+00 
    1.0000000000000000E+00     9.3749999999983513E-01     0.0000000000000000E+00 
    9.3749999999973976E-01     1.0000000000000000E+00     0.0000000000000000E+00 
    8.7499999999950118E-01     1.0000000000000000E+00     0.0000000000000000E+00 
    8.1249999999991318E-01     1.0000000000000000E+00     0.0000000000000000E+00 
    7.5000000000034706E-01     1.0000000000000000E+00     0.0000000000000000E+00 
    6.8750000000078049E-01     1.0000000000000000E+00     0.0000000000000000E+00 
    6.2500000000121403E-01     1.0000000000000000E+00     0.0000000000000000E+00 
    5.6250000000164757E-01     1.0000000000000000E+00     0.0000000000000000E+00 
    5.0000000000205946E-01     1.0000000000000000E+00     0.0000000000000000E+00 
    4.3750000000182099E-01     1.0000000000000000E+00     0.0000000000000000E+00 
    3.7500000000156092E-01     1.0000000000000000E+00     0.0000000000000000E+00 
    3.1250000000130068E-01     1.0000000000000000E+00     0.0000000000000000E+00 
    2.5000000000104050E-01     1.0000000000000000E+00     0.0000000000000000E+00 
    1.8750000000078040E-01     1.0000000000000000E+00     0.0000000000000000E+00 
    1.2500000000052031E-01     1.0000000000000000E+00     0.0000000000000000E+00 
    6.2500000000260125E-02     1.0000000000000000E+00     0.0000000000000000E+00 
    0.0000000000000000E+00     9.3749999999973976E-01     0.0000000000000000E+00 
    0.0000000000000000E+00     8.7499999999950118E-01     0.0000000000000000E+00 
    0.0000000000000000E+00     8.1249999999991318E-01     0.0000000000000000E+00 
    0.0000000000000000E+00     7.5000000000034706E-01     0.0000000000000000E+00 
    0.0000000000000000E+00     6.8750000000078049E-01     0.0000000000000000E+00 
    0.0000000000000000E+00     6.2500000000121403E-01     0.0000000000000000E+00 
    0.0000000000000000E+00     5.6250000000164757E-01     0.0000000000000000E+00 
    0.0000000000000000E+00     5.0000000000205946E-01     0.0000000000000000E+00 
    0.0000000000000000E+00     4.3750000000182099E-01     0.0000000000000000E+00 
    0.0000000000000000E+00     3.7500000000156092E-01     0.0000000000000000E+00 
    0.0000000000000000E+00     3.1250000000130068E-01     0.0000000000000000E+00 
    0.0000000000000000E+00     2.5000000000104050E-01     0.0000000000000000E+00 
    0.0000000000000000E+00     1.8750000000078040E-01     0.0000000000000000E+00 
    0.0000000000000000E+00     1.2500000000052031E-01     0.0000000000000000E+00 
    0.0000000000000000E+00     6.2500000000260125E-02     0.0000000000000000E+00 
    6.2499999999897131E-02     6.2500000000235922E-02     0.0000000000000000E+00 
    6.2499999999921327E-02     1.2500000000047351E-01     0.0000000000000000E+00 
    6.2499999999945530E-02     1.8750000000070621E-01     0.0000000000000000E+00 
    6.2499999999969733E-02     2.5000000000093858E-01     0.0000000000000000E+00 
    6.2499999999993928E-02     3.1250000000117117E-01     0.0000000000000000E+00 
    6.2500000000018124E-02     3.7500000000140382E-01     0.0000000000000000E+00 
    6.2500000000042327E-02     4.3750000000163619E-01     0.0000000000000000E+00 
    6.2500000000066530E-02     5.0000000000184897E-01     0.0000000000000000E+00 
    6.2500000000090733E-02     5.6250000000147260E-01     0.0000000000000000E+00 
    6.2500000000114922E-02     6.2500000000107636E-01     0.0000000000000000E+00 
    6.2500000000139125E-02     6.8750000000068034E-01     0.0000000000000000E+00 
    6.2500000000163328E-02     7.5000000000028411E-01     0.0000000000000000E+00 
    6.2500000000187531E-02     8.1249999999988787E-01     0.0000000000000000E+00 
    6.2500000000211720E-02     8.7499999999951172E-01     0.0000000000000000E+00 
    6.2500000000235922E-02     9.3749999999974565E-01     0.0000000000000000E+00 
    1.2499999999981980E-01     6.2500000000211733E-02     0.0000000000000000E+00 
    1.2499999999986650E-01     1.2500000000042691E-01     0.0000000000000000E+00 
    1.2499999999991319E-01     1.8750000000063199E-01     0.0000000000000000E+00 
    1.2499999999995989E-01     2.5000000000083678E-01     0.0000000000000000E+00 
    1.2500000000000661E-01     3.1250000000104172E-01     0.0000000000000000E+00 
    1.2500000000005329E-01     3.7500000000124661E-01     0.0000000000000000E+00 
    1.2500000000010000E-01     4.3750000000145117E-01     0.0000000000000000E+00 
    1.2500000000014669E-01     5.0000000000163858E-01     0.0000000000000000E+00 
    1.2500000000019340E-01     5.6250000000129741E-01     0.0000000000000000E+00 
    1.2500000000024011E-01     6.2500000000093847E-01     0.0000000000000000E+00 
    1.2500000000028680E-01     6.8750000000057998E-01     0.0000000000000000E+00 
    1.2500000000033351E-01     7.5000000000022127E-01     0.0000000000000000E+00 
    1.2500000000038020E-01     8.1249999999986211E-01     0.0000000000000000E+00 
    1.2500000000042691E-01     8.7499999999952238E-01     0.0000000000000000E+00 
    1.2500000000047359E-01     9.3749999999975164E-01     0.0000000000000000E+00 
    1.8749999999966760E-01     6.2500000000187531E-02     0.0000000000000000E+00 
    1.8749999999974179E-01     1.2500000000038020E-01     0.0000000000000000E+00 
    1.8749999999981601E-01     1.8750000000055780E-01     0.0000000000000000E+00 
    1.8749999999989009E-01     2.5000000000073502E-01     0.0000000000000000E+00 
    1.8749999999996431E-01     3.1250000000091221E-01     0.0000000000000000E+00 
    1.8750000000003850E-01     3.7500000000108941E-01     0.0000000000000000E+00 
    1.8750000000011269E-01     4.3750000000126649E-01     0.0000000000000000E+00 
    1.8750000000018691E-01     5.0000000000142808E-01     0.0000000000000000E+00 
    1.8750000000026110E-01     5.6250000000112244E-01     0.0000000000000000E+00 
    1.8750000000033529E-01     6.2500000000080080E-01     0.0000000000000000E+00 
    1.8750000000040951E-01     6.8750000000047962E-01     0.0000000000000000E+00 
    1.8750000000048361E-01     7.5000000000015843E-01     0.0000000000000000E+00 
    1.8750000000055780E-01     8.1249999999983680E-01     0.0000000000000000E+00 
    1.8750000000063199E-01     8.7499999999953304E-01     0.0000000000000000E+00 
    1.8750000000070621E-01     9.3749999999975764E-01     0.0000000000000000E+00 
    2.4999999999951281E-01     6.2500000000163314E-02     0.0000000000000000E+00 
    2.4999999999961461E-01     1.2500000000033351E-01     0.0000000000000000E+00 
    2.4999999999971650E-01     1.8750000000048361E-01     0.0000000000000000E+00 
    2.4999999999981831E-01     2.5000000000063310E-01     0.0000000000000000E+00 
    2.4999999999992020E-01     3.1250000000078260E-01     0.0000000000000000E+00 
    2.5000000000002198E-01     3.7500000000093209E-01     0.0000000000000000E+00 
    2.5000000000012390E-01     4.3750000000108180E-01     0.0000000000000000E+00 
    2.5000000000022571E-01     5.0000000000121769E-01     0.0000000000000000E+00 
    2.5000000000032763E-01     5.6250000000094724E-01     0.0000000000000000E+00 
    2.5000000000042938E-01     6.2500000000066314E-01     0.0000000000000000E+00 
    2.5000000000053119E-01     6.8750000000037925E-01     0.0000000000000000E+00 
[...]
CELL_DATA 256 
SCALARS Pressure double 1 
LOOKUP_TABLE default 

    1.9700396402304055E+00 
    1.7379021454640886E+00 
    1.6069559310660633E+00 
    1.5021743941428574E+00 
    1.4057703925251550E+00 
    1.3118482208123985E+00 
    1.2181248376842271E+00 
    1.1238106253012139E+00 
    1.0289719545005769E+00 
    9.3441891789886200E-01 
    8.4185492491186065E-01 
    7.5412316494903220E-01 
    6.7521535649845255E-01 
    6.0946724186170098E-01 
    5.6321604244091084E-01 
    5.4933801819509664E-01 
    1.8986949620729712E+00 
    1.7418841383153321E+00 
    1.6156045337661644E+00 
    1.5110666964184627E+00 
    1.4147147794768886E+00 
    1.3208904597788551E+00 
    1.2272753619699126E+00 
    1.1330260074228335E+00 
    1.0381415449845586E+00 
    9.4333756958480808E-01 
    8.5018957619094293E-01 
    7.6140582133131807E-01 
    6.8092870696918451E-01 
    6.1321909112609130E-01 
    5.6445992868278894E-01 
    5.4890191736238170E-01 
    1.8433453359277614E+00 
    1.7352353679128845E+00 
    1.6207109169571829E+00 
    1.5186080456870559E+00 
    1.4230138072366878E+00 
    1.3295616072389886E+00 
    1.2361668513672746E+00 
    1.1420126781364617E+00 
    1.0470522285941939E+00 
    9.5189932417278444E-01 
    8.5797505279617059E-01 
    7.6781886510874620E-01 
    6.8532196545705371E-01 
    6.1522726151301355E-01 
    5.6388470620716236E-01 
    5.4700299970205424E-01 
    1.7998313559692198E+00 
    1.7234452700253398E+00 
    1.6225644814563260E+00 
    1.5246963360617001E+00 
    1.4306065939730843E+00 
    1.3378377471627165E+00 
    1.2447979368220687E+00 
    1.1507879158179386E+00 
    1.0557434322115700E+00 
    9.6017413056320411E-01 
    8.6532012610455133E-01 
    7.7350523414602645E-01 
    6.8853013548562425E-01 
    6.1549756090108476E-01 
    5.6131441267454241E-01 
    5.4323624225460687E-01 
    1.7652372014600262E+00 
    1.7096815745163749E+00 
    1.6219028981965584E+00 
    1.5293926929537960E+00 
    1.4374773733000124E+00 
    1.3457103223968929E+00 
    1.2531738443686147E+00 
    1.1593722235446122E+00 
    1.0642564614795524E+00 
    9.6823429311223796E-01 
    8.7233948687924934E-01 
    7.7862149559320981E-01 
    6.9070961028224287E-01 
    6.1406171366858087E-01 
    5.5652103338911230E-01 
    5.3712425742597547E-01 
    1.7375193570552181E+00 
    1.6957443086166770E+00 
    1.6195351691811402E+00 
    1.5328820325807102E+00 
    1.4436594176615627E+00 
    1.3531892763986417E+00 
    1.2613075163531347E+00 
    1.1677893290208559E+00 
    1.0726337139290651E+00 
    9.7615312835836887E-01 
    8.7915279818786951E-01 
    7.8334034463463231E-01 
    6.9204947731955935E-01 
    6.1098960564751670E-01 
    5.4923769685165780E-01 
    5.2807785304726329E-01 
    1.7152230748702062E+00 
    1.6826271585234001E+00 
    1.6161858422462161E+00 
    1.5354201061084662E+00 
    1.4492298339519460E+00 
    1.3603041372782145E+00 
    1.2692203626020748E+00 
    1.1760661440107907E+00 
    1.0809178295935609E+00 
    9.8400325117150433E-01 
    8.8588268139402249E-01 
    7.8785130608866238E-01 
    6.9278223463516853E-01 
    6.0641261236092403E-01 
    5.3918528925402065E-01 
    5.1536292214042811E-01 
    1.6972948007035480E+00 
    1.6708513782336447E+00 
    1.6124460141194574E+00 
    1.5372895251345389E+00 
    1.4542993371004316E+00 
    1.3671030385805931E+00 
    1.2769424923392947E+00 
    1.1842326610395009E+00 
    1.0891508420644564E+00 
    9.9185458063421139E-01 
    8.9265155495205128E-01 
    7.9235897281820422E-01 
    6.9319265667003793E-01 
    6.0055497694973903E-01 
    5.2612373898032794E-01 
    4.9809099371274712E-01 
    1.6829572722494146E+00 
    1.6606643800908025E+00 
    1.6087726691985540E+00 
    1.5387698636654374E+00 
    1.4590007544595109E+00 
    1.3736502096953032E+00 
    1.2845124094627636E+00 
    1.1923217792159451E+00 
    1.0973733952699212E+00 
    9.9977219502225145E-01 
    8.9957733459871658E-01 
    7.9707804913811908E-01 
    6.9362280495913364E-01 
    5.9377046955564394E-01 
    5.0992660122740130E-01 
    4.7523278906274885E-01 
    1.6716252635667725E+00 
    1.6521575954087033E+00 
    1.6055070996776262E+00 
    1.5401203967836881E+00 
    1.4634786336749963E+00 
    1.3800226491712462E+00 
    1.2919762737287932E+00 
    1.2003690883239049E+00 
    1.1056241192676446E+00 
    1.0078142462791626E+00 
    9.0676819280309606E-01 
    8.0222455444678309E-01 
    6.9447038098313907E-01 
    5.8658136867143584E-01 
    4.9066779910487529E-01 
    4.4560661806402158E-01 
    1.6628477177537617E+00 
    1.6453360884075430E+00 
    1.6028984248725051E+00 
    1.5415722191651289E+00 
    1.4678810604384038E+00 
    1.3863066224783087E+00 
    1.2993868968118525E+00 
    1.2084126739139704E+00 
    1.1139392852440748E+00 
    1.0160302321850676E+00 
    9.1431685125042239E-01 
    8.0800287576444207E-01 
    6.9617666329966565E-01 
    5.7971651446285111E-01 
    4.6873232494575662E-01 
    4.0778795945048874E-01 
    1.6562669103509085E+00 
    1.6401592273337271E+00 
    1.6011259961678945E+00 
    1.5433265075161331E+00 
    1.4723538950657129E+00 
    1.3925944187026593E+00 
    1.3068026438367983E+00 
    1.2164930262521143E+00 
    1.1223528833582057E+00 
    1.0244600076951582E+00 
    9.2229523596083307E-01 
    8.1458910177154709E-01 
    6.9919920125848212E-01 
    5.7414045961952065E-01 
    4.4499869588338403E-01 
    3.5994346285386070E-01 
    1.6515880940487551E+00 
    1.6365635675999053E+00 
    1.6003180425127344E+00 
    1.5455561002049472E+00 
    1.4770369451900625E+00 
    1.3989814472343258E+00 
    1.3142862930040813E+00 
    1.2246531113456800E+00 
    1.1308972932457013E+00 
    1.0331340109888272E+00 
    9.3075075500254922E-01 
    8.2211247106597185E-01 
    7.0396410453324532E-01 
    5.7105247133212533E-01 
    4.2115893154793582E-01 
    2.9959957294263817E-01 
    1.6485533340830769E+00 
    1.6344725415653625E+00 
    1.6005639777708502E+00 
    1.5484068139248199E+00 
    1.4820601678627519E+00 
    1.4055626528397491E+00 
    1.3219032130789254E+00 
    1.2329383142154520E+00 
    1.1396046717300028E+00 
    1.0420753754967977E+00 
    9.3970606368781229E-01 
    8.3063913232184006E-01 
    7.1079534757738094E-01 
    5.7180820537945931E-01 
    4.0026755934956315E-01 
    2.2331135234263505E-01 
    1.6469078262162331E+00 
    1.6337853542513521E+00 
    1.6019093744465018E+00 
    1.5519879937532792E+00 
    1.4875321420879772E+00 
    1.4124226395743633E+00 
    1.3297147244976104E+00 
    1.2413935629188055E+00 
    1.1485081624005762E+00 
    1.0513051864532788E+00 
    9.4916630233439225E-01 
    8.4016756070096887E-01 
    7.1982986251716885E-01 
    5.7766701682633259E-01 
    3.8766771187610949E-01 
    1.2613797249306100E-01 
    1.6464109325933332E+00 
    1.6343804818095342E+00 
    1.6043563314277147E+00 
    1.5563718418659362E+00 
    1.4935400288107685E+00 
    1.4196367935771761E+00 
    1.3377794512715917E+00 
    1.2500637958291227E+00 
    1.1576409583162721E+00 
    1.0608400141112464E+00 
    9.5911393733756600E-01 
    8.5060909702907750E-01 
    7.3088726452424257E-01 
    5.8905290494853679E-01 
    3.9230717293829359E-01 
    0.0000000000000000E+00 

SCALARS Saturarion double 1 
LOOKUP_TABLE default 

    1.0000000000000000E+00 
    9.8591296009040086E-01 
    9.6745704234997465E-01 
    9.4733957453680928E-01 
    9.2722397444610327E-01 
    9.0758882643195393E-01 
    8.8846016575455311E-01 
    8.6965679917066663E-01 
    8.5084284440653712E-01 
    8.3145981022666093E-01 
    8.1047673407139575E-01 
    7.8559799424336951E-01 
    7.5004775737052343E-01 
    6.7605395614283614E-01 
    4.3031306287178733E-01 
    3.2294504224801478E-02 
    9.9547908597392232E-01 
    9.8375177954746329E-01 
    9.6661925617138589E-01 
    9.4712947743085418E-01 
    9.2729529996000137E-01 
    9.0781090943040321E-01 
    8.8878980664871365E-01 
    8.7009288132329532E-01 
    8.5141522966970784E-01 
    8.3223634031359150E-01 
    8.1159300906828613E-01 
    7.8735420293687897E-01 
    7.5334834366114789E-01 
    6.8501117697539682E-01 
    4.6961810001964555E-01 
    5.4912888315389777E-02 
    9.9170334940959959E-01 
    9.8059232828225973E-01 
    9.6450722477161122E-01 
    9.4580689239978499E-01 
    9.2644197756317570E-01 
    9.0726228128955022E-01 
    8.8847657069875785E-01 
    8.6999662722949200E-01 
    8.5155422319927920E-01 
    8.3267090987620862E-01 
    8.1245379686492925E-01 
    7.8893155256824965E-01 
    7.5647284814455873E-01 
    6.9311034061272181E-01 
    5.0040993086748953E-01 
    8.1877565369900221E-02 
    9.8723002055904197E-01 
    9.7662966744883795E-01 
    9.6137497107493863E-01 
    9.4346843676331338E-01 
    9.2467827284612714E-01 
    9.0591733919835016E-01 
    8.8747199336701343E-01 
    8.6930507326022444E-01 
    8.5118798401531859E-01 
    8.3268805176297422E-01 
    8.1298622485478911E-01 
    7.9026817688015794E-01 
    7.5939406582904490E-01 
    7.0061829610800419E-01 
    5.2695793514815092E-01 
    1.1431959233936639E-01 
    9.8184608647481397E-01 
    9.7182246978645437E-01 
    9.5731691297727795E-01 
    9.4018372271978823E-01 
    9.2203007408793280E-01 
    9.0377531605237349E-01 
    8.8575920204429370E-01 
    8.6799006467555895E-01 
    8.5027904665496301E-01 
    8.3224187749510614E-01 
    8.1313781174274913E-01 
    7.9131127423914216E-01 
    7.6208164789257604E-01 
    7.0767492528342613E-01 
    5.5059490533582678E-01 
    1.5242480940492770E-01 
    9.7538434381163541E-01 
    9.6607685385840258E-01 
    9.5232558390921263E-01 
    9.3596401076725944E-01 
    9.1849278844982085E-01 
    9.0081651897744786E-01 
    8.8330863032079820E-01 
    8.6601511508208651E-01 
    8.4878470369770564E-01 
    8.3128271063420411E-01 
    8.1285148028982146E-01 
    7.9200032326958081E-01 
    7.6448984106038387E-01 
    7.1433620135507048E-01 
    5.7208848578114613E-01 
    1.9597211352692068E-01 
    9.6767289920846189E-01 
    9.5926360655368947E-01 
    9.4632959834845287E-01 
    9.3076661955051532E-01 
    9.1402443828502900E-01 
    8.9699333776370260E-01 
    8.8006837918153968E-01 
    8.6332552000083873E-01 
    8.4664732588643998E-01 
    8.2974812511990470E-01 
    8.1205757346317720E-01 
    7.9225978946780617E-01 
    7.6655192149440210E-01 
    7.2060247801898147E-01 
    5.9195977869858152E-01 
    2.4381722394541003E-01 
    9.5851016469775430E-01 
    9.5121192935630605E-01 
    9.3920135714560926E-01 
    9.2449389750729627E-01 
    9.0853775859278008E-01 
    8.9222073520695966E-01 
    8.7595469539484017E-01 
    8.5983929402124837E-01 
    8.4378610141129307E-01 
    8.2755580153123198E-01 
    8.1066780312823195E-01 
    7.9199340944931351E-01 
    7.6817520517405902E-01 
    7.2642990899701199E-01 
    6.1055689195206275E-01 
    2.9359472412792292E-01 
    9.4763605967692754E-01 
    9.4169051803376636E-01 
    9.3074622013588182E-01 
    9.1698111886848954E-01 
    9.0188473471879338E-01 
    8.8635983424741127E-01 
    8.7083602103695434E-01 
    8.5543231269026365E-01 
    8.4008368984143178E-01 
    8.2459204100495220E-01 
    8.0856567767415299E-01 
    7.9107561100301882E-01 
    7.6923281873198701E-01 
    7.3173096127818682E-01 
    6.2808126987542456E-01 
    3.4248394153696959E-01 
    9.3468655044673710E-01 
    9.3037098568122534E-01 
    9.2067177262775379E-01 
    9.0796696962102996E-01 
    8.9382599597605528E-01 
    8.7918713393975578E-01 
    8.6450325721545418E-01 
    8.4991055036598906E-01 
    8.3536121362172910E-01 
    8.2069016703942699E-01 
    8.0558856457668671E-01 
    7.8933601689212751E-01 
    7.6954850092729932E-01 
    7.3636501640737739E-01 
    6.4460439508749168E-01 
    3.8871220524537653E-01 
    9.1910923876126394E-01 
    9.1675567301782401E-01 
    9.0852184206810571E-01 
    8.9703006386109085E-01 
    8.8396762671143825E-01 
    8.7033186252001926E-01 
    8.5660902142763029E-01 
    8.4295289697969067E-01 
    8.2932625983518904E-01 
    8.1558513016556400E-01 
    8.0148980247114687E-01 
    7.8652781550025586E-01 
    7.6886667661416075E-01 
    7.4011418539619889E-01 
    6.6007797584475847E-01 
    4.3181384228670516E-01 
    8.9997851342726154E-01 
    9.0001726787082637E-01 
    8.9352640260661542E-01 
    8.8344275001053418E-01 
    8.7161554622428405E-01 
    8.5913067442467683E-01 
    8.4652492032173354E-01 
    8.3397490061229984E-01 
    8.2144755016836657E-01 
    8.0880310361198238E-01 
    7.9584605953347043E-01 
    7.8225240772981142E-01 
    7.6678591120052508E-01 
    7.4262691429292382E-01 
    6.7432525264801446E-01 
    4.7192162482308925E-01 
    8.7548909529215835E-01 
    8.7856312705219464E-01 
    8.7419187089678485E-01 
    8.6576726098618806E-01 
    8.5536735783278306E-01 
    8.4421273441381761E-01 
    8.3292500487910437E-01 
    8.2172273759058778E-01 
    8.1057594345462336E-01 
    7.9932578032842216E-01 
    7.8777661829274515E-01 
    7.7573668578155608E-01 
    7.6257788747978927E-01 
    7.4326899512396738E-01 
    6.8698241640557800E-01 
    5.0925136417005845E-01 
    8.4097584883911902E-01 
    8.4836764877684601E-01 
    8.4673728822009409E-01 
    8.4029621535411148E-01 
    8.3150469646466540E-01 
    8.2182525073743284E-01 
    8.1205913210397118E-01 
    8.0254316010832938E-01 
    7.9328804041794665E-01 
    7.8409713096230782E-01 
    7.7469171405815562E-01 
    7.6486496448078534E-01 
    7.5447346810374361E-01 
    7.4059508712780531E-01 
    6.9725588970160501E-01 
    5.4381892602249027E-01 
    7.7718625143983933E-01 
    7.9293417568567903E-01 
    7.9569615701756280E-01 
    7.9173888697611794E-01 
    7.8444843751365934E-01 
    7.7588753111438558E-01 
    7.6736742775582978E-01 
    7.5969753721095734E-01 
    7.5327714270958057E-01 
    7.4809799387877085E-01 
    7.4374350424045865E-01 
    7.3953922459518207E-01 
    7.3503731674453010E-01 
    7.2930123859276941E-01 
    7.0242858262895091E-01 
    5.7485061316385544E-01 
    5.4124997686513221E-01 
    6.0333303624041845E-01 
    6.2416680289099224E-01 
    6.2787149445867496E-01 
    6.2286515594259340E-01 
    6.1321016204423417E-01 
    6.0121532709037007E-01 
    5.8843195263281667E-01 
    5.7623982848621491E-01 
    5.6631962814237169E-01 
    5.6097896280216020E-01 
    5.6305409491081337E-01 
    5.7588125143965962E-01 
    6.0580462511318500E-01 
    6.4796566541920320E-01 
    5.8871312508607221E-01 
