# vtk DataFile Version 2.0
Pressure Field Data 
ASCII 
DATASET UNSTRUCTURED_GRID 

POINTS 289 double 

    0.0000000000000000E+00     0.0000000000000000E+00     0.0000000000000000E+00 
    1.0000000000000000E+00     0.0000000000000000E+00     0.0000000000000000E+00 
    1.0000000000000000E+00     1.0000000000000000E+00     0.0000000000000000E+00 
    0.0000000000000000E+00     1.0000000000000000E+00     0.0000000000000000E+00 
    6.2499999999872928E-02     0.0000000000000000E+00     0.0000000000000000E+00 
    1.2499999999977310E-01     0.0000000000000000E+00     0.0000000000000000E+00 
    1.8749999999959341E-01     0.0000000000000000E+00     0.0000000000000000E+00 
    2.4999999999941089E-01     0.0000000000000000E+00     0.0000000000000000E+00 
    3.1249999999922851E-01     0.0000000000000000E+00     0.0000000000000000E+00 
    3.7499999999904610E-01     0.0000000000000000E+00     0.0000000000000000E+00 
    4.3749999999886358E-01     0.0000000000000000E+00     0.0000000000000000E+00 
    4.9999999999869210E-01     0.0000000000000000E+00     0.0000000000000000E+00 
    5.6249999999884603E-01     0.0000000000000000E+00     0.0000000000000000E+00 
    6.2499999999901090E-01     0.0000000000000000E+00     0.0000000000000000E+00 
    6.8749999999917577E-01     0.0000000000000000E+00     0.0000000000000000E+00 
    7.4999999999934064E-01     0.0000000000000000E+00     0.0000000000000000E+00 
    8.1249999999950551E-01     0.0000000000000000E+00     0.0000000000000000E+00 
    8.7499999999967026E-01     0.0000000000000000E+00     0.0000000000000000E+00 
    9.3749999999983513E-01     0.0000000000000000E+00     0.0000000000000000E+00 
    1.0000000000000000E+00     6.2499999999872928E-02     0.0000000000000000E+00 
    1.0000000000000000E+00     1.2499999999977310E-01     0.0000000000000000E+00 
    1.0000000000000000E+00     1.8749999999959341E-01     0.0000000000000000E+00 
    1.0000000000000000E+00     2.4999999999941089E-01     0.0000000000000000E+00 
    1.0000000000000000E+00     3.1249999999922851E-01     0.0000000000000000E+00 
    1.0000000000000000E+00     3.7499999999904610E-01     0.0000000000000000E+00 
    1.0000000000000000E+00     4.3749999999886358E-01     0.0000000000000000E+00 
    1.0000000000000000E+00     4.9999999999869210E-01     0.0000000000000000E+00 
    1.0000000000000000E+00     5.6249999999884603E-01     0.0000000000000000E+00 
    1.0000000000000000E+00     6.2499999999901090E-01     0.0000000000000000E+00 
    1.0000000000000000E+00     6.8749999999917577E-01     0.0000000000000000E+00 
    1.0000000000000000E+00     7.4999999999934064E-01     0.0000000000000000E+00 
    1.0000000000000000E+00     8.1249999999950551E-01     0.0000000000000000E+00 
    1.0000000000000000E+00     8.7499999999967026E-01     0.0000000000000000E+00 
    1.0000000000000000E+00     9.3749999999983513E-01     0.0000000000000000E+00 
    9.3749999999973976E-01     1.0000000000000000E+00     0.0000000000000000E+00 
    8.7499999999950118E-01     1.0000000000000000E+00     0.0000000000000000E+00 
    8.1249999999991318E-01     1.0000000000000000E+00     0.0000000000000000E+00 
    7.5000000000034706E-01     1.0000000000000000E+00     0.0000000000000000E+00 
    6.8750000000078049E-01     1.0000000000000000E+00     0.0000000000000000E+00 
    6.2500000000121403E-01     1.0000000000000000E+00     0.0000000000000000E+00 
    5.6250000000164757E-01     1.0000000000000000E+00     0.0000000000000000E+00 
    5.0000000000205946E-01     1.0000000000000000E+00     0.0000000000000000E+00 
    4.3750000000182099E-01     1.0000000000000000E+00     0.0000000000000000E+00 
    3.7500000000156092E-01     1.0000000000000000E+00     0.0000000000000000E+00 
    3.1250000000130068E-01     1.0000000000000000E+00     0.0000000000000000E+00 
    2.5000000000104050E-01     1.0000000000000000E+00     0.0000000000000000E+00 
    1.8750000000078040E-01     1.0000000000000000E+00     0.0000000000000000E+00 
    1.2500000000052031E-01     1.0000000000000000E+00     0.0000000000000000E+00 
    6.2500000000260125E-02     1.0000000000000000E+00     0.0000000000000000E+00 
    0.0000000000000000E+00     9.3749999999973976E-01     0.0000000000000000E+00 
    0.0000000000000000E+00     8.7499999999950118E-01     0.0000000000000000E+00 
    0.0000000000000000E+00     8.1249999999991318E-01     0.0000000000000000E+00 
    0.0000000000000000E+00     7.5000000000034706E-01     0.0000000000000000E+00 
    0.0000000000000000E+00     6.8750000000078049E-01     0.0000000000000000E+00 
    0.0000000000000000E+00     6.2500000000121403E-01     0.0000000000000000E+00 
    0.0000000000000000E+00     5.6250000000164757E-01     0.0000000000000000E+00 
    0.0000000000000000E+00     5.0000000000205946E-01     0.0000000000000000E+00 
    0.0000000000000000E+00     4.3750000000182099E-01     0.0000000000000000E+00 
    0.0000000000000000E+00     3.7500000000156092E-01     0.0000000000000000E+00 
    0.0000000000000000E+00     3.1250000000130068E-01     0.0000000000000000E+00 
    0.0000000000000000E+00     2.5000000000104050E-01     0.0000000000000000E+00 
    0.0000000000000000E+00     1.8750000000078040E-01     0.0000000000000000E+00 
    0.0000000000000000E+00     1.2500000000052031E-01     0.0000000000000000E+00 
    0.0000000000000000E+00     6.2500000000260125E-02     0.0000000000000000E+00 
    6.2499999999897131E-02     6.2500000000235922E-02     0.0000000000000000E+00 
    6.2499999999921327E-02     1.2500000000047351E-01     0.0000000000000000E+00 
    6.2499999999945530E-02     1.8750000000070621E-01     0.0000000000000000E+00 
    6.2499999999969733E-02     2.5000000000093858E-01     0.0000000000000000E+00 
    6.2499999999993928E-02     3.1250000000117117E-01     0.0000000000000000E+00 
    6.2500000000018124E-02     3.7500000000140382E-01     0.0000000000000000E+00 
    6.2500000000042327E-02     4.3750000000163619E-01     0.0000000000000000E+00 
    6.2500000000066530E-02     5.0000000000184897E-01     0.0000000000000000E+00 
    6.2500000000090733E-02     5.6250000000147260E-01     0.0000000000000000E+00 
    6.2500000000114922E-02     6.2500000000107636E-01     0.0000000000000000E+00 
    6.2500000000139125E-02     6.8750000000068034E-01     0.0000000000000000E+00 
    6.2500000000163328E-02     7.5000000000028411E-01     0.0000000000000000E+00 
    6.2500000000187531E-02     8.1249999999988787E-01     0.0000000000000000E+00 
    6.2500000000211720E-02     8.7499999999951172E-01     0.0000000000000000E+00 
    6.2500000000235922E-02     9.3749999999974565E-01     0.0000000000000000E+00 
    1.2499999999981980E-01     6.2500000000211733E-02     0.0000000000000000E+00 
    1.2499999999986650E-01     1.2500000000042691E-01     0.0000000000000000E+00 
    1.2499999999991319E-01     1.8750000000063199E-01     0.0000000000000000E+00 
    1.2499999999995989E-01     2.5000000000083678E-01     0.0000000000000000E+00 
    1.2500000000000661E-01     3.1250000000104172E-01     0.0000000000000000E+00 
    1.2500000000005329E-01     3.7500000000124661E-01     0.0000000000000000E+00 
    1.2500000000010000E-01     4.3750000000145117E-01     0.0000000000000000E+00 
    1.2500000000014669E-01     5.0000000000163858E-01     0.0000000000000000E+00 
    1.2500000000019340E-01     5.6250000000129741E-01     0.0000000000000000E+00 
    1.2500000000024011E-01     6.2500000000093847E-01     0.0000000000000000E+00 
    1.2500000000028680E-01     6.8750000000057998E-01     0.0000000000000000E+00 
    1.2500000000033351E-01     7.5000000000022127E-01     0.0000000000000000E+00 
    1.2500000000038020E-01     8.1249999999986211E-01     0.0000000000000000E+00 
    1.2500000000042691E-01     8.7499999999952238E-01     0.0000000000000000E+00 
    1.2500000000047359E-01     9.3749999999975164E-01     0.0000000000000000E+00 
    1.8749999999966760E-01     6.2500000000187531E-02     0.0000000000000000E+00 
    1.8749999999974179E-01     1.2500000000038020E-01     0.0000000000000000E+00 
    1.8749999999981601E-01     1.8750000000055780E-01     0.0000000000000000E+00 
    1.8749999999989009E-01     2.5000000000073502E-01     0.0000000000000000E+00 
    1.8749999999996431E-01     3.1250000000091221E-01     0.0000000000000000E+00 
    1.8750000000003850E-01     3.7500000000108941E-01     0.0000000000000000E+00 
    1.8750000000011269E-01     4.3750000000126649E-01     0.0000000000000000E+00 
    1.8750000000018691E-01     5.0000000000142808E-01     0.0000000000000000E+00 
    1.8750000000026110E-01     5.6250000000112244E-01     0.0000000000000000E+00 
    1.8750000000033529E-01     6.2500000000080080E-01     0.0000000000000000E+00 
    1.8750000000040951E-01     6.8750000000047962E-01     0.0000000000000000E+00 
    1.8750000000048361E-01     7.5000000000015843E-01     0.0000000000000000E+00 
    1.8750000000055780E-01     8.1249999999983680E-01     0.0000000000000000E+00 
    1.8750000000063199E-01     8.7499999999953304E-01     0.0000000000000000E+00 
    1.8750000000070621E-01     9.3749999999975764E-01     0.0000000000000000E+00 
    2.4999999999951281E-01     6.2500000000163314E-02     0.0000000000000000E+00 
    2.4999999999961461E-01     1.2500000000033351E-01     0.0000000000000000E+00 
    2.4999999999971650E-01     1.8750000000048361E-01     0.0000000000000000E+00 
    2.4999999999981831E-01     2.5000000000063310E-01     0.0000000000000000E+00 
    2.4999999999992020E-01     3.1250000000078260E-01     0.0000000000000000E+00 
    2.5000000000002198E-01     3.7500000000093209E-01     0.0000000000000000E+00 
    2.5000000000012390E-01     4.3750000000108180E-01     0.0000000000000000E+00 
    2.5000000000022571E-01     5.0000000000121769E-01     0.0000000000000000E+00 
    2.5000000000032763E-01     5.6250000000094724E-01     0.0000000000000000E+00 
    2.5000000000042938E-01     6.2500000000066314E-01     0.0000000000000000E+00 
    2.5000000000053119E-01     6.8750000000037925E-01     0.0000000000000000E+00 
[...]
CELL_DATA 256 
SCALARS Pressure double 1 
LOOKUP_TABLE default 

    1.9057906582591215E+00 
    1.6744512789548269E+00 
    1.5447271743690236E+00 
    1.4414978534358762E+00 
    1.3469488190629779E+00 
    1.2551714104592793E+00 
    1.1638812739206381E+00 
    1.0722998783302784E+00 
    9.8052017318049867E-01 
    8.8940122592856985E-01 
    8.0073543815747061E-01 
    7.1754592589864585E-01 
    6.4423738625726101E-01 
    5.8598454495859342E-01 
    5.4672686492377565E-01 
    5.3159053076739982E-01 
    1.8345006975018687E+00 
    1.6783741575593991E+00 
    1.5532640743022617E+00 
    1.4502421264081320E+00 
    1.3557133605460756E+00 
    1.2640033750341246E+00 
    1.1727907303830813E+00 
    1.0812414322175428E+00 
    9.8937926443572277E-01 
    8.9796561129200381E-01 
    8.0865787323187510E-01 
    7.2432678334234912E-01 
    6.4929495847013396E-01 
    5.8889979787765689E-01 
    5.4756849858964318E-01 
    5.3098101152402910E-01 
    1.7792255239253161E+00 
    1.6717070713771589E+00 
    1.5582881426343009E+00 
    1.4576594253931925E+00 
    1.3638540702892499E+00 
    1.2724842929468070E+00 
    1.1814599945107878E+00 
    1.0899719598246731E+00 
    9.9799604884748738E-01 
    9.0618896298124596E-01 
    8.1604697232643386E-01 
    7.3025396838607792E-01 
    6.5304032033052373E-01 
    5.8999692081321820E-01 
    5.4636525480192999E-01 
    5.2853120306207257E-01 
    1.7357920242514633E+00 
    1.6599258435707993E+00 
    1.5600861103124490E+00 
    1.4636466329329925E+00 
    1.3713093451351335E+00 
    1.2805897331163316E+00 
    1.1898874083542179E+00 
    1.0985086863660833E+00 
    1.0064101590458621E+00 
    9.1414187732713614E-01 
    8.2301335123289387E-01 
    7.3547547720115847E-01 
    6.5562143014844831E-01 
    5.8932832928571888E-01 
    5.4290308648587160E-01 
    5.2379327454144464E-01 
    1.7012817058906711E+00 
    1.6461901410905679E+00 
    1.5593916035999100E+00 
    1.4682629064822925E+00 
    1.3780620825443464E+00 
    1.2883101533494647E+00 
    1.1980775308434881E+00 
    1.1068717545183604E+00 
    1.0146628326340024E+00 
    9.2189697090649192E-01 
    8.2967301169994978E-01 
    7.4015246724736083E-01 
    6.5720914505830519E-01 
    5.8697055490273264E-01 
    5.3700130153551973E-01 
    5.1633007528739772E-01 
    1.6736491177260804E+00 
    1.6322941051528495E+00 
    1.5570092628405861E+00 
    1.4716904961303539E+00 
    1.3841436621947469E+00 
    1.2956540571721049E+00 
    1.2060422526134085E+00 
    1.1150842019054261E+00 
    1.0227960858590952E+00 
    9.2952745502900580E-01 
    8.3614614180057045E-01 
    7.4446085786055205E-01 
    6.5800602123468355E-01 
    5.8304003789839443E-01 
    5.2850632379565088E-01 
    5.0568816186895815E-01 
    1.6514376523667713E+00 
    1.6192266967954394E+00 
    1.5536592661243274E+00 
    1.4741819943637555E+00 
    1.3896288017301339E+00 
    1.3026490905279460E+00 
    1.2138015397474631E+00 
    1.1231719029390836E+00 
    1.0308518430444491E+00 
    9.3710538770710738E-01 
    8.4255495277072989E-01 
    7.4859130420066666E-01 
    6.5825441649326144E-01 
    5.7771216610010945E-01 
    5.1729418391587889E-01 
    4.9136185977545199E-01 
    1.6335918142421291E+00 
    1.6075050786567391E+00 
    1.5499284078329889E+00 
    1.4760164934676119E+00 
    1.3946253797830968E+00 
    1.3093410688648355E+00 
    1.2213836528472377E+00 
    1.1311634469234799E+00 
    1.0388710781162163E+00 
    9.4469969131029052E-01 
    8.4902049784134737E-01 
    7.5274699651487387E-01 
    6.5824307168981999E-01 
    5.7124510589654509E-01 
    5.0328611504378384E-01 
    4.7275239329070945E-01 
    1.6193323099718226E+00 
    1.5973729189261605E+00 
    1.5462694300517521E+00 
    1.4774697640684873E+00 
    1.3992629745729588E+00 
    1.3157914646039999E+00 
    1.2288248199251230E+00 
    1.1390899376239418E+00 
    1.0468930235649976E+00 
    9.5237405397326225E-01 
    8.5565848710282211E-01 
    7.5713864071936632E-01 
    6.5831061749959618E-01 
    5.6400923795046409E-01 
    4.8648274497583055E-01 
    4.4911843866958034E-01 
    1.6080718564027454E+00 
    1.5889181003609441E+00 
    1.5430194138081537E+00 
    1.4787970352355757E+00 
    1.4036824906875653E+00 
    1.3220740650039198E+00 
    1.2361684595458844E+00 
    1.1469847340009067E+00 
    1.0549545264594706E+00 
    9.6018490565001169E-01 
    8.6257428017414151E-01 
    7.6197601682038940E-01 
    6.5884348694056794E-01 
    5.5652170131152623E-01 
    4.6702667789548341E-01 
    4.1951107164608564E-01 
    1.5993574374994575E+00 
    1.5821422753642320E+00 
    1.5404232815551635E+00 
    1.4802251412876488E+00 
    1.4080279858056619E+00 
    1.3282714393767323E+00 
    1.2434641136224200E+00 
    1.1548831789344689E+00 
    1.0630896496445463E+00 
    9.6817973514584599E-01 
    8.6985748805872609E-01 
    7.6745579355035143E-01 
    6.6026456006718126E-01 
    5.4948275643777245E-01 
    4.4531081296518488E-01 
    3.8268285819506576E-01 
    1.5928296943590547E+00 
    1.5770015862610447E+00 
    1.5386562438996754E+00 
    1.4819508387403877E+00 
    1.4124409268119531E+00 
    1.3344716530613694E+00 
    1.2507662452502974E+00 
    1.1628223674781388E+00 
    1.0713296183555538E+00 
    9.7639607232921533E-01 
    8.7757693240912471E-01 
    7.7374596237502025E-01 
    6.6300778216628498E-01 
    5.4380480268670117E-01 
    4.2216213177735257E-01 
    3.3695555599080607E-01 
    1.5881930636049131E+00 
    1.5734298560470670E+00 
    1.5378426949173150E+00 
    1.4841425904656294E+00 
    1.4170564756513975E+00 
    1.3407653439904590E+00 
    1.2581329335450699E+00 
    1.1708409375774247E+00 
    1.0797031650572497E+00 
    9.8486146572762234E-01 
    8.8577703942900299E-01 
    7.8096852202642264E-01 
    6.6747372180641440E-01 
    5.4061293862380899E-01 
    3.9915129990270892E-01 
    2.8002125681127660E-01 
    1.5851910738239499E+00 
    1.5713496151358342E+00 
    1.5380696880833846E+00 
    1.4869428198701118E+00 
    1.4220003209272583E+00 
    1.3472423773338802E+00 
    1.2656238465137264E+00 
    1.1789783807111702E+00 
    1.0882369716267963E+00 
    9.9359455198823243E-01 
    8.9447686478677446E-01 
    7.8918387022883352E-01 
    6.7396317364291380E-01 
    5.4117179238932012E-01 
    3.7911253591173510E-01 
    2.0863138156604685E-01 
    1.5835770763649175E+00 
    1.5706664408336768E+00 
    1.5393870117857427E+00 
    1.4904625007074657E+00 
    1.4273799973664225E+00 
    1.3539835964495599E+00 
    1.2732938517210970E+00 
    1.1872707629517496E+00 
    1.0969536367672197E+00 
    1.0026054038520620E+00 
    9.0367150723768097E-01 
    7.9838130994777412E-01 
    6.8259274499164235E-01 
    5.4664150590270943E-01 
    3.6700463516601506E-01 
    1.1805053508907534E-01 
    1.5830883552480364E+00 
    1.5712449949921410E+00 
    1.5417880259790051E+00 
    1.4947661264663556E+00 
    1.4332745946920680E+00 
    1.3610550839324829E+00 
    1.2811901592349806E+00 
    1.1957488039629478E+00 
    1.1058693407225006E+00 
    1.0118921062033914E+00 
    9.1332652246851631E-01 
    8.0846157335971358E-01 
    6.9317901840514295E-01 
    5.5738778846030923E-01 
    3.7111547163337205E-01 
    0.0000000000000000E+00 

SCALARS Saturarion double 1 
LOOKUP_TABLE default 

    1.0000000000000000E+00 
    9.8777891950746211E-01 
    9.7165169202343438E-01 
    9.5400707870166346E-01 
    9.3635021804409024E-01 
    9.1914799087536680E-01 
    9.0246684471393090E-01 
    8.8619827574315135E-01 
    8.7012395008527299E-01 
    8.5389423146407872E-01 
    8.3691216310463568E-01 
    8.1799845689103501E-01 
    7.9423840339353580E-01 
    7.5575110191246520E-01 
    6.5637488572495584E-01 
    2.3883619844155160E-01 
    9.9609608476505862E-01 
    9.8589812247957909E-01 
    9.7091511348768089E-01 
    9.5380967101746283E-01 
    9.3638781570595631E-01 
    9.1930537477955199E-01 
    9.0270553330713177E-01 
    8.8651587726352710E-01 
    8.7054288205559693E-01 
    8.5446410298102249E-01 
    8.3772328802918283E-01 
    8.1921739777643932E-01 
    7.9623496168287278E-01 
    7.5971812090521107E-01 
    6.6828126974807789E-01 
    2.9966639363441017E-01 
    9.9282478162731957E-01 
    9.8314260600603498E-01 
    9.6905352282973622E-01 
    9.5261811448358491E-01 
    9.3558589078952881E-01 
    9.1875003981367231E-01 
    9.0233818693603807E-01 
    8.8632252939893785E-01 
    8.7054037144104635E-01 
    8.5470127163820564E-01 
    8.3829317340057596E-01 
    8.2028854853711941E-01 
    7.9816428254290139E-01 
    7.6360550083640910E-01 
    6.7909361547392544E-01 
    3.5062962479028975E-01 
    9.8893549374431955E-01 
    9.7967616593611140E-01 
    9.6628601295175387E-01 
    9.5051689916562265E-01 
    9.3395879251877112E-01 
    9.1746218141416247E-01 
    9.0132474677068830E-01 
    8.8556452078666859E-01 
    8.7005346670746742E-01 
    8.5453797232785322E-01 
    8.3855521686001588E-01 
    8.2115467577982937E-01 
    7.9998793455214090E-01 
    7.6740959182190982E-01 
    6.8919428803982730E-01 
    3.9445304260702485E-01 
    9.8423521224809241E-01 
    9.7545569991873415E-01 
    9.6268978235579528E-01 
    9.4756348604096552E-01 
    9.3152717817085784E-01 
    9.1543985176610798E-01 
    8.9964904773523213E-01 
    8.8421483080298457E-01 
    8.6904510932628332E-01 
    8.5392703373476264E-01 
    8.3845335877942118E-01 
    8.2175626814244829E-01 
    8.0165410433994899E-01 
    7.7110820140986847E-01 
    6.9880364355992075E-01 
    4.3258017955137618E-01 
    9.7856708864987363E-01 
    9.7039003294960235E-01 
    9.5825056538977482E-01 
    9.4376131476602432E-01 
    9.2828159766381935E-01 
    9.1266085033913491E-01 
    8.9728005597458216E-01 
    8.8223550044384014E-01 
    8.6747033691056719E-01 
    8.5281515748717696E-01 
    8.3792519709427815E-01 
    8.2202523607186684E-01 
    8.0309984207366569E-01 
    7.7466484671425428E-01 
    7.0804795400322207E-01 
    4.6636644016836137E-01 
    9.7176615305233549E-01 
    9.6435417563469006E-01 
    9.5289546714563311E-01 
    9.3906364380823704E-01 
    9.2417654001254723E-01 
    9.0907488553672844E-01 
    8.9416332559512413E-01 
    8.7956868459901727E-01 
    8.6526728667604680E-01 
    8.5113434333877269E-01 
    8.3689427421592433E-01 
    8.2187829504086396E-01 
    8.0424581451846799E-01 
    7.7802538164569457E-01 
    7.1698816650206176E-01 
    4.9692716483051175E-01 
    9.6363665967516809E-01 
    9.5718288754886283E-01 
    9.4649890831998873E-01 
    9.3337205837768700E-01 
    9.1912299224221083E-01 
    9.0459464913204135E-01 
    8.9021188522059225E-01 
    8.7612771210473850E-01 
    8.6234870346804215E-01 
    8.4879409444693155E-01 
    8.3526292918989209E-01 
    8.2120986769342641E-01 
    8.0498907519662355E-01 
    7.8111243894143900E-01 
    7.2563329863156589E-01 
    5.2510852182214818E-01 
    9.5392553873453634E-01 
    9.4865273809680872E-01 
    9.3887185139864837E-01 
    9.2652467336625022E-01 
    9.1297369778405102E-01 
    8.9908008615220381E-01 
    8.8529061808134268E-01 
    8.7178206206012954E-01 
    8.5858791496526876E-01 
    8.4566879945265372E-01 
    8.3290116228009403E-01 
    8.1988149876389926E-01 
    8.0519211972487881E-01 
    7.8381648373410129E-01 
    7.3394504384415815E-01 
    5.5152490627946449E-01 
    9.4228049674627934E-01 
    9.3844805400319764E-01 
    9.2973290444182421E-01 
    9.1826832027853678E-01 
    9.0549428401713539E-01 
    8.9230904917376308E-01 
    8.7918726980276263E-01 
    8.6632937373688723E-01 
    8.5379253710387670E-01 
    8.4157393184572094E-01 
    8.2962585711055781E-01 
    8.1770311875012125E-01 
    8.0466422846028685E-01 
    7.8598011347931429E-01 
    7.4183501472631308E-01 
    5.7660150861190751E-01 
    9.2817335315922977E-01 
    9.2609498621793884E-01 
    9.1864776590656561E-01 
    9.0820010510830951E-01 
    8.9630481595209188E-01 
    8.8391865086316612E-01 
    8.7155423217000116E-01 
    8.5943865128180041E-01 
    8.4765043458640299E-01 
    8.3621642427801934E-01 
    8.2515718381528369E-01 
    8.1439511314824031E-01 
    8.0312570150209250E-01 
    7.8736771338228773E-01 
    7.4915214517540452E-01 
    6.0060189018065047E-01 
    9.1073751618091148E-01 
    9.1081947121612050E-01 
    9.0489564494191144E-01 
    8.9563694662811422E-01 
    8.8474925316672481E-01 
    8.7327346422366570E-01 
    8.6177596526490019E-01 
    8.5051880280745185E-01 
    8.3960253643362570E-01 
    8.2907589518312752E-01 
    8.1901284410875919E-01 
    8.0949800854357679E-01 
    8.0012803241333652E-01 
    7.8759884878108744E-01 
    7.5564990592225656E-01 
    6.2363520781489246E-01 
    8.8834535669357972E-01 
    8.9117970933784874E-01 
    8.8712148899674925E-01 
    8.7927189364288461E-01 
    8.6954674230968620E-01 
    8.5910704399453897E-01 
    8.4860037263005339E-01 
    8.3834439463952193E-01 
    8.2847253938118059E-01 
    8.1905196592157881E-01 
    8.1018899186800275E-01 
    8.0210117978203344E-01 
    7.9482924279177825E-01 
    7.8597022273770123E-01 
    7.6089573282419176E-01 
    6.4563521214569930E-01 
    8.5707162298471196E-01 
    8.6375833467504604E-01 
    8.6210143767451897E-01 
    8.5593908853678746E-01 
    8.4751227728119805E-01 
    8.3817279890263052E-01 
    8.2871186709861488E-01 
    8.1956335978054662E-01 
    8.1094550264427923E-01 
    8.0297378802921693E-01 
    7.9577897372908946E-01 
    7.8965519913488647E-01 
    7.8505479662837130E-01 
    7.8077574318921372E-01 
    7.6393623482699113E-01 
    6.6626494757335741E-01 
    8.0203526842970652E-01 
    8.1577266744806864E-01 
    8.1777812573924069E-01 
    8.1365263920430797E-01 
    8.0635708995122746E-01 
    7.9765973023436842E-01 
    7.8867858013704939E-01 
    7.8015570715366311E-01 
    7.7261762604240980E-01 
    7.6647380444205804E-01 
    7.6209319373545614E-01 
    7.5992936040327019E-01 
    7.6074216919024262E-01 
    7.6472784968518481E-01 
    7.6112360057544703E-01 
    6.8429293066698582E-01 
    6.1750596738128216E-01 
    6.6071043029578713E-01 
    6.7539007198889345E-01 
    6.7710441332947335E-01 
    6.7204096505863087E-01 
    6.6335724742579683E-01 
    6.5286953952026217E-01 
    6.4174835086494542E-01 
    6.3093896057679610E-01 
    6.2152970839865140E-01 
    6.1519382189144634E-01 
    6.1481910296833975E-01 
    6.2541571230524162E-01 
    6.5469823473820488E-01 
    7.0345517320039408E-01 
    6.8739359386763565E-01 
