# vtk DataFile Version 2.0
Pressure Field Data 
ASCII 
DATASET UNSTRUCTURED_GRID 

POINTS 289 double 

    0.0000000000000000E+00     0.0000000000000000E+00     0.0000000000000000E+00 
    1.0000000000000000E+00     0.0000000000000000E+00     0.0000000000000000E+00 
    1.0000000000000000E+00     1.0000000000000000E+00     0.0000000000000000E+00 
    0.0000000000000000E+00     1.0000000000000000E+00     0.0000000000000000E+00 
    6.2499999999872928E-02     0.0000000000000000E+00     0.0000000000000000E+00 
    1.2499999999977310E-01     0.0000000000000000E+00     0.0000000000000000E+00 
    1.8749999999959341E-01     0.0000000000000000E+00     0.0000000000000000E+00 
    2.4999999999941089E-01     0.0000000000000000E+00     0.0000000000000000E+00 
    3.1249999999922851E-01     0.0000000000000000E+00     0.0000000000000000E+00 
    3.7499999999904610E-01     0.0000000000000000E+00     0.0000000000000000E+00 
    4.3749999999886358E-01     0.0000000000000000E+00     0.0000000000000000E+00 
    4.9999999999869210E-01     0.0000000000000000E+00     0.0000000000000000E+00 
    5.6249999999884603E-01     0.0000000000000000E+00     0.0000000000000000E+00 
    6.2499999999901090E-01     0.0000000000000000E+00     0.0000000000000000E+00 
    6.8749999999917577E-01     0.0000000000000000E+00     0.0000000000000000E+00 
    7.4999999999934064E-01     0.0000000000000000E+00     0.0000000000000000E+00 
    8.1249999999950551E-01     0.0000000000000000E+00     0.0000000000000000E+00 
    8.7499999999967026E-01     0.0000000000000000E+00     0.0000000000000000E+00 
    9.3749999999983513E-01     0.0000000000000000E+00     0.0000000000000000E+00 
    1.0000000000000000E+00     6.2499999999872928E-02     0.0000000000000000E+00 
    1.0000000000000000E+00     1.2499999999977310E-01     0.0000000000000000E+00 
    1.0000000000000000E+00     1.8749999999959341E-01     0.0000000000000000E+00 
    1.0000000000000000E+00     2.4999999999941089E-01     0.0000000000000000E+00 
    1.0000000000000000E+00     3.1249999999922851E-01     0.0000000000000000E+00 
    1.0000000000000000E+00     3.7499999999904610E-01     0.0000000000000000E+00 
    1.0000000000000000E+00     4.3749999999886358E-01     0.0000000000000000E+00 
    1.0000000000000000E+00     4.9999999999869210E-01     0.0000000000000000E+00 
    1.0000000000000000E+00     5.6249999999884603E-01     0.0000000000000000E+00 
    1.0000000000000000E+00     6.2499999999901090E-01     0.0000000000000000E+00 
    1.0000000000000000E+00     6.8749999999917577E-01     0.0000000000000000E+00 
    1.0000000000000000E+00     7.4999999999934064E-01     0.0000000000000000E+00 
    1.0000000000000000E+00     8.1249999999950551E-01     0.0000000000000000E+00 
    1.0000000000000000E+00     8.7499999999967026E-01     0.0000000000000000E+00 
    1.0000000000000000E+00     9.3749999999983513E-01     0.0000000000000000E+00 
    9.3749999999973976E-01     1.0000000000000000E+00     0.0000000000000000E+00 
    8.7499999999950118E-01     1.0000000000000000E+00     0.0000000000000000E+00 
    8.1249999999991318E-01     1.0000000000000000E+00     0.0000000000000000E+00 
    7.5000000000034706E-01     1.0000000000000000E+00     0.0000000000000000E+00 
    6.8750000000078049E-01     1.0000000000000000E+00     0.0000000000000000E+00 
    6.2500000000121403E-01     1.0000000000000000E+00     0.0000000000000000E+00 
    5.6250000000164757E-01     1.0000000000000000E+00     0.0000000000000000E+00 
    5.0000000000205946E-01     1.0000000000000000E+00     0.0000000000000000E+00 
    4.3750000000182099E-01     1.0000000000000000E+00     0.0000000000000000E+00 
    3.7500000000156092E-01     1.0000000000000000E+00     0.0000000000000000E+00 
    3.1250000000130068E-01     1.0000000000000000E+00     0.0000000000000000E+00 
    2.5000000000104050E-01     1.0000000000000000E+00     0.0000000000000000E+00 
    1.8750000000078040E-01     1.0000000000000000E+00     0.0000000000000000E+00 
    1.2500000000052031E-01     1.0000000000000000E+00     0.0000000000000000E+00 
    6.2500000000260125E-02     1.0000000000000000E+00     0.0000000000000000E+00 
    0.0000000000000000E+00     9.3749999999973976E-01     0.0000000000000000E+00 
    0.0000000000000000E+00     8.7499999999950118E-01     0.0000000000000000E+00 
    0.0000000000000000E+00     8.1249999999991318E-01     0.0000000000000000E+00 
    0.0000000000000000E+00     7.5000000000034706E-01     0.0000000000000000E+00 
    0.0000000000000000E+00     6.8750000000078049E-01     0.0000000000000000E+00 
    0.0000000000000000E+00     6.2500000000121403E-01     0.0000000000000000E+00 
    0.0000000000000000E+00     5.6250000000164757E-01     0.0000000000000000E+00 
    0.0000000000000000E+00     5.0000000000205946E-01     0.0000000000000000E+00 
    0.0000000000000000E+00     4.3750000000182099E-01     0.0000000000000000E+00 
    0.0000000000000000E+00     3.7500000000156092E-01     0.0000000000000000E+00 
    0.0000000000000000E+00     3.1250000000130068E-01     0.0000000000000000E+00 
    0.0000000000000000E+00     2.5000000000104050E-01     0.0000000000000000E+00 
    0.0000000000000000E+00     1.8750000000078040E-01     0.0000000000000000E+00 
    0.0000000000000000E+00     1.2500000000052031E-01     0.0000000000000000E+00 
    0.0000000000000000E+00     6.2500000000260125E-02     0.0000000000000000E+00 
    6.2499999999897131E-02     6.2500000000235922E-02     0.0000000000000000E+00 
    6.2499999999921327E-02     1.2500000000047351E-01     0.0000000000000000E+00 
    6.2499999999945530E-02     1.8750000000070621E-01     0.0000000000000000E+00 
    6.2499999999969733E-02     2.5000000000093858E-01     0.0000000000000000E+00 
    6.2499999999993928E-02     3.1250000000117117E-01     0.0000000000000000E+00 
    6.2500000000018124E-02     3.7500000000140382E-01     0.0000000000000000E+00 
    6.2500000000042327E-02     4.3750000000163619E-01     0.0000000000000000E+00 
    6.2500000000066530E-02     5.0000000000184897E-01     0.0000000000000000E+00 
    6.2500000000090733E-02     5.6250000000147260E-01     0.0000000000000000E+00 
    6.2500000000114922E-02     6.2500000000107636E-01     0.0000000000000000E+00 
    6.2500000000139125E-02     6.8750000000068034E-01     0.0000000000000000E+00 
    6.2500000000163328E-02     7.5000000000028411E-01     0.0000000000000000E+00 
    6.2500000000187531E-02     8.1249999999988787E-01     0.0000000000000000E+00 
    6.2500000000211720E-02     8.7499999999951172E-01     0.0000000000000000E+00 
    6.2500000000235922E-02     9.3749999999974565E-01     0.0000000000000000E+00 
    1.2499999999981980E-01     6.2500000000211733E-02     0.0000000000000000E+00 
    1.2499999999986650E-01     1.2500000000042691E-01     0.0000000000000000E+00 
    1.2499999999991319E-01     1.8750000000063199E-01     0.0000000000000000E+00 
    1.2499999999995989E-01     2.5000000000083678E-01     0.0000000000000000E+00 
    1.2500000000000661E-01     3.1250000000104172E-01     0.0000000000000000E+00 
    1.2500000000005329E-01     3.7500000000124661E-01     0.0000000000000000E+00 
    1.2500000000010000E-01     4.3750000000145117E-01     0.0000000000000000E+00 
    1.2500000000014669E-01     5.0000000000163858E-01     0.0000000000000000E+00 
    1.2500000000019340E-01     5.6250000000129741E-01     0.0000000000000000E+00 
    1.2500000000024011E-01     6.2500000000093847E-01     0.0000000000000000E+00 
    1.2500000000028680E-01     6.8750000000057998E-01     0.0000000000000000E+00 
    1.2500000000033351E-01     7.5000000000022127E-01     0.0000000000000000E+00 
    1.2500000000038020E-01     8.1249999999986211E-01     0.0000000000000000E+00 
    1.2500000000042691E-01     8.7499999999952238E-01     0.0000000000000000E+00 
    1.2500000000047359E-01     9.3749999999975164E-01     0.0000000000000000E+00 
    1.8749999999966760E-01     6.2500000000187531E-02     0.0000000000000000E+00 
    1.8749999999974179E-01     1.2500000000038020E-01     0.0000000000000000E+00 
    1.8749999999981601E-01     1.8750000000055780E-01     0.0000000000000000E+00 
    1.8749999999989009E-01     2.5000000000073502E-01     0.0000000000000000E+00 
    1.8749999999996431E-01     3.1250000000091221E-01     0.0000000000000000E+00 
    1.8750000000003850E-01     3.7500000000108941E-01     0.0000000000000000E+00 
    1.8750000000011269E-01     4.3750000000126649E-01     0.0000000000000000E+00 
    1.8750000000018691E-01     5.0000000000142808E-01     0.0000000000000000E+00 
    1.8750000000026110E-01     5.6250000000112244E-01     0.0000000000000000E+00 
    1.8750000000033529E-01     6.2500000000080080E-01     0.0000000000000000E+00 
    1.8750000000040951E-01     6.8750000000047962E-01     0.0000000000000000E+00 
    1.8750000000048361E-01     7.5000000000015843E-01     0.0000000000000000E+00 
    1.8750000000055780E-01     8.1249999999983680E-01     0.0000000000000000E+00 
    1.8750000000063199E-01     8.7499999999953304E-01     0.0000000000000000E+00 
    1.8750000000070621E-01     9.3749999999975764E-01     0.0000000000000000E+00 
    2.4999999999951281E-01     6.2500000000163314E-02     0.0000000000000000E+00 
    2.4999999999961461E-01     1.2500000000033351E-01     0.0000000000000000E+00 
    2.4999999999971650E-01     1.8750000000048361E-01     0.0000000000000000E+00 
    2.4999999999981831E-01     2.5000000000063310E-01     0.0000000000000000E+00 
    2.4999999999992020E-01     3.1250000000078260E-01     0.0000000000000000E+00 
    2.5000000000002198E-01     3.7500000000093209E-01     0.0000000000000000E+00 
    2.5000000000012390E-01     4.3750000000108180E-01     0.0000000000000000E+00 
    2.5000000000022571E-01     5.0000000000121769E-01     0.0000000000000000E+00 
    2.5000000000032763E-01     5.6250000000094724E-01     0.0000000000000000E+00 
    2.5000000000042938E-01     6.2500000000066314E-01     0.0000000000000000E+00 
    2.5000000000053119E-01     6.8750000000037925E-01     0.0000000000000000E+00 
[...]
CELL_DATA 256 
SCALARS Pressure double 1 
LOOKUP_TABLE default 

    1.9287719168768371E+00 
    1.6971669277653221E+00 
    1.5670356327763824E+00 
    1.4632891306061560E+00 
    1.3681229719460948E+00 
    1.2756343829580044E+00 
    1.1835421909179862E+00 
    1.0910690122947027E+00 
    9.9830752616846896E-01 
    9.0611576344402844E-01 
    8.1628383917584479E-01 
    7.3182432862915581E-01 
    6.5709283150098130E-01 
    5.9709990706978433E-01 
    5.5574492632817551E-01 
    5.4099147304914508E-01 
    1.8574648128303244E+00 
    1.7011100649685713E+00 
    1.5756101824881354E+00 
    1.4720830309842718E+00 
    1.3769474765025389E+00 
    1.2845359073767939E+00 
    1.1925304259770249E+00 
    1.1000983326141074E+00 
    1.0072631081357577E+00 
    9.1478496381981678E-01 
    8.2431930219809291E-01 
    7.3872888872477760E-01 
    6.6229581945946903E-01 
    6.0020178363705179E-01 
    5.5674464526252709E-01 
    5.4045527986646213E-01 
    1.8021664599772795E+00 
    1.6944502029451667E+00 
    1.5806625475791232E+00 
    1.4795423400158856E+00 
    1.3851412838570032E+00 
    1.2930799107123552E+00 
    1.2012722102536526E+00 
    1.1089104214770429E+00 
    1.0159699507387536E+00 
    9.2310591513858897E-01 
    8.3181244917977826E-01 
    7.4476772093183807E-01 
    6.6617133578384036E-01 
    6.0147873948306696E-01 
    5.5576501181754079E-01 
    5.3819212520936799E-01 
    1.7587081244309635E+00 
    1.6826675812482130E+00 
    1.5824803181154434E+00 
    1.4855642732070922E+00 
    1.3926430522933622E+00 
    1.3012421927602789E+00 
    1.2097661040563072E+00 
    1.1175227503047493E+00 
    1.0244680293567341E+00 
    9.3114971808763858E-01 
    8.3887448436695433E-01 
    7.5008892336031452E-01 
    6.6886517916728949E-01 
    6.0097262113992844E-01 
    5.5255903675195106E-01 
    5.3371604667739925E-01 
    1.7241721139870949E+00 
    1.6689244614455625E+00 
    1.5817984176606956E+00 
    1.4902086234039906E+00 
    1.3994361327679932E+00 
    1.3090135878254856E+00 
    1.2180170000434931E+00 
    1.1259557985440727E+00 
    1.0327990010906465E+00 
    9.3898959183353714E-01 
    8.4562219803797212E-01 
    7.5485414475129120E-01 
    6.7054642683675014E-01 
    5.9874898316357339E-01 
    5.4690094813410794E-01 
    5.2652550441673285E-01 
    1.6965135446029822E+00 
    1.6550168608395639E+00 
    1.5794228790061056E+00 
    1.4936584951670762E+00 
    1.4055525309799395E+00 
    1.3164031147087663E+00 
    1.2260372364449263E+00 
    1.1342330317530847E+00 
    1.0410053789189107E+00 
    9.4669945177890757E-01 
    8.5217679989977202E-01 
    7.5924036006046991E-01 
    6.7141694932151674E-01 
    5.9491537932224892E-01 
    5.3859676759443176E-01 
    5.1610051867625317E-01 
    1.6742763570335504E+00 
    1.6419352330754839E+00 
    1.5760752684588504E+00 
    1.4961674881282214E+00 
    1.4110677432271688E+00 
    1.3234390678980530E+00 
    1.2338473404185848E+00 
    1.1423808438775018E+00 
    1.0491296577174491E+00 
    9.5435215133095186E-01 
    8.5866175443094694E-01 
    7.6343994147382344E-01 
    6.7171999403278781E-01 
    5.8964184167395095E-01 
    5.2749374063203214E-01 
    5.0188132416505826E-01 
    1.6564056374142482E+00 
    1.6301980247016741E+00 
    1.5723437411249761E+00 
    1.4980158118944633E+00 
    1.4160905630984348E+00 
    1.3301680415692501E+00 
    1.2414762492896130E+00 
    1.1504284376434712E+00 
    1.0572134511967504E+00 
    9.6201747849418406E-01 
    8.6519956239993157E-01 
    7.6765846743590205E-01 
    6.7174704335926494E-01 
    5.8318538928106489E-01 
    5.1349571503185043E-01 
    4.8322810976945652E-01 
    1.6421227122604147E+00 
    1.6200500751811513E+00 
    1.5686823762207656E+00 
    1.4994804401556190E+00 
    1.4207516087110263E+00 
    1.3366524171737317E+00 
    1.2489609893502396E+00 
    1.1584076303620030E+00 
    1.0652966984857577E+00 
    9.6976002990516874E-01 
    8.7190750489535029E-01 
    7.7210961943548806E-01 
    6.7184142606688246E-01 
    5.7591989218618023E-01 
    4.9659525112961461E-01 
    4.5936587146717439E-01 
    1.6308409390670857E+00 
    1.6115803780462914E+00 
    1.5654295795393640E+00 
    1.5008178779441153E+00 
    1.4251929430512944E+00 
    1.3429670254438388E+00 
    1.2563459103557821E+00 
    1.1663526077654780E+00 
    1.0734170245857875E+00 
    9.7763716022283165E-01 
    8.7889253875512385E-01 
    7.7700655752139247E-01 
    6.7239615261331653E-01 
    5.6837107649624496E-01 
    4.7693521628663721E-01 
    4.2931344534088584E-01 
    1.6221079278528396E+00 
    1.6047916586238988E+00 
    1.5628315939738517E+00 
    1.5022563002656544E+00 
    1.4295598973241403E+00 
    1.3491956221447963E+00 
    1.2636816375850581E+00 
    1.1742996773708880E+00 
    1.0816093599565484E+00 
    9.8569728410905189E-01 
    8.8624578924814534E-01 
    7.8254945299838041E-01 
    6.7384224447012564E-01 
    5.6125340468591478E-01 
    4.5491809526218019E-01 
    3.9178782534525747E-01 
    1.6155648661849513E+00 
    1.5996410841600350E+00 
    1.5610649372013450E+00 
    1.5039938534028776E+00 
    1.4339953199351465E+00 
    1.3554276129307470E+00 
    1.2710239000596297E+00 
    1.1822870814092434E+00 
    1.0899059326965865E+00 
    9.9397887385536599E-01 
    8.9403741541265647E-01 
    7.8890955927240225E-01 
    6.7662270823518988E-01 
    5.5549947180394865E-01 
    4.3139321536261083E-01 
    3.4506786451465099E-01 
    1.6109165142414914E+00 
    1.5960633674951905E+00 
    1.5602552262537215E+00 
    1.5062003779100925E+00 
    1.4386358241720085E+00 
    1.3617551286704650E+00 
    1.2784322679175362E+00 
    1.1903548700066457E+00 
    1.0983367185555530E+00 
    1.0025105271666024E+00 
    9.0231298449109154E-01 
    7.9621151758926012E-01 
    6.8114703607634852E-01 
    5.5226033205663183E-01 
    4.0797308721476983E-01 
    2.8679175888435532E-01 
    1.6079060684719120E+00 
    1.5939813980839841E+00 
    1.5604903063442888E+00 
    1.5090193759349693E+00 
    1.4436084127884776E+00 
    1.3682695776596310E+00 
    1.2859681491359314E+00 
    1.1985443683113703E+00 
    1.1069301509139233E+00 
    1.0113123580736969E+00 
    9.1109274779691540E-01 
    8.0451758742566382E-01 
    6.8772342035641376E-01 
    5.5283062948824502E-01 
    3.8756512650957775E-01 
    2.1364330251645358E-01 
    1.6062845197661397E+00 
    1.5932988966022186E+00 
    1.5618187419691372E+00 
    1.5125613199310814E+00 
    1.4490208535901372E+00 
    1.3750527874521159E+00 
    1.2936881576877006E+00 
    1.2068940971619344E+00 
    1.1157118043237677E+00 
    1.0203975727929253E+00 
    9.2037462055476260E-01 
    8.1381952941565494E-01 
    6.9647396331733458E-01 
    5.5840078957442496E-01 
    3.7525486678303910E-01 
    1.2081229846632940E-01 
    1.6057934111856178E+00 
    1.5938827967151077E+00 
    1.5642352390816432E+00 
    1.5168921522023378E+00 
    1.4549540337077675E+00 
    1.3821730901927987E+00 
    1.3016423567150790E+00 
    1.2154383905357040E+00 
    1.1247022395658348E+00 
    1.0297690093438232E+00 
    9.3012817936202030E-01 
    8.2401931047234522E-01 
    7.0721185590840052E-01 
    5.6934397934549552E-01 
    3.7952844104145211E-01 
    0.0000000000000000E+00 

SCALARS Saturarion double 1 
LOOKUP_TABLE default 

    1.0000000000000000E+00 
    9.8716948569083707E-01 
    9.7028059658049337E-01 
    9.5182843819176099E-01 
    9.3337192283890758E-01 
    9.1538372299452608E-01 
    8.9791953679112646E-01 
    8.8085117754519193E-01 
    8.6392973866562073E-01 
    8.4675386309120937E-01 
    8.2862459655863696E-01 
    8.0811552217502547E-01 
    7.8151678375079847E-01 
    7.3555014979099242E-01 
    6.0659445826550229E-01 
    1.5487793093192700E-01 
    9.9589493657343076E-01 
    9.8519681394345748E-01 
    9.6951032475406917E-01 
    9.5162583238000609E-01 
    9.3341902098603458E-01 
    9.1556020506173019E-01 
    8.9818524318044979E-01 
    8.8120382507049477E-01 
    8.6439350711184326E-01 
    8.4738276662346179E-01 
    8.2951942522642153E-01 
    8.0947137396691871E-01 
    7.8380488899205991E-01 
    7.4043918402922082E-01 
    6.2332357121048387E-01 
    2.0866659756338449E-01 
    9.9245877668935789E-01 
    9.8230871186077451E-01 
    9.6756569847267659E-01 
    9.5038958328395218E-01 
    9.3259776023802454E-01 
    9.1500390468587534E-01 
    8.9783179809586433E-01 
    8.8103766749090251E-01 
    8.6443155172818564E-01 
    8.4767652574371777E-01 
    8.3017074251532885E-01 
    8.1067562976012275E-01 
    7.8601383077309717E-01 
    7.4516826363558519E-01 
    6.3788080579663631E-01 
    2.5935030156334016E-01 
    9.8837811143745102E-01 
    9.7867900604972646E-01 
    9.6467715917600794E-01 
    9.4820816887681114E-01 
    9.3092251946643056E-01 
    9.1369316208742579E-01 
    8.9681639146587988E-01 
    8.8029590368256527E-01 
    8.6397786458277859E-01 
    8.4756459980751042E-01 
    8.3050952943775869E-01 
    8.1166889864648051E-01 
    7.8810397735364546E-01 
    7.4974947754966825E-01 
    6.5110727462959073E-01 
    3.0738066521182977E-01 
    9.8345311104719801E-01 
    9.7426493676008064E-01 
    9.6092736456196703E-01 
    9.4514292175033521E-01 
    9.2841561441679243E-01 
    9.1162637751867981E-01 
    8.9512256998298223E-01 
    8.7895102937694281E-01 
    8.6299502596101585E-01 
    8.4699979944083770E-01 
    8.3048011143149181E-01 
    8.1239236216092270E-01 
    7.9002532568707606E-01 
    7.5417587595587909E-01 
    6.6344693924316600E-01 
    3.5205068240708609E-01 
    9.7752316912890247E-01 
    9.6897414561158524E-01 
    9.5630402784988322E-01 
    9.4119964044427051E-01 
    9.2506902128731494E-01 
    9.0878202269852870E-01 
    8.9271962206163169E-01 
    8.7696537454800616E-01 
    8.6143854524611885E-01 
    8.4592960734727507E-01 
    8.3002118448444551E-01 
    8.1277925740275192E-01 
    7.9171710354741653E-01 
    7.5842219706082392E-01 
    6.7515659662186844E-01 
    3.9301375505309327E-01 
    9.7042059710314077E-01 
    9.6267989764498230E-01 
    9.5073443611176767E-01 
    9.3633263152026136E-01 
    9.2083812536679899E-01 
    9.0511042921850171E-01 
    8.8955367158778709E-01 
    8.7428183568142992E-01 
    8.5924761522135795E-01 
    8.4428743151885133E-01 
    8.2905795162960305E-01 
    8.1274799519610386E-01 
    7.9310203066473717E-01 
    7.6244193977149277E-01 
    6.8637749709792295E-01 
    4.3046879688297407E-01 
    9.6194720552958124E-01 
    9.5521469771235923E-01 
    9.4409196428128450E-01 
    9.3044336512993608E-01 
    9.1563412221938001E-01 
    9.0052465607027521E-01 
    8.8553840479777424E-01 
    8.7081486134200714E-01 
    8.5633665457892871E-01 
    8.4198496942995660E-01 
    8.2749524523742612E-01 
    8.1219534719469899E-01 
    7.9407927342082085E-01 
    7.6616277983824066E-01 
    6.9716842588376959E-01 
    4.6494038829867163E-01 
    9.5184702437755542E-01 
    9.4635202362054749E-01 
    9.3618527102912363E-01 
    9.2336856001518597E-01 
    9.0930901413203757E-01 
    8.9488449471305687E-01 
    8.8053928334500464E-01 
    8.6643541236621002E-01 
    8.5258143734509095E-01 
    8.3889990959241056E-01 
    8.2520686194325366E-01 
    8.1098642514721375E-01 
    7.9451403854852809E-01 
    7.6947870357126780E-01 
    7.0752130137243807E-01 
    4.9700500685385179E-01 
    9.3976325415079931E-01 
    9.3577144919619415E-01 
    9.2672878970522388E-01 
    9.1485178818785262E-01 
    9.0162612360674976E-01 
    8.8796657370594978E-01 
    8.7434419115259454E-01 
    8.6094289880977382E-01 
    8.4779306490383155E-01 
    8.3485272491098850E-01 
    8.2201564280671724E-01 
    8.0893696287512007E-01 
    7.9421990459452729E-01 
    7.7223557825405065E-01 
    7.1736533022848170E-01 
    5.2715247365354989E-01 
    9.2515914857026094E-01 
    9.2299071341516226E-01 
    9.1528041654707282E-01 
    9.0448336987767275E-01 
    8.9220003164394168E-01 
    8.7940425953266066E-01 
    8.6660414622997184E-01 
    8.5400792032067308E-01 
    8.4166421833725902E-01 
    8.2955809825777127E-01 
    8.1765153834745452E-01 
    8.0577739990977237E-01 
    7.9292500737141802E-01 
    7.7420268187287899E-01 
    7.2655954284979962E-01 
    5.5573622390809929E-01 
    9.0714857779818159E-01 
    9.0721796340835958E-01 
    9.0110272633232902E-01 
    8.9156487715595312E-01 
    8.8036107916214656E-01 
    8.6855119364234312E-01 
    8.5669684883554387E-01 
    8.4503836219178319E-01 
    8.3364149837427015E-01 
    8.2250781511039073E-01 
    8.1164934292897328E-01 
    8.0106714040184013E-01 
    7.9019674754902935E-01 
    7.7500982669120433E-01 
    7.3486523585524599E-01 
    5.8295286066342611E-01 
    8.8404783824618072E-01 
    8.8696337679630644E-01 
    8.8279609715186436E-01 
    8.7474664994320006E-01 
    8.6478765578114125E-01 
    8.5410404127992567E-01 
    8.4334094644564983E-01 
    8.3279195342616685E-01 
    8.2254825065984372E-01 
    8.1261900202040782E-01 
    8.0303792795262241E-01 
    7.9393639569542784E-01 
    7.8523088386093609E-01 
    7.7397992665930126E-01 
    7.4186429220412675E-01 
    6.0881455643010596E-01 
    8.5170509883124346E-01 
    8.5862283208964196E-01 
    8.5696435234444224E-01 
    8.5069329189705911E-01 
    8.4212420232017760E-01 
    8.3264822597725641E-01 
    8.2306678318134430E-01 
    8.1379437715128100E-01 
    8.0499903188616084E-01 
    7.9671641509261415E-01 
    7.8897291351928067E-01 
    7.8194569013438175E-01 
    7.7597184839452771E-01 
    7.6949630945729142E-01 
    7.4665337511782215E-01 
    6.3305982586802645E-01 
    7.9391669564624234E-01 
    8.0829300278812233E-01 
    8.1051431239897453E-01 
    8.0640332318239472E-01 
    7.9905463817848488E-01 
    7.9032748958190768E-01 
    7.8140214646934436E-01 
    7.7305204765829272E-01 
    7.6578938447595235E-01 
    7.5993827905262823E-01 
    7.5568477178626359E-01 
    7.5320042012369559E-01 
    7.5293736494523711E-01 
    7.5479578472909581E-01 
    7.4586331124104210E-01 
    6.5455995378866028E-01 
    5.9347348119835575E-01 
    6.4208406078315583E-01 
    6.5866294357717325E-01 
    6.6103276505447517E-01 
    6.5602875635095703E-01 
    6.4707972738498754E-01 
    6.3614597435233866E-01 
    6.2449867266726655E-01 
    6.1318463422247915E-01 
    6.0342812171056881E-01 
    5.9708895331305145E-01 
    5.9724662719844868E-01 
    6.0898643281497389E-01 
    6.3984092610143595E-01 
    6.8837110047742212E-01 
    6.6066511294194530E-01 
