# vtk DataFile Version 2.0
Pressure Field Data 
ASCII 
DATASET UNSTRUCTURED_GRID 

POINTS 289 double 

    0.0000000000000000E+00     0.0000000000000000E+00     0.0000000000000000E+00 
    1.0000000000000000E+00     0.0000000000000000E+00     0.0000000000000000E+00 
    1.0000000000000000E+00     1.0000000000000000E+00     0.0000000000000000E+00 
    0.0000000000000000E+00     1.0000000000000000E+00     0.0000000000000000E+00 
    6.2499999999872928E-02     0.0000000000000000E+00     0.0000000000000000E+00 
    1.2499999999977310E-01     0.0000000000000000E+00     0.0000000000000000E+00 
    1.8749999999959341E-01     0.0000000000000000E+00     0.0000000000000000E+00 
    2.4999999999941089E-01     0.0000000000000000E+00     0.0000000000000000E+00 
    3.1249999999922851E-01     0.0000000000000000E+00     0.0000000000000000E+00 
    3.7499999999904610E-01     0.0000000000000000E+00     0.0000000000000000E+00 
    4.3749999999886358E-01     0.0000000000000000E+00     0.0000000000000000E+00 
    4.9999999999869210E-01     0.0000000000000000E+00     0.0000000000000000E+00 
    5.6249999999884603E-01     0.0000000000000000E+00     0.0000000000000000E+00 
    6.2499999999901090E-01     0.0000000000000000E+00     0.0000000000000000E+00 
    6.8749999999917577E-01     0.0000000000000000E+00     0.0000000000000000E+00 
    7.4999999999934064E-01     0.0000000000000000E+00     0.0000000000000000E+00 
    8.1249999999950551E-01     0.0000000000000000E+00     0.0000000000000000E+00 
    8.7499999999967026E-01     0.0000000000000000E+00     0.0000000000000000E+00 
    9.3749999999983513E-01     0.0000000000000000E+00     0.0000000000000000E+00 
    1.0000000000000000E+00     6.2499999999872928E-02     0.0000000000000000E+00 
    1.0000000000000000E+00     1.2499999999977310E-01     0.0000000000000000E+00 
    1.0000000000000000E+00     1.8749999999959341E-01     0.0000000000000000E+00 
    1.0000000000000000E+00     2.4999999999941089E-01     0.0000000000000000E+00 
    1.0000000000000000E+00     3.1249999999922851E-01     0.0000000000000000E+00 
    1.0000000000000000E+00     3.7499999999904610E-01     0.0000000000000000E+00 
    1.0000000000000000E+00     4.3749999999886358E-01     0.0000000000000000E+00 
    1.0000000000000000E+00     4.9999999999869210E-01     0.0000000000000000E+00 
    1.0000000000000000E+00     5.6249999999884603E-01     0.0000000000000000E+00 
    1.0000000000000000E+00     6.2499999999901090E-01     0.0000000000000000E+00 
    1.0000000000000000E+00     6.8749999999917577E-01     0.0000000000000000E+00 
    1.0000000000000000E+00     7.4999999999934064E-01     0.0000000000000000E+00 
    1.0000000000000000E+00     8.1249999999950551E-01     0.0000000000000000E+00 
    1.0000000000000000E+00     8.7499999999967026E-01     0.0000000000000000E+00 
    1.0000000000000000E+00     9.3749999999983513E-01     0.0000000000000000E+00 
    9.3749999999973976E-01     1.0000000000000000E+00     0.0000000000000000E+00 
    8.7499999999950118E-01     1.0000000000000000E+00     0.0000000000000000E+00 
    8.1249999999991318E-01     1.0000000000000000E+00     0.0000000000000000E+00 
    7.5000000000034706E-01     1.0000000000000000E+00     0.0000000000000000E+00 
    6.8750000000078049E-01     1.0000000000000000E+00     0.0000000000000000E+00 
    6.2500000000121403E-01     1.0000000000000000E+00     0.0000000000000000E+00 
    5.6250000000164757E-01     1.0000000000000000E+00     0.0000000000000000E+00 
    5.0000000000205946E-01     1.0000000000000000E+00     0.0000000000000000E+00 
    4.3750000000182099E-01     1.0000000000000000E+00     0.0000000000000000E+00 
    3.7500000000156092E-01     1.0000000000000000E+00     0.0000000000000000E+00 
    3.1250000000130068E-01     1.0000000000000000E+00     0.0000000000000000E+00 
    2.5000000000104050E-01     1.0000000000000000E+00     0.0000000000000000E+00 
    1.8750000000078040E-01     1.0000000000000000E+00     0.0000000000000000E+00 
    1.2500000000052031E-01     1.0000000000000000E+00     0.0000000000000000E+00 
    6.2500000000260125E-02     1.0000000000000000E+00     0.0000000000000000E+00 
    0.0000000000000000E+00     9.3749999999973976E-01     0.0000000000000000E+00 
    0.0000000000000000E+00     8.7499999999950118E-01     0.0000000000000000E+00 
    0.0000000000000000E+00     8.1249999999991318E-01     0.0000000000000000E+00 
    0.0000000000000000E+00     7.5000000000034706E-01     0.0000000000000000E+00 
    0.0000000000000000E+00     6.8750000000078049E-01     0.0000000000000000E+00 
    0.0000000000000000E+00     6.2500000000121403E-01     0.0000000000000000E+00 
    0.0000000000000000E+00     5.6250000000164757E-01     0.0000000000000000E+00 
    0.0000000000000000E+00     5.0000000000205946E-01     0.0000000000000000E+00 
    0.0000000000000000E+00     4.3750000000182099E-01     0.0000000000000000E+00 
    0.0000000000000000E+00     3.7500000000156092E-01     0.0000000000000000E+00 
    0.0000000000000000E+00     3.1250000000130068E-01     0.0000000000000000E+00 
    0.0000000000000000E+00     2.5000000000104050E-01     0.0000000000000000E+00 
    0.0000000000000000E+00     1.8750000000078040E-01     0.0000000000000000E+00 
    0.0000000000000000E+00     1.2500000000052031E-01     0.0000000000000000E+00 
    0.0000000000000000E+00     6.2500000000260125E-02     0.0000000000000000E+00 
    6.2499999999897131E-02     6.2500000000235922E-02     0.0000000000000000E+00 
    6.2499999999921327E-02     1.2500000000047351E-01     0.0000000000000000E+00 
    6.2499999999945530E-02     1.8750000000070621E-01     0.0000000000000000E+00 
    6.2499999999969733E-02     2.5000000000093858E-01     0.0000000000000000E+00 
    6.2499999999993928E-02     3.1250000000117117E-01     0.0000000000000000E+00 
    6.2500000000018124E-02     3.7500000000140382E-01     0.0000000000000000E+00 
    6.2500000000042327E-02     4.3750000000163619E-01     0.0000000000000000E+00 
    6.2500000000066530E-02     5.0000000000184897E-01     0.0000000000000000E+00 
    6.2500000000090733E-02     5.6250000000147260E-01     0.0000000000000000E+00 
    6.2500000000114922E-02     6.2500000000107636E-01     0.0000000000000000E+00 
    6.2500000000139125E-02     6.8750000000068034E-01     0.0000000000000000E+00 
    6.2500000000163328E-02     7.5000000000028411E-01     0.0000000000000000E+00 
    6.2500000000187531E-02     8.1249999999988787E-01     0.0000000000000000E+00 
    6.2500000000211720E-02     8.7499999999951172E-01     0.0000000000000000E+00 
    6.2500000000235922E-02     9.3749999999974565E-01     0.0000000000000000E+00 
    1.2499999999981980E-01     6.2500000000211733E-02     0.0000000000000000E+00 
    1.2499999999986650E-01     1.2500000000042691E-01     0.0000000000000000E+00 
    1.2499999999991319E-01     1.8750000000063199E-01     0.0000000000000000E+00 
    1.2499999999995989E-01     2.5000000000083678E-01     0.0000000000000000E+00 
    1.2500000000000661E-01     3.1250000000104172E-01     0.0000000000000000E+00 
    1.2500000000005329E-01     3.7500000000124661E-01     0.0000000000000000E+00 
    1.2500000000010000E-01     4.3750000000145117E-01     0.0000000000000000E+00 
    1.2500000000014669E-01     5.0000000000163858E-01     0.0000000000000000E+00 
    1.2500000000019340E-01     5.6250000000129741E-01     0.0000000000000000E+00 
    1.2500000000024011E-01     6.2500000000093847E-01     0.0000000000000000E+00 
    1.2500000000028680E-01     6.8750000000057998E-01     0.0000000000000000E+00 
    1.2500000000033351E-01     7.5000000000022127E-01     0.0000000000000000E+00 
    1.2500000000038020E-01     8.1249999999986211E-01     0.0000000000000000E+00 
    1.2500000000042691E-01     8.7499999999952238E-01     0.0000000000000000E+00 
    1.2500000000047359E-01     9.3749999999975164E-01     0.0000000000000000E+00 
    1.8749999999966760E-01     6.2500000000187531E-02     0.0000000000000000E+00 
    1.8749999999974179E-01     1.2500000000038020E-01     0.0000000000000000E+00 
    1.8749999999981601E-01     1.8750000000055780E-01     0.0000000000000000E+00 
    1.8749999999989009E-01     2.5000000000073502E-01     0.0000000000000000E+00 
    1.8749999999996431E-01     3.1250000000091221E-01     0.0000000000000000E+00 
    1.8750000000003850E-01     3.7500000000108941E-01     0.0000000000000000E+00 
    1.8750000000011269E-01     4.3750000000126649E-01     0.0000000000000000E+00 
    1.8750000000018691E-01     5.0000000000142808E-01     0.0000000000000000E+00 
    1.8750000000026110E-01     5.6250000000112244E-01     0.0000000000000000E+00 
    1.8750000000033529E-01     6.2500000000080080E-01     0.0000000000000000E+00 
    1.8750000000040951E-01     6.8750000000047962E-01     0.0000000000000000E+00 
    1.8750000000048361E-01     7.5000000000015843E-01     0.0000000000000000E+00 
    1.8750000000055780E-01     8.1249999999983680E-01     0.0000000000000000E+00 
    1.8750000000063199E-01     8.7499999999953304E-01     0.0000000000000000E+00 
    1.8750000000070621E-01     9.3749999999975764E-01     0.0000000000000000E+00 
    2.4999999999951281E-01     6.2500000000163314E-02     0.0000000000000000E+00 
    2.4999999999961461E-01     1.2500000000033351E-01     0.0000000000000000E+00 
    2.4999999999971650E-01     1.8750000000048361E-01     0.0000000000000000E+00 
    2.4999999999981831E-01     2.5000000000063310E-01     0.0000000000000000E+00 
    2.4999999999992020E-01     3.1250000000078260E-01     0.0000000000000000E+00 
    2.5000000000002198E-01     3.7500000000093209E-01     0.0000000000000000E+00 
    2.5000000000012390E-01     4.3750000000108180E-01     0.0000000000000000E+00 
    2.5000000000022571E-01     5.0000000000121769E-01     0.0000000000000000E+00 
    2.5000000000032763E-01     5.6250000000094724E-01     0.0000000000000000E+00 
    2.5000000000042938E-01     6.2500000000066314E-01     0.0000000000000000E+00 
    2.5000000000053119E-01     6.8750000000037925E-01     0.0000000000000000E+00 
[...]
CELL_DATA 256 
SCALARS Pressure double 1 
LOOKUP_TABLE default 

    1.4922840566184166E+00 
    1.2572626219673200E+00 
    1.1224666840353315E+00 
    1.0136054324172725E+00 
    9.1330418283872183E-01 
    8.1599358617831608E-01 
    7.1954213074645479E-01 
    6.2295467716741049E-01 
    5.2580931195636826E-01 
    4.4541322840707587E-01 
    3.9313209180354086E-01 
    3.5085524801511253E-01 
    3.1252856041688359E-01 
    2.8216427020962587E-01 
    2.6278905942302022E-01 
    2.5498056062344066E-01 
    1.4202547027618213E+00 
    1.2611594908582666E+00 
    1.1311806408736884E+00 
    1.0225762550629725E+00 
    9.2228204273836956E-01 
    8.2499400337636186E-01 
    7.2856842439853953E-01 
    6.3195293104878303E-01 
    5.3430756379647693E-01 
    4.5196673373489804E-01 
    3.9786991621255879E-01 
    3.5461970505918322E-01 
    3.1531667389951673E-01 
    2.8372888163711013E-01 
    2.6314519445043583E-01 
    2.5462942831332447E-01 
    1.3639142466148713E+00 
    1.2540207826358389E+00 
    1.1360199791969448E+00 
    1.0298811150597942E+00 
    9.3029148733440659E-01 
    8.3328395744292205E-01 
    7.3697632029293692E-01 
    6.4034119476714002E-01 
    5.4232738265016411E-01 
    4.5855695034708660E-01 
    4.0276358309771743E-01 
    3.5823518722852532E-01 
    3.1758742538959017E-01 
    2.8446097415785382E-01 
    2.6249009237846321E-01 
    2.5336616446011456E-01 
    1.3192274511467705E+00 
    1.2414349740511517E+00 
    1.1372984733080913E+00 
    1.0354301261710228E+00 
    9.3728030200842205E-01 
    8.4084558104004459E-01 
    7.4477165151726121E-01 
    6.4814674087995094E-01 
    5.4979198330835766E-01 
    4.6521059344247723E-01 
    4.0787255746183915E-01 
    3.6177919760459021E-01 
    3.1943035352290700E-01 
    2.8440222474077520E-01 
    2.6076457392499186E-01 
    2.5101719132468658E-01 
    1.2833236180038226E+00 
    1.2266365997976789E+00 
    1.1357898904811159E+00 
    1.0393040182515580E+00 
    9.4324501657915449E-01 
    8.4767712693090780E-01 
    7.5196407767516837E-01 
    6.5539643800233516E-01 
    5.5668956459751673E-01 
    4.7196337296390944E-01 
    4.1325271633879695E-01 
    3.6532978624356288E-01 
    3.2093892696974369E-01 
    2.8360124189547270E-01 
    2.5790530658983157E-01 
    2.4740087340035097E-01 
    1.2541969110076130E+00 
    1.2114809689440378E+00 
    1.1323437247445944E+00 
    1.0417132634247144E+00 
    9.4823495934418922E-01 
    8.5379645417611905E-01 
    7.5856872646203588E-01 
    6.6211730866941398E-01 
    5.6306306188312827E-01 
    4.7886231224226561E-01 
    4.1895841364128306E-01 
    3.6896476494192471E-01 
    3.2221551418486699E-01 
    2.8212117298446227E-01 
    2.5384795636329555E-01 
    2.4231479316334878E-01 
    1.2304276713544426E+00 
    1.1970109716640107E+00 
    1.1277270178300860E+00 
    1.0429438539022609E+00 
    9.5234704852263052E-01 
    8.5924234260111909E-01 
    7.6460673248344757E-01 
    6.6833009468033000E-01 
    5.6902842694062161E-01 
    4.8596244692715829E-01 
    4.2503125207442116E-01 
    3.7275991933224017E-01 
    3.2337570697946688E-01 
    2.8004944674913068E-01 
    2.4853298392696341E-01 
    2.3552141560725362E-01 
    1.2109959380060689E+00 
    1.1837936062495915E+00 
    1.1225745155521429E+00 
    1.0433124724609024E+00 
    9.5571559653900606E-01 
    8.6407370594714927E-01 
    7.7010591365697523E-01 
    6.7403516494367555E-01 
    5.7479680326071081E-01 
    4.9332280507181031E-01 
    4.3148529499085719E-01 
    3.7678674442165178E-01 
    3.2455175516337709E-01 
    2.7751014116355321E-01 
    2.4191618952986607E-01 
    2.2673041155258841E-01 
    1.1951563272338415E+00 
    1.1721197872928386E+00 
    1.1173877072617724E+00 
    1.0431360319116996E+00 
    9.5850097731634754E-01 
    8.6836704033701195E-01 
    7.7510295921531303E-01 
    6.7919718698474330E-01 
    5.8068812436408535E-01 
    5.0100502710806616E-01 
    4.3829032383956784E-01 
    3.8110924607161539E-01 
    3.2589444017404950E-01 
    2.7467928653582413E-01 
    2.3398737323208138E-01 
    2.1557534609537674E-01 
    1.1823527142506234E+00 
    1.1621225255737759E+00 
    1.1125530316746381E+00 
    1.0427139340663454E+00 
    9.6087962583530329E-01 
    8.7221222196570358E-01 
    7.7964617712695972E-01 
    6.8376851559393814E-01 
    5.8707463239777191E-01 
    5.0908349082881355E-01 
    4.4537060765105463E-01 
    3.8577991413149643E-01 
    3.2757218518296677E-01 
    2.7180280639394488E-01 
    2.2480264916340675E-01 
    2.0158145986775383E-01 
    1.1721582815132130E+00 
    1.1538459381838728E+00 
    1.1083648785956834E+00 
    1.0423194247370260E+00 
    9.6303664325769689E-01 
    8.7570682272708922E-01 
    7.8378538646873186E-01 
    6.8786076692919007E-01 
    5.9424848401102981E-01 
    5.1762771451376843E-01 
    4.5263708793907759E-01 
    3.9083632544270941E-01 
    3.2976564585744389E-01 
    2.6921535227661841E-01 
    2.1453961530715740E-01 
    1.8411967171828772E-01 
    1.1642305847193339E+00 
    1.1472835698673287E+00 
    1.1050463885723094E+00 
    1.0421959681532518E+00 
    9.6516117939011747E-01 
    8.7895116976401289E-01 
    7.8751120520115814E-01 
    6.9209012143193682E-01 
    6.0228256840388616E-01 
    5.2658516569333402E-01 
    4.6002217304450377E-01 
    3.9629816484009367E-01 
    3.3265536091518971E-01 
    2.6735519742814712E-01 
    2.0359072629542621E-01 
    1.6233936725070200E-01 
    1.1582719940134365E+00 
    1.1423941124141055E+00 
    1.1027629274114694E+00 
    1.0425534051117424E+00 
    9.6744206322439108E-01 
    8.8204467652342933E-01 
    7.9073819186990557E-01 
    6.9753690321773998E-01 
    6.1106945854628347E-01 
    5.3564699006075955E-01 
    4.6747448803553104E-01 
    4.0216205327395721E-01 
    3.3639965951092760E-01 
    2.6676412847212938E-01 
    1.9272052640246787E-01 
    1.3506844136246968E-01 
    1.1539762846931350E+00 
    1.1390853434514996E+00 
    1.1016143625317700E+00 
    1.0435493782623604E+00 
    9.7005465709150229E-01 
    8.8495440762168620E-01 
    7.9470785206968375E-01 
    7.0485230086320971E-01 
    6.2033003266563946E-01 
    5.4445137820288647E-01 
    4.7493020116281098E-01 
    4.0839403883231162E-01 
    3.4110136454659779E-01 
    2.6804921717302144E-01 
    1.8332971884976340E-01 
    1.0066250613090509E-01 
    1.1510455318295307E+00 
    1.1372053077722248E+00 
    1.1016018033850519E+00 
    1.0452038827703853E+00 
    9.7311040617568212E-01 
    8.8938127494829955E-01 
    8.0106915112242760E-01 
    7.1340226090091119E-01 
    6.2950115927403183E-01 
    5.5284302076216374E-01 
    4.8230906648709237E-01 
    4.1492502025578881E-01 
    3.4676734457081476E-01 
    2.7176054185892262E-01 
    1.7789819366108506E-01 
    5.6774636258277542E-02 
    1.1503887077294621E+00 
    1.1377372844560043E+00 
    1.1039344678372924E+00 
    1.0492001668527398E+00 
    9.7857663354136759E-01 
    8.9644242403963004E-01 
    8.0919812583255790E-01 
    7.2218852534822764E-01 
    6.3816093189068324E-01 
    5.6078398060437440E-01 
    4.8952655776715615E-01 
    4.2165430603099141E-01 
    3.5327889302417187E-01 
    2.7809636984315511E-01 
    1.8072827233293975E-01 
    0.0000000000000000E+00 

SCALARS Saturarion double 1 
LOOKUP_TABLE default 

    1.0000000000000000E+00 
    9.7467174274690971E-01 
    9.4226072575088005E-01 
    9.0684785534991275E-01 
    8.7052460137687282E-01 
    8.3307432267120585E-01 
    7.9259143118999464E-01 
    7.4278033143410516E-01 
    6.5601129693440974E-01 
    3.5933540293892396E-01 
    1.6879121278004970E-02 
    1.6335927078508484E-06 
    3.2752976712668162E-17 
    9.4954194792391238E-46 
   1.7400567697251388E-122 
    0.0000000000000000E+00 
    9.9169974535233973E-01 
    9.7087913922132618E-01 
    9.4092622807420712E-01 
    9.0673401973309375E-01 
    8.7103563559379305E-01 
    8.3402499590933110E-01 
    7.9407496534569533E-01 
    7.4553334908746693E-01 
    6.6445737816381512E-01 
    3.9370698628106993E-01 
    2.4662138342013237E-02 
    4.4393671221094631E-06 
    4.1696106769947751E-16 
    5.6311992785808272E-43 
   1.6311132029649724E-115 
   1.3487725270770967E-311 
    9.8491469342610438E-01 
    9.6541166562333269E-01 
    9.3751733380009694E-01 
    9.0491258874809100E-01 
    8.7021929168531542E-01 
    8.3391480812990759E-01 
    7.9460896100495049E-01 
    7.4700305582209636E-01 
    6.6848201428543619E-01 
    4.0778526688481231E-01 
    2.8705608045899524E-02 
    6.5652030989603552E-06 
    1.0423501060534841E-15 
    4.2069131014573170E-42 
   9.2778762697030780E-114 
   1.1635222130856679E-308 
    9.7705216338026257E-01 
    9.5868208207456307E-01 
    9.3250677139369631E-01 
    9.0154885735512569E-01 
    8.6808209729639985E-01 
    8.3267853982766493E-01 
    7.9410650043261122E-01 
    7.4723780299383935E-01 
    6.6982789178773094E-01 
    4.1192848573820262E-01 
    2.9917146766153226E-02 
    7.0842790742943729E-06 
    1.0541084280165609E-15 
    2.3005958980194314E-42 
   2.2832292291245153E-115 
   1.4794459800076956E-315 
    9.6782619184085728E-01 
    9.5069760670115777E-01 
    9.2611718520428088E-01 
    8.9679853389245789E-01 
    8.6468767087460752E-01 
    8.3032815659128478E-01 
    7.9256069754369740E-01 
    7.4626310531175888E-01 
    6.6862492275499819E-01 
    4.0460703569407758E-01 
    2.7487938727437902E-02 
    5.3224505037862880E-06 
    3.7714683446533961E-16 
    6.1672823046386061E-44 
   7.1633332950279249E-121 
    0.0000000000000000E+00 
    9.5706393063461148E-01 
    9.4139225631020740E-01 
    9.1841649278328130E-01 
    8.9074597737618533E-01 
    8.6007958548572816E-01 
    8.2687324137525231E-01 
    7.8995990697727669E-01 
    7.4403555398893340E-01 
    6.6447964339863297E-01 
    3.8419038790710625E-01 
    2.1792727229018934E-02 
    2.5948815833342876E-06 
    3.8647650234585257E-17 
    3.9362445706787347E-47 
   3.0772283464592072E-131 
    0.0000000000000000E+00 
    9.4461294341046231E-01 
    9.3066056337275271E-01 
    9.0938389186537238E-01 
    8.8340854775564548E-01 
    8.5426632696830085E-01 
    8.2230358293656758E-01 
    7.8627024792303846E-01 
    7.4044786285875652E-01 
    6.5655206438302605E-01 
    3.4877781971167598E-01 
    1.4415320410947554E-02 
    7.3407889069256851E-07 
    7.7812828932529574E-19 
    1.5549560255028351E-52 
   1.3902831353275631E-148 
    0.0000000000000000E+00 
    9.3029702489947064E-01 
    9.1835067096225276E-01 
    8.9892723871355651E-01 
    8.7473769009132907E-01 
    8.4721062148077853E-01 
    8.1657659147361406E-01 
    7.8142074750018886E-01 
    7.3529480791922752E-01 
    6.4313655110324675E-01 
    2.9710759112288920E-01 
    7.4731464198633038E-03 
    9.7902552843447976E-08 
    1.5005408238692540E-21 
    3.2722256926327000E-61 
   9.5290837337932198E-177 
    0.0000000000000000E+00 
    9.1386647443585678E-01 
    9.0423597799397804E-01 
    8.8687073370345859E-01 
    8.6460543419974456E-01 
    8.3881143239533640E-01 
    8.0959821183954805E-01 
    7.7527508476804285E-01 
    7.2816265347188502E-01 
    6.2005139349306559E-01 
    2.2601196024982484E-01 
    2.5801869096703099E-03 
    3.7607306652341025E-09 
    5.0398939570868238E-26 
    1.3776807740298561E-75 
   1.3590159643402639E-224 
    0.0000000000000000E+00 
    8.9491559788338859E-01 
    8.8795416079546452E-01 
    8.7290871307780005E-01 
    8.5276420783023599E-01 
    8.2886585643503619E-01 
    8.0118597495450350E-01 
    7.6757377796407322E-01 
    7.1818560593672509E-01 
    5.7907493795402076E-01 
    1.4309912638438313E-01 
    4.9129834481347902E-04 
    1.8793914463495846E-11 
    1.8301451989975620E-33 
   5.6723580571022315E-101 
   3.6086934237530952E-311 
    0.0000000000000000E+00 
    8.7270671446177517E-01 
    8.6886814094417253E-01 
    8.5648927817746201E-01 
    8.3874569934373722E-01 
    8.1698046723565565E-01 
    7.9099014556591407E-01 
    7.5780320805997115E-01 
    7.0321597548426151E-01 
    4.9996331311839254E-01 
    6.1429352575311805E-02 
    2.7860582984017548E-05 
    1.4076728709776222E-15 
    1.0110598169983625E-47 
   7.8568962500142547E-152 
    0.0000000000000000E+00 
    0.0000000000000000E+00 
    8.4569318342465527E-01 
    8.4568776784481703E-01 
    8.3649268197396154E-01 
    8.2158173271676804E-01 
    8.0233127629165835E-01 
    7.7826959388684069E-01 
    7.4479977384106488E-01 
    6.7689273552109275E-01 
    3.5636935703514494E-01 
    1.2004435617261021E-02 
    9.1910146380582247E-08 
    2.6125494715537558E-24 
    1.1685644699048794E-80 
   3.6298675426448430E-286 
    0.0000000000000000E+00 
    0.0000000000000000E+00 
    8.0986059276001554E-01 
    8.1516434467889010E-01 
    8.1012869446707725E-01 
    7.9885796769776618E-01 
    7.8284357468548627E-01 
    7.6100925831135513E-01 
    7.2538755285737910E-01 
    6.1601532297262984E-01 
    1.5002570279104191E-01 
    2.5066596870342408E-04 
    2.4706550637976552E-14 
    6.2581925663668816E-52 
   7.3864848177758652E-210 
    0.0000000000000000E+00 
    0.0000000000000000E+00 
    0.0000000000000000E+00 
    7.4991939681464359E-01 
    7.6526616056316643E-01 
    7.6734831140057480E-01 
    7.6200743097876378E-01 
    7.5090553369989810E-01 
    7.3136605232862983E-01 
    6.8071640518405441E-01 
    3.2131379966531348E-01 
    3.0171927270682963E-03 
    7.5752630999679132E-12 
    1.8362455656986742E-49 
   4.7589513981857113E-211 
    0.0000000000000000E+00 
    0.0000000000000000E+00 
    0.0000000000000000E+00 
    0.0000000000000000E+00 
    5.6947424679896641E-01 
    6.3173912885272077E-01 
    6.5723861174927700E-01 
    6.6510260332467330E-01 
    6.5612116939027121E-01 
    5.9668980190756971E-01 
    2.0319908861835634E-01 
    4.0832997962100045E-04 
    1.2013038176361107E-14 
    1.3326593921160268E-58 
   1.3287291641448126E-244 
    0.0000000000000000E+00 
    0.0000000000000000E+00 
    0.0000000000000000E+00 
    0.0000000000000000E+00 
    0.0000000000000000E+00 
    8.8410491548569795E-02 
    2.2384976650992827E-01 
    2.5390361973348763E-01 
    2.2148306642812252E-01 
    1.2881625953930592E-01 
    2.4604615971791081E-02 
    3.1128287066793023E-05 
    2.5574257020522625E-17 
    2.0331259873020020E-66 
   1.3069104071577112E-265 
    0.0000000000000000E+00 
    0.0000000000000000E+00 
    0.0000000000000000E+00 
    0.0000000000000000E+00 
    0.0000000000000000E+00 
    0.0000000000000000E+00 
