# vtk DataFile Version 2.0
Pressure Field Data 
ASCII 
DATASET UNSTRUCTURED_GRID 

POINTS 289 double 

    0.0000000000000000E+00     0.0000000000000000E+00     0.0000000000000000E+00 
    1.0000000000000000E+00     0.0000000000000000E+00     0.0000000000000000E+00 
    1.0000000000000000E+00     1.0000000000000000E+00     0.0000000000000000E+00 
    0.0000000000000000E+00     1.0000000000000000E+00     0.0000000000000000E+00 
    6.2499999999872928E-02     0.0000000000000000E+00     0.0000000000000000E+00 
    1.2499999999977310E-01     0.0000000000000000E+00     0.0000000000000000E+00 
    1.8749999999959341E-01     0.0000000000000000E+00     0.0000000000000000E+00 
    2.4999999999941089E-01     0.0000000000000000E+00     0.0000000000000000E+00 
    3.1249999999922851E-01     0.0000000000000000E+00     0.0000000000000000E+00 
    3.7499999999904610E-01     0.0000000000000000E+00     0.0000000000000000E+00 
    4.3749999999886358E-01     0.0000000000000000E+00     0.0000000000000000E+00 
    4.9999999999869210E-01     0.0000000000000000E+00     0.0000000000000000E+00 
    5.6249999999884603E-01     0.0000000000000000E+00     0.0000000000000000E+00 
    6.2499999999901090E-01     0.0000000000000000E+00     0.0000000000000000E+00 
    6.8749999999917577E-01     0.0000000000000000E+00     0.0000000000000000E+00 
    7.4999999999934064E-01     0.0000000000000000E+00     0.0000000000000000E+00 
    8.1249999999950551E-01     0.0000000000000000E+00     0.0000000000000000E+00 
    8.7499999999967026E-01     0.0000000000000000E+00     0.0000000000000000E+00 
    9.3749999999983513E-01     0.0000000000000000E+00     0.0000000000000000E+00 
    1.0000000000000000E+00     6.2499999999872928E-02     0.0000000000000000E+00 
    1.0000000000000000E+00     1.2499999999977310E-01     0.0000000000000000E+00 
    1.0000000000000000E+00     1.8749999999959341E-01     0.0000000000000000E+00 
    1.0000000000000000E+00     2.4999999999941089E-01     0.0000000000000000E+00 
    1.0000000000000000E+00     3.1249999999922851E-01     0.0000000000000000E+00 
    1.0000000000000000E+00     3.7499999999904610E-01     0.0000000000000000E+00 
    1.0000000000000000E+00     4.3749999999886358E-01     0.0000000000000000E+00 
    1.0000000000000000E+00     4.9999999999869210E-01     0.0000000000000000E+00 
    1.0000000000000000E+00     5.6249999999884603E-01     0.0000000000000000E+00 
    1.0000000000000000E+00     6.2499999999901090E-01     0.0000000000000000E+00 
    1.0000000000000000E+00     6.8749999999917577E-01     0.0000000000000000E+00 
    1.0000000000000000E+00     7.4999999999934064E-01     0.0000000000000000E+00 
    1.0000000000000000E+00     8.1249999999950551E-01     0.0000000000000000E+00 
    1.0000000000000000E+00     8.7499999999967026E-01     0.0000000000000000E+00 
    1.0000000000000000E+00     9.3749999999983513E-01     0.0000000000000000E+00 
    9.3749999999973976E-01     1.0000000000000000E+00     0.0000000000000000E+00 
    8.7499999999950118E-01     1.0000000000000000E+00     0.0000000000000000E+00 
    8.1249999999991318E-01     1.0000000000000000E+00     0.0000000000000000E+00 
    7.5000000000034706E-01     1.0000000000000000E+00     0.0000000000000000E+00 
    6.8750000000078049E-01     1.0000000000000000E+00     0.0000000000000000E+00 
    6.2500000000121403E-01     1.0000000000000000E+00     0.0000000000000000E+00 
    5.6250000000164757E-01     1.0000000000000000E+00     0.0000000000000000E+00 
    5.0000000000205946E-01     1.0000000000000000E+00     0.0000000000000000E+00 
    4.3750000000182099E-01     1.0000000000000000E+00     0.0000000000000000E+00 
    3.7500000000156092E-01     1.0000000000000000E+00     0.0000000000000000E+00 
    3.1250000000130068E-01     1.0000000000000000E+00     0.0000000000000000E+00 
    2.5000000000104050E-01     1.0000000000000000E+00     0.0000000000000000E+00 
    1.8750000000078040E-01     1.0000000000000000E+00     0.0000000000000000E+00 
    1.2500000000052031E-01     1.0000000000000000E+00     0.0000000000000000E+00 
    6.2500000000260125E-02     1.0000000000000000E+00     0.0000000000000000E+00 
    0.0000000000000000E+00     9.3749999999973976E-01     0.0000000000000000E+00 
    0.0000000000000000E+00     8.7499999999950118E-01     0.0000000000000000E+00 
    0.0000000000000000E+00     8.1249999999991318E-01     0.0000000000000000E+00 
    0.0000000000000000E+00     7.5000000000034706E-01     0.0000000000000000E+00 
    0.0000000000000000E+00     6.8750000000078049E-01     0.0000000000000000E+00 
    0.0000000000000000E+00     6.2500000000121403E-01     0.0000000000000000E+00 
    0.0000000000000000E+00     5.6250000000164757E-01     0.0000000000000000E+00 
    0.0000000000000000E+00     5.0000000000205946E-01     0.0000000000000000E+00 
    0.0000000000000000E+00     4.3750000000182099E-01     0.0000000000000000E+00 
    0.0000000000000000E+00     3.7500000000156092E-01     0.0000000000000000E+00 
    0.0000000000000000E+00     3.1250000000130068E-01     0.0000000000000000E+00 
    0.0000000000000000E+00     2.5000000000104050E-01     0.0000000000000000E+00 
    0.0000000000000000E+00     1.8750000000078040E-01     0.0000000000000000E+00 
    0.0000000000000000E+00     1.2500000000052031E-01     0.0000000000000000E+00 
    0.0000000000000000E+00     6.2500000000260125E-02     0.0000000000000000E+00 
    6.2499999999897131E-02     6.2500000000235922E-02     0.0000000000000000E+00 
    6.2499999999921327E-02     1.2500000000047351E-01     0.0000000000000000E+00 
    6.2499999999945530E-02     1.8750000000070621E-01     0.0000000000000000E+00 
    6.2499999999969733E-02     2.5000000000093858E-01     0.0000000000000000E+00 
    6.2499999999993928E-02     3.1250000000117117E-01     0.0000000000000000E+00 
    6.2500000000018124E-02     3.7500000000140382E-01     0.0000000000000000E+00 
    6.2500000000042327E-02     4.3750000000163619E-01     0.0000000000000000E+00 
    6.2500000000066530E-02     5.0000000000184897E-01     0.0000000000000000E+00 
    6.2500000000090733E-02     5.6250000000147260E-01     0.0000000000000000E+00 
    6.2500000000114922E-02     6.2500000000107636E-01     0.0000000000000000E+00 
    6.2500000000139125E-02     6.8750000000068034E-01     0.0000000000000000E+00 
    6.2500000000163328E-02     7.5000000000028411E-01     0.0000000000000000E+00 
    6.2500000000187531E-02     8.1249999999988787E-01     0.0000000000000000E+00 
    6.2500000000211720E-02     8.7499999999951172E-01     0.0000000000000000E+00 
    6.2500000000235922E-02     9.3749999999974565E-01     0.0000000000000000E+00 
    1.2499999999981980E-01     6.2500000000211733E-02     0.0000000000000000E+00 
    1.2499999999986650E-01     1.2500000000042691E-01     0.0000000000000000E+00 
    1.2499999999991319E-01     1.8750000000063199E-01     0.0000000000000000E+00 
    1.2499999999995989E-01     2.5000000000083678E-01     0.0000000000000000E+00 
    1.2500000000000661E-01     3.1250000000104172E-01     0.0000000000000000E+00 
    1.2500000000005329E-01     3.7500000000124661E-01     0.0000000000000000E+00 
    1.2500000000010000E-01     4.3750000000145117E-01     0.0000000000000000E+00 
    1.2500000000014669E-01     5.0000000000163858E-01     0.0000000000000000E+00 
    1.2500000000019340E-01     5.6250000000129741E-01     0.0000000000000000E+00 
    1.2500000000024011E-01     6.2500000000093847E-01     0.0000000000000000E+00 
    1.2500000000028680E-01     6.8750000000057998E-01     0.0000000000000000E+00 
    1.2500000000033351E-01     7.5000000000022127E-01     0.0000000000000000E+00 
    1.2500000000038020E-01     8.1249999999986211E-01     0.0000000000000000E+00 
    1.2500000000042691E-01     8.7499999999952238E-01     0.0000000000000000E+00 
    1.2500000000047359E-01     9.3749999999975164E-01     0.0000000000000000E+00 
    1.8749999999966760E-01     6.2500000000187531E-02     0.0000000000000000E+00 
    1.8749999999974179E-01     1.2500000000038020E-01     0.0000000000000000E+00 
    1.8749999999981601E-01     1.8750000000055780E-01     0.0000000000000000E+00 
    1.8749999999989009E-01     2.5000000000073502E-01     0.0000000000000000E+00 
    1.8749999999996431E-01     3.1250000000091221E-01     0.0000000000000000E+00 
    1.8750000000003850E-01     3.7500000000108941E-01     0.0000000000000000E+00 
    1.8750000000011269E-01     4.3750000000126649E-01     0.0000000000000000E+00 
    1.8750000000018691E-01     5.0000000000142808E-01     0.0000000000000000E+00 
    1.8750000000026110E-01     5.6250000000112244E-01     0.0000000000000000E+00 
    1.8750000000033529E-01     6.2500000000080080E-01     0.0000000000000000E+00 
    1.8750000000040951E-01     6.8750000000047962E-01     0.0000000000000000E+00 
    1.8750000000048361E-01     7.5000000000015843E-01     0.0000000000000000E+00 
    1.8750000000055780E-01     8.1249999999983680E-01     0.0000000000000000E+00 
    1.8750000000063199E-01     8.7499999999953304E-01     0.0000000000000000E+00 
    1.8750000000070621E-01     9.3749999999975764E-01     0.0000000000000000E+00 
    2.4999999999951281E-01     6.2500000000163314E-02     0.0000000000000000E+00 
    2.4999999999961461E-01     1.2500000000033351E-01     0.0000000000000000E+00 
    2.4999999999971650E-01     1.8750000000048361E-01     0.0000000000000000E+00 
    2.4999999999981831E-01     2.5000000000063310E-01     0.0000000000000000E+00 
    2.4999999999992020E-01     3.1250000000078260E-01     0.0000000000000000E+00 
    2.5000000000002198E-01     3.7500000000093209E-01     0.0000000000000000E+00 
    2.5000000000012390E-01     4.3750000000108180E-01     0.0000000000000000E+00 
    2.5000000000022571E-01     5.0000000000121769E-01     0.0000000000000000E+00 
    2.5000000000032763E-01     5.6250000000094724E-01     0.0000000000000000E+00 
    2.5000000000042938E-01     6.2500000000066314E-01     0.0000000000000000E+00 
    2.5000000000053119E-01     6.8750000000037925E-01     0.0000000000000000E+00 
[...]
CELL_DATA 256 
SCALARS Pressure double 1 
LOOKUP_TABLE default 

    1.9788078505499438E+00 
    1.7462780454593474E+00 
    1.6147322355735454E+00 
    1.5091878236938663E+00 
    1.4118659701067018E+00 
    1.3168682371957237E+00 
    1.2218957573262650E+00 
    1.1261235731402541E+00 
    1.0295508179210247E+00 
    9.3286587344196470E-01 
    8.3755449029007467E-01 
    7.4606873709466237E-01 
    6.6170806743276100E-01 
    5.8832506305467602E-01 
    5.4257929624484535E-01 
    5.2932276766729491E-01 
    1.9074325808565409E+00 
    1.7502871210424233E+00 
    1.6234343112430807E+00 
    1.5181522018029781E+00 
    1.4208997007251836E+00 
    1.3260181187161744E+00 
    1.2311755446801780E+00 
    1.1354964853415832E+00 
    1.0389182714427627E+00 
    9.4204393912322915E-01 
    8.4624664557975438E-01 
    7.5386601733825453E-01 
    6.6815549109224837E-01 
    5.9280340452834612E-01 
    5.4373828219939280E-01 
    5.2885731836682870E-01 
    1.8520408117258211E+00 
    1.7436435074563472E+00 
    1.6285782877359363E+00 
    1.5257527048450816E+00 
    1.4292767326653391E+00 
    1.3347869611312460E+00 
    1.2401881696194526E+00 
    1.1446353855796858E+00 
    1.0480261293323714E+00 
    9.5087199037579884E-01 
    8.5440880343666914E-01 
    7.6083288466204280E-01 
    6.7336680222042522E-01 
    5.9581197914181516E-01 
    5.4313707012107992E-01 
    5.2697430582683413E-01 
    1.8084805008360936E+00 
    1.7318437139474534E+00 
    1.6304549513431323E+00 
    1.5318876773891323E+00 
    1.4369363486699389E+00 
    1.3431506758515495E+00 
    1.2489315722332122E+00 
    1.1535560365573259E+00 
    1.0569109700316841E+00 
    9.5941501956207631E-01 
    8.6214180318434785E-01 
    7.6710132196573133E-01 
    6.7745981790061516E-01 
    5.9728528231318945E-01 
    5.4067614244022921E-01 
    5.2336507692949619E-01 
    1.7738374402401706E+00 
    1.7180597288090909E+00 
    1.6298041036189843E+00 
    1.5366192239849417E+00 
    1.4438632986404514E+00 
    1.3511008124175490E+00 
    1.2574105284530246E+00 
    1.1622776436413254E+00 
    1.0656114495949367E+00 
    9.6774050203189677E-01 
    8.6955215369694328E-01 
    7.7281522525668789E-01 
    6.8057150452999449E-01 
    5.9720402040353848E-01 
    5.3622385533936312E-01 
    5.1769578861914678E-01 
    1.7460693237545706E+00 
    1.7040947475878077E+00 
    1.6274370713157245E+00 
    1.5401336338637348E+00 
    1.4500916972643512E+00 
    1.3586477037228020E+00 
    1.2656377969227355E+00 
    1.1708229093855957E+00 
    1.0741676153158002E+00 
    9.7591723257295959E-01 
    8.7675142269738382E-01 
    7.7813360284630628E-01 
    6.8286919929389311E-01 
    5.9560011667585533E-01 
    5.2962336908121921E-01 
    5.0956606173586705E-01 
    1.7237225510216576E+00 
    1.6909450449614327E+00 
    1.6240807577680458E+00 
    1.5426883178501658E+00 
    1.4556997914518928E+00 
    1.3658215518837815E+00 
    1.2736348914926261E+00 
    1.1792180382691821E+00 
    1.0826201428271658E+00 
    9.8401378088717795E-01 
    8.8385457208807339E-01 
    7.8323192526285013E-01 
    6.8456081884287601E-01 
    5.9256817008297402E-01 
    5.2068770569289424E-01 
    4.9844995046669888E-01 
    1.7057447313035394E+00 
    1.6791341448816055E+00 
    1.6203286027519348E+00 
    1.5445677648341511E+00 
    1.4607997104956261E+00 
    1.3726714518146077E+00 
    1.2814323324305985E+00 
    1.1874926710064491E+00 
    1.0910095583312023E+00 
    9.9209664719778945E-01 
    8.9097714870796096E-01 
    7.8830114843135379E-01 
    6.8590400922645445E-01 
    5.8828455635201371E-01 
    5.0920009453254389E-01 
    4.8361328776209112E-01 
    1.6913597775735212E+00 
    1.6689115497277416E+00 
    1.6166399201990849E+00 
    1.5460536030713865E+00 
    1.4655259544230079E+00 
    1.3792628874117308E+00 
    1.2890693612596900E+00 
    1.1956797425478098E+00 
    1.0993755115908059E+00 
    1.0002282396922533E+00 
    8.9823131094754705E-01 
    7.9354369455195295E-01 
    6.8721304268963401E-01 
    5.8303932198355424E-01 
    4.9493693273732220E-01 
    4.6400281789726211E-01 
    1.6799836053009025E+00 
    1.6603706697599239E+00 
    1.6133583272540251E+00 
    1.5474073157278656E+00 
    1.4700249936458596E+00 
    1.3856744162433845E+00 
    1.2965932256748687E+00 
    1.2038152969451663E+00 
    1.1077561946367391E+00 
    1.0084648768692450E+00 
    9.0572084537028119E-01 
    7.9916558343959476E-01 
    6.8886043090526228E-01 
    5.7728231928136797E-01 
    4.7774638361865940E-01 
    4.3812652200249119E-01 
    1.6711661807287213E+00 
    1.6535184555346643E+00 
    1.6107352637460248E+00 
    1.5488623418127321E+00 
    1.4744470842116009E+00 
    1.3919941875893702E+00 
    1.3040582107175862E+00 
    1.2119383306666225E+00 
    1.1161880334341272E+00 
    1.0168551123762712E+00 
    9.1353561012126927E-01 
    8.0536416301295799E-01 
    6.9126829469602025E-01 
    5.7167733785001085E-01 
    4.5772958183505924E-01 
    4.0399384374857955E-01 
    1.6645505322931162E+00 
    1.6483160233753544E+00 
    1.6089523600128324E+00 
    1.5506223042309120E+00 
    1.4789404983519598E+00 
    1.3983167316478511E+00 
    1.3115246013323481E+00 
    1.2200907685036302E+00 
    1.1247058177292184E+00 
    1.0254387799222406E+00 
    9.2174622772161363E-01 
    8.1231169189726238E-01 
    6.9488324190896267E-01 
    5.6714647163806264E-01 
    4.3553918125374336E-01 
    3.5916596544266782E-01 
    1.6598420720204998E+00 
    1.6447013339927010E+00 
    1.6081399170325319E+00 
    1.5528624679053380E+00 
    1.4836476483752163E+00 
    1.4047400975759847E+00 
    1.3190576624811683E+00 
    1.2283176935300315E+00 
    1.1333435157411200E+00 
    1.0342473086949235E+00 
    9.3040035080498673E-01 
    8.2013658753879992E-01 
    7.0012890157455032E-01 
    5.6487523686579411E-01 
    4.1276361955345847E-01 
    3.0075310955944873E-01 
    1.6567815105874428E+00 
    1.6425980526459572E+00 
    1.6083884964561934E+00 
    1.5557305202825620E+00 
    1.4887009927101618E+00 
    1.4113622554159360E+00 
    1.3267260870261159E+00 
    1.2366677786885949E+00 
    1.1421362435309859E+00 
    1.0433063734097485E+00 
    9.3952275886650372E-01 
    8.2890687146766140E-01 
    7.0733385616514732E-01 
    5.6623271116601159E-01 
    3.9246196279676449E-01 
    2.2511204238528029E-01 
    1.6551086741441585E+00 
    1.6419013787379231E+00 
    1.6097410518071864E+00 
    1.5593349877969787E+00 
    1.4942101867386208E+00 
    1.4182707794913108E+00 
    1.3345959581732560E+00 
    1.2451922194336571E+00 
    1.1511244527847579E+00 
    1.0526449142421179E+00 
    9.4912649235344460E-01 
    8.3862862120268822E-01 
    7.1664756400937568E-01 
    5.7252071058103793E-01 
    3.8007148896800502E-01 
    1.2725460650871026E-01 
    1.6546066370989214E+00 
    1.6425058032178819E+00 
    1.6122100375555393E+00 
    1.5637562657979831E+00 
    1.5002700154700026E+00 
    1.4255492300720938E+00 
    1.3427354909231926E+00 
    1.2539473836197306E+00 
    1.1603543826660205E+00 
    1.0622937414895925E+00 
    9.5921040560206838E-01 
    8.4923563155916915E-01 
    7.2792792719200194E-01 
    5.8426413287009915E-01 
    3.8488320102819129E-01 
    0.0000000000000000E+00 

SCALARS Saturarion double 1 
LOOKUP_TABLE default 

    1.0000000000000000E+00 
    9.8495773502069595E-01 
    9.6531260630974403E-01 
    9.4392636778562977E-01 
    9.2253564488104423E-01 
    9.0161690999722177E-01 
    8.8116433931293103E-01 
    8.6093950341833503E-01 
    8.4050535417141503E-01 
    8.1910490677774084E-01 
    7.9524924199450375E-01 
    7.6531506797952831E-01 
    7.1717580079425680E-01 
    5.9289604803982010E-01 
    2.1089638548762790E-01 
    2.7203497528430977E-03 
    9.9516201328295673E-01 
    9.8265409836741546E-01 
    9.6442532151668880E-01 
    9.4371362173140361E-01 
    9.2262983518968156E-01 
    9.0187983251566495E-01 
    8.8155123079132525E-01 
    8.6145176038577753E-01 
    8.4118073436876339E-01 
    8.2003030152850431E-01 
    7.9661164429582987E-01 
    7.6758986644634830E-01 
    7.2214653604556134E-01 
    6.1088205620211922E-01 
    2.6269464181842905E-01 
    6.2557127315641062E-03 
    9.9112849302107553E-01 
    9.7929021953462980E-01 
    9.6218949083373040E-01 
    9.4233072089765468E-01 
    9.2175933989733061E-01 
    9.0134616518531607E-01 
    8.8128000805630402E-01 
    8.6142349121383366E-01 
    8.4141723371268584E-01 
    8.2060497065142435E-01 
    7.9769677323611221E-01 
    7.6962443477948828E-01 
    7.2664992324825739E-01 
    6.2555157446315990E-01 
    3.0847436116215743E-01 
    1.1927262924626772E-02 
    9.8635847437294333E-01 
    9.7507778735061923E-01 
    9.5887722012285015E-01 
    9.3988038957640840E-01 
    9.1993818912684033E-01 
    8.9998722212977267E-01 
    8.8029796134638527E-01 
    8.6078732490491805E-01 
    8.4113925712517135E-01 
    8.2075111957096047E-01 
    7.9843174394356553E-01 
    7.7136390300699975E-01 
    7.3074832645800947E-01 
    6.3845784436821296E-01 
    3.5212621777211806E-01 
    2.0920376025990731E-02 
    9.8062969903180786E-01 
    9.6997719975926489E-01 
    9.5459230809419182E-01 
    9.3643878320337570E-01 
    9.1719509853939818E-01 
    8.9780293366439390E-01 
    8.7858799564894785E-01 
    8.5951484423518376E-01 
    8.4030988418887675E-01 
    8.2042521931536061E-01 
    7.9876969620587901E-01 
    7.7276924305129624E-01 
    7.3447604164098823E-01 
    6.5016747509193051E-01 
    3.9273686623810422E-01 
    3.4367843737496746E-02 
    9.7377094352302229E-01 
    9.6389420737518816E-01 
    9.4933159058758321E-01 
    9.3202182635843667E-01 
    9.1352849197946651E-01 
    8.9477536092348320E-01 
    8.7612177891800957E-01 
    8.5757089275897813E-01 
    8.3888837495811786E-01 
    8.1958079927211003E-01 
    7.9865882669386912E-01 
    7.7378997744444766E-01 
    7.3782254405424774E-01 
    6.6092437468403376E-01 
    4.2990271566328647E-01 
    5.3547649073229446E-02 
    9.6560829890778510E-01 
    9.5669865882358751E-01 
    9.4302549747654651E-01 
    9.2658984991465920E-01 
    9.0889906065575177E-01 
    8.9085909496096560E-01 
    8.7284955022196697E-01 
    8.5490324462306488E-01 
    8.3682024473218475E-01 
    8.1815955030838339E-01 
    7.9803485878696323E-01 
    7.7435807543857105E-01 
    7.4073988907587318E-01 
    6.7083637024271903E-01 
    4.6372293136703224E-01 
    7.9866680078470753E-02 
    9.5593893388650486E-01 
    9.4821835157299927E-01 
    9.3554667110323908E-01 
    9.2004680664549243E-01 
    9.0322164402059535E-01 
    8.8597150044581552E-01 
    8.6869047475263805E-01 
    8.5143358790954438E-01 
    8.3402925800389038E-01 
    8.1608473261911374E-01 
    7.9681605481946738E-01 
    7.7438446663717520E-01 
    7.4314661807755866E-01 
    6.7993169656955754E-01 
    4.9457221539133878E-01 
    1.1477283563242484E-01 
    9.4450110840105772E-01 
    9.3821961590365788E-01 
    9.2669914349906812E-01 
    9.1222806401482481E-01 
    8.9634948774252077E-01 
    8.7997609788504205E-01 
    8.6351672451852912E-01 
    8.4704297658140848E-01 
    8.3040462162182016E-01 
    8.1325037291389701E-01 
    7.9489453012486266E-01 
    7.7375209107409315E-01 
    7.4492440303655272E-01 
    6.8817466441677133E-01 
    5.2288658456846737E-01 
    1.5921248797233281E-01 
    9.3092679841190162E-01 
    9.2636941297067588E-01 
    9.1618668511778201E-01 
    9.0287010148961810E-01 
    8.8804291659038104E-01 
    8.7265133046953403E-01 
    8.5712377616263313E-01 
    8.4154467718485382E-01 
    8.2577710818414540E-01 
    8.0950112122366680E-01 
    7.9211984611801389E-01 
    7.7230205255691076E-01 
    7.4590553406106297E-01 
    6.9546231077563891E-01 
    5.4903242884687908E-01 
    2.1246774924497677E-01 
    9.1465295884951514E-01 
    9.1215971702031773E-01 
    9.0354394357675238E-01 
    8.9154448720530688E-01 
    8.7790396719710817E-01 
    8.6362642769451370E-01 
    8.4916929239510619E-01 
    8.3462796848202447E-01 
    8.1986930309545136E-01 
    8.0458993191476968E-01 
    7.8826435318983690E-01 
    7.6980472530459521E-01 
    7.4584493818973940E-01 
    7.0160265543350353E-01 
    5.7322719092304686E-01 
    2.7079957255721482E-01 
    8.9472369681309838E-01 
    8.9473663476550069E-01 
    8.8797713631898678E-01 
    8.7750325476473134E-01 
    8.6522325891646923E-01 
    8.5223030015984880E-01 
    8.3902744502359417E-01 
    8.2572268757671197E-01 
    8.1217491306377421E-01 
    7.9807519438431895E-01 
    7.8293911790651616E-01 
    7.6589152757966139E-01 
    7.4435668718846149E-01 
    7.0625764951186210E-01 
    5.9548553532675996E-01 
    3.2872996104927843E-01 
    8.6923391304479414E-01 
    8.7242446455726996E-01 
    8.6791846622894819E-01 
    8.5924134921970718E-01 
    8.4854051588643198E-01 
    8.3705002791949057E-01 
    8.2535449400275518E-01 
    8.1358834107126554E-01 
    8.0159036915160586E-01 
    7.8900959395026826E-01 
    7.7534574937095813E-01 
    7.5986251081696576E-01 
    7.4074738483029146E-01 
    7.0878876216341458E-01 
    6.1555469366615578E-01 
    3.8281238981838644E-01 
    8.3308082367561942E-01 
    8.4084001006706666E-01 
    8.3926553804956561E-01 
    8.3274889218556214E-01 
    8.2385616771079695E-01 
    8.1409288919604705E-01 
    8.0423490671471698E-01 
    7.9451683776654636E-01 
    7.8477062977741785E-01 
    7.7454364287481914E-01 
    7.6318975932469701E-01 
    7.4990875635655918E-01 
    7.3344038518818788E-01 
    7.0775095132648114E-01 
    6.3269062035861301E-01 
    4.3203076975144178E-01 
    7.6436826718674611E-01 
    7.8123835863039970E-01 
    7.8452736663746880E-01 
    7.8082920587393145E-01 
    7.7377159863464617E-01 
    7.6558773067481922E-01 
    7.5768357383153651E-01 
    7.5084736979069955E-01 
    7.4527478620361587E-01 
    7.4050620215227858E-01 
    7.3540041914127008E-01 
    7.2828581110251112E-01 
    7.1730454373796659E-01 
    6.9921396964896354E-01 
    6.4464133457044170E-01 
    4.7579964744507330E-01 
    4.9944310225133320E-01 
    5.7382276274253752E-01 
    5.9796024147363436E-01 
    6.0253060928610203E-01 
    5.9734825322968288E-01 
    5.8701719486473247E-01 
    5.7418183015620561E-01 
    5.6074321411393713E-01 
    5.4858005476369898E-01 
    5.3998968510103851E-01 
    5.3729007463459633E-01 
    5.4040609198209688E-01 
    5.4384005655575363E-01 
    5.4698984151079100E-01 
    5.7416424703177360E-01 
    4.9297933224681062E-01 
