# vtk DataFile Version 2.0
Pressure Field Data 
ASCII 
DATASET UNSTRUCTURED_GRID 

POINTS 289 double 

    0.0000000000000000E+00     0.0000000000000000E+00     0.0000000000000000E+00 
    1.0000000000000000E+00     0.0000000000000000E+00     0.0000000000000000E+00 
    1.0000000000000000E+00     1.0000000000000000E+00     0.0000000000000000E+00 
    0.0000000000000000E+00     1.0000000000000000E+00     0.0000000000000000E+00 
    6.2499999999872928E-02     0.0000000000000000E+00     0.0000000000000000E+00 
    1.2499999999977310E-01     0.0000000000000000E+00     0.0000000000000000E+00 
    1.8749999999959341E-01     0.0000000000000000E+00     0.0000000000000000E+00 
    2.4999999999941089E-01     0.0000000000000000E+00     0.0000000000000000E+00 
    3.1249999999922851E-01     0.0000000000000000E+00     0.0000000000000000E+00 
    3.7499999999904610E-01     0.0000000000000000E+00     0.0000000000000000E+00 
    4.3749999999886358E-01     0.0000000000000000E+00     0.0000000000000000E+00 
    4.9999999999869210E-01     0.0000000000000000E+00     0.0000000000000000E+00 
    5.6249999999884603E-01     0.0000000000000000E+00     0.0000000000000000E+00 
    6.2499999999901090E-01     0.0000000000000000E+00     0.0000000000000000E+00 
    6.8749999999917577E-01     0.0000000000000000E+00     0.0000000000000000E+00 
    7.4999999999934064E-01     0.0000000000000000E+00     0.0000000000000000E+00 
    8.1249999999950551E-01     0.0000000000000000E+00     0.0000000000000000E+00 
    8.7499999999967026E-01     0.0000000000000000E+00     0.0000000000000000E+00 
    9.3749999999983513E-01     0.0000000000000000E+00     0.0000000000000000E+00 
    1.0000000000000000E+00     6.2499999999872928E-02     0.0000000000000000E+00 
    1.0000000000000000E+00     1.2499999999977310E-01     0.0000000000000000E+00 
    1.0000000000000000E+00     1.8749999999959341E-01     0.0000000000000000E+00 
    1.0000000000000000E+00     2.4999999999941089E-01     0.0000000000000000E+00 
    1.0000000000000000E+00     3.1249999999922851E-01     0.0000000000000000E+00 
    1.0000000000000000E+00     3.7499999999904610E-01     0.0000000000000000E+00 
    1.0000000000000000E+00     4.3749999999886358E-01     0.0000000000000000E+00 
    1.0000000000000000E+00     4.9999999999869210E-01     0.0000000000000000E+00 
    1.0000000000000000E+00     5.6249999999884603E-01     0.0000000000000000E+00 
    1.0000000000000000E+00     6.2499999999901090E-01     0.0000000000000000E+00 
    1.0000000000000000E+00     6.8749999999917577E-01     0.0000000000000000E+00 
    1.0000000000000000E+00     7.4999999999934064E-01     0.0000000000000000E+00 
    1.0000000000000000E+00     8.1249999999950551E-01     0.0000000000000000E+00 
    1.0000000000000000E+00     8.7499999999967026E-01     0.0000000000000000E+00 
    1.0000000000000000E+00     9.3749999999983513E-01     0.0000000000000000E+00 
    9.3749999999973976E-01     1.0000000000000000E+00     0.0000000000000000E+00 
    8.7499999999950118E-01     1.0000000000000000E+00     0.0000000000000000E+00 
    8.1249999999991318E-01     1.0000000000000000E+00     0.0000000000000000E+00 
    7.5000000000034706E-01     1.0000000000000000E+00     0.0000000000000000E+00 
    6.8750000000078049E-01     1.0000000000000000E+00     0.0000000000000000E+00 
    6.2500000000121403E-01     1.0000000000000000E+00     0.0000000000000000E+00 
    5.6250000000164757E-01     1.0000000000000000E+00     0.0000000000000000E+00 
    5.0000000000205946E-01     1.0000000000000000E+00     0.0000000000000000E+00 
    4.3750000000182099E-01     1.0000000000000000E+00     0.0000000000000000E+00 
    3.7500000000156092E-01     1.0000000000000000E+00     0.0000000000000000E+00 
    3.1250000000130068E-01     1.0000000000000000E+00     0.0000000000000000E+00 
    2.5000000000104050E-01     1.0000000000000000E+00     0.0000000000000000E+00 
    1.8750000000078040E-01     1.0000000000000000E+00     0.0000000000000000E+00 
    1.2500000000052031E-01     1.0000000000000000E+00     0.0000000000000000E+00 
    6.2500000000260125E-02     1.0000000000000000E+00     0.0000000000000000E+00 
    0.0000000000000000E+00     9.3749999999973976E-01     0.0000000000000000E+00 
    0.0000000000000000E+00     8.7499999999950118E-01     0.0000000000000000E+00 
    0.0000000000000000E+00     8.1249999999991318E-01     0.0000000000000000E+00 
    0.0000000000000000E+00     7.5000000000034706E-01     0.0000000000000000E+00 
    0.0000000000000000E+00     6.8750000000078049E-01     0.0000000000000000E+00 
    0.0000000000000000E+00     6.2500000000121403E-01     0.0000000000000000E+00 
    0.0000000000000000E+00     5.6250000000164757E-01     0.0000000000000000E+00 
    0.0000000000000000E+00     5.0000000000205946E-01     0.0000000000000000E+00 
    0.0000000000000000E+00     4.3750000000182099E-01     0.0000000000000000E+00 
    0.0000000000000000E+00     3.7500000000156092E-01     0.0000000000000000E+00 
    0.0000000000000000E+00     3.1250000000130068E-01     0.0000000000000000E+00 
    0.0000000000000000E+00     2.5000000000104050E-01     0.0000000000000000E+00 
    0.0000000000000000E+00     1.8750000000078040E-01     0.0000000000000000E+00 
    0.0000000000000000E+00     1.2500000000052031E-01     0.0000000000000000E+00 
    0.0000000000000000E+00     6.2500000000260125E-02     0.0000000000000000E+00 
    6.2499999999897131E-02     6.2500000000235922E-02     0.0000000000000000E+00 
    6.2499999999921327E-02     1.2500000000047351E-01     0.0000000000000000E+00 
    6.2499999999945530E-02     1.8750000000070621E-01     0.0000000000000000E+00 
    6.2499999999969733E-02     2.5000000000093858E-01     0.0000000000000000E+00 
    6.2499999999993928E-02     3.1250000000117117E-01     0.0000000000000000E+00 
    6.2500000000018124E-02     3.7500000000140382E-01     0.0000000000000000E+00 
    6.2500000000042327E-02     4.3750000000163619E-01     0.0000000000000000E+00 
    6.2500000000066530E-02     5.0000000000184897E-01     0.0000000000000000E+00 
    6.2500000000090733E-02     5.6250000000147260E-01     0.0000000000000000E+00 
    6.2500000000114922E-02     6.2500000000107636E-01     0.0000000000000000E+00 
    6.2500000000139125E-02     6.8750000000068034E-01     0.0000000000000000E+00 
    6.2500000000163328E-02     7.5000000000028411E-01     0.0000000000000000E+00 
    6.2500000000187531E-02     8.1249999999988787E-01     0.0000000000000000E+00 
    6.2500000000211720E-02     8.7499999999951172E-01     0.0000000000000000E+00 
    6.2500000000235922E-02     9.3749999999974565E-01     0.0000000000000000E+00 
    1.2499999999981980E-01     6.2500000000211733E-02     0.0000000000000000E+00 
    1.2499999999986650E-01     1.2500000000042691E-01     0.0000000000000000E+00 
    1.2499999999991319E-01     1.8750000000063199E-01     0.0000000000000000E+00 
    1.2499999999995989E-01     2.5000000000083678E-01     0.0000000000000000E+00 
    1.2500000000000661E-01     3.1250000000104172E-01     0.0000000000000000E+00 
    1.2500000000005329E-01     3.7500000000124661E-01     0.0000000000000000E+00 
    1.2500000000010000E-01     4.3750000000145117E-01     0.0000000000000000E+00 
    1.2500000000014669E-01     5.0000000000163858E-01     0.0000000000000000E+00 
    1.2500000000019340E-01     5.6250000000129741E-01     0.0000000000000000E+00 
    1.2500000000024011E-01     6.2500000000093847E-01     0.0000000000000000E+00 
    1.2500000000028680E-01     6.8750000000057998E-01     0.0000000000000000E+00 
    1.2500000000033351E-01     7.5000000000022127E-01     0.0000000000000000E+00 
    1.2500000000038020E-01     8.1249999999986211E-01     0.0000000000000000E+00 
    1.2500000000042691E-01     8.7499999999952238E-01     0.0000000000000000E+00 
    1.2500000000047359E-01     9.3749999999975164E-01     0.0000000000000000E+00 
    1.8749999999966760E-01     6.2500000000187531E-02     0.0000000000000000E+00 
    1.8749999999974179E-01     1.2500000000038020E-01     0.0000000000000000E+00 
    1.8749999999981601E-01     1.8750000000055780E-01     0.0000000000000000E+00 
    1.8749999999989009E-01     2.5000000000073502E-01     0.0000000000000000E+00 
    1.8749999999996431E-01     3.1250000000091221E-01     0.0000000000000000E+00 
    1.8750000000003850E-01     3.7500000000108941E-01     0.0000000000000000E+00 
    1.8750000000011269E-01     4.3750000000126649E-01     0.0000000000000000E+00 
    1.8750000000018691E-01     5.0000000000142808E-01     0.0000000000000000E+00 
    1.8750000000026110E-01     5.6250000000112244E-01     0.0000000000000000E+00 
    1.8750000000033529E-01     6.2500000000080080E-01     0.0000000000000000E+00 
    1.8750000000040951E-01     6.8750000000047962E-01     0.0000000000000000E+00 
    1.8750000000048361E-01     7.5000000000015843E-01     0.0000000000000000E+00 
    1.8750000000055780E-01     8.1249999999983680E-01     0.0000000000000000E+00 
    1.8750000000063199E-01     8.7499999999953304E-01     0.0000000000000000E+00 
    1.8750000000070621E-01     9.3749999999975764E-01     0.0000000000000000E+00 
    2.4999999999951281E-01     6.2500000000163314E-02     0.0000000000000000E+00 
    2.4999999999961461E-01     1.2500000000033351E-01     0.0000000000000000E+00 
    2.4999999999971650E-01     1.8750000000048361E-01     0.0000000000000000E+00 
    2.4999999999981831E-01     2.5000000000063310E-01     0.0000000000000000E+00 
    2.4999999999992020E-01     3.1250000000078260E-01     0.0000000000000000E+00 
    2.5000000000002198E-01     3.7500000000093209E-01     0.0000000000000000E+00 
    2.5000000000012390E-01     4.3750000000108180E-01     0.0000000000000000E+00 
    2.5000000000022571E-01     5.0000000000121769E-01     0.0000000000000000E+00 
    2.5000000000032763E-01     5.6250000000094724E-01     0.0000000000000000E+00 
    2.5000000000042938E-01     6.2500000000066314E-01     0.0000000000000000E+00 
    2.5000000000053119E-01     6.8750000000037925E-01     0.0000000000000000E+00 
[...]
CELL_DATA 256 
SCALARS Pressure double 1 
LOOKUP_TABLE default 

    1.3984811611873182E+00 
    1.1622029810784087E+00 
    1.0262133873943506E+00 
    9.1643116085405285E-01 
    8.1508869657265415E-01 
    7.1593567565767435E-01 
    6.1827717985045649E-01 
    5.5031159704371979E-01 
    4.9951072668333529E-01 
    4.5023332362774121E-01 
    4.0132793359658747E-01 
    3.5544174465566147E-01 
    3.1535434809409929E-01 
    2.8414412226364999E-01 
    2.6438735950877523E-01 
    2.5645216312591040E-01 
    1.3254431529181825E+00 
    1.1656815639897051E+00 
    1.0346423534566602E+00 
    9.2517313251360100E-01 
    8.2390552445889675E-01 
    7.2478442599055326E-01 
    6.2632607085400316E-01 
    5.5657777409753206E-01 
    5.0480235214694469E-01 
    4.5514725355917807E-01 
    4.0583481284089634E-01 
    3.5927318660812391E-01 
    3.1818826827253310E-01 
    2.8572815865116025E-01 
    2.6474596067857148E-01 
    2.5609515914829017E-01 
    1.2675937539079396E+00 
    1.1575861249585007E+00 
    1.0387869379762835E+00 
    9.3190876638863340E-01 
    8.3145255244327432E-01 
    7.3267688940319797E-01 
    6.3402107917607697E-01 
    5.6323454576548970E-01 
    5.1044934314916779E-01 
    4.6013157636317192E-01 
    4.1019623236427993E-01 
    3.6274756284477133E-01 
    3.2041054538348585E-01 
    2.8643318437359300E-01 
    2.6406794680151213E-01 
    2.5481073328815285E-01 
    1.2210563465286970E+00 
    1.1436034539791218E+00 
    1.0389684857358366E+00 
    9.3654138066105452E-01 
    8.3767138581177125E-01 
    7.3956764153433585E-01 
    6.4134133267146809E-01 
    5.7022164344355020E-01 
    5.1645422393037821E-01 
    4.6522919802657597E-01 
    4.1447937571943333E-01 
    3.6594730548773402E-01 
    3.2210219890811365E-01 
    2.8629543635416771E-01 
    2.6229111927507748E-01 
    2.5242266172116212E-01 
    1.1830197444871282E+00 
    1.1270329761529296E+00 
    1.0359814187296372E+00 
    9.3915080090548309E-01 
    8.4255225419540569E-01 
    7.4540972118166482E-01 
    6.4836614805032899E-01 
    5.7750429684335358E-01 
    5.2278760082059128E-01 
    4.7046954579846217E-01 
    4.1874708492068241E-01 
    3.6895871121068718E-01 
    3.2335420903576578E-01 
    2.8536051262739737E-01 
    2.5935023365039617E-01 
    2.4874750445633192E-01 
    1.1515249879080580E+00 
    1.1097827065631627E+00 
    1.0306997303316006E+00 
    9.3995011738737622E-01 
    8.4614230829286774E-01 
    7.5016572330728737E-01 
    6.5525141175773627E-01 
    5.8507558694257411E-01 
    5.2939694862422093E-01 
    4.7586905024659931E-01 
    4.2305713587877769E-01 
    3.7187214823611786E-01 
    3.2427158994763344E-01 
    2.8369125188489430E-01 
    2.5518041576594863E-01 
    2.4358202288111935E-01 
    1.1251932398775584E+00 
    1.0929405429188073E+00 
    1.0239149716863827E+00 
    9.3922794839279955E-01 
    8.4854074733879825E-01 
    7.5386203536191010E-01 
    6.6218412443785624E-01 
    5.9295019503433166E-01 
    5.3621712518441589E-01 
    4.8143287837412457E-01 
    4.2746151076790545E-01 
    3.7478171171541652E-01 
    3.2497724709717241E-01 
    2.8137754792700753E-01 
    2.4972313213133904E-01 
    2.3668896829071098E-01 
    1.1030411814207588E+00 
    1.0771126682746801E+00 
    1.0162843245724982E+00 
    9.3729958332622521E-01 
    8.4987387952440008E-01 
    7.5671851501598952E-01 
    6.6931607462747433E-01 
    6.0113269623822685E-01 
    5.4318526489624364E-01 
    4.8715744873992811E-01 
    4.3200555689431408E-01 
    3.7778398487631715E-01 
    3.2561514846256751E-01 
    2.7854867331164013E-01 
    2.4293682068097627E-01 
    2.2777949671260744E-01 
    1.0843557340186940E+00 
    1.0626236001488094E+00 
    1.0083279867170147E+00 
    9.3447439210286920E-01 
    8.5023322902353271E-01 
    7.5931519963710148E-01 
    6.7671698624978349E-01 
    6.0954418090814899E-01 
    5.5024932167678620E-01 
    4.9303277176866911E-01 
    4.3672687543724720E-01 
    3.8097551712396049E-01 
    3.2635195882291518E-01 
    2.7538845091068609E-01 
    2.3481555452808561E-01 
    2.1648990800087639E-01 
    1.0686063896544429E+00 
    1.0496324930851046E+00 
    1.0004442828220765E+00 
    9.3104054587149798E-01 
    8.4963002062938531E-01 
    7.6249369047695459E-01 
    6.8442477850777605E-01 
    6.1797196710347746E-01 
    5.5736163419870211E-01 
    4.9904343552977093E-01 
    4.4165380625426859E-01 
    3.8444865014780749E-01 
    3.2737578227368574E-01 
    2.7215297599687149E-01 
    2.2542128168999506E-01 
    2.0234943339212805E-01 
    1.0553781547295462E+00 
    1.0381954228815768E+00 
    9.9292480276312123E-01 
    9.2723312204884889E-01 
    8.4857619666513484E-01 
    7.6689077238716785E-01 
    6.9249499865037012E-01 
    6.2619600170076684E-01 
    5.6447137089481492E-01 
    5.0516850966977800E-01 
    4.4680357829384376E-01 
    3.8828548423581705E-01 
    3.2889006393149084E-01 
    2.6918913068712097E-01 
    2.1493884361521301E-01 
    1.8473420049351660E-01 
    1.0443053765275210E+00 
    1.0282818267516030E+00 
    9.8596093631968773E-01 
    9.2302313092975319E-01 
    8.4872069583796950E-01 
    7.7264370306614771E-01 
    7.0072262799175400E-01 
    6.3413179141940790E-01 
    5.7153001403191650E-01 
    5.1138187449370809E-01 
    4.5218051271074033E-01 
    3.9255016692941103E-01 
    3.3110016911096180E-01 
    2.6694904822509430E-01 
    2.0376911922749785E-01 
    1.6279994397888176E-01 
    1.0349692281056082E+00 
    1.0197228718265496E+00 
    9.7946295436731068E-01 
    9.2030007121523849E-01 
    8.5143450351088146E-01 
    7.7931591185910576E-01 
    7.0869801134893551E-01 
    6.4178087138765583E-01 
    5.7849829512609863E-01 
    5.1765334453322653E-01 
    4.5777484270278374E-01 
    3.9728037559294233E-01 
    3.3419011301578799E-01 
    2.6598949367178693E-01 
    1.9268595074812025E-01 
    1.3538193781359018E-01 
    1.0277823957264234E+00 
    1.0128959596598430E+00 
    9.7573932951371900E-01 
    9.2108633252332861E-01 
    8.5614140389530269E-01 
    7.8624894314191429E-01 
    7.1627810351673127E-01 
    6.4915349485510820E-01 
    5.8534550077272285E-01 
    5.2394983554305730E-01 
    4.6356268252034477E-01 
    4.0247986202709746E-01 
    3.3828837444256082E-01 
    2.6693310641728951E-01 
    1.8309982574161890E-01 
    1.0084407273500370E-01 
    1.0250276114390211E+00 
    1.0107924849539733E+00 
    9.7613726712892834E-01 
    9.2443431417649491E-01 
    8.6171403804190272E-01 
    7.9306830552927654E-01 
    7.2353728611114276E-01 
    6.5625902353919030E-01 
    5.9204623639743670E-01 
    5.3023623941768527E-01 
    4.6950750226455928E-01 
    4.0811500688568531E-01 
    3.4342693827173459E-01 
    2.7034563779808490E-01 
    1.7750042859852197E-01 
    5.6848469331998955E-02 
    1.0244338232365975E+00 
    1.0113669719210161E+00 
    9.7877758464239373E-01 
    9.2904281736004268E-01 
    8.6766898794513103E-01 
    7.9983883900471009E-01 
    7.3055285720852225E-01 
    6.6311010696652395E-01 
    5.9857820873917322E-01 
    5.3647613299007191E-01 
    4.7556307687863242E-01 
    4.1411857852873329E-01 
    3.4951137958213829E-01 
    2.7644073701411248E-01 
    1.8019929162869586E-01 
    0.0000000000000000E+00 

SCALARS Saturarion double 1 
LOOKUP_TABLE default 

    1.0000000000000000E+00 
    9.6289033110193178E-01 
    9.1608996896917216E-01 
    8.6378802429721735E-01 
    8.0601443259046379E-01 
    7.3403861354760003E-01 
    6.0038703693977513E-01 
    1.9423750210779162E-01 
    1.9326124985233554E-03 
    7.7679483214552921E-09 
    3.0461120181515495E-22 
    6.3573716095231859E-55 
   2.0112965640050448E-133 
   1.1509753285517679E-319 
    0.0000000000000000E+00 
    0.0000000000000000E+00 
    9.8760699784528372E-01 
    9.5745903127627352E-01 
    9.1432864180002216E-01 
    8.6389586292160703E-01 
    8.0727359568318580E-01 
    7.3698294819289656E-01 
    6.1115122076804951E-01 
    2.1721139520285782E-01 
    2.7376833437009239E-03 
    1.7429018367096260E-08 
    1.8679290393065829E-21 
    3.3925752058017413E-53 
   9.6456734509626239E-130 
   4.1342611988192524E-312 
    0.0000000000000000E+00 
    0.0000000000000000E+00 
    9.7768205388305229E-01 
    9.4972324585076406E-01 
    9.0975346864585149E-01 
    8.6172944568739651E-01 
    8.0665665508249118E-01 
    7.3761519405989495E-01 
    6.1294587607158235E-01 
    2.1918202093164316E-01 
    2.7511347239917590E-03 
    1.6238659130611092E-08 
    1.2620621591545684E-21 
    7.4421885633043280E-54 
   6.1560108080519822E-132 
   7.7153291254569060E-319 
    0.0000000000000000E+00 
    0.0000000000000000E+00 
    9.6640691417576008E-01 
    9.4034892342594634E-01 
    9.0305949035933919E-01 
    8.5750401399957676E-01 
    8.0414177390543817E-01 
    7.3598086749667702E-01 
    6.0808605728388465E-01 
    2.0565029382857505E-01 
    2.1389636978091436E-03 
    7.5719294872522044E-09 
    1.3791684812204240E-22 
    1.4245395757916373E-56 
   2.1197061473324195E-139 
    0.0000000000000000E+00 
    0.0000000000000000E+00 
    0.0000000000000000E+00 
    9.5345434820534336E-01 
    9.2941693615078613E-01 
    8.9460434372176345E-01 
    8.5144985424656616E-01 
    7.9980434851756299E-01 
    7.3208129357372831E-01 
    5.9532589580668027E-01 
    1.7668165317536727E-01 
    1.2283507441427073E-03 
    1.5507848686594743E-09 
    1.6659500062466900E-24 
    8.1444437011553389E-62 
   2.1631088805712101E-153 
    0.0000000000000000E+00 
    0.0000000000000000E+00 
    0.0000000000000000E+00 
    9.3867166340465391E-01 
    9.1690501329259222E-01 
    8.8453318922042945E-01 
    8.4370668685321715E-01 
    7.9368058455869028E-01 
    7.2574143385284262E-01 
    5.7123078340185163E-01 
    1.3435161081256070E-01 
    4.7447085105854352E-04 
    1.0557454778998852E-10 
    9.7420934598621577E-28 
    1.4194737555606013E-70 
   1.1782692882184995E-176 
    0.0000000000000000E+00 
    0.0000000000000000E+00 
    0.0000000000000000E+00 
    9.2192856875861118E-01 
    9.0273040114323044E-01 
    8.7286442320898261E-01 
    8.3431690297793581E-01 
    7.8572515124695930E-01 
    7.1646846551845311E-01 
    5.2844870393749899E-01 
    8.4242344806086070E-02 
    1.0262031037631381E-04 
    1.3588205657255708E-12 
    5.4152779395605177E-33 
    8.1384928208188860E-85 
   5.3593625921362018E-215 
    0.0000000000000000E+00 
    0.0000000000000000E+00 
    0.0000000000000000E+00 
    9.0303285725717075E-01 
    8.8672770395880518E-01 
    8.5950305616179923E-01 
    8.2320999988173538E-01 
    7.7576052024496744E-01 
    7.0304516313000287E-01 
    4.5591634829280198E-01 
    3.8391752749736122E-02 
    8.4764126188330235E-06 
    1.0357925138771136E-15 
    1.0196687834633570E-41 
   5.1956321498990757E-109 
   1.3133051975504761E-281 
    0.0000000000000000E+00 
    0.0000000000000000E+00 
    0.0000000000000000E+00 
    8.8161931140792349E-01 
    8.6857880802199661E-01 
    8.4419661045736616E-01 
    8.1014697312698780E-01 
    7.6336665776944757E-01 
    6.8219512650252012E-01 
    3.4055048196879023E-01 
    9.6400300339362765E-03 
    1.1446549466139390E-07 
    3.8520500209356310E-21 
    1.5387306140271647E-57 
   5.1879085575598397E-154 
    0.0000000000000000E+00 
    0.0000000000000000E+00 
    0.0000000000000000E+00 
    0.0000000000000000E+00 
    8.5692873047027351E-01 
    8.4764513023683541E-01 
    8.2639354088016437E-01 
    7.9456239254590733E-01 
    7.4752194819767770E-01 
    6.4336044356142952E-01 
    1.8377667085250235E-01 
    6.7376076243420510E-04 
    3.2062292119532984E-11 
    3.3677456203950080E-32 
    5.3896819148952263E-90 
   4.1432139056979287E-252 
    0.0000000000000000E+00 
    0.0000000000000000E+00 
    0.0000000000000000E+00 
    0.0000000000000000E+00 
    8.2721773646756680E-01 
    8.2250335801940710E-01 
    8.0482928731081560E-01 
    7.7511610728689107E-01 
    7.2552574229676570E-01 
    5.1462929814345715E-01 
    3.8621870005141341E-02 
    1.8970125501377432E-06 
    1.0248313540519937E-19 
    2.7611929142775192E-59 
   7.5484013582538739E-181 
    0.0000000000000000E+00 
    0.0000000000000000E+00 
    0.0000000000000000E+00 
    0.0000000000000000E+00 
    0.0000000000000000E+00 
    7.8769486820979395E-01 
    7.8933912537739026E-01 
    7.7611180050181794E-01 
    7.4810121051034928E-01 
    6.8831800971318469E-01 
    2.0913880450710357E-01 
    2.5877315641214632E-04 
    2.5908363988726570E-14 
    5.4143251940966287E-48 
   1.9942276524665981E-156 
    0.0000000000000000E+00 
    0.0000000000000000E+00 
    0.0000000000000000E+00 
    0.0000000000000000E+00 
    0.0000000000000000E+00 
    0.0000000000000000E+00 
    7.2038407467232668E-01 
    7.3432276701090449E-01 
    7.2827553682860158E-01 
    6.9746835918627936E-01 
    3.4872798892703938E-01 
    1.0190920555289927E-03 
    2.2381495146896693E-13 
    2.4986529469840096E-46 
   4.6338640603005344E-153 
    0.0000000000000000E+00 
    0.0000000000000000E+00 
    0.0000000000000000E+00 
    0.0000000000000000E+00 
    0.0000000000000000E+00 
    0.0000000000000000E+00 
    0.0000000000000000E+00 
    4.9117570537947097E-01 
    5.8182277211231015E-01 
    5.5811698411414357E-01 
    2.3418517995477267E-01 
    6.6991409773842832E-04 
    6.7348331167268579E-14 
    1.5736821685392344E-47 
   1.2506982055998219E-155 
    0.0000000000000000E+00 
    0.0000000000000000E+00 
    0.0000000000000000E+00 
    0.0000000000000000E+00 
    0.0000000000000000E+00 
    0.0000000000000000E+00 
    0.0000000000000000E+00 
    0.0000000000000000E+00 
    3.9542027924948549E-02 
    1.1854304053555417E-01 
    4.1699211292212393E-02 
    1.4871529855222361E-04 
    1.3148031082357393E-14 
    8.5078873308306160E-49 
   3.1840041458763616E-158 
    0.0000000000000000E+00 
    0.0000000000000000E+00 
    0.0000000000000000E+00 
    0.0000000000000000E+00 
    0.0000000000000000E+00 
    0.0000000000000000E+00 
    0.0000000000000000E+00 
    0.0000000000000000E+00 
    0.0000000000000000E+00 
    5.6697179869932113E-06 
    1.2184338654163467E-04 
    1.2906727027058705E-06 
    4.4130332683732483E-16 
    4.7371420715910427E-50 
   6.8460648829257916E-160 
    0.0000000000000000E+00 
    0.0000000000000000E+00 
    0.0000000000000000E+00 
    0.0000000000000000E+00 
    0.0000000000000000E+00 
    0.0000000000000000E+00 
    0.0000000000000000E+00 
    0.0000000000000000E+00 
    0.0000000000000000E+00 
    0.0000000000000000E+00 
