# vtk DataFile Version 2.0
Pressure Field Data 
ASCII 
DATASET UNSTRUCTURED_GRID 

POINTS 289 double 

    0.0000000000000000E+00     0.0000000000000000E+00     0.0000000000000000E+00 
    1.0000000000000000E+00     0.0000000000000000E+00     0.0000000000000000E+00 
    1.0000000000000000E+00     1.0000000000000000E+00     0.0000000000000000E+00 
    0.0000000000000000E+00     1.0000000000000000E+00     0.0000000000000000E+00 
    6.2499999999872928E-02     0.0000000000000000E+00     0.0000000000000000E+00 
    1.2499999999977310E-01     0.0000000000000000E+00     0.0000000000000000E+00 
    1.8749999999959341E-01     0.0000000000000000E+00     0.0000000000000000E+00 
    2.4999999999941089E-01     0.0000000000000000E+00     0.0000000000000000E+00 
    3.1249999999922851E-01     0.0000000000000000E+00     0.0000000000000000E+00 
    3.7499999999904610E-01     0.0000000000000000E+00     0.0000000000000000E+00 
    4.3749999999886358E-01     0.0000000000000000E+00     0.0000000000000000E+00 
    4.9999999999869210E-01     0.0000000000000000E+00     0.0000000000000000E+00 
    5.6249999999884603E-01     0.0000000000000000E+00     0.0000000000000000E+00 
    6.2499999999901090E-01     0.0000000000000000E+00     0.0000000000000000E+00 
    6.8749999999917577E-01     0.0000000000000000E+00     0.0000000000000000E+00 
    7.4999999999934064E-01     0.0000000000000000E+00     0.0000000000000000E+00 
    8.1249999999950551E-01     0.0000000000000000E+00     0.0000000000000000E+00 
    8.7499999999967026E-01     0.0000000000000000E+00     0.0000000000000000E+00 
    9.3749999999983513E-01     0.0000000000000000E+00     0.0000000000000000E+00 
    1.0000000000000000E+00     6.2499999999872928E-02     0.0000000000000000E+00 
    1.0000000000000000E+00     1.2499999999977310E-01     0.0000000000000000E+00 
    1.0000000000000000E+00     1.8749999999959341E-01     0.0000000000000000E+00 
    1.0000000000000000E+00     2.4999999999941089E-01     0.0000000000000000E+00 
    1.0000000000000000E+00     3.1249999999922851E-01     0.0000000000000000E+00 
    1.0000000000000000E+00     3.7499999999904610E-01     0.0000000000000000E+00 
    1.0000000000000000E+00     4.3749999999886358E-01     0.0000000000000000E+00 
    1.0000000000000000E+00     4.9999999999869210E-01     0.0000000000000000E+00 
    1.0000000000000000E+00     5.6249999999884603E-01     0.0000000000000000E+00 
    1.0000000000000000E+00     6.2499999999901090E-01     0.0000000000000000E+00 
    1.0000000000000000E+00     6.8749999999917577E-01     0.0000000000000000E+00 
    1.0000000000000000E+00     7.4999999999934064E-01     0.0000000000000000E+00 
    1.0000000000000000E+00     8.1249999999950551E-01     0.0000000000000000E+00 
    1.0000000000000000E+00     8.7499999999967026E-01     0.0000000000000000E+00 
    1.0000000000000000E+00     9.3749999999983513E-01     0.0000000000000000E+00 
    9.3749999999973976E-01     1.0000000000000000E+00     0.0000000000000000E+00 
    8.7499999999950118E-01     1.0000000000000000E+00     0.0000000000000000E+00 
    8.1249999999991318E-01     1.0000000000000000E+00     0.0000000000000000E+00 
    7.5000000000034706E-01     1.0000000000000000E+00     0.0000000000000000E+00 
    6.8750000000078049E-01     1.0000000000000000E+00     0.0000000000000000E+00 
    6.2500000000121403E-01     1.0000000000000000E+00     0.0000000000000000E+00 
    5.6250000000164757E-01     1.0000000000000000E+00     0.0000000000000000E+00 
    5.0000000000205946E-01     1.0000000000000000E+00     0.0000000000000000E+00 
    4.3750000000182099E-01     1.0000000000000000E+00     0.0000000000000000E+00 
    3.7500000000156092E-01     1.0000000000000000E+00     0.0000000000000000E+00 
    3.1250000000130068E-01     1.0000000000000000E+00     0.0000000000000000E+00 
    2.5000000000104050E-01     1.0000000000000000E+00     0.0000000000000000E+00 
    1.8750000000078040E-01     1.0000000000000000E+00     0.0000000000000000E+00 
    1.2500000000052031E-01     1.0000000000000000E+00     0.0000000000000000E+00 
    6.2500000000260125E-02     1.0000000000000000E+00     0.0000000000000000E+00 
    0.0000000000000000E+00     9.3749999999973976E-01     0.0000000000000000E+00 
    0.0000000000000000E+00     8.7499999999950118E-01     0.0000000000000000E+00 
    0.0000000000000000E+00     8.1249999999991318E-01     0.0000000000000000E+00 
    0.0000000000000000E+00     7.5000000000034706E-01     0.0000000000000000E+00 
    0.0000000000000000E+00     6.8750000000078049E-01     0.0000000000000000E+00 
    0.0000000000000000E+00     6.2500000000121403E-01     0.0000000000000000E+00 
    0.0000000000000000E+00     5.6250000000164757E-01     0.0000000000000000E+00 
    0.0000000000000000E+00     5.0000000000205946E-01     0.0000000000000000E+00 
    0.0000000000000000E+00     4.3750000000182099E-01     0.0000000000000000E+00 
    0.0000000000000000E+00     3.7500000000156092E-01     0.0000000000000000E+00 
    0.0000000000000000E+00     3.1250000000130068E-01     0.0000000000000000E+00 
    0.0000000000000000E+00     2.5000000000104050E-01     0.0000000000000000E+00 
    0.0000000000000000E+00     1.8750000000078040E-01     0.0000000000000000E+00 
    0.0000000000000000E+00     1.2500000000052031E-01     0.0000000000000000E+00 
    0.0000000000000000E+00     6.2500000000260125E-02     0.0000000000000000E+00 
    6.2499999999897131E-02     6.2500000000235922E-02     0.0000000000000000E+00 
    6.2499999999921327E-02     1.2500000000047351E-01     0.0000000000000000E+00 
    6.2499999999945530E-02     1.8750000000070621E-01     0.0000000000000000E+00 
    6.2499999999969733E-02     2.5000000000093858E-01     0.0000000000000000E+00 
    6.2499999999993928E-02     3.1250000000117117E-01     0.0000000000000000E+00 
    6.2500000000018124E-02     3.7500000000140382E-01     0.0000000000000000E+00 
    6.2500000000042327E-02     4.3750000000163619E-01     0.0000000000000000E+00 
    6.2500000000066530E-02     5.0000000000184897E-01     0.0000000000000000E+00 
    6.2500000000090733E-02     5.6250000000147260E-01     0.0000000000000000E+00 
    6.2500000000114922E-02     6.2500000000107636E-01     0.0000000000000000E+00 
    6.2500000000139125E-02     6.8750000000068034E-01     0.0000000000000000E+00 
    6.2500000000163328E-02     7.5000000000028411E-01     0.0000000000000000E+00 
    6.2500000000187531E-02     8.1249999999988787E-01     0.0000000000000000E+00 
    6.2500000000211720E-02     8.7499999999951172E-01     0.0000000000000000E+00 
    6.2500000000235922E-02     9.3749999999974565E-01     0.0000000000000000E+00 
    1.2499999999981980E-01     6.2500000000211733E-02     0.0000000000000000E+00 
    1.2499999999986650E-01     1.2500000000042691E-01     0.0000000000000000E+00 
    1.2499999999991319E-01     1.8750000000063199E-01     0.0000000000000000E+00 
    1.2499999999995989E-01     2.5000000000083678E-01     0.0000000000000000E+00 
    1.2500000000000661E-01     3.1250000000104172E-01     0.0000000000000000E+00 
    1.2500000000005329E-01     3.7500000000124661E-01     0.0000000000000000E+00 
    1.2500000000010000E-01     4.3750000000145117E-01     0.0000000000000000E+00 
    1.2500000000014669E-01     5.0000000000163858E-01     0.0000000000000000E+00 
    1.2500000000019340E-01     5.6250000000129741E-01     0.0000000000000000E+00 
    1.2500000000024011E-01     6.2500000000093847E-01     0.0000000000000000E+00 
    1.2500000000028680E-01     6.8750000000057998E-01     0.0000000000000000E+00 
    1.2500000000033351E-01     7.5000000000022127E-01     0.0000000000000000E+00 
    1.2500000000038020E-01     8.1249999999986211E-01     0.0000000000000000E+00 
    1.2500000000042691E-01     8.7499999999952238E-01     0.0000000000000000E+00 
    1.2500000000047359E-01     9.3749999999975164E-01     0.0000000000000000E+00 
    1.8749999999966760E-01     6.2500000000187531E-02     0.0000000000000000E+00 
    1.8749999999974179E-01     1.2500000000038020E-01     0.0000000000000000E+00 
    1.8749999999981601E-01     1.8750000000055780E-01     0.0000000000000000E+00 
    1.8749999999989009E-01     2.5000000000073502E-01     0.0000000000000000E+00 
    1.8749999999996431E-01     3.1250000000091221E-01     0.0000000000000000E+00 
    1.8750000000003850E-01     3.7500000000108941E-01     0.0000000000000000E+00 
    1.8750000000011269E-01     4.3750000000126649E-01     0.0000000000000000E+00 
    1.8750000000018691E-01     5.0000000000142808E-01     0.0000000000000000E+00 
    1.8750000000026110E-01     5.6250000000112244E-01     0.0000000000000000E+00 
    1.8750000000033529E-01     6.2500000000080080E-01     0.0000000000000000E+00 
    1.8750000000040951E-01     6.8750000000047962E-01     0.0000000000000000E+00 
    1.8750000000048361E-01     7.5000000000015843E-01     0.0000000000000000E+00 
    1.8750000000055780E-01     8.1249999999983680E-01     0.0000000000000000E+00 
    1.8750000000063199E-01     8.7499999999953304E-01     0.0000000000000000E+00 
    1.8750000000070621E-01     9.3749999999975764E-01     0.0000000000000000E+00 
    2.4999999999951281E-01     6.2500000000163314E-02     0.0000000000000000E+00 
    2.4999999999961461E-01     1.2500000000033351E-01     0.0000000000000000E+00 
    2.4999999999971650E-01     1.8750000000048361E-01     0.0000000000000000E+00 
    2.4999999999981831E-01     2.5000000000063310E-01     0.0000000000000000E+00 
    2.4999999999992020E-01     3.1250000000078260E-01     0.0000000000000000E+00 
    2.5000000000002198E-01     3.7500000000093209E-01     0.0000000000000000E+00 
    2.5000000000012390E-01     4.3750000000108180E-01     0.0000000000000000E+00 
    2.5000000000022571E-01     5.0000000000121769E-01     0.0000000000000000E+00 
    2.5000000000032763E-01     5.6250000000094724E-01     0.0000000000000000E+00 
    2.5000000000042938E-01     6.2500000000066314E-01     0.0000000000000000E+00 
    2.5000000000053119E-01     6.8750000000037925E-01     0.0000000000000000E+00 
[...]
CELL_DATA 256 
SCALARS Pressure double 1 
LOOKUP_TABLE default 

    1.9101431589310556E+00 
    1.6787537062474953E+00 
    1.5489527969859291E+00 
    1.4456259116730530E+00 
    1.3509604992513846E+00 
    1.2590490905258696E+00 
    1.1676080678957919E+00 
    1.0758593485316912E+00 
    9.8389622988034542E-01 
    8.9257827834481396E-01 
    8.0369869777075564E-01 
    7.2028088125768808E-01 
    6.4672456313628246E-01 
    5.8818066986447237E-01 
    5.4856717136549915E-01 
    5.3349315237636130E-01 
    1.8388500435176656E+00 
    1.6826804470145857E+00 
    1.5574968312453175E+00 
    1.4543795721750006E+00 
    1.3597363651738226E+00 
    1.2678941637655090E+00 
    1.1765323224884734E+00 
    1.0848173059439066E+00 
    9.9277321024280596E-01 
    9.0116184002304145E-01 
    8.1164135537195092E-01 
    7.2708307707897546E-01 
    6.5180604950213994E-01 
    5.9112597543067491E-01 
    5.4943747475698834E-01 
    5.3289733058275524E-01 
    1.7835706158400642E+00 
    1.6760148051579513E+00 
    1.5625263019866364E+00 
    1.4618048499301155E+00 
    1.3678871289949528E+00 
    1.2763869888994457E+00 
    1.1852152157856239E+00 
    1.0935630637808706E+00 
    1.0014066428660802E+00 
    9.0940293745088840E-01 
    8.1904884196050387E-01 
    7.3302905959712317E-01 
    6.5557192090455041E-01 
    5.9225049551927456E-01 
    5.4827229346680539E-01 
    5.3047834156357354E-01 
    1.7401325749152690E+00 
    1.6642334280672570E+00 
    1.5643280997277427E+00 
    1.4677986894500215E+00 
    1.3753512373607903E+00 
    1.2845031807213214E+00 
    1.1936551361662964E+00 
    1.1021139034683443E+00 
    1.0098362426063849E+00 
    9.1737229327124725E-01 
    8.2603193923830309E-01 
    7.3826693732643178E-01 
    6.5816987137282712E-01 
    5.9160486784768951E-01 
    5.4484978834567555E-01 
    5.2577868456097132E-01 
    1.7056175724872840E+00 
    1.6504964652849596E+00 
    1.5636360915286784E+00 
    1.4724203660549537E+00 
    1.3821116728781782E+00 
    1.2922332696705887E+00 
    1.2018567100678548E+00 
    1.1104900403892659E+00 
    1.0181033430332931E+00 
    9.2514266779265131E-01 
    8.3270685146062884E-01 
    7.4295805769025802E-01 
    6.5977060619073524E-01 
    5.8926397817992238E-01 
    5.3898152936587707E-01 
    5.1834969175665990E-01 
    1.6779802586026122E+00 
    1.6365984055820830E+00 
    1.5612551757367716E+00 
    1.4758522880808034E+00 
    1.3881999320445890E+00 
    1.2995858572848422E+00 
    1.2098319163241074E+00 
    1.1187146011615836E+00 
    1.0262500696339043E+00 
    9.3278743304676293E-01 
    8.3919400965377933E-01 
    7.4727863298990072E-01 
    6.6057674466508309E-01 
    5.8534309208790791E-01 
    5.3050817904166037E-01 
    5.0772823103092324E-01 
    1.6557641238932177E+00 
    1.6235284854553949E+00 
    1.5579057871661490E+00 
    1.4783472342770245E+00 
    1.3936908772723120E+00 
    1.3065887117986001E+00 
    1.2176008296954803E+00 
    1.1268135653141318E+00 
    1.0343184681707203E+00 
    9.4037882201470036E-01 
    8.4561590625963945E-01 
    7.5141972663390444E-01 
    6.6083098885998681E-01 
    5.8001704086776895E-01 
    5.1930205520032136E-01 
    4.9340131815033000E-01 
    1.6379137775443586E+00 
    1.6118041038105162E+00 
    1.5541749713946984E+00 
    1.4801845033039269E+00 
    1.3986925568534865E+00 
    1.3132877945978731E+00 
    1.2251918402395523E+00 
    1.1348156436482078E+00 
    1.0423496450553662E+00 
    9.4798594177086526E-01 
    8.5209390565491394E-01 
    7.5558505035238632E-01 
    6.6082274382951700E-01 
    5.7354412948495370E-01 
    5.0528226759430006E-01 
    4.7476437000570160E-01 
    1.6236500386674333E+00 
    1.6016691440703359E+00 
    1.5505157170179713E+00 
    1.4816400877503260E+00 
    1.4033347414266135E+00 
    1.3197447476603879E+00 
    1.2326413272272241E+00 
    1.1427520788650447E+00 
    1.0503829757037204E+00 
    9.5567266946269269E-01 
    8.5874404501776669E-01 
    7.5998592696411293E-01 
    6.6089163866184530E-01 
    5.6629564932377130E-01 
    4.8844858661864649E-01 
    4.5107078152173513E-01 
    1.6123857412952636E+00 
    1.5932116931422173E+00 
    1.5472653491248451E+00 
    1.4829694518889029E+00 
    1.4077585495402356E+00 
    1.3260335521300832E+00 
    1.2399928843277219E+00 
    1.1506563886871455E+00 
    1.0584554613415069E+00 
    9.6349562332746308E-01 
    8.6567200861309945E-01 
    7.6483281380825119E-01 
    6.6142542333637644E-01 
    5.5879052062150170E-01 
    4.6894399649987545E-01 
    4.2136609344465009E-01 
    1.6036679850054918E+00 
    1.5864336009861340E+00 
    1.5446690334763395E+00 
    1.4843996770408685E+00 
    1.4121082737213413E+00 
    1.3322369970230550E+00 
    1.2472962558812513E+00 
    1.1585640991268531E+00 
    1.0666013337003613E+00 
    9.7150247711186455E-01 
    8.7296770956326708E-01 
    7.7032306498000147E-01 
    6.6284855524530339E-01 
    5.5173176580085759E-01 
    4.4716332060439534E-01 
    3.8439644407888746E-01 
    1.5971375133756311E+00 
    1.5812911994230368E+00 
    1.5429022218851336E+00 
    1.4861277757732876E+00 
    1.4165256352255875E+00 
    1.3384433950207684E+00 
    1.2546061401238988E+00 
    1.1665125208968843E+00 
    1.0748520102131343E+00 
    9.7973094558694451E-01 
    8.8070023240933459E-01 
    7.7662529877206754E-01 
    6.6559669883142858E-01 
    5.4603560832415943E-01 
    4.2393772860146739E-01 
    3.3847567676598939E-01 
    1.5924988267657756E+00 
    1.5777184775680380E+00 
    1.5420895350998958E+00 
    1.4883224650769062E+00 
    1.4211460627429986E+00 
    1.3447436583061909E+00 
    1.2619808911478856E+00 
    1.1745405547268601E+00 
    1.0832364581169471E+00 
    9.8820877933740636E-01 
    8.8891422463435743E-01 
    7.8386201373544451E-01 
    6.7007208850663225E-01 
    5.4283199486809885E-01 
    4.0084564385000010E-01 
    2.8128588103760882E-01 
    1.5894954008289668E+00 
    1.5756380375167334E+00 
    1.5423181763678395E+00 
    1.4911263684755645E+00 
    1.4260954854944778E+00 
    1.3512279326768615E+00 
    1.2694804933871284E+00 
    1.1826880275757761E+00 
    1.0917816832291258E+00 
    9.9695489212214339E-01 
    8.9762896827245575E-01 
    7.9209395236014613E-01 
    6.7657687400929400E-01 
    5.4339110321256967E-01 
    3.8073485086786779E-01 
    2.0956590153036961E-01 
    1.5878801655401837E+00 
    1.5749551260369359E+00 
    1.5436377173266491E+00 
    1.4946503700070004E+00 
    1.4314814763888910E+00 
    1.3579772305988445E+00 
    1.2771601174855125E+00 
    1.1909914348626320E+00 
    1.1005108085248336E+00 
    1.0059799116098751E+00 
    9.0684005985665961E-01 
    8.0131084288673304E-01 
    6.8522861597345364E-01 
    5.4887856164844506E-01 
    3.6858759695184073E-01 
    1.1856625544246892E-01 
    1.5873910177064956E+00 
    1.5755346841144648E+00 
    1.5460416683771541E+00 
    1.4989591622527774E+00 
    1.4373834065751969E+00 
    1.3650580060194113E+00 
    1.2850674533875732E+00 
    1.1994821080591946E+00 
    1.1094407577383458E+00 
    1.0152827276785721E+00 
    9.1651371759025257E-01 
    8.1141353984971820E-01 
    6.9584306139773477E-01 
    5.5966087132737019E-01 
    3.7272737269947015E-01 
    0.0000000000000000E+00 

SCALARS Saturarion double 1 
LOOKUP_TABLE default 

    1.0000000000000000E+00 
    9.8766487265399872E-01 
    9.7139501302006304E-01 
    9.5359924404106489E-01 
    9.3579291481076787E-01 
    9.1844412126893793E-01 
    9.0161744974903002E-01 
    8.8520094639826297E-01 
    8.6897098513452775E-01 
    8.5256912012363140E-01 
    8.3538131308811936E-01 
    8.1618766322949232E-01 
    7.9194557877191318E-01 
    7.5223791638986870E-01 
    6.4817671394702991E-01 
    2.2247711271063891E-01 
    9.9605847122091284E-01 
    9.8576686090299392E-01 
    9.7065208337000519E-01 
    9.5340078813166484E-01 
    9.3583218230916754E-01 
    9.1860493619223704E-01 
    9.0186101040576350E-01 
    8.8552486667346353E-01 
    8.6939797996103674E-01 
    8.5314954841148272E-01 
    8.3620724631243049E-01 
    8.1743032613754374E-01 
    7.9399076759674914E-01 
    7.5635071053768343E-01 
    6.6079808062017853E-01 
    2.8262004374978783E-01 
    9.9275631106090245E-01 
    9.8298648510643027E-01 
    9.6877486303455151E-01 
    9.5220072917793541E-01 
    9.3502645269550955E-01 
    9.1804919175290178E-01 
    9.0149599722404949E-01 
    8.8533629653230217E-01 
    8.6940269044851959E-01 
    8.5339683180629133E-01 
    8.3679162162468146E-01 
    8.1852475521522372E-01 
    7.9596728737933897E-01 
    7.6037361260245018E-01 
    6.7218325249922672E-01 
    3.3412691746493689E-01 
    9.8883116513571689E-01 
    9.7948940469138635E-01 
    9.6598456410187039E-01 
    9.5008430544046596E-01 
    9.3339008510804622E-01 
    9.1675673945667102E-01 
    9.0048183670406023E-01 
    8.8458094253108432E-01 
    8.6892158443620693E-01 
    8.5324267266834064E-01 
    8.3706737052737723E-01 
    8.1941330360351972E-01 
    7.9783640859810900E-01 
    7.6430454361509492E-01 
    6.8277159606136850E-01 
    3.7910825603530313E-01 
    9.8408872670002601E-01 
    9.7523256363483857E-01 
    9.6235939431781348E-01 
    9.4710969498886055E-01 
    9.3094404316130064E-01 
    9.1472569344665478E-01 
    8.9880230508781878E-01 
    8.8323168471438551E-01 
    8.6791751938158990E-01 
    8.5263986763544997E-01 
    8.3697846021248423E-01 
    8.2003652160336049E-01 
    7.9954649649835552E-01 
    7.6812313550971079E-01 
    6.9281358607346377E-01 
    4.1857365937374413E-01 
    9.7837141563196883E-01 
    9.7012454280607041E-01 
    9.5788544004251930E-01 
    9.4328076406016648E-01 
    9.2767913138294866E-01 
    9.1193396756883838E-01 
    8.9642641645437060E-01 
    8.8125060304169789E-01 
    8.6634560092981605E-01 
    8.5153523557259814E-01 
    8.3646265223467120E-01 
    8.2032650589937339E-01 
    8.0103487421746833E-01 
    7.7179434015191217E-01 
    7.0245354415710470E-01 
    4.5365816955247368E-01 
    9.7151371821547650E-01 
    9.6403999809133867E-01 
    9.5248981662199295E-01 
    9.3855094602083167E-01 
    9.2354998677011890E-01 
    9.0833136735268949E-01 
    8.9329981104410694E-01 
    8.7857996867343302E-01 
    8.6414413795706335E-01 
    8.4986100819508303E-01 
    8.3544375970119877E-01 
    8.2020023688606858E-01 
    8.0222249474644070E-01 
    7.7526502570724554E-01 
    7.1176354827632493E-01 
    4.8540307435837837E-01 
    9.6331938960069530E-01 
    9.5681323295313503E-01 
    9.4604671916905203E-01 
    9.3282177652413933E-01 
    9.1846760758832058E-01 
    9.0383062448010820E-01 
    8.8933560989995553E-01 
    8.7513328738259633E-01 
    8.6122615383690126E-01 
    8.4752706127102240E-01 
    8.3382454510686388E-01 
    8.1955252847214899E-01 
    8.0300673749223539E-01 
    7.7845851400803401E-01 
    7.2075943619650540E-01 
    5.1464509527092506E-01 
    9.5353476856829333E-01 
    9.4822019708388794E-01 
    9.3836664188754049E-01 
    9.2593107291577004E-01 
    9.1228456070991570E-01 
    8.9829161399921498E-01 
    8.8439875926325151E-01 
    8.7078026737890657E-01 
    8.5746538484235268E-01 
    8.4440835163473471E-01 
    8.3147566886763102E-01 
    8.1824554361042001E-01 
    8.0325055495222930E-01 
    7.8126578053953843E-01 
    7.2940693316566918E-01 
    5.4201117742881888E-01 
    9.4180666304671656E-01 
    9.3794427903519439E-01 
    9.2916736581322690E-01 
    9.1762500999419838E-01 
    9.0476599067915076E-01 
    8.9149189997770872E-01 
    8.7827696219819928E-01 
    8.6531880438921682E-01 
    8.5267002314953855E-01 
    8.4032121658010317E-01 
    8.2821506408296908E-01 
    8.1609024302228483E-01 
    8.0276399341533444E-01 
    7.8352995804241110E-01 
    7.3761988972616488E-01 
    5.6794412102017844E-01 
    9.2760523165553443E-01 
    9.2551000147256801E-01 
    9.1801307530614895E-01 
    9.0749936510917595E-01 
    8.9553086636694834E-01 
    8.8306780639199156E-01 
    8.7062224451232206E-01 
    8.5841807484455901E-01 
    8.4652870286445658E-01 
    8.3497391676131183E-01 
    8.2376462948634221E-01 
    8.1280881971844554E-01 
    8.0126878774668941E-01 
    7.8501632418065881E-01 
    7.4524846476724449E-01 
    5.9272433994364992E-01 
    9.1006019022815754E-01 
    9.1013992972120716E-01 
    9.0417981656862445E-01 
    8.9486812138921668E-01 
    8.8392050952375867E-01 
    8.7238172950693937E-01 
    8.6081761562532233E-01 
    8.4948655721878918E-01 
    8.3848314674694291E-01 
    8.2784808924655429E-01 
    8.1764505513488639E-01 
    8.0794519640045570E-01 
    7.9831936955409788E-01 
    7.8534638651247646E-01 
    7.5204720502070621E-01 
    6.1647555568361623E-01 
    8.8753352580815981E-01 
    8.9038334311926193E-01 
    8.8630422880425941E-01 
    8.7841632933685565E-01 
    8.6864636862498934E-01 
    8.5816013797709412E-01 
    8.4760515975818940E-01 
    8.3729513767691199E-01 
    8.2735630538087346E-01 
    8.1784589706296607E-01 
    8.0885796284450562E-01 
    8.0059593669791629E-01 
    7.9308065362257429E-01 
    7.8382180507953692E-01 
    7.5758605419558434E-01 
    6.3914396867444645E-01 
    8.5605860439190706E-01 
    8.6278872960832698E-01 
    8.6113086944032613E-01 
    8.5494694068830468E-01 
    8.4649184961159152E-01 
    8.3712495428617228E-01 
    8.2763979574317759E-01 
    8.1846738868676749E-01 
    8.0981768997062642E-01 
    8.0179266364427604E-01 
    7.9450518933750436E-01 
    7.8822951174531752E-01 
    7.8339877437969629E-01 
    7.7875277348487171E-01 
    7.6092076278529930E-01 
    6.6040457782900852E-01 
    8.0051412486962603E-01 
    8.1437013967491878E-01 
    8.1641410526523894E-01 
    8.1228879576578872E-01 
    8.0497981519231887E-01 
    7.9627208754789769E-01 
    7.8729513720687971E-01 
    7.7879731098676641E-01 
    7.7130388269064354E-01 
    7.6521129139991961E-01 
    7.6085879006867208E-01 
    7.5865248693661647E-01 
    7.5929848725319027E-01 
    7.6293837689785715E-01 
    7.5845220316538919E-01 
    6.7904279175058424E-01 
    6.1307546600482021E-01 
    6.5723804844806644E-01 
    6.7226185596839694E-01 
    6.7409687752952707E-01 
    6.6904597841922886E-01 
    6.6031563542478555E-01 
    6.4974802978135349E-01 
    6.3853133870890022E-01 
    6.2762806854841879E-01 
    6.1814937883489485E-01 
    6.1180114973326105E-01 
    6.1151058575659023E-01 
    6.2231813850314566E-01 
    6.5192257832591860E-01 
    7.0073212346877956E-01 
    6.8266730208030635E-01 
