# vtk DataFile Version 2.0
Pressure Field Data 
ASCII 
DATASET UNSTRUCTURED_GRID 

POINTS 289 double 

    0.0000000000000000E+00     0.0000000000000000E+00     0.0000000000000000E+00 
    1.0000000000000000E+00     0.0000000000000000E+00     0.0000000000000000E+00 
    1.0000000000000000E+00     1.0000000000000000E+00     0.0000000000000000E+00 
    0.0000000000000000E+00     1.0000000000000000E+00     0.0000000000000000E+00 
    6.2499999999872928E-02     0.0000000000000000E+00     0.0000000000000000E+00 
    1.2499999999977310E-01     0.0000000000000000E+00     0.0000000000000000E+00 
    1.8749999999959341E-01     0.0000000000000000E+00     0.0000000000000000E+00 
    2.4999999999941089E-01     0.0000000000000000E+00     0.0000000000000000E+00 
    3.1249999999922851E-01     0.0000000000000000E+00     0.0000000000000000E+00 
    3.7499999999904610E-01     0.0000000000000000E+00     0.0000000000000000E+00 
    4.3749999999886358E-01     0.0000000000000000E+00     0.0000000000000000E+00 
    4.9999999999869210E-01     0.0000000000000000E+00     0.0000000000000000E+00 
    5.6249999999884603E-01     0.0000000000000000E+00     0.0000000000000000E+00 
    6.2499999999901090E-01     0.0000000000000000E+00     0.0000000000000000E+00 
    6.8749999999917577E-01     0.0000000000000000E+00     0.0000000000000000E+00 
    7.4999999999934064E-01     0.0000000000000000E+00     0.0000000000000000E+00 
    8.1249999999950551E-01     0.0000000000000000E+00     0.0000000000000000E+00 
    8.7499999999967026E-01     0.0000000000000000E+00     0.0000000000000000E+00 
    9.3749999999983513E-01     0.0000000000000000E+00     0.0000000000000000E+00 
    1.0000000000000000E+00     6.2499999999872928E-02     0.0000000000000000E+00 
    1.0000000000000000E+00     1.2499999999977310E-01     0.0000000000000000E+00 
    1.0000000000000000E+00     1.8749999999959341E-01     0.0000000000000000E+00 
    1.0000000000000000E+00     2.4999999999941089E-01     0.0000000000000000E+00 
    1.0000000000000000E+00     3.1249999999922851E-01     0.0000000000000000E+00 
    1.0000000000000000E+00     3.7499999999904610E-01     0.0000000000000000E+00 
    1.0000000000000000E+00     4.3749999999886358E-01     0.0000000000000000E+00 
    1.0000000000000000E+00     4.9999999999869210E-01     0.0000000000000000E+00 
    1.0000000000000000E+00     5.6249999999884603E-01     0.0000000000000000E+00 
    1.0000000000000000E+00     6.2499999999901090E-01     0.0000000000000000E+00 
    1.0000000000000000E+00     6.8749999999917577E-01     0.0000000000000000E+00 
    1.0000000000000000E+00     7.4999999999934064E-01     0.0000000000000000E+00 
    1.0000000000000000E+00     8.1249999999950551E-01     0.0000000000000000E+00 
    1.0000000000000000E+00     8.7499999999967026E-01     0.0000000000000000E+00 
    1.0000000000000000E+00     9.3749999999983513E-01     0.0000000000000000E+00 
    9.3749999999973976E-01     1.0000000000000000E+00     0.0000000000000000E+00 
    8.7499999999950118E-01     1.0000000000000000E+00     0.0000000000000000E+00 
    8.1249999999991318E-01     1.0000000000000000E+00     0.0000000000000000E+00 
    7.5000000000034706E-01     1.0000000000000000E+00     0.0000000000000000E+00 
    6.8750000000078049E-01     1.0000000000000000E+00     0.0000000000000000E+00 
    6.2500000000121403E-01     1.0000000000000000E+00     0.0000000000000000E+00 
    5.6250000000164757E-01     1.0000000000000000E+00     0.0000000000000000E+00 
    5.0000000000205946E-01     1.0000000000000000E+00     0.0000000000000000E+00 
    4.3750000000182099E-01     1.0000000000000000E+00     0.0000000000000000E+00 
    3.7500000000156092E-01     1.0000000000000000E+00     0.0000000000000000E+00 
    3.1250000000130068E-01     1.0000000000000000E+00     0.0000000000000000E+00 
    2.5000000000104050E-01     1.0000000000000000E+00     0.0000000000000000E+00 
    1.8750000000078040E-01     1.0000000000000000E+00     0.0000000000000000E+00 
    1.2500000000052031E-01     1.0000000000000000E+00     0.0000000000000000E+00 
    6.2500000000260125E-02     1.0000000000000000E+00     0.0000000000000000E+00 
    0.0000000000000000E+00     9.3749999999973976E-01     0.0000000000000000E+00 
    0.0000000000000000E+00     8.7499999999950118E-01     0.0000000000000000E+00 
    0.0000000000000000E+00     8.1249999999991318E-01     0.0000000000000000E+00 
    0.0000000000000000E+00     7.5000000000034706E-01     0.0000000000000000E+00 
    0.0000000000000000E+00     6.8750000000078049E-01     0.0000000000000000E+00 
    0.0000000000000000E+00     6.2500000000121403E-01     0.0000000000000000E+00 
    0.0000000000000000E+00     5.6250000000164757E-01     0.0000000000000000E+00 
    0.0000000000000000E+00     5.0000000000205946E-01     0.0000000000000000E+00 
    0.0000000000000000E+00     4.3750000000182099E-01     0.0000000000000000E+00 
    0.0000000000000000E+00     3.7500000000156092E-01     0.0000000000000000E+00 
    0.0000000000000000E+00     3.1250000000130068E-01     0.0000000000000000E+00 
    0.0000000000000000E+00     2.5000000000104050E-01     0.0000000000000000E+00 
    0.0000000000000000E+00     1.8750000000078040E-01     0.0000000000000000E+00 
    0.0000000000000000E+00     1.2500000000052031E-01     0.0000000000000000E+00 
    0.0000000000000000E+00     6.2500000000260125E-02     0.0000000000000000E+00 
    6.2499999999897131E-02     6.2500000000235922E-02     0.0000000000000000E+00 
    6.2499999999921327E-02     1.2500000000047351E-01     0.0000000000000000E+00 
    6.2499999999945530E-02     1.8750000000070621E-01     0.0000000000000000E+00 
    6.2499999999969733E-02     2.5000000000093858E-01     0.0000000000000000E+00 
    6.2499999999993928E-02     3.1250000000117117E-01     0.0000000000000000E+00 
    6.2500000000018124E-02     3.7500000000140382E-01     0.0000000000000000E+00 
    6.2500000000042327E-02     4.3750000000163619E-01     0.0000000000000000E+00 
    6.2500000000066530E-02     5.0000000000184897E-01     0.0000000000000000E+00 
    6.2500000000090733E-02     5.6250000000147260E-01     0.0000000000000000E+00 
    6.2500000000114922E-02     6.2500000000107636E-01     0.0000000000000000E+00 
    6.2500000000139125E-02     6.8750000000068034E-01     0.0000000000000000E+00 
    6.2500000000163328E-02     7.5000000000028411E-01     0.0000000000000000E+00 
    6.2500000000187531E-02     8.1249999999988787E-01     0.0000000000000000E+00 
    6.2500000000211720E-02     8.7499999999951172E-01     0.0000000000000000E+00 
    6.2500000000235922E-02     9.3749999999974565E-01     0.0000000000000000E+00 
    1.2499999999981980E-01     6.2500000000211733E-02     0.0000000000000000E+00 
    1.2499999999986650E-01     1.2500000000042691E-01     0.0000000000000000E+00 
    1.2499999999991319E-01     1.8750000000063199E-01     0.0000000000000000E+00 
    1.2499999999995989E-01     2.5000000000083678E-01     0.0000000000000000E+00 
    1.2500000000000661E-01     3.1250000000104172E-01     0.0000000000000000E+00 
    1.2500000000005329E-01     3.7500000000124661E-01     0.0000000000000000E+00 
    1.2500000000010000E-01     4.3750000000145117E-01     0.0000000000000000E+00 
    1.2500000000014669E-01     5.0000000000163858E-01     0.0000000000000000E+00 
    1.2500000000019340E-01     5.6250000000129741E-01     0.0000000000000000E+00 
    1.2500000000024011E-01     6.2500000000093847E-01     0.0000000000000000E+00 
    1.2500000000028680E-01     6.8750000000057998E-01     0.0000000000000000E+00 
    1.2500000000033351E-01     7.5000000000022127E-01     0.0000000000000000E+00 
    1.2500000000038020E-01     8.1249999999986211E-01     0.0000000000000000E+00 
    1.2500000000042691E-01     8.7499999999952238E-01     0.0000000000000000E+00 
    1.2500000000047359E-01     9.3749999999975164E-01     0.0000000000000000E+00 
    1.8749999999966760E-01     6.2500000000187531E-02     0.0000000000000000E+00 
    1.8749999999974179E-01     1.2500000000038020E-01     0.0000000000000000E+00 
    1.8749999999981601E-01     1.8750000000055780E-01     0.0000000000000000E+00 
    1.8749999999989009E-01     2.5000000000073502E-01     0.0000000000000000E+00 
    1.8749999999996431E-01     3.1250000000091221E-01     0.0000000000000000E+00 
    1.8750000000003850E-01     3.7500000000108941E-01     0.0000000000000000E+00 
    1.8750000000011269E-01     4.3750000000126649E-01     0.0000000000000000E+00 
    1.8750000000018691E-01     5.0000000000142808E-01     0.0000000000000000E+00 
    1.8750000000026110E-01     5.6250000000112244E-01     0.0000000000000000E+00 
    1.8750000000033529E-01     6.2500000000080080E-01     0.0000000000000000E+00 
    1.8750000000040951E-01     6.8750000000047962E-01     0.0000000000000000E+00 
    1.8750000000048361E-01     7.5000000000015843E-01     0.0000000000000000E+00 
    1.8750000000055780E-01     8.1249999999983680E-01     0.0000000000000000E+00 
    1.8750000000063199E-01     8.7499999999953304E-01     0.0000000000000000E+00 
    1.8750000000070621E-01     9.3749999999975764E-01     0.0000000000000000E+00 
    2.4999999999951281E-01     6.2500000000163314E-02     0.0000000000000000E+00 
    2.4999999999961461E-01     1.2500000000033351E-01     0.0000000000000000E+00 
    2.4999999999971650E-01     1.8750000000048361E-01     0.0000000000000000E+00 
    2.4999999999981831E-01     2.5000000000063310E-01     0.0000000000000000E+00 
    2.4999999999992020E-01     3.1250000000078260E-01     0.0000000000000000E+00 
    2.5000000000002198E-01     3.7500000000093209E-01     0.0000000000000000E+00 
    2.5000000000012390E-01     4.3750000000108180E-01     0.0000000000000000E+00 
    2.5000000000022571E-01     5.0000000000121769E-01     0.0000000000000000E+00 
    2.5000000000032763E-01     5.6250000000094724E-01     0.0000000000000000E+00 
    2.5000000000042938E-01     6.2500000000066314E-01     0.0000000000000000E+00 
    2.5000000000053119E-01     6.8750000000037925E-01     0.0000000000000000E+00 
[...]
CELL_DATA 256 
SCALARS Pressure double 1 
LOOKUP_TABLE default 

    1.5572068618300134E+00 
    1.3225553041302232E+00 
    1.1880288072657785E+00 
    1.0791325541646550E+00 
    9.7842886023677389E-01 
    8.8037935825124758E-01 
    7.8301717527438142E-01 
    6.8571493584551557E-01 
    5.8831628208732911E-01 
    4.9071504201608757E-01 
    4.0059515716504157E-01 
    3.4601766523432559E-01 
    3.0896092231457178E-01 
    2.7967109546770808E-01 
    2.6077287552915884E-01 
    2.5312242140976882E-01 
    1.4854845682848015E+00 
    1.3265923012456793E+00 
    1.1968680290161469E+00 
    1.0882520220619794E+00 
    9.8758366980941137E-01 
    8.8957488504075966E-01 
    7.9223847827017169E-01 
    6.9492007538727518E-01 
    5.9743585605416150E-01 
    4.9948355262488381E-01 
    4.0741126665733873E-01 
    3.5027109252325517E-01 
    3.1173817507848589E-01 
    2.8121450333216347E-01 
    2.6112613174742388E-01 
    2.5277862391033790E-01 
    1.4295974874599495E+00 
    1.3197604459045977E+00 
    1.2019707715941430E+00 
    1.0958327755789818E+00 
    9.9589128844960972E-01 
    8.9817434994937995E-01 
    8.0094920017402005E-01 
    7.0361653317828710E-01 
    6.0599153659977756E-01 
    5.0768282027003331E-01 
    4.1390130748055359E-01 
    3.5438109633333398E-01 
    3.1410361614087340E-01 
    2.8198517403561024E-01 
    2.6050003751579859E-01 
    2.5154178147998418E-01 
    1.3854627513112059E+00 
    1.3076158157033135E+00 
    1.2036451045150907E+00 
    1.1017848394302083E+00 
    1.0033017926495245E+00 
    9.0616311213628087E-01 
    8.0915482645407610E-01 
    7.1182547366724669E-01 
    6.1402023680119633E-01 
    5.1530993466710096E-01 
    4.2011983829595911E-01 
    3.5841191568872743E-01 
    3.1613691430591184E-01 
    2.8202685339873312E-01 
    2.5883872518904910E-01 
    2.4924157491120907E-01 
    1.3501896034169802E+00 
    1.2933702193019849E+00 
    1.2026548971038264E+00 
    1.1061866808385619E+00 
    1.0098134611277851E+00 
    9.1354363188500032E-01 
    8.1686808572898517E-01 
    7.1957030188801552E-01 
    6.2155620483810126E-01 
    5.2238400868902557E-01 
    4.2613502895362215E-01 
    3.6244865587858749E-01 
    3.1793080954166003E-01 
    2.8138872032268958E-01 
    2.5608065431338423E-01 
    2.4569854288148149E-01 
    1.3217550908799718E+00 
    1.2788593865664670E+00 
    1.1998380012378602E+00 
    1.1092447800660383E+00 
    1.0154767791580199E+00 
    9.2033888753362680E-01 
    8.2411054403101269E-01 
    7.2687800951084103E-01 
    6.2863396922554815E-01 
    5.2892405853508218E-01 
    4.3204175011275814E-01 
    3.6660216470709728E-01 
    3.1959508734660014E-01 
    2.8013400855047726E-01 
    2.5216186232402543E-01 
    2.4071124318181519E-01 
    1.2987234996754631E+00 
    1.2651081750496576E+00 
    1.1959489058049271E+00 
    1.1112398589512178E+00 
    1.0203892425188019E+00 
    9.2659365035675156E-01 
    8.3091362103058353E-01 
    7.3377973933384921E-01 
    6.3529056292614994E-01 
    5.3494549131615066E-01 
    4.3796801446612538E-01 
    3.7100432581542925E-01 
    3.2125507721244723E-01 
    2.7834963835382182E-01 
    2.4702179900720325E-01 
    2.3404183329316960E-01 
    1.2800593225332124E+00 
    1.2526663063734076E+00 
    1.1916091988514497E+00 
    1.1124824118066856E+00 
    1.0246851835287316E+00 
    9.3237365531652661E-01 
    8.3731894875539481E-01 
    7.4031057890715402E-01 
    6.4156725160946937E-01 
    5.4046837334166486E-01 
    4.4406984225194096E-01 
    3.7580022872529306E-01 
    3.2304887177392616E-01 
    2.7615766583305790E-01 
    2.4061377748606758E-01 
    2.2539831728526022E-01 
    1.2650020795619175E+00 
    1.2418077773060441E+00 
    1.1873067037321410E+00 
    1.1132825654428056E+00 
    1.0285244422964226E+00 
    9.3776322924906841E-01 
    8.4337813601102318E-01 
    7.4650841966301817E-01 
    6.4750777552265770E-01 
    5.4555643757990857E-01 
    4.5051401249151696E-01 
    3.8113276941487878E-01 
    3.2512406964521123E-01 
    2.7372936570354384E-01 
    2.3292343345008237E-01 
    2.1441115464799843E-01 
    1.2529812966301770E+00 
    1.2326489249521442E+00 
    1.1834137278250507E+00 
    1.1139327328797750E+00 
    1.0320823092773257E+00 
    9.4286209251042552E-01 
    8.4915213441610904E-01 
    7.5241226555956831E-01 
    6.5314620525146561E-01 
    5.5038635255884194E-01 
    4.5744744214596056E-01 
    3.8711318079425827E-01 
    3.2763371531922592E-01 
    2.7130209152868856E-01 
    2.2400081299145710E-01 
    2.0060096453196055E-01 
    1.2435573347632718E+00 
    1.2252177079772042E+00 
    1.1802102117181446E+00 
    1.1146996727192497E+00 
    1.0355418974543742E+00 
    9.4778193531683641E-01 
    8.5471033500241289E-01 
    7.5806165110427792E-01 
    6.5847705572201898E-01 
    5.5533969581822418E-01 
    4.6496717872759996E-01 
    3.9377482749828091E-01 
    3.3073189922056884E-01 
    2.6919757843015019E-01 
    2.1401539426801144E-01 
    1.8333247251593029E-01 
    1.2363782570669493E+00 
    1.2194931997590379E+00 
    1.1779051641634184E+00 
    1.1158224481895331E+00 
    1.0390891835693932E+00 
    9.5264308076120330E-01 
    8.6012900224641153E-01 
    7.6349880127053760E-01 
    6.6343357326111740E-01 
    5.6100571507623931E-01 
    4.7312278944407848E-01 
    4.0102407144683877E-01 
    3.3456342996757993E-01 
    2.6783690449628789E-01 
    2.0334947384474031E-01 
    1.6174728667624580E-01 
    1.2311447321633788E+00 
    1.2154251289400317E+00 
    1.1766525697316736E+00 
    1.1175126742786290E+00 
    1.0429100361772650E+00 
    9.5757087806441188E-01 
    8.6548809431879259E-01 
    7.6876331964057543E-01 
    6.6806804216220206E-01 
    5.6795347670106844E-01 
    4.8194429316449827E-01 
    4.0866245454544875E-01 
    3.3924158145220190E-01 
    2.6774079420098612E-01 
    1.9275561411538519E-01 
    1.3466398744246891E-01 
    1.2275706987192521E+00 
    1.2129319399391372E+00 
    1.1765541617571356E+00 
    1.1199501358731037E+00 
    1.0471855839033881E+00 
    9.6268780838680101E-01 
    8.7086565256800996E-01 
    7.7381251628047643E-01 
    6.7330740797733912E-01 
    5.7636388749311429E-01 
    4.9128865222748730E-01 
    4.1649483718434954E-01 
    3.4481867137233452E-01 
    2.6949230091128484E-01 
    1.8362116080567240E-01 
    1.0042744787276868E-01 
    1.2253316140536519E+00 
    1.2118664059809829E+00 
    1.1776319205792019E+00 
    1.1232570192054359E+00 
    1.0520706714833510E+00 
    9.6807933523531520E-01 
    8.7622131995427477E-01 
    7.7962172629439208E-01 
    6.8065955015123514E-01 
    5.8573352572289172E-01 
    5.0064667988659850E-01 
    4.2438013582543371E-01 
    3.5125290483478050E-01 
    2.7361603202808149E-01 
    1.7841198865673599E-01 
    5.6678747706988157E-02 
    1.2247637523915107E+00 
    1.2125287686501753E+00 
    1.1802064516697486E+00 
    1.1278167699522790E+00 
    1.0581325173760538E+00 
    9.7482280205149319E-01 
    8.8329315018995602E-01 
    7.8765537193311230E-01 
    6.8979114485187398E-01 
    5.9525051702480059E-01 
    5.0951305743325492E-01 
    4.3218482967324684E-01 
    3.5838297133544156E-01 
    2.8028491626844376E-01 
    1.8141673942712128E-01 
    0.0000000000000000E+00 

SCALARS Saturarion double 1 
LOOKUP_TABLE default 

    1.0000000000000000E+00 
    9.7841098663074910E-01 
    9.5062703760042999E-01 
    9.2037813407351421E-01 
    8.8973197390983316E-01 
    8.5892676918237498E-01 
    8.2730976046745819E-01 
    7.9307923350048359E-01 
    7.5128825875625393E-01 
    6.8430503874858029E-01 
    4.8694175909535120E-01 
    6.3829018741996091E-02 
    6.5151013435746981E-05 
    1.0859154182848651E-12 
    1.3956027764913012E-32 
    9.7684683424071820E-84 
    9.9296898348758489E-01 
    9.7515154813670324E-01 
    9.4944208636746985E-01 
    9.2021224452642214E-01 
    8.9007145295173906E-01 
    8.5958961111622734E-01 
    8.2827582356404950E-01 
    7.9449863766313966E-01 
    7.5376162110848977E-01 
    6.9060651353763070E-01 
    5.1599145710657957E-01 
    8.7787250444616105E-02 
    1.6133361724464341E-04 
    1.0557121637416796E-11 
    3.9850183881903758E-30 
    1.0690826861102758E-77 
    9.8718022438067976E-01 
    9.7043113651107393E-01 
    9.4643454380989134E-01 
    9.1852383071857746E-01 
    8.8921326659869571E-01 
    8.5930434373910303E-01 
    8.2846702442428777E-01 
    7.9521223613929726E-01 
    7.5533199452927324E-01 
    6.9448495499747587E-01 
    5.3122713695565216E-01 
    1.0356295113915695E-01 
    2.6193078935444808E-04 
    3.4793148677815095E-11 
    6.7551694529746338E-29 
    7.4612125181117490E-75 
    9.8042317922995081E-01 
    9.6458572385132857E-01 
    9.4200359494112174E-01 
    9.1545644725183584E-01 
    8.8716851669372154E-01 
    8.5802115882520591E-01 
    8.2780397331924271E-01 
    7.9513940214374523E-01 
    7.5601221077705139E-01 
    6.9677436181606200E-01 
    5.4106797677319984E-01 
    1.1523682020752651E-01 
    3.5847981349559606E-04 
    7.2372016495029176E-11 
    3.2211646428872370E-28 
    1.5042165503648557E-73 
    9.7242903491494292E-01 
    9.5760103110112249E-01 
    9.3632642665818822E-01 
    9.1113632795107080E-01 
    8.8398861877627588E-01 
    8.5574829764594917E-01 
    8.2627351325543319E-01 
    7.9426283720642832E-01 
    7.5581584202691243E-01 
    6.9766586636164452E-01 
    5.4547648642045354E-01 
    1.2021495366205646E-01 
    4.0219710869564919E-04 
    8.7993012255224295E-11 
    3.5267309523750057E-28 
    5.1281601301292117E-74 
    9.6301912790803645E-01 
    9.4939611235058063E-01 
    9.2944210430973440E-01 
    9.0562163113935390E-01 
    8.7970114933411070E-01 
    8.5248746232842876E-01 
    8.2386255979769218E-01 
    7.9256127160350665E-01 
    7.5471383417993931E-01 
    6.9710693427612924E-01 
    5.4381731632261721E-01 
    1.1695570498341086E-01 
    3.6210306456273939E-04 
    5.8318917835401470E-11 
    7.1145645506463244E-29 
    1.5008856244371670E-76 
    9.5202753342274238E-01 
    9.3985206070612803E-01 
    9.2130886691496794E-01 
    8.9890740375268208E-01 
    8.7429806257024800E-01 
    8.4821991557713250E-01 
    8.2054414352107596E-01 
    7.8999843069361464E-01 
    7.5264374677474333E-01 
    6.9492019004082362E-01 
    5.3460683487176985E-01 
    1.0470786167631033E-01 
    2.5159654261361808E-04 
    1.8712848094492727E-11 
    1.8540754498525464E-30 
    1.3482453051822849E-81 
    9.3926467167257610E-01 
    9.2880600052875095E-01 
    9.1181874879037983E-01 
    8.9092640019895053E-01 
    8.6772651811628310E-01 
    8.4289596187945937E-01 
    8.1626770960504536E-01 
    7.8651435662425639E-01 
    7.4950329884808964E-01 
    6.9078136785935196E-01 
    5.1537365545207137E-01 
    8.4443065947488877E-02 
    1.2746362678708360E-04 
    2.4234980924567332E-12 
    3.4904342017360615E-33 
    5.3322528371976167E-90 
    9.2447674263159563E-01 
    9.1602717600829786E-01 
    9.0078656891646214E-01 
    8.8153673414158085E-01 
    8.5987271711101021E-01 
    8.3641903440721632E-01 
    8.1094446387744679E-01 
    7.8200877210044639E-01 
    7.4511371072446053E-01 
    6.8398460313629827E-01 
    4.8024812598468514E-01 
    5.7521459531389124E-02 
    3.9113945144531185E-05 
    7.2711224406234293E-14 
    9.4148120510223464E-38 
   5.2354485005294309E-104 
    9.0728025921075428E-01 
    9.0116717237179667E-01 
    8.8791094318067332E-01 
    8.7048696369230227E-01 
    8.5052855288134255E-01 
    8.2861570863394829E-01 
    8.0442004049077587E-01 
    7.7631065584410175E-01 
    7.3917487457407771E-01 
    6.7315428625362050E-01 
    4.2397016498096823E-01 
    3.1287436879509550E-02 
    6.2268372017588433E-06 
    3.0544178791606981E-16 
    6.2051669199618664E-45 
   2.9751246005487827E-126 
    8.8702961968790783E-01 
    8.8365197778187865E-01 
    8.7268096156662855E-01 
    8.5733251257951026E-01 
    8.3931686965503927E-01 
    8.1917170130660200E-01 
    7.9641763684466116E-01 
    7.6911015007357908E-01 
    7.3111959083542877E-01 
    6.5513460320779116E-01 
    3.3751705987657454E-01 
    1.1351829749792474E-02 
    2.8375301233366603E-07 
    3.0249818684025430E-20 
    2.2867448046654092E-57 
   2.3781145065838345E-165 
    8.6248165165889490E-01 
    8.6240660705872751E-01 
    8.5413336695442454E-01 
    8.4121697664273742E-01 
    8.2549862374162231E-01 
    8.0746775252288061E-01 
    7.8639238707142500E-01 
    7.5978657749031475E-01 
    7.1972799549815536E-01 
    6.2165086010084725E-01 
    2.2006939449816218E-01 
    2.0516228248551498E-03 
    1.4512195961402522E-09 
    1.8903287194586673E-27 
    3.3509167197173834E-80 
   4.7613051082468709E-244 
    8.3070200048695642E-01 
    8.3496540797895979E-01 
    8.3006856182918087E-01 
    8.2016627272216414E-01 
    8.0735157594749118E-01 
    7.9204083694993610E-01 
    7.7305668829916774E-01 
    7.4694918537938138E-01 
    7.0217156933900016E-01 
    5.4617471673870011E-01 
    9.0643210606220354E-02 
    8.6537898945288151E-05 
    4.2650676583045124E-14 
    1.8312881300306700E-42 
   1.2902716102904850E-133 
    0.0000000000000000E+00 
    7.8179708046114804E-01 
    7.9321882304285429E-01 
    7.9334335148468815E-01 
    7.8778012449862800E-01 
    7.7925738756761376E-01 
    7.6807102877168798E-01 
    7.5205791542100509E-01 
    7.2613640409080127E-01 
    6.6939058758190628E-01 
    3.4870944628718081E-01 
    7.8483251102687401E-03 
    9.1424728595325396E-09 
    1.2723716893556337E-28 
    3.7975099312150924E-98 
    0.0000000000000000E+00 
    0.0000000000000000E+00 
    6.6210754536035166E-01 
    6.9468283488612870E-01 
    7.0779933700187714E-01 
    7.1207152270124530E-01 
    7.1292721197467090E-01 
    7.1082148889128838E-01 
    7.0034319665104250E-01 
    6.6607106487140344E-01 
    4.2139316551285272E-01 
    1.0380827973149421E-02 
    2.2381879279756022E-09 
    8.0753820464960554E-34 
    5.4128056651367974E-99 
    0.0000000000000000E+00 
    0.0000000000000000E+00 
    0.0000000000000000E+00 
    2.1231060826376189E-01 
    3.6393570828358551E-01 
    4.0258794987617147E-01 
    4.0792099533893617E-01 
    3.9425312261728995E-01 
    3.5078373128949458E-01 
    2.3551621331328232E-01 
    7.5312386064989925E-02 
    7.9089584735320161E-04 
    7.9650195321218749E-13 
    7.6415241504521076E-44 
   8.7809773748424320E-156 
    0.0000000000000000E+00 
    0.0000000000000000E+00 
    0.0000000000000000E+00 
    0.0000000000000000E+00 
