# vtk DataFile Version 2.0
Pressure Field Data 
ASCII 
DATASET UNSTRUCTURED_GRID 

POINTS 289 double 

    0.0000000000000000E+00     0.0000000000000000E+00     0.0000000000000000E+00 
    1.0000000000000000E+00     0.0000000000000000E+00     0.0000000000000000E+00 
    1.0000000000000000E+00     1.0000000000000000E+00     0.0000000000000000E+00 
    0.0000000000000000E+00     1.0000000000000000E+00     0.0000000000000000E+00 
    6.2499999999872928E-02     0.0000000000000000E+00     0.0000000000000000E+00 
    1.2499999999977310E-01     0.0000000000000000E+00     0.0000000000000000E+00 
    1.8749999999959341E-01     0.0000000000000000E+00     0.0000000000000000E+00 
    2.4999999999941089E-01     0.0000000000000000E+00     0.0000000000000000E+00 
    3.1249999999922851E-01     0.0000000000000000E+00     0.0000000000000000E+00 
    3.7499999999904610E-01     0.0000000000000000E+00     0.0000000000000000E+00 
    4.3749999999886358E-01     0.0000000000000000E+00     0.0000000000000000E+00 
    4.9999999999869210E-01     0.0000000000000000E+00     0.0000000000000000E+00 
    5.6249999999884603E-01     0.0000000000000000E+00     0.0000000000000000E+00 
    6.2499999999901090E-01     0.0000000000000000E+00     0.0000000000000000E+00 
    6.8749999999917577E-01     0.0000000000000000E+00     0.0000000000000000E+00 
    7.4999999999934064E-01     0.0000000000000000E+00     0.0000000000000000E+00 
    8.1249999999950551E-01     0.0000000000000000E+00     0.0000000000000000E+00 
    8.7499999999967026E-01     0.0000000000000000E+00     0.0000000000000000E+00 
    9.3749999999983513E-01     0.0000000000000000E+00     0.0000000000000000E+00 
    1.0000000000000000E+00     6.2499999999872928E-02     0.0000000000000000E+00 
    1.0000000000000000E+00     1.2499999999977310E-01     0.0000000000000000E+00 
    1.0000000000000000E+00     1.8749999999959341E-01     0.0000000000000000E+00 
    1.0000000000000000E+00     2.4999999999941089E-01     0.0000000000000000E+00 
    1.0000000000000000E+00     3.1249999999922851E-01     0.0000000000000000E+00 
    1.0000000000000000E+00     3.7499999999904610E-01     0.0000000000000000E+00 
    1.0000000000000000E+00     4.3749999999886358E-01     0.0000000000000000E+00 
    1.0000000000000000E+00     4.9999999999869210E-01     0.0000000000000000E+00 
    1.0000000000000000E+00     5.6249999999884603E-01     0.0000000000000000E+00 
    1.0000000000000000E+00     6.2499999999901090E-01     0.0000000000000000E+00 
    1.0000000000000000E+00     6.8749999999917577E-01     0.0000000000000000E+00 
    1.0000000000000000E+00     7.4999999999934064E-01     0.0000000000000000E+00 
    1.0000000000000000E+00     8.1249999999950551E-01     0.0000000000000000E+00 
    1.0000000000000000E+00     8.7499999999967026E-01     0.0000000000000000E+00 
    1.0000000000000000E+00     9.3749999999983513E-01     0.0000000000000000E+00 
    9.3749999999973976E-01     1.0000000000000000E+00     0.0000000000000000E+00 
    8.7499999999950118E-01     1.0000000000000000E+00     0.0000000000000000E+00 
    8.1249999999991318E-01     1.0000000000000000E+00     0.0000000000000000E+00 
    7.5000000000034706E-01     1.0000000000000000E+00     0.0000000000000000E+00 
    6.8750000000078049E-01     1.0000000000000000E+00     0.0000000000000000E+00 
    6.2500000000121403E-01     1.0000000000000000E+00     0.0000000000000000E+00 
    5.6250000000164757E-01     1.0000000000000000E+00     0.0000000000000000E+00 
    5.0000000000205946E-01     1.0000000000000000E+00     0.0000000000000000E+00 
    4.3750000000182099E-01     1.0000000000000000E+00     0.0000000000000000E+00 
    3.7500000000156092E-01     1.0000000000000000E+00     0.0000000000000000E+00 
    3.1250000000130068E-01     1.0000000000000000E+00     0.0000000000000000E+00 
    2.5000000000104050E-01     1.0000000000000000E+00     0.0000000000000000E+00 
    1.8750000000078040E-01     1.0000000000000000E+00     0.0000000000000000E+00 
    1.2500000000052031E-01     1.0000000000000000E+00     0.0000000000000000E+00 
    6.2500000000260125E-02     1.0000000000000000E+00     0.0000000000000000E+00 
    0.0000000000000000E+00     9.3749999999973976E-01     0.0000000000000000E+00 
    0.0000000000000000E+00     8.7499999999950118E-01     0.0000000000000000E+00 
    0.0000000000000000E+00     8.1249999999991318E-01     0.0000000000000000E+00 
    0.0000000000000000E+00     7.5000000000034706E-01     0.0000000000000000E+00 
    0.0000000000000000E+00     6.8750000000078049E-01     0.0000000000000000E+00 
    0.0000000000000000E+00     6.2500000000121403E-01     0.0000000000000000E+00 
    0.0000000000000000E+00     5.6250000000164757E-01     0.0000000000000000E+00 
    0.0000000000000000E+00     5.0000000000205946E-01     0.0000000000000000E+00 
    0.0000000000000000E+00     4.3750000000182099E-01     0.0000000000000000E+00 
    0.0000000000000000E+00     3.7500000000156092E-01     0.0000000000000000E+00 
    0.0000000000000000E+00     3.1250000000130068E-01     0.0000000000000000E+00 
    0.0000000000000000E+00     2.5000000000104050E-01     0.0000000000000000E+00 
    0.0000000000000000E+00     1.8750000000078040E-01     0.0000000000000000E+00 
    0.0000000000000000E+00     1.2500000000052031E-01     0.0000000000000000E+00 
    0.0000000000000000E+00     6.2500000000260125E-02     0.0000000000000000E+00 
    6.2499999999897131E-02     6.2500000000235922E-02     0.0000000000000000E+00 
    6.2499999999921327E-02     1.2500000000047351E-01     0.0000000000000000E+00 
    6.2499999999945530E-02     1.8750000000070621E-01     0.0000000000000000E+00 
    6.2499999999969733E-02     2.5000000000093858E-01     0.0000000000000000E+00 
    6.2499999999993928E-02     3.1250000000117117E-01     0.0000000000000000E+00 
    6.2500000000018124E-02     3.7500000000140382E-01     0.0000000000000000E+00 
    6.2500000000042327E-02     4.3750000000163619E-01     0.0000000000000000E+00 
    6.2500000000066530E-02     5.0000000000184897E-01     0.0000000000000000E+00 
    6.2500000000090733E-02     5.6250000000147260E-01     0.0000000000000000E+00 
    6.2500000000114922E-02     6.2500000000107636E-01     0.0000000000000000E+00 
    6.2500000000139125E-02     6.8750000000068034E-01     0.0000000000000000E+00 
    6.2500000000163328E-02     7.5000000000028411E-01     0.0000000000000000E+00 
    6.2500000000187531E-02     8.1249999999988787E-01     0.0000000000000000E+00 
    6.2500000000211720E-02     8.7499999999951172E-01     0.0000000000000000E+00 
    6.2500000000235922E-02     9.3749999999974565E-01     0.0000000000000000E+00 
    1.2499999999981980E-01     6.2500000000211733E-02     0.0000000000000000E+00 
    1.2499999999986650E-01     1.2500000000042691E-01     0.0000000000000000E+00 
    1.2499999999991319E-01     1.8750000000063199E-01     0.0000000000000000E+00 
    1.2499999999995989E-01     2.5000000000083678E-01     0.0000000000000000E+00 
    1.2500000000000661E-01     3.1250000000104172E-01     0.0000000000000000E+00 
    1.2500000000005329E-01     3.7500000000124661E-01     0.0000000000000000E+00 
    1.2500000000010000E-01     4.3750000000145117E-01     0.0000000000000000E+00 
    1.2500000000014669E-01     5.0000000000163858E-01     0.0000000000000000E+00 
    1.2500000000019340E-01     5.6250000000129741E-01     0.0000000000000000E+00 
    1.2500000000024011E-01     6.2500000000093847E-01     0.0000000000000000E+00 
    1.2500000000028680E-01     6.8750000000057998E-01     0.0000000000000000E+00 
    1.2500000000033351E-01     7.5000000000022127E-01     0.0000000000000000E+00 
    1.2500000000038020E-01     8.1249999999986211E-01     0.0000000000000000E+00 
    1.2500000000042691E-01     8.7499999999952238E-01     0.0000000000000000E+00 
    1.2500000000047359E-01     9.3749999999975164E-01     0.0000000000000000E+00 
    1.8749999999966760E-01     6.2500000000187531E-02     0.0000000000000000E+00 
    1.8749999999974179E-01     1.2500000000038020E-01     0.0000000000000000E+00 
    1.8749999999981601E-01     1.8750000000055780E-01     0.0000000000000000E+00 
    1.8749999999989009E-01     2.5000000000073502E-01     0.0000000000000000E+00 
    1.8749999999996431E-01     3.1250000000091221E-01     0.0000000000000000E+00 
    1.8750000000003850E-01     3.7500000000108941E-01     0.0000000000000000E+00 
    1.8750000000011269E-01     4.3750000000126649E-01     0.0000000000000000E+00 
    1.8750000000018691E-01     5.0000000000142808E-01     0.0000000000000000E+00 
    1.8750000000026110E-01     5.6250000000112244E-01     0.0000000000000000E+00 
    1.8750000000033529E-01     6.2500000000080080E-01     0.0000000000000000E+00 
    1.8750000000040951E-01     6.8750000000047962E-01     0.0000000000000000E+00 
    1.8750000000048361E-01     7.5000000000015843E-01     0.0000000000000000E+00 
    1.8750000000055780E-01     8.1249999999983680E-01     0.0000000000000000E+00 
    1.8750000000063199E-01     8.7499999999953304E-01     0.0000000000000000E+00 
    1.8750000000070621E-01     9.3749999999975764E-01     0.0000000000000000E+00 
    2.4999999999951281E-01     6.2500000000163314E-02     0.0000000000000000E+00 
    2.4999999999961461E-01     1.2500000000033351E-01     0.0000000000000000E+00 
    2.4999999999971650E-01     1.8750000000048361E-01     0.0000000000000000E+00 
    2.4999999999981831E-01     2.5000000000063310E-01     0.0000000000000000E+00 
    2.4999999999992020E-01     3.1250000000078260E-01     0.0000000000000000E+00 
    2.5000000000002198E-01     3.7500000000093209E-01     0.0000000000000000E+00 
    2.5000000000012390E-01     4.3750000000108180E-01     0.0000000000000000E+00 
    2.5000000000022571E-01     5.0000000000121769E-01     0.0000000000000000E+00 
    2.5000000000032763E-01     5.6250000000094724E-01     0.0000000000000000E+00 
    2.5000000000042938E-01     6.2500000000066314E-01     0.0000000000000000E+00 
    2.5000000000053119E-01     6.8750000000037925E-01     0.0000000000000000E+00 
[...]
CELL_DATA 256 
SCALARS Pressure double 1 
LOOKUP_TABLE default 

    1.3153816881551776E+00 
    1.0599647276663995E+00 
    8.9897714370467330E-01 
    7.9200446953770232E-01 
    7.2652967194868290E-01 
    6.7140139278510202E-01 
    6.1605728003657667E-01 
    5.6107602059223216E-01 
    5.0685795452003146E-01 
    4.5395735253283082E-01 
    4.0334235831674864E-01 
    3.5660545433046603E-01 
    3.1608765698032182E-01 
    2.8466312824577633E-01 
    2.6480826659471324E-01 
    2.5684030662329610E-01 
    1.2375736534847985E+00 
    1.0625149639102969E+00 
    9.0676550359750674E-01 
    7.9977873165855329E-01 
    7.3285406264680775E-01 
    6.7702242735177554E-01 
    6.2155015583713802E-01 
    5.6647557319642960E-01 
    5.1210903635010907E-01 
    4.5895075483771119E-01 
    4.0789833549072158E-01 
    3.6046283992417194E-01 
    3.1893432100963071E-01 
    2.8625234896918555E-01 
    2.6516753908266216E-01 
    2.5648178601875249E-01 
    1.1723944821026433E+00 
    1.0503633815208682E+00 
    9.0866246811056761E-01 
    8.0645869705544371E-01 
    7.3939648566343730E-01 
    6.8273077826734840E-01 
    6.2703194899554249E-01 
    5.7183173268362164E-01 
    5.1728439423087502E-01 
    4.6381103294300291E-01 
    4.1221955768840118E-01 
    3.6392038670542082E-01 
    3.2114767929683935E-01 
    2.8695108171418054E-01 
    2.6448372417103400E-01 
    2.5519189443781415E-01 
    1.1172369413746648E+00 
    1.0297783546486279E+00 
    9.0583401685113052E-01 
    8.1197276203167335E-01 
    7.4590362823775924E-01 
    6.8846241012454079E-01 
    6.3250189011347724E-01 
    5.7715538549808765E-01 
    5.2240514836309215E-01 
    4.6857468778094541E-01 
    4.1636314078399977E-01 
    3.6705494636560210E-01 
    3.2280594157523945E-01 
    2.8679415593461993E-01 
    2.6269385005974094E-01 
    2.5279372135743555E-01 
    1.0697408893889990E+00 
    1.0043136633294178E+00 
    9.0025859807822894E-01 
    8.1653758216706118E-01 
    7.5210729675648169E-01 
    6.9414025592674511E-01 
    6.3794974351448286E-01 
    5.8245493512230795E-01 
    5.2749171759440849E-01 
    4.7327838029434616E-01 
    4.2038830037226654E-01 
    3.6994949904617097E-01 
    3.2399818231671068E-01 
    2.8582618649373726E-01 
    2.5973214088527574E-01 
    2.4910334613545845E-01 
    1.0281421354452560E+00 
    9.7766881412908058E-01 
    8.9405149298806585E-01 
    8.2043673909721426E-01 
    7.5780613293995014E-01 
    6.9969329427932359E-01 
    6.4336052221329187E-01 
    5.8773635566788029E-01 
    5.3256318030772454E-01 
    4.7795802785536484E-01 
    4.2435555702021988E-01 
    3.7269378805420750E-01 
    3.2482866206869049E-01 
    2.8410957559983357E-01 
    2.5553349918401280E-01 
    2.4391728984109354E-01 
    9.9047437639574387E-01 
    9.5364960461277026E-01 
    8.8894552787321923E-01 
    8.2376000620571688E-01 
    7.6293627424407751E-01 
    7.0507130314013722E-01 
    6.4871954387328301E-01 
    5.9300391207093783E-01 
    5.3763681843334266E-01 
    4.8264780318158990E-01 
    4.2832548267255965E-01 
    3.7538413810733362E-01 
    3.2542085775409929E-01 
    2.8173442785278835E-01 
    2.5003953327886896E-01 
    2.3699833742608395E-01 
    9.5990570713830692E-01 
    9.3595594485706868E-01 
    8.8516055333395094E-01 
    8.2640398729045195E-01 
    7.6754553581740437E-01 
    7.1025215437419353E-01 
    6.5401665415676558E-01 
    5.9826118836401565E-01 
    5.4272783812157399E-01 
    4.8737907252774160E-01 
    4.3235694495001015E-01 
    3.7812214833668001E-01 
    3.2592071805000616E-01 
    2.7883094276832149E-01 
    2.4320923125844915E-01 
    2.2805798187259471E-01 
    9.4250081657546048E-01 
    9.2461860051978384E-01 
    8.8222942380046054E-01 
    8.2837260626572362E-01 
    7.7172048975003404E-01 
    7.1523996620310004E-01 
    6.5924878503072981E-01 
    6.0351209447494725E-01 
    5.4784923213320702E-01 
    4.9217932982031626E-01 
    4.3650486141148354E-01 
    3.8101191913652216E-01 
    3.2649829242955114E-01 
    2.7558461719907662E-01 
    2.3503765010606290E-01 
    2.1673318516418741E-01 
    9.3186729912059640E-01 
    9.1672141263617035E-01 
    8.7962767033509670E-01 
    8.2994317347284419E-01 
    7.7556487129265217E-01 
    7.2005960241934297E-01 
    6.6442081713619572E-01 
    6.0876163054597809E-01 
    5.5301174547097876E-01 
    4.9707120812912786E-01 
    4.4081756416625628E-01 
    3.8415550580402957E-01 
    3.2734638877669930E-01 
    2.7225395793045665E-01 
    2.2558815969767607E-01 
    2.0255417785354587E-01 
    9.2396809640252708E-01 
    9.1054293428523259E-01 
    8.7743145283762991E-01 
    8.3136943656654994E-01 
    7.7919621169136066E-01 
    7.2475155276835324E-01 
    6.6954525713641910E-01 
    6.1401632575924847E-01 
    5.5822391836375629E-01 
    5.0207167453819701E-01 
    4.4533399887880526E-01 
    3.8764645349747484E-01 
    3.2867432670822544E-01 
    2.6918894751017514E-01 
    2.1504744219075350E-01 
    1.8489842466909581E-01 
    9.1805528071410281E-01 
    9.0583191538476315E-01 
    8.7584002630268043E-01 
    8.3285892661816263E-01 
    7.8273510531032409E-01 
    7.2936715925518980E-01 
    6.7464120181523235E-01 
    6.1928436530055686E-01 
    5.6349219562593911E-01 
    5.0719152835567261E-01 
    4.5008112982063458E-01 
    3.9156164088872963E-01 
    3.3069432329060872E-01 
    2.6684542481546419E-01 
    2.0381859194254612E-01 
    1.6292332396901410E-01 
    9.1385169808303279E-01 
    9.0251423685434884E-01 
    8.7498529462270047E-01 
    8.3458526324128657E-01 
    7.8629856529287678E-01 
    7.3396430166591242E-01 
    6.7973291502988775E-01 
    6.2457546208945625E-01 
    5.6882109762526489E-01 
    5.1243531131671527E-01 
    4.5507205779838256E-01 
    3.9595233035122035E-01 
    3.3359800153537261E-01 
    2.6578435287016194E-01 
    1.9267797082481131E-01 
    1.3546611762097652E-01 
    9.1112147445764757E-01 
    9.0051301673430184E-01 
    8.7496001384498956E-01 
    8.3669318822202021E-01 
    7.8999665883449754E-01 
    7.3860388103482610E-01 
    6.8484826219376005E-01 
    6.2990054070472579E-01 
    5.7421344252450823E-01 
    5.1780168945002791E-01 
    4.6030540769323480E-01 
    4.0083631149852317E-01 
    3.3752197020417024E-01 
    2.6663292664304961E-01 
    1.8303879125197800E-01 
    1.0089293721525980E-01 
    9.0965320700627728E-01 
    8.9975398499491221E-01 
    8.7583212626491125E-01 
    8.3930479289672344E-01 
    7.9393121058495753E-01 
    7.4334716396904521E-01 
    6.9001717109888439E-01 
    6.3527129486377631E-01 
    5.7967059620113448E-01 
    5.2328427833195945E-01 
    4.6576639876670212E-01 
    4.0619410267023015E-01 
    3.4250663221510602E-01 
    2.6996166288002965E-01 
    1.7739353588210344E-01 
    5.6868380861265784E-02 
    9.0924509002669796E-01 
    9.0016860179317526E-01 
    8.7765593209849579E-01 
    8.4252585428431115E-01 
    7.9819594071773126E-01 
    7.4825390805939374E-01 
    6.9527021346318296E-01 
    6.4069966527602329E-01 
    5.8519271358516600E-01 
    5.2887277828631485E-01 
    4.7142958069779761E-01 
    4.1197241624494368E-01 
    3.4846604386622987E-01 
    2.7598903634599142E-01 
    1.8005643566041335E-01 
    0.0000000000000000E+00 

SCALARS Saturarion double 1 
LOOKUP_TABLE default 

    1.0000000000000000E+00 
    8.8409717280644939E-01 
    7.1657693621999397E-01 
    3.3780010075756173E-01 
    1.6217462934278250E-02 
    5.3960814442854941E-06 
    7.1788598629043621E-14 
    1.7935751494607541E-31 
    8.8403352049846791E-71 
   1.7297211370996329E-158 
    0.0000000000000000E+00 
    0.0000000000000000E+00 
    0.0000000000000000E+00 
    0.0000000000000000E+00 
    0.0000000000000000E+00 
    0.0000000000000000E+00 
    9.5845841016685385E-01 
    8.6878149674709837E-01 
    7.0969593329751768E-01 
    3.2362353682614980E-01 
    1.3207534348843541E-02 
    2.8789110532112947E-06 
    1.2718692337461018E-14 
    1.6646525724555340E-33 
    3.2986223241191246E-76 
   7.1159074275307601E-173 
    0.0000000000000000E+00 
    0.0000000000000000E+00 
    0.0000000000000000E+00 
    0.0000000000000000E+00 
    0.0000000000000000E+00 
    0.0000000000000000E+00 
    9.2811145534069506E-01 
    8.4759156160893601E-01 
    6.8990084359426029E-01 
    2.7010541734392068E-01 
    6.6364740642359827E-03 
    4.6091990010312037E-07 
    1.1446943645666686E-16 
    8.9152322349327501E-39 
    1.0161140632194013E-89 
   2.2057987201569425E-207 
    0.0000000000000000E+00 
    0.0000000000000000E+00 
    0.0000000000000000E+00 
    0.0000000000000000E+00 
    0.0000000000000000E+00 
    0.0000000000000000E+00 
    8.9568679830242726E-01 
    8.2236738166461054E-01 
    6.5337552402240950E-01 
    1.8230827067805710E-01 
    1.6742929110393084E-03 
    1.2266608499364273E-08 
    9.3649615823556853E-21 
    2.9064555784676669E-49 
   1.4285575273986443E-116 
   2.8424676464365473E-278 
    0.0000000000000000E+00 
    0.0000000000000000E+00 
    0.0000000000000000E+00 
    0.0000000000000000E+00 
    0.0000000000000000E+00 
    0.0000000000000000E+00 
    8.5951856102957080E-01 
    7.9199232210247394E-01 
    5.7889837304810077E-01 
    7.8508176872202101E-02 
    1.1059224211321285E-04 
    9.5917043735137117E-12 
    9.4196581114765092E-29 
    1.6832922666678384E-70 
   4.1501722842711409E-179 
    0.0000000000000000E+00 
    0.0000000000000000E+00 
    0.0000000000000000E+00 
    0.0000000000000000E+00 
    0.0000000000000000E+00 
    0.0000000000000000E+00 
    0.0000000000000000E+00 
    8.1666708384200293E-01 
    7.5101875269420015E-01 
    3.7950624770511882E-01 
    1.0518165600992401E-02 
    4.3894629446642605E-07 
    2.7943217860695594E-18 
    1.1391326529565610E-48 
   1.3781065754022824E-132 
    0.0000000000000000E+00 
    0.0000000000000000E+00 
    0.0000000000000000E+00 
    0.0000000000000000E+00 
    0.0000000000000000E+00 
    0.0000000000000000E+00 
    0.0000000000000000E+00 
    0.0000000000000000E+00 
    7.5761158134410034E-01 
    6.6966648879845569E-01 
    1.0230291207615141E-01 
    9.1083297680094437E-05 
    1.1832803384263825E-13 
    4.8067684489356842E-39 
   8.7785132854712717E-110 
   5.0017796209754924E-301 
    0.0000000000000000E+00 
    0.0000000000000000E+00 
    0.0000000000000000E+00 
    0.0000000000000000E+00 
    0.0000000000000000E+00 
    0.0000000000000000E+00 
    0.0000000000000000E+00 
    0.0000000000000000E+00 
    6.2663913707115659E-01 
    2.6975033291450123E-01 
    7.7846078217506053E-04 
    8.9143648783438792E-12 
    1.0384392477936510E-34 
    6.4382641780801405E-99 
   5.0834323161575777E-276 
    0.0000000000000000E+00 
    0.0000000000000000E+00 
    0.0000000000000000E+00 
    0.0000000000000000E+00 
    0.0000000000000000E+00 
    0.0000000000000000E+00 
    0.0000000000000000E+00 
    0.0000000000000000E+00 
    0.0000000000000000E+00 
    1.6958903998773117E-01 
    1.7460810488237951E-03 
    5.2271931645648370E-11 
    8.4900368097204068E-33 
    6.9641284331368347E-94 
   1.1456484844797970E-264 
    0.0000000000000000E+00 
    0.0000000000000000E+00 
    0.0000000000000000E+00 
    0.0000000000000000E+00 
    0.0000000000000000E+00 
    0.0000000000000000E+00 
    0.0000000000000000E+00 
    0.0000000000000000E+00 
    0.0000000000000000E+00 
    0.0000000000000000E+00 
    5.5548821680200162E-04 
    9.7096779533465425E-11 
    5.4131638441387048E-32 
    1.1093976212124951E-91 
   8.8000800647224664E-260 
    0.0000000000000000E+00 
    0.0000000000000000E+00 
    0.0000000000000000E+00 
    0.0000000000000000E+00 
    0.0000000000000000E+00 
    0.0000000000000000E+00 
    0.0000000000000000E+00 
    0.0000000000000000E+00 
    0.0000000000000000E+00 
    0.0000000000000000E+00 
    0.0000000000000000E+00 
    2.5172788536377244E-11 
    1.0794409837586946E-31 
    9.1063136021463483E-91 
   8.4332401518116901E-258 
    0.0000000000000000E+00 
    0.0000000000000000E+00 
    0.0000000000000000E+00 
    0.0000000000000000E+00 
    0.0000000000000000E+00 
    0.0000000000000000E+00 
    0.0000000000000000E+00 
    0.0000000000000000E+00 
    0.0000000000000000E+00 
    0.0000000000000000E+00 
    0.0000000000000000E+00 
    0.0000000000000000E+00 
    6.0605217097602606E-32 
    2.0155859923309375E-90 
   4.6693568864129374E-257 
    0.0000000000000000E+00 
    0.0000000000000000E+00 
    0.0000000000000000E+00 
    0.0000000000000000E+00 
    0.0000000000000000E+00 
    0.0000000000000000E+00 
    0.0000000000000000E+00 
    0.0000000000000000E+00 
    0.0000000000000000E+00 
    0.0000000000000000E+00 
    0.0000000000000000E+00 
    0.0000000000000000E+00 
    0.0000000000000000E+00 
    1.5400105968098319E-90 
   7.4558272842685736E-257 
    0.0000000000000000E+00 
    0.0000000000000000E+00 
    0.0000000000000000E+00 
    0.0000000000000000E+00 
    0.0000000000000000E+00 
    0.0000000000000000E+00 
    0.0000000000000000E+00 
    0.0000000000000000E+00 
    0.0000000000000000E+00 
    0.0000000000000000E+00 
    0.0000000000000000E+00 
    0.0000000000000000E+00 
    0.0000000000000000E+00 
    0.0000000000000000E+00 
   3.0602687322228489E-257 
    0.0000000000000000E+00 
    0.0000000000000000E+00 
    0.0000000000000000E+00 
    0.0000000000000000E+00 
    0.0000000000000000E+00 
    0.0000000000000000E+00 
    0.0000000000000000E+00 
    0.0000000000000000E+00 
    0.0000000000000000E+00 
    0.0000000000000000E+00 
    0.0000000000000000E+00 
    0.0000000000000000E+00 
    0.0000000000000000E+00 
    0.0000000000000000E+00 
    0.0000000000000000E+00 
    0.0000000000000000E+00 
    0.0000000000000000E+00 
    0.0000000000000000E+00 
    0.0000000000000000E+00 
    0.0000000000000000E+00 
    0.0000000000000000E+00 
    0.0000000000000000E+00 
    0.0000000000000000E+00 
    0.0000000000000000E+00 
    0.0000000000000000E+00 
    0.0000000000000000E+00 
    0.0000000000000000E+00 
    0.0000000000000000E+00 
    0.0000000000000000E+00 
    0.0000000000000000E+00 
    0.0000000000000000E+00 
    0.0000000000000000E+00 
    0.0000000000000000E+00 
    0.0000000000000000E+00 
    0.0000000000000000E+00 
    0.0000000000000000E+00 
    0.0000000000000000E+00 
    0.0000000000000000E+00 
    0.0000000000000000E+00 
    0.0000000000000000E+00 
    0.0000000000000000E+00 
    0.0000000000000000E+00 
    0.0000000000000000E+00 
    0.0000000000000000E+00 
    0.0000000000000000E+00 
    0.0000000000000000E+00 
    0.0000000000000000E+00 
