# vtk DataFile Version 2.0
Pressure Field Data 
ASCII 
DATASET UNSTRUCTURED_GRID 

POINTS 289 double 

    0.0000000000000000E+00     0.0000000000000000E+00     0.0000000000000000E+00 
    1.0000000000000000E+00     0.0000000000000000E+00     0.0000000000000000E+00 
    1.0000000000000000E+00     1.0000000000000000E+00     0.0000000000000000E+00 
    0.0000000000000000E+00     1.0000000000000000E+00     0.0000000000000000E+00 
    6.2499999999872928E-02     0.0000000000000000E+00     0.0000000000000000E+00 
    1.2499999999977310E-01     0.0000000000000000E+00     0.0000000000000000E+00 
    1.8749999999959341E-01     0.0000000000000000E+00     0.0000000000000000E+00 
    2.4999999999941089E-01     0.0000000000000000E+00     0.0000000000000000E+00 
    3.1249999999922851E-01     0.0000000000000000E+00     0.0000000000000000E+00 
    3.7499999999904610E-01     0.0000000000000000E+00     0.0000000000000000E+00 
    4.3749999999886358E-01     0.0000000000000000E+00     0.0000000000000000E+00 
    4.9999999999869210E-01     0.0000000000000000E+00     0.0000000000000000E+00 
    5.6249999999884603E-01     0.0000000000000000E+00     0.0000000000000000E+00 
    6.2499999999901090E-01     0.0000000000000000E+00     0.0000000000000000E+00 
    6.8749999999917577E-01     0.0000000000000000E+00     0.0000000000000000E+00 
    7.4999999999934064E-01     0.0000000000000000E+00     0.0000000000000000E+00 
    8.1249999999950551E-01     0.0000000000000000E+00     0.0000000000000000E+00 
    8.7499999999967026E-01     0.0000000000000000E+00     0.0000000000000000E+00 
    9.3749999999983513E-01     0.0000000000000000E+00     0.0000000000000000E+00 
    1.0000000000000000E+00     6.2499999999872928E-02     0.0000000000000000E+00 
    1.0000000000000000E+00     1.2499999999977310E-01     0.0000000000000000E+00 
    1.0000000000000000E+00     1.8749999999959341E-01     0.0000000000000000E+00 
    1.0000000000000000E+00     2.4999999999941089E-01     0.0000000000000000E+00 
    1.0000000000000000E+00     3.1249999999922851E-01     0.0000000000000000E+00 
    1.0000000000000000E+00     3.7499999999904610E-01     0.0000000000000000E+00 
    1.0000000000000000E+00     4.3749999999886358E-01     0.0000000000000000E+00 
    1.0000000000000000E+00     4.9999999999869210E-01     0.0000000000000000E+00 
    1.0000000000000000E+00     5.6249999999884603E-01     0.0000000000000000E+00 
    1.0000000000000000E+00     6.2499999999901090E-01     0.0000000000000000E+00 
    1.0000000000000000E+00     6.8749999999917577E-01     0.0000000000000000E+00 
    1.0000000000000000E+00     7.4999999999934064E-01     0.0000000000000000E+00 
    1.0000000000000000E+00     8.1249999999950551E-01     0.0000000000000000E+00 
    1.0000000000000000E+00     8.7499999999967026E-01     0.0000000000000000E+00 
    1.0000000000000000E+00     9.3749999999983513E-01     0.0000000000000000E+00 
    9.3749999999973976E-01     1.0000000000000000E+00     0.0000000000000000E+00 
    8.7499999999950118E-01     1.0000000000000000E+00     0.0000000000000000E+00 
    8.1249999999991318E-01     1.0000000000000000E+00     0.0000000000000000E+00 
    7.5000000000034706E-01     1.0000000000000000E+00     0.0000000000000000E+00 
    6.8750000000078049E-01     1.0000000000000000E+00     0.0000000000000000E+00 
    6.2500000000121403E-01     1.0000000000000000E+00     0.0000000000000000E+00 
    5.6250000000164757E-01     1.0000000000000000E+00     0.0000000000000000E+00 
    5.0000000000205946E-01     1.0000000000000000E+00     0.0000000000000000E+00 
    4.3750000000182099E-01     1.0000000000000000E+00     0.0000000000000000E+00 
    3.7500000000156092E-01     1.0000000000000000E+00     0.0000000000000000E+00 
    3.1250000000130068E-01     1.0000000000000000E+00     0.0000000000000000E+00 
    2.5000000000104050E-01     1.0000000000000000E+00     0.0000000000000000E+00 
    1.8750000000078040E-01     1.0000000000000000E+00     0.0000000000000000E+00 
    1.2500000000052031E-01     1.0000000000000000E+00     0.0000000000000000E+00 
    6.2500000000260125E-02     1.0000000000000000E+00     0.0000000000000000E+00 
    0.0000000000000000E+00     9.3749999999973976E-01     0.0000000000000000E+00 
    0.0000000000000000E+00     8.7499999999950118E-01     0.0000000000000000E+00 
    0.0000000000000000E+00     8.1249999999991318E-01     0.0000000000000000E+00 
    0.0000000000000000E+00     7.5000000000034706E-01     0.0000000000000000E+00 
    0.0000000000000000E+00     6.8750000000078049E-01     0.0000000000000000E+00 
    0.0000000000000000E+00     6.2500000000121403E-01     0.0000000000000000E+00 
    0.0000000000000000E+00     5.6250000000164757E-01     0.0000000000000000E+00 
    0.0000000000000000E+00     5.0000000000205946E-01     0.0000000000000000E+00 
    0.0000000000000000E+00     4.3750000000182099E-01     0.0000000000000000E+00 
    0.0000000000000000E+00     3.7500000000156092E-01     0.0000000000000000E+00 
    0.0000000000000000E+00     3.1250000000130068E-01     0.0000000000000000E+00 
    0.0000000000000000E+00     2.5000000000104050E-01     0.0000000000000000E+00 
    0.0000000000000000E+00     1.8750000000078040E-01     0.0000000000000000E+00 
    0.0000000000000000E+00     1.2500000000052031E-01     0.0000000000000000E+00 
    0.0000000000000000E+00     6.2500000000260125E-02     0.0000000000000000E+00 
    6.2499999999897131E-02     6.2500000000235922E-02     0.0000000000000000E+00 
    6.2499999999921327E-02     1.2500000000047351E-01     0.0000000000000000E+00 
    6.2499999999945530E-02     1.8750000000070621E-01     0.0000000000000000E+00 
    6.2499999999969733E-02     2.5000000000093858E-01     0.0000000000000000E+00 
    6.2499999999993928E-02     3.1250000000117117E-01     0.0000000000000000E+00 
    6.2500000000018124E-02     3.7500000000140382E-01     0.0000000000000000E+00 
    6.2500000000042327E-02     4.3750000000163619E-01     0.0000000000000000E+00 
    6.2500000000066530E-02     5.0000000000184897E-01     0.0000000000000000E+00 
    6.2500000000090733E-02     5.6250000000147260E-01     0.0000000000000000E+00 
    6.2500000000114922E-02     6.2500000000107636E-01     0.0000000000000000E+00 
    6.2500000000139125E-02     6.8750000000068034E-01     0.0000000000000000E+00 
    6.2500000000163328E-02     7.5000000000028411E-01     0.0000000000000000E+00 
    6.2500000000187531E-02     8.1249999999988787E-01     0.0000000000000000E+00 
    6.2500000000211720E-02     8.7499999999951172E-01     0.0000000000000000E+00 
    6.2500000000235922E-02     9.3749999999974565E-01     0.0000000000000000E+00 
    1.2499999999981980E-01     6.2500000000211733E-02     0.0000000000000000E+00 
    1.2499999999986650E-01     1.2500000000042691E-01     0.0000000000000000E+00 
    1.2499999999991319E-01     1.8750000000063199E-01     0.0000000000000000E+00 
    1.2499999999995989E-01     2.5000000000083678E-01     0.0000000000000000E+00 
    1.2500000000000661E-01     3.1250000000104172E-01     0.0000000000000000E+00 
    1.2500000000005329E-01     3.7500000000124661E-01     0.0000000000000000E+00 
    1.2500000000010000E-01     4.3750000000145117E-01     0.0000000000000000E+00 
    1.2500000000014669E-01     5.0000000000163858E-01     0.0000000000000000E+00 
    1.2500000000019340E-01     5.6250000000129741E-01     0.0000000000000000E+00 
    1.2500000000024011E-01     6.2500000000093847E-01     0.0000000000000000E+00 
    1.2500000000028680E-01     6.8750000000057998E-01     0.0000000000000000E+00 
    1.2500000000033351E-01     7.5000000000022127E-01     0.0000000000000000E+00 
    1.2500000000038020E-01     8.1249999999986211E-01     0.0000000000000000E+00 
    1.2500000000042691E-01     8.7499999999952238E-01     0.0000000000000000E+00 
    1.2500000000047359E-01     9.3749999999975164E-01     0.0000000000000000E+00 
    1.8749999999966760E-01     6.2500000000187531E-02     0.0000000000000000E+00 
    1.8749999999974179E-01     1.2500000000038020E-01     0.0000000000000000E+00 
    1.8749999999981601E-01     1.8750000000055780E-01     0.0000000000000000E+00 
    1.8749999999989009E-01     2.5000000000073502E-01     0.0000000000000000E+00 
    1.8749999999996431E-01     3.1250000000091221E-01     0.0000000000000000E+00 
    1.8750000000003850E-01     3.7500000000108941E-01     0.0000000000000000E+00 
    1.8750000000011269E-01     4.3750000000126649E-01     0.0000000000000000E+00 
    1.8750000000018691E-01     5.0000000000142808E-01     0.0000000000000000E+00 
    1.8750000000026110E-01     5.6250000000112244E-01     0.0000000000000000E+00 
    1.8750000000033529E-01     6.2500000000080080E-01     0.0000000000000000E+00 
    1.8750000000040951E-01     6.8750000000047962E-01     0.0000000000000000E+00 
    1.8750000000048361E-01     7.5000000000015843E-01     0.0000000000000000E+00 
    1.8750000000055780E-01     8.1249999999983680E-01     0.0000000000000000E+00 
    1.8750000000063199E-01     8.7499999999953304E-01     0.0000000000000000E+00 
    1.8750000000070621E-01     9.3749999999975764E-01     0.0000000000000000E+00 
    2.4999999999951281E-01     6.2500000000163314E-02     0.0000000000000000E+00 
    2.4999999999961461E-01     1.2500000000033351E-01     0.0000000000000000E+00 
    2.4999999999971650E-01     1.8750000000048361E-01     0.0000000000000000E+00 
    2.4999999999981831E-01     2.5000000000063310E-01     0.0000000000000000E+00 
    2.4999999999992020E-01     3.1250000000078260E-01     0.0000000000000000E+00 
    2.5000000000002198E-01     3.7500000000093209E-01     0.0000000000000000E+00 
    2.5000000000012390E-01     4.3750000000108180E-01     0.0000000000000000E+00 
    2.5000000000022571E-01     5.0000000000121769E-01     0.0000000000000000E+00 
    2.5000000000032763E-01     5.6250000000094724E-01     0.0000000000000000E+00 
    2.5000000000042938E-01     6.2500000000066314E-01     0.0000000000000000E+00 
    2.5000000000053119E-01     6.8750000000037925E-01     0.0000000000000000E+00 
[...]
CELL_DATA 256 
SCALARS Pressure double 1 
LOOKUP_TABLE default 

    1.9782951359806045E+00 
    1.7457560797412324E+00 
    1.6141961333070323E+00 
    1.5086337062150637E+00 
    1.4112900856801858E+00 
    1.3162666435201777E+00 
    1.2212639059057431E+00 
    1.1254556525535526E+00 
    1.0288386421884261E+00 
    9.3209695508750512E-01 
    8.3670869027467365E-01 
    7.4511255114206920E-01 
    6.6058630637123028E-01 
    5.8699068269313115E-01 
    5.4135718644627751E-01 
    5.2812260423772939E-01 
    1.9069191139806418E+00 
    1.7497657781644764E+00 
    1.6228994607997063E+00 
    1.5175997859897310E+00 
    1.4203259490974920E+00 
    1.3254191378590972E+00 
    1.2305469099252999E+00 
    1.1348326251392153E+00 
    1.0382114334516241E+00 
    9.4128239210485765E-01 
    8.4541150726827397E-01 
    7.5292561012104553E-01 
    6.6705557360803835E-01 
    5.9148344714857171E-01 
    5.4251099281820359E-01 
    5.2765561181208487E-01 
    1.8515263045432004E+00 
    1.7431222548541676E+00 
    1.6280443032888374E+00 
    1.5252016781796789E+00 
    1.4287048439563641E+00 
    1.3341903657897842E+00 
    1.2395625854128467E+00 
    1.1439755201708397E+00 
    1.0473247341942358E+00 
    9.5011820882691267E-01 
    8.5358519662659560E-01 
    7.5990989139462162E-01 
    6.7229210937068151E-01 
    5.9451578334439470E-01 
    5.4190699687970822E-01 
    5.2577077954314488E-01 
    1.8079648441528071E+00 
    1.7313221888916737E+00 
    1.6299214799582291E+00 
    1.5313377367819161E+00 
    1.4363660537373837E+00 
    1.3425562281555794E+00 
    1.2483088437072691E+00 
    1.1529000416223907E+00 
    1.0562150151414385E+00 
    9.5866921558179796E-01 
    8.6133032708491974E-01 
    7.6619706799952791E-01 
    6.7641331361981860E-01 
    5.9602160676442628E-01 
    5.3944544647828285E-01 
    5.2216062063437751E-01 
    1.7733205653056896E+00 
    1.7175376712971959E+00 
    1.6292708434369241E+00 
    1.5360700887801075E+00 
    1.4432943378720555E+00 
    1.3505082710755674E+00 
    1.2567904383961590E+00 
    1.1616253421515668E+00 
    1.0649208296556008E+00 
    9.6700270543788469E-01 
    8.6875311486333684E-01 
    7.7193063592270650E-01 
    6.7955561840289846E-01 
    5.9598025461785120E-01 
    5.3499560529080603E-01 
    5.1649373731971582E-01 
    1.7455511923811295E+00 
    1.7035719744798288E+00 
    1.6269037764820253E+00 
    1.5395850556119661E+00 
    1.4495238288131760E+00 
    1.3580568313992567E+00 
    1.2650201131125673E+00 
    1.1701740795755451E+00 
    1.0734821309847182E+00 
    9.7518729678283300E-01 
    8.7596482294584566E-01 
    7.7726913487739224E-01 
    6.8188572151972970E-01 
    5.9442227136299119E-01 
    5.2840325462629589E-01 
    5.0837420487669249E-01 
    1.7232031539139907E+00 
    1.6904214362421435E+00 
    1.6235472394185002E+00 
    1.5421400875107358E+00 
    1.4551327988382772E+00 
    1.3652321227297113E+00 
    1.2730193747890388E+00 
    1.1785724232756560E+00 
    1.0819395127458686E+00 
    9.8329139537865529E-01 
    8.8308010792671510E-01 
    7.8238751301459919E-01 
    6.8361078041721035E-01 
    5.9144119534452488E-01 
    5.1948575979495082E-01 
    4.9728323002597513E-01 
    1.7052240882111673E+00 
    1.6786096361056091E+00 
    1.6197947289330878E+00 
    1.5440197183228488E+00 
    1.4602334096776535E+00 
    1.3720832591404715E+00 
    1.2808187455094235E+00 
    1.1868499898885094E+00 
    1.0903334341752617E+00 
    9.9138135672775729E-01 
    8.9021422456618171E-01 
    7.8747616755717564E-01 
    6.8498751518699530E-01 
    5.8721239894191524E-01 
    5.0803172420247322E-01 
    4.8249696207286380E-01 
    1.6908379372697329E+00 
    1.6683861277167025E+00 
    1.6161056157290923E+00 
    1.5455056258305480E+00 
    1.4649602005034115E+00 
    1.3786757515429919E+00 
    1.2884574779154483E+00 
    1.1950397024092927E+00 
    1.0987034956374564E+00 
    9.9951947003221109E-01 
    8.9747906854849702E-01 
    7.9273695502401686E-01 
    6.8632907879803995E-01 
    5.8202438752377472E-01 
    4.9382209994955906E-01 
    4.6297473174134895E-01 
    1.6794606443477036E+00 
    1.6598443698785481E+00 
    1.6128235737545975E+00 
    1.5468593467343317E+00 
    1.4694596873983825E+00 
    1.3850881926710534E+00 
    1.2959828407152973E+00 
    1.2031776059349644E+00 
    1.1070878592038633E+00 
    1.0077619661398709E+00 
    9.0497821013002366E-01 
    7.9837536667928299E-01 
    6.8800672256135564E-01 
    5.7632443743261630E-01 
    4.7670508462428374E-01 
    4.3723396505337930E-01 
    1.6706422000287491E+00 
    1.6529913593187806E+00 
    1.6102000996140744E+00 
    1.5483143771476378E+00 
    1.4738821785688230E+00 
    1.3914087756278186E+00 
    1.3034491506645407E+00 
    1.2113027118233348E+00 
    1.1155229415373620E+00 
    1.0161573463789921E+00 
    9.1280135277608865E-01 
    8.0458831134979936E-01 
    6.9044131652285368E-01 
    5.7077282237552573E-01 
    4.5677341831916157E-01 
    4.0327845372499271E-01 
    1.6640256496685193E+00 
    1.6477882549065066E+00 
    1.6084168793813738E+00 
    1.5500743997875985E+00 
    1.4783760047954193E+00 
    1.3977320839444318E+00 
    1.3109167365564265E+00 
    1.2194569749534694E+00 
    1.1240435447068924E+00 
    1.0247454295803065E+00 
    9.2101903658345630E-01 
    8.1154774502750648E-01 
    6.9407842502150485E-01 
    5.6628802501689224E-01 
    4.3466516858533183E-01 
    3.5864215310496284E-01 
    1.6593164064015857E+00 
    1.6441730510029651E+00 
    1.6076042644801030E+00 
    1.5523147390904839E+00 
    1.4830836422895708E+00 
    1.4041562308953621E+00 
    1.3184509224269680E+00 
    1.2276855272836931E+00 
    1.1326836735259540E+00 
    1.0335576690576576E+00 
    9.2967890902721384E-01 
    8.1938194833085765E-01 
    6.9934099176376241E-01 
    5.6405280992121909E-01 
    4.1195630235725228E-01 
    3.0040286104605907E-01 
    1.6562551426009158E+00 
    1.6420694165935661E+00 
    1.6078528436245667E+00 
    1.5551831285808546E+00 
    1.4881376121233403E+00 
    1.4107792622808206E+00 
    1.3261204833780111E+00 
    1.2360371221671969E+00 
    1.1414785186161138E+00 
    1.0426198135837317E+00 
    9.3880582896286602E-01 
    8.2815898373191821E-01 
    7.0655732550943084E-01 
    5.6543474847300235E-01 
    3.9169900778558636E-01 
    2.2489923840939438E-01 
    1.6545815449739649E+00 
    1.6413724499498479E+00 
    1.6092055048884120E+00 
    1.5587880766118116E+00 
    1.4936476015994007E+00 
    1.4176888339615656E+00 
    1.3339916303663522E+00 
    1.2445631211902746E+00 
    1.1504687266127598E+00 
    1.0519610234310746E+00 
    9.4841309171813859E-01 
    8.3788523182802210E-01 
    7.1587709925127407E-01 
    5.7173567721608454E-01 
    3.7932711104406636E-01 
    1.2713889112682555E-01 
    1.6540793780144354E+00 
    1.6419771090691857E+00 
    1.6116750051844839E+00 
    1.5632102155006067E+00 
    1.4997086135066326E+00 
    1.4249687368045167E+00 
    1.3421328441323270E+00 
    1.2533201999807380E+00 
    1.1597008769186077E+00 
    1.0616124859985840E+00 
    9.5850007093145928E-01 
    8.4849551846297500E-01 
    7.2716068640885423E-01 
    5.8348564673071524E-01 
    3.8414108046691592E-01 
    0.0000000000000000E+00 

SCALARS Saturarion double 1 
LOOKUP_TABLE default 

    1.0000000000000000E+00 
    9.8493497538202346E-01 
    9.6526152611384686E-01 
    9.4384500743862054E-01 
    9.2242371740222695E-01 
    9.0147399486992852E-01 
    8.8098912884400904E-01 
    8.6072907785145114E-01 
    8.4025384285605187E-01 
    8.1880042685028021E-01 
    7.9486545761011718E-01 
    7.6478162101280123E-01 
    7.1623226852910726E-01 
    5.9011828465694938E-01 
    2.0539407518597630E-01 
    2.5043440365396029E-03 
    9.9515444924431207E-01 
    9.8262795364755262E-01 
    9.6437308172395197E-01 
    9.4363223165099153E-01 
    9.2251850218873854E-01 
    9.0173796203390932E-01 
    8.8137749046177249E-01 
    8.6124331778202146E-01 
    8.4093196865724817E-01 
    8.1972993549633921E-01 
    7.9623502818895264E-01 
    7.6707271183471115E-01 
    7.2126180477913304E-01 
    6.0845819684669022E-01 
    2.5697493760506451E-01 
    5.8098169012473439E-03 
    9.9111479133831359E-01 
    9.7925922389336839E-01 
    9.6213433823431915E-01 
    9.4224795066646760E-01 
    9.2164767587335372E-01 
    9.0120475322205307E-01 
    8.8110740365883822E-01 
    8.6121685737186127E-01 
    8.4117108165384036E-01 
    8.2030845255675611E-01 
    7.9732659560050267E-01 
    7.6912131003043804E-01 
    7.2581163509698976E-01 
    6.2337404117004247E-01 
    3.0280818158204775E-01 
    1.1158290197306922E-02 
    9.8633772345273740E-01 
    9.7504087611563806E-01 
    9.5881783390982467E-01 
    9.3979503336804482E-01 
    9.1982526142797028E-01 
    8.9984560832500993E-01 
    8.8012605839778368E-01 
    8.6058222457325140E-01 
    8.4089550799240842E-01 
    8.2045815363794328E-01 
    7.9806733892180137E-01 
    7.7087295561154578E-01 
    7.2994875406498994E-01 
    6.3648128428441464E-01 
    3.4672809682872963E-01 
    1.9709556625873891E-02 
    9.8060077503037946E-01 
    9.6993335591585550E-01 
    9.5452759548909105E-01 
    9.3634979352925340E-01 
    9.1708004275275612E-01 
    8.9766047443791175E-01 
    8.7841635447660993E-01 
    8.5931099694373025E-01 
    8.4006834475264680E-01 
    8.2013558067719117E-01 
    7.9841057735895371E-01 
    7.7228912731299670E-01 
    7.3371019433201456E-01 
    6.4836190367485769E-01 
    3.8773806664033844E-01 
    3.2594027629446201E-02 
    9.7373263692863277E-01 
    9.6384241315816144E-01 
    9.4926056780264623E-01 
    9.3192827200897121E-01 
    9.1341051954415731E-01 
    8.9463145775172104E-01 
    8.7594999222470116E-01 
    8.5736805282671091E-01 
    8.3864890317903062E-01 
    8.1929434817678604E-01 
    7.9830465653052451E-01 
    7.7331967291442816E-01 
    7.3708674387748419E-01 
    6.5926638340026900E-01 
    4.2535098620658124E-01 
    5.1095697188931491E-02 
    9.6555936394102915E-01 
    9.5663788353927626E-01 
    9.4294723204483444E-01 
    9.2649087868467761E-01 
    9.0877745316984071E-01 
    8.9071320787316888E-01 
    8.7267726738027795E-01 
    8.5470123074384496E-01 
    8.3658277865453112E-01 
    8.1787625152113319E-01 
    7.9768544011507891E-01 
    7.7389677661036160E-01 
    7.4003109092527952E-01 
    6.6930679638230428E-01 
    4.5960706097575177E-01 
    7.6637220412517665E-02 
    9.5587810812156249E-01 
    9.4814754187773231E-01 
    9.3546024597867738E-01 
    9.1994161385573048E-01 
    9.0309574249288516E-01 
    8.8582315601792327E-01 
    8.6851742377373120E-01 
    8.5123231460856108E-01 
    8.3379385181313370E-01 
    8.1580469034764613E-01 
    7.9647135472402231E-01 
    7.7393155531777669E-01 
    7.4246212410223755E-01 
    6.7851453917837112E-01 
    4.9085299501924096E-01 
    1.1070887784706426E-01 
    9.4442710351431636E-01 
    9.3813767413859461E-01 
    9.2660362140528119E-01 
    9.1211585893972447E-01 
    8.9621867587268578E-01 
    8.7982489350995541E-01 
    8.6334273632180503E-01 
    8.4684249466969685E-01 
    8.3017149564906167E-01 
    8.1297388215273125E-01 
    7.9455472544982986E-01 
    7.7330715751243950E-01 
    7.4426175545129558E-01 
    6.8685630863170244E-01 
    5.1951736420030292E-01 
    1.5436803943380253E-01 
    9.3083824410410365E-01 
    9.2627514333916849E-01 
    9.1608105100748283E-01 
    9.0275005556651389E-01 
    8.8790658825451296E-01 
    8.7249693035655163E-01 
    8.5694881305477566E-01 
    8.4134523245741977E-01 
    8.2554672909753279E-01 
    8.0922875541419892E-01 
    7.9178540452153590E-01 
    7.7186495426436741E-01 
    7.4526248200255862E-01 
    6.9423086667680678E-01 
    5.4597004726737597E-01 
    2.0711999891745758E-01 
    9.1454823980357247E-01 
    9.1205168759110156E-01 
    9.0342697730796495E-01 
    8.9141562194899959E-01 
    8.7776144430297576E-01 
    8.6346852849005051E-01 
    8.4899347562803729E-01 
    8.3443009336359542E-01 
    8.1964252606951471E-01 
    8.0432270873881395E-01 
    7.8793618948496802E-01 
    7.6937569891384427E-01 
    7.4521942650810358E-01 
    7.0044731983193753E-01 
    5.7043657059854480E-01 
    2.6545839190950049E-01 
    8.9460046531281545E-01 
    8.9461277861325572E-01 
    8.8784705876692305E-01 
    8.7736412577377842E-01 
    8.6507353330221382E-01 
    8.5206846993358487E-01 
    8.3885103343616552E-01 
    8.2552734016598150E-01 
    8.1195326298690362E-01 
    7.9781494203687786E-01 
    7.8261895933017922E-01 
    7.6547144432896164E-01 
    7.4374683255237606E-01 
    7.0516792626266178E-01 
    5.9293953647000108E-01 
    3.2382848009688125E-01 
    8.6908734828844403E-01 
    8.7228067291518696E-01 
    8.6777169413656152E-01 
    8.5908890475197164E-01 
    8.4838124412809035E-01 
    8.3688294279263764E-01 
    8.2517750760372277E-01 
    8.1339703703062116E-01 
    8.0137670520807991E-01 
    7.8876002651510491E-01 
    7.7503735831176135E-01 
    7.5945384041405206E-01 
    7.4015153877343132E-01 
    7.0775299654283519E-01 
    6.1323057068529485E-01 
    3.7847160010667469E-01 
    8.3289512580134917E-01 
    8.4066322725044407E-01 
    8.3909050896826942E-01 
    8.3257267594985729E-01 
    8.2367829722853392E-01 
    8.1391378063074937E-01 
    8.0405405021146681E-01 
    7.9433075639858064E-01 
    7.8457086809878618E-01 
    7.7431458714074053E-01 
    7.6290486778872857E-01 
    7.4952159189240342E-01 
    7.3286015342124899E-01 
    7.0675307993623837E-01 
    6.3056443083770963E-01 
    4.2821263965020839E-01 
    7.6406085739703622E-01 
    7.8095886594984953E-01 
    7.8426194130990923E-01 
    7.8057174153908271E-01 
    7.7352201977053747E-01 
    7.6535019919334368E-01 
    7.5746437344940465E-01 
    7.5065152249560074E-01 
    7.4510077675342212E-01 
    7.4033909231572836E-01 
    7.3520454605281838E-01 
    7.2799626893524472E-01 
    7.1680561652262553E-01 
    6.9827764156340866E-01 
    6.4270506970081531E-01 
    4.7244010430399985E-01 
    4.9842874215247890E-01 
    5.7312064546828578E-01 
    5.9733541410961555E-01 
    6.0192399615442538E-01 
    5.9673552598802204E-01 
    5.8638752518405624E-01 
    5.7353355968249087E-01 
    5.6008556601779957E-01 
    5.4793847392099193E-01 
    5.3940730306327012E-01 
    5.3679681213958530E-01 
    5.3989149143380222E-01 
    5.4277091895214713E-01 
    5.4427268740502421E-01 
    5.7061461385284407E-01 
    4.8940153971037870E-01 
