# vtk DataFile Version 2.0
Pressure Field Data 
ASCII 
DATASET UNSTRUCTURED_GRID 

POINTS 289 double 

    0.0000000000000000E+00     0.0000000000000000E+00     0.0000000000000000E+00 
    1.0000000000000000E+00     0.0000000000000000E+00     0.0000000000000000E+00 
    1.0000000000000000E+00     1.0000000000000000E+00     0.0000000000000000E+00 
    0.0000000000000000E+00     1.0000000000000000E+00     0.0000000000000000E+00 
    6.2499999999872928E-02     0.0000000000000000E+00     0.0000000000000000E+00 
    1.2499999999977310E-01     0.0000000000000000E+00     0.0000000000000000E+00 
    1.8749999999959341E-01     0.0000000000000000E+00     0.0000000000000000E+00 
    2.4999999999941089E-01     0.0000000000000000E+00     0.0000000000000000E+00 
    3.1249999999922851E-01     0.0000000000000000E+00     0.0000000000000000E+00 
    3.7499999999904610E-01     0.0000000000000000E+00     0.0000000000000000E+00 
    4.3749999999886358E-01     0.0000000000000000E+00     0.0000000000000000E+00 
    4.9999999999869210E-01     0.0000000000000000E+00     0.0000000000000000E+00 
    5.6249999999884603E-01     0.0000000000000000E+00     0.0000000000000000E+00 
    6.2499999999901090E-01     0.0000000000000000E+00     0.0000000000000000E+00 
    6.8749999999917577E-01     0.0000000000000000E+00     0.0000000000000000E+00 
    7.4999999999934064E-01     0.0000000000000000E+00     0.0000000000000000E+00 
    8.1249999999950551E-01     0.0000000000000000E+00     0.0000000000000000E+00 
    8.7499999999967026E-01     0.0000000000000000E+00     0.0000000000000000E+00 
    9.3749999999983513E-01     0.0000000000000000E+00     0.0000000000000000E+00 
    1.0000000000000000E+00     6.2499999999872928E-02     0.0000000000000000E+00 
    1.0000000000000000E+00     1.2499999999977310E-01     0.0000000000000000E+00 
    1.0000000000000000E+00     1.8749999999959341E-01     0.0000000000000000E+00 
    1.0000000000000000E+00     2.4999999999941089E-01     0.0000000000000000E+00 
    1.0000000000000000E+00     3.1249999999922851E-01     0.0000000000000000E+00 
    1.0000000000000000E+00     3.7499999999904610E-01     0.0000000000000000E+00 
    1.0000000000000000E+00     4.3749999999886358E-01     0.0000000000000000E+00 
    1.0000000000000000E+00     4.9999999999869210E-01     0.0000000000000000E+00 
    1.0000000000000000E+00     5.6249999999884603E-01     0.0000000000000000E+00 
    1.0000000000000000E+00     6.2499999999901090E-01     0.0000000000000000E+00 
    1.0000000000000000E+00     6.8749999999917577E-01     0.0000000000000000E+00 
    1.0000000000000000E+00     7.4999999999934064E-01     0.0000000000000000E+00 
    1.0000000000000000E+00     8.1249999999950551E-01     0.0000000000000000E+00 
    1.0000000000000000E+00     8.7499999999967026E-01     0.0000000000000000E+00 
    1.0000000000000000E+00     9.3749999999983513E-01     0.0000000000000000E+00 
    9.3749999999973976E-01     1.0000000000000000E+00     0.0000000000000000E+00 
    8.7499999999950118E-01     1.0000000000000000E+00     0.0000000000000000E+00 
    8.1249999999991318E-01     1.0000000000000000E+00     0.0000000000000000E+00 
    7.5000000000034706E-01     1.0000000000000000E+00     0.0000000000000000E+00 
    6.8750000000078049E-01     1.0000000000000000E+00     0.0000000000000000E+00 
    6.2500000000121403E-01     1.0000000000000000E+00     0.0000000000000000E+00 
    5.6250000000164757E-01     1.0000000000000000E+00     0.0000000000000000E+00 
    5.0000000000205946E-01     1.0000000000000000E+00     0.0000000000000000E+00 
    4.3750000000182099E-01     1.0000000000000000E+00     0.0000000000000000E+00 
    3.7500000000156092E-01     1.0000000000000000E+00     0.0000000000000000E+00 
    3.1250000000130068E-01     1.0000000000000000E+00     0.0000000000000000E+00 
    2.5000000000104050E-01     1.0000000000000000E+00     0.0000000000000000E+00 
    1.8750000000078040E-01     1.0000000000000000E+00     0.0000000000000000E+00 
    1.2500000000052031E-01     1.0000000000000000E+00     0.0000000000000000E+00 
    6.2500000000260125E-02     1.0000000000000000E+00     0.0000000000000000E+00 
    0.0000000000000000E+00     9.3749999999973976E-01     0.0000000000000000E+00 
    0.0000000000000000E+00     8.7499999999950118E-01     0.0000000000000000E+00 
    0.0000000000000000E+00     8.1249999999991318E-01     0.0000000000000000E+00 
    0.0000000000000000E+00     7.5000000000034706E-01     0.0000000000000000E+00 
    0.0000000000000000E+00     6.8750000000078049E-01     0.0000000000000000E+00 
    0.0000000000000000E+00     6.2500000000121403E-01     0.0000000000000000E+00 
    0.0000000000000000E+00     5.6250000000164757E-01     0.0000000000000000E+00 
    0.0000000000000000E+00     5.0000000000205946E-01     0.0000000000000000E+00 
    0.0000000000000000E+00     4.3750000000182099E-01     0.0000000000000000E+00 
    0.0000000000000000E+00     3.7500000000156092E-01     0.0000000000000000E+00 
    0.0000000000000000E+00     3.1250000000130068E-01     0.0000000000000000E+00 
    0.0000000000000000E+00     2.5000000000104050E-01     0.0000000000000000E+00 
    0.0000000000000000E+00     1.8750000000078040E-01     0.0000000000000000E+00 
    0.0000000000000000E+00     1.2500000000052031E-01     0.0000000000000000E+00 
    0.0000000000000000E+00     6.2500000000260125E-02     0.0000000000000000E+00 
    6.2499999999897131E-02     6.2500000000235922E-02     0.0000000000000000E+00 
    6.2499999999921327E-02     1.2500000000047351E-01     0.0000000000000000E+00 
    6.2499999999945530E-02     1.8750000000070621E-01     0.0000000000000000E+00 
    6.2499999999969733E-02     2.5000000000093858E-01     0.0000000000000000E+00 
    6.2499999999993928E-02     3.1250000000117117E-01     0.0000000000000000E+00 
    6.2500000000018124E-02     3.7500000000140382E-01     0.0000000000000000E+00 
    6.2500000000042327E-02     4.3750000000163619E-01     0.0000000000000000E+00 
    6.2500000000066530E-02     5.0000000000184897E-01     0.0000000000000000E+00 
    6.2500000000090733E-02     5.6250000000147260E-01     0.0000000000000000E+00 
    6.2500000000114922E-02     6.2500000000107636E-01     0.0000000000000000E+00 
    6.2500000000139125E-02     6.8750000000068034E-01     0.0000000000000000E+00 
    6.2500000000163328E-02     7.5000000000028411E-01     0.0000000000000000E+00 
    6.2500000000187531E-02     8.1249999999988787E-01     0.0000000000000000E+00 
    6.2500000000211720E-02     8.7499999999951172E-01     0.0000000000000000E+00 
    6.2500000000235922E-02     9.3749999999974565E-01     0.0000000000000000E+00 
    1.2499999999981980E-01     6.2500000000211733E-02     0.0000000000000000E+00 
    1.2499999999986650E-01     1.2500000000042691E-01     0.0000000000000000E+00 
    1.2499999999991319E-01     1.8750000000063199E-01     0.0000000000000000E+00 
    1.2499999999995989E-01     2.5000000000083678E-01     0.0000000000000000E+00 
    1.2500000000000661E-01     3.1250000000104172E-01     0.0000000000000000E+00 
    1.2500000000005329E-01     3.7500000000124661E-01     0.0000000000000000E+00 
    1.2500000000010000E-01     4.3750000000145117E-01     0.0000000000000000E+00 
    1.2500000000014669E-01     5.0000000000163858E-01     0.0000000000000000E+00 
    1.2500000000019340E-01     5.6250000000129741E-01     0.0000000000000000E+00 
    1.2500000000024011E-01     6.2500000000093847E-01     0.0000000000000000E+00 
    1.2500000000028680E-01     6.8750000000057998E-01     0.0000000000000000E+00 
    1.2500000000033351E-01     7.5000000000022127E-01     0.0000000000000000E+00 
    1.2500000000038020E-01     8.1249999999986211E-01     0.0000000000000000E+00 
    1.2500000000042691E-01     8.7499999999952238E-01     0.0000000000000000E+00 
    1.2500000000047359E-01     9.3749999999975164E-01     0.0000000000000000E+00 
    1.8749999999966760E-01     6.2500000000187531E-02     0.0000000000000000E+00 
    1.8749999999974179E-01     1.2500000000038020E-01     0.0000000000000000E+00 
    1.8749999999981601E-01     1.8750000000055780E-01     0.0000000000000000E+00 
    1.8749999999989009E-01     2.5000000000073502E-01     0.0000000000000000E+00 
    1.8749999999996431E-01     3.1250000000091221E-01     0.0000000000000000E+00 
    1.8750000000003850E-01     3.7500000000108941E-01     0.0000000000000000E+00 
    1.8750000000011269E-01     4.3750000000126649E-01     0.0000000000000000E+00 
    1.8750000000018691E-01     5.0000000000142808E-01     0.0000000000000000E+00 
    1.8750000000026110E-01     5.6250000000112244E-01     0.0000000000000000E+00 
    1.8750000000033529E-01     6.2500000000080080E-01     0.0000000000000000E+00 
    1.8750000000040951E-01     6.8750000000047962E-01     0.0000000000000000E+00 
    1.8750000000048361E-01     7.5000000000015843E-01     0.0000000000000000E+00 
    1.8750000000055780E-01     8.1249999999983680E-01     0.0000000000000000E+00 
    1.8750000000063199E-01     8.7499999999953304E-01     0.0000000000000000E+00 
    1.8750000000070621E-01     9.3749999999975764E-01     0.0000000000000000E+00 
    2.4999999999951281E-01     6.2500000000163314E-02     0.0000000000000000E+00 
    2.4999999999961461E-01     1.2500000000033351E-01     0.0000000000000000E+00 
    2.4999999999971650E-01     1.8750000000048361E-01     0.0000000000000000E+00 
    2.4999999999981831E-01     2.5000000000063310E-01     0.0000000000000000E+00 
    2.4999999999992020E-01     3.1250000000078260E-01     0.0000000000000000E+00 
    2.5000000000002198E-01     3.7500000000093209E-01     0.0000000000000000E+00 
    2.5000000000012390E-01     4.3750000000108180E-01     0.0000000000000000E+00 
    2.5000000000022571E-01     5.0000000000121769E-01     0.0000000000000000E+00 
    2.5000000000032763E-01     5.6250000000094724E-01     0.0000000000000000E+00 
    2.5000000000042938E-01     6.2500000000066314E-01     0.0000000000000000E+00 
    2.5000000000053119E-01     6.8750000000037925E-01     0.0000000000000000E+00 
[...]
CELL_DATA 256 
SCALARS Pressure double 1 
LOOKUP_TABLE default 

    1.9426237694334736E+00 
    1.7108544182344236E+00 
    1.5804714032151088E+00 
    1.4764052378655714E+00 
    1.3808572970835138E+00 
    1.2879278125713156E+00 
    1.1953364938609794E+00 
    1.1023047865132485E+00 
    1.0089219153009030E+00 
    9.1603947787003059E-01 
    8.2543582783470026E-01 
    7.4009813908555344E-01 
    6.6431674664201779E-01 
    6.0294774095746739E-01 
    5.6006002357280427E-01 
    5.4558582294755142E-01 
    1.8713055369652019E+00 
    1.7148098040392357E+00 
    1.5890690111482551E+00 
    1.4852296498568363E+00 
    1.3897188052418781E+00 
    1.2968724833998810E+00 
    1.2043739764726109E+00 
    1.1113896492282580E+00 
    1.0179397607080702E+00 
    9.2477845385969770E-01 
    8.3355035261023713E-01 
    7.4709577124657689E-01 
    6.6963824837190067E-01 
    6.0620412712109351E-01 
    5.6115665932659542E-01 
    5.4509155119305719E-01 
    1.8159920614753216E+00 
    1.7081538595424928E+00 
    1.5941384368411993E+00 
    1.4927145757831195E+00 
    1.3979452126245584E+00 
    1.3054555106916452E+00 
    1.2131610883607458E+00 
    1.1202535158882687E+00 
    1.0267051755475727E+00 
    9.3316537497083030E-01 
    8.4111830011848721E-01 
    7.5322262443432331E-01 
    6.7362747237477638E-01 
    6.0764298483333701E-01 
    5.6032813791293845E-01 
    5.4295906389741944E-01 
    1.7725174083777160E+00 
    1.6963696131632018E+00 
    1.5959678173774392E+00 
    1.4987574411433049E+00 
    1.4054753330544127E+00 
    1.3136528160521597E+00 
    1.2216964801886339E+00 
    1.1289139261547914E+00 
    1.0352581957626357E+00 
    9.4127138618865902E-01 
    8.4825077700033880E-01 
    7.5862612121869222E-01 
    6.7642790068290870E-01 
    6.0729844467302829E-01 
    5.5732651821824175E-01 
    5.3870481945074755E-01 
    1.7379644244759518E+00 
    1.6826209757701498E+00 
    1.5952929038383803E+00 
    1.5034184435271258E+00 
    1.4122927977988733E+00 
    1.3214554506040777E+00 
    1.2299852108230191E+00 
    1.1373914883870928E+00 
    1.0436405923853873E+00 
    9.4916981927393440E-01 
    8.5506460076069957E-01 
    7.6346740875843078E-01 
    6.7820611090104055E-01 
    6.0522672049983939E-01 
    5.5190219263420714E-01 
    5.3179992621005012E-01 
    1.7102886147726979E+00 
    1.6687051664515853E+00 
    1.5929206203738353E+00 
    1.5068812341097650E+00 
    1.4184300055395256E+00 
    1.3288727414535373E+00 
    1.2380398610377998E+00 
    1.1457098607370424E+00 
    1.0518950507377256E+00 
    9.5693478163350332E-01 
    8.6168117429433866E-01 
    7.6792330575063106E-01 
    6.7916194375203043E-01 
    6.0152601785052151E-01 
    5.4382569407297721E-01 
    5.2167161361006442E-01 
    1.6880342943331474E+00 
    1.6556136019579601E+00 
    1.5895734253174958E+00 
    1.5094000588982865E+00 
    1.4239629457930261E+00 
    1.3359333799751001E+00 
    1.2458812777553194E+00 
    1.1538956957404469E+00 
    1.0600642981024417E+00 
    9.6463939930231335E-01 
    8.6822433847269187E-01 
    7.7218649176205345E-01 
    6.7953761837264337E-01 
    5.9635895606667377E-01 
    5.3291059046447120E-01 
    5.0770085707248158E-01 
    1.6701469414539805E+00 
    1.6438655617224029E+00 
    1.5858403511579204E+00 
    1.5112558466273558E+00 
    1.4290009953889735E+00 
    1.3426844442965793E+00 
    1.2535387974678114E+00 
    1.1619785235711582E+00 
    1.0681902404407748E+00 
    9.7235380588445008E-01 
    8.7481714400260358E-01 
    7.7646336477111544E-01 
    6.7962492583612544E-01 
    5.8997833924947085E-01 
    5.1903681131274615E-01 
    4.8919900540741601E-01 
    1.6558482945978164E+00 
    1.6337066469835184E+00 
    1.5821763415455941E+00 
    1.5127263472136896E+00 
    1.4336754386322703E+00 
    1.3491888873324240E+00 
    1.2610499293484252E+00 
    1.1699905626374960E+00 
    1.0763131690369536E+00 
    9.8014300282659994E-01 
    8.8157755985923414E-01 
    7.8096891149759973E-01 
    6.7976898587277457E-01 
    5.8275756519613175E-01 
    5.0218366449138696E-01 
    4.6535564926394379E-01 
    1.6445521304724420E+00 
    1.6252265733812150E+00 
    1.5789206599069867E+00 
    1.5140688905833894E+00 
    1.4381290837042755E+00 
    1.3555222018289979E+00 
    1.2684595974093174E+00 
    1.1779664820876501E+00 
    1.0844711242091112E+00 
    9.8806479329079933E-01 
    8.8861331175863967E-01 
    7.8591798100558385E-01 
    6.8036606064538396E-01 
    5.7522587292683125E-01 
    4.8248978941193843E-01 
    4.3516233202035726E-01 
    1.6358064609124283E+00 
    1.6184287612026889E+00 
    1.5763204037405016E+00 
    1.5155125196062398E+00 
    1.4425080840812916E+00 
    1.3617689022015866E+00 
    1.2758191054466406E+00 
    1.1859431709416406E+00 
    1.0926995259531058E+00 
    9.9616807366277027E-01 
    8.9601630573833679E-01 
    7.9151264294426149E-01 
    6.8185168753693648E-01 
    5.6810541771413303E-01 
    4.6036169177586733E-01 
    3.9731086056761428E-01 
    1.6292528128286659E+00 
    1.6132710362038409E+00 
    1.5745529343174027E+00 
    1.5172562804392404E+00 
    1.4469561833274058E+00 
    1.3680192577270569E+00 
    1.2831849862269109E+00 
    1.1939595801152416E+00 
    1.1010311938709672E+00 
    1.0044918377090855E+00 
    9.0385742922793411E-01 
    7.9792602380581579E-01 
    6.8467423918774428E-01 
    5.6234078837011559E-01 
    4.3666212075270150E-01 
    3.5005235263656131E-01 
    1.6245961247425589E+00 
    1.6096886719620529E+00 
    1.5737446513992359E+00 
    1.5194709041380274E+00 
    1.4516109391207561E+00 
    1.3743663707239027E+00 
    1.2906177712396369E+00 
    1.2020566525344862E+00 
    1.1094968650128558E+00 
    1.0130652975773942E+00 
    9.1218290380658296E-01 
    8.0528435896462691E-01 
    6.8924874468492536E-01 
    5.5909911897606690E-01 
    4.1302999357814602E-01 
    2.9099121899410574E-01 
    1.6215793173537145E+00 
    1.6076047520887058E+00 
    1.5739838867493405E+00 
    1.5223005835583765E+00 
    1.4566002173467834E+00 
    1.3809026750297926E+00 
    1.2981800227366396E+00 
    1.2102769136504250E+00 
    1.1181260942838918E+00 
    1.0219094889555707E+00 
    9.2101371700339207E-01 
    8.1365110336870428E-01 
    6.9588821930182054E-01 
    5.5969418109198399E-01 
    3.9241914370464809E-01 
    2.1676919461112015E-01 
    1.6199517554309097E+00 
    1.6069217179853450E+00 
    1.5753183564362823E+00 
    1.5258554546328444E+00 
    1.4620319771280395E+00 
    1.3877107275467138E+00 
    1.3059296210191351E+00 
    1.2186606360418366E+00 
    1.1269465501534819E+00 
    1.0310398033822841E+00 
    9.3034976087319898E-01 
    8.2301981188879247E-01 
    7.0471876016686408E-01 
    5.6533660440800793E-01 
    3.7999565760041154E-01 
    1.2253081769899456E-01 
    1.6194590084146909E+00 
    1.6075089788224892E+00 
    1.5777443280304064E+00 
    1.5302028763113704E+00 
    1.4679886254440639E+00 
    1.3948606337082514E+00 
    1.3139188183053214E+00 
    1.2272448966626952E+00 
    1.1359820966926018E+00 
    1.0404626721965702E+00 
    9.4016380821421697E-01 
    8.3329411947061727E-01 
    7.1555316344274422E-01 
    5.7640917212528342E-01 
    3.8438016830260124E-01 
    0.0000000000000000E+00 

SCALARS Saturarion double 1 
LOOKUP_TABLE default 

    1.0000000000000000E+00 
    9.8678669303032462E-01 
    9.6941999529648393E-01 
    9.5046069797970389E-01 
    9.3150048005415720E-01 
    9.1301472691717667E-01 
    8.9505128198492279E-01 
    8.7746782898882236E-01 
    8.5999293778153230E-01 
    8.4218591523142250E-01 
    8.2326763349727072E-01 
    8.0161022767924539E-01 
    7.7282818312243429E-01 
    7.2063917624836138E-01 
    5.6582138772793966E-01 
    1.0846020401672311E-01 
    9.9576840631102992E-01 
    9.8475646094563773E-01 
    9.6862887303595191E-01 
    9.5025534225579000E-01 
    9.3155428411601704E-01 
    9.1320418764035172E-01 
    8.9533523863555864E-01 
    8.7784418847337353E-01 
    8.6048725260111780E-01 
    8.4285557838072434E-01 
    8.2422169516971266E-01 
    8.0306743162199523E-01 
    7.7534965748191320E-01 
    7.2634906571233071E-01 
    5.8728738776717060E-01 
    1.5428089057805935E-01 
    9.9222874592541943E-01 
    9.8178540428210570E-01 
    9.6663270378466970E-01 
    9.4899195858118657E-01 
    9.3072213594392483E-01 
    9.1264883039191114E-01 
    8.9499235640855246E-01 
    8.7769726180487151E-01 
    8.6055338448532381E-01 
    8.4318837407342584E-01 
    8.2492989534972294E-01 
    8.0436830095812739E-01 
    7.7777682933904690E-01 
    7.3179860623873216E-01 
    6.0531839108593333E-01 
    2.0054700440733611E-01 
    9.8802817931790854E-01 
    9.7805374041564763E-01 
    9.6366908723351441E-01 
    9.4676151663831132E-01 
    9.2901840424842541E-01 
    9.1132580968726995E-01 
    8.9397809798373307E-01 
    8.7696833672665131E-01 
    8.6012347153765734E-01 
    8.4311212283852610E-01 
    8.2532182313633418E-01 
    8.0545223598499194E-01 
    7.8007037244428978E-01 
    7.3702681597606412E-01 
    6.2136046457934757E-01 
    2.4757951437420642E-01 
    9.8296273583577598E-01 
    9.7351904339971584E-01 
    9.5982419252154061E-01 
    9.4362782989289717E-01 
    9.2646647248200376E-01 
    9.0923376458820937E-01 
    8.9227585949459665E-01 
    8.7562966353268268E-01 
    8.5915997974494729E-01 
    8.4257982882696947E-01 
    8.2534238791668113E-01 
    8.0626142433363768E-01 
    7.8218302373365578E-01 
    7.4204735097453289E-01 
    6.3609979123670202E-01 
    2.9428071410740436E-01 
    9.7686963743662947E-01 
    9.6808836206093640E-01 
    9.5508709731789698E-01 
    9.3959827693799458E-01 
    9.2305929380988838E-01 
    9.0635166399482303E-01 
    8.8985521257540512E-01 
    8.7364385261204758E-01 
    8.5761884933233579E-01 
    8.4153966321106033E-01 
    8.2493127487139606E-01 
    8.0673041877216112E-01 
    7.8405659610795220E-01 
    7.4684843106798393E-01 
    6.4992650839822019E-01 
    3.3928577424233169E-01 
    9.6957971922705088E-01 
    9.6163405015617442E-01 
    9.4938536012717101E-01 
    9.3462796298502759E-01 
    9.1875294679900699E-01 
    9.0263035920480350E-01 
    8.8666277309439667E-01 
    8.7095441280620711E-01 
    8.5544010492926825E-01 
    8.3992612799879596E-01 
    8.2401500490513890E-01 
    8.0677907692186557E-01 
    7.8561591634702910E-01 
    7.5139209973956500E-01 
    6.6306544630035558E-01 
    3.8156231037339644E-01 
    9.6089353012635725E-01 
    9.5398742014692595E-01 
    9.4259189519165243E-01 
    9.2861847045128365E-01 
    9.1345894127971639E-01 
    8.9798332968875816E-01 
    8.8261284114437921E-01 
    8.6747670782597730E-01 
    8.5253944069119436E-01 
    8.3765254590535609E-01 
    8.2250026349001493E-01 
    8.0630598094273165E-01 
    7.8676201567537041E-01 
    7.5561141172574231E-01 
    6.7562944115048740E-01 
    4.2081193235413883E-01 
    9.5055359346459267E-01 
    9.4492027522295841E-01 
    9.3451415646931590E-01 
    9.2140587916160532E-01 
    9.0702906368589820E-01 
    8.9227054267786965E-01 
    8.7757153881333638E-01 
    8.6308294221298465E-01 
    8.4879448245888189E-01 
    8.3459899144697935E-01 
    8.2026355458769085E-01 
    8.0517880817174370E-01 
    7.8736216136505843E-01 
    7.5940386126927895E-01 
    6.8764507914142681E-01 
    4.5727381501458181E-01 
    9.3820063194049452E-01 
    9.3410951641573914E-01 
    9.2486425131989225E-01 
    9.1273201930877967E-01 
    8.9922552864884031E-01 
    8.8526825180568280E-01 
    8.7132728864370823E-01 
    8.5757412676370470E-01 
    8.4401900686114484E-01 
    8.3058952600639435E-01 
    8.1713186389181391E-01 
    8.0321728123330649E-01 
    7.8723286389436009E-01 
    7.6261805569440810E-01 
    6.9906327784150923E-01 
    4.9136463802795705E-01 
    9.2329287600912080E-01 
    9.2106793805374743E-01 
    9.1319551987395442E-01 
    9.0218333114298743E-01 
    8.8965993489355621E-01 
    8.7660805570769817E-01 
    8.6353097150660996E-01 
    8.5062269423688630E-01 
    8.3790956841848985E-01 
    8.2534446089927582E-01 
    8.1284188990536499E-01 
    8.0015856892755510E-01 
    7.8610729893457110E-01 
    7.6502654313566965E-01 
    7.0975645012853583E-01 
    5.2346884160148499E-01 
    9.0493210960082959E-01 
    9.0499275297699600E-01 
    8.9876039325689261E-01 
    8.8905215630499612E-01 
    8.7765466482767862E-01 
    8.6563761969102682E-01 
    8.5355730256549767E-01 
    8.4163748329791510E-01 
    8.2991807959738939E-01 
    8.1836485050282892E-01 
    8.0694041223573143E-01 
    7.9557464902417241E-01 
    7.8356287498240029E-01 
    7.6626524094250659E-01 
    7.1949516670466795E-01 
    5.5384506577132053E-01 
    8.8139855577517023E-01 
    8.8436344362812347E-01 
    8.8013097621763214E-01 
    8.7196202137642553E-01 
    8.6186300648395986E-01 
    8.5103174371012968E-01 
    8.4010898717194438E-01 
    8.2936931243441070E-01 
    8.1887225662415697E-01 
    8.0858360963871201E-01 
    7.9848093008332288E-01 
    7.8862394500295518E-01 
    7.7881954609751614E-01 
    7.6567254158187692E-01 
    7.2787266165781850E-01 
    5.8257152873954843E-01 
    8.4839090668921857E-01 
    8.5545293305963988E-01 
    8.5379822647703008E-01 
    8.4746740739737147E-01 
    8.3882024607133909E-01 
    8.2927114568604654E-01 
    8.1962482777555190E-01 
    8.1027801419413059E-01 
    8.0135905886001124E-01 
    7.9284332892137532E-01 
    7.8467913526485800E-01 
    7.7695300596716454E-01 
    7.6990541144897495E-01 
    7.6168889207480106E-01 
    7.3401835022336970E-01 
    6.0945216280090220E-01 
    7.8882437404324846E-01 
    8.0360943236055016E-01 
    8.0598032370737749E-01 
    8.0189692918283051E-01 
    7.9454011855769779E-01 
    7.8582875499790850E-01 
    7.7698294789325739E-01 
    7.6879223359214488E-01 
    7.6174835235298066E-01 
    7.5609938752218309E-01 
    7.5188311000882335E-01 
    7.4905525752978896E-01 
    7.4784380239742976E-01 
    7.4795043933523009E-01 
    7.3475660057438985E-01 
    6.3344176119371709E-01 
    5.7793446580641550E-01 
    6.3031202538536257E-01 
    6.4815030910611682E-01 
    6.5093726127768836E-01 
    6.4595526906676515E-01 
    6.3681580067168797E-01 
    6.2557721975360048E-01 
    6.1358332292409390E-01 
    6.0195980292368390E-01 
    5.9203859861474595E-01 
    5.8581212438454988E-01 
    5.8643142601454024E-01 
    5.9885434981882990E-01 
    6.3036735844526803E-01 
    6.7796659048256502E-01 
    6.4170205475381648E-01 
