# vtk DataFile Version 2.0
Pressure Field Data 
ASCII 
DATASET UNSTRUCTURED_GRID 

POINTS 289 double 

    0.0000000000000000E+00     0.0000000000000000E+00     0.0000000000000000E+00 
    1.0000000000000000E+00     0.0000000000000000E+00     0.0000000000000000E+00 
    1.0000000000000000E+00     1.0000000000000000E+00     0.0000000000000000E+00 
    0.0000000000000000E+00     1.0000000000000000E+00     0.0000000000000000E+00 
    6.2499999999872928E-02     0.0000000000000000E+00     0.0000000000000000E+00 
    1.2499999999977310E-01     0.0000000000000000E+00     0.0000000000000000E+00 
    1.8749999999959341E-01     0.0000000000000000E+00     0.0000000000000000E+00 
    2.4999999999941089E-01     0.0000000000000000E+00     0.0000000000000000E+00 
    3.1249999999922851E-01     0.0000000000000000E+00     0.0000000000000000E+00 
    3.7499999999904610E-01     0.0000000000000000E+00     0.0000000000000000E+00 
    4.3749999999886358E-01     0.0000000000000000E+00     0.0000000000000000E+00 
    4.9999999999869210E-01     0.0000000000000000E+00     0.0000000000000000E+00 
    5.6249999999884603E-01     0.0000000000000000E+00     0.0000000000000000E+00 
    6.2499999999901090E-01     0.0000000000000000E+00     0.0000000000000000E+00 
    6.8749999999917577E-01     0.0000000000000000E+00     0.0000000000000000E+00 
    7.4999999999934064E-01     0.0000000000000000E+00     0.0000000000000000E+00 
    8.1249999999950551E-01     0.0000000000000000E+00     0.0000000000000000E+00 
    8.7499999999967026E-01     0.0000000000000000E+00     0.0000000000000000E+00 
    9.3749999999983513E-01     0.0000000000000000E+00     0.0000000000000000E+00 
    1.0000000000000000E+00     6.2499999999872928E-02     0.0000000000000000E+00 
    1.0000000000000000E+00     1.2499999999977310E-01     0.0000000000000000E+00 
    1.0000000000000000E+00     1.8749999999959341E-01     0.0000000000000000E+00 
    1.0000000000000000E+00     2.4999999999941089E-01     0.0000000000000000E+00 
    1.0000000000000000E+00     3.1249999999922851E-01     0.0000000000000000E+00 
    1.0000000000000000E+00     3.7499999999904610E-01     0.0000000000000000E+00 
    1.0000000000000000E+00     4.3749999999886358E-01     0.0000000000000000E+00 
    1.0000000000000000E+00     4.9999999999869210E-01     0.0000000000000000E+00 
    1.0000000000000000E+00     5.6249999999884603E-01     0.0000000000000000E+00 
    1.0000000000000000E+00     6.2499999999901090E-01     0.0000000000000000E+00 
    1.0000000000000000E+00     6.8749999999917577E-01     0.0000000000000000E+00 
    1.0000000000000000E+00     7.4999999999934064E-01     0.0000000000000000E+00 
    1.0000000000000000E+00     8.1249999999950551E-01     0.0000000000000000E+00 
    1.0000000000000000E+00     8.7499999999967026E-01     0.0000000000000000E+00 
    1.0000000000000000E+00     9.3749999999983513E-01     0.0000000000000000E+00 
    9.3749999999973976E-01     1.0000000000000000E+00     0.0000000000000000E+00 
    8.7499999999950118E-01     1.0000000000000000E+00     0.0000000000000000E+00 
    8.1249999999991318E-01     1.0000000000000000E+00     0.0000000000000000E+00 
    7.5000000000034706E-01     1.0000000000000000E+00     0.0000000000000000E+00 
    6.8750000000078049E-01     1.0000000000000000E+00     0.0000000000000000E+00 
    6.2500000000121403E-01     1.0000000000000000E+00     0.0000000000000000E+00 
    5.6250000000164757E-01     1.0000000000000000E+00     0.0000000000000000E+00 
    5.0000000000205946E-01     1.0000000000000000E+00     0.0000000000000000E+00 
    4.3750000000182099E-01     1.0000000000000000E+00     0.0000000000000000E+00 
    3.7500000000156092E-01     1.0000000000000000E+00     0.0000000000000000E+00 
    3.1250000000130068E-01     1.0000000000000000E+00     0.0000000000000000E+00 
    2.5000000000104050E-01     1.0000000000000000E+00     0.0000000000000000E+00 
    1.8750000000078040E-01     1.0000000000000000E+00     0.0000000000000000E+00 
    1.2500000000052031E-01     1.0000000000000000E+00     0.0000000000000000E+00 
    6.2500000000260125E-02     1.0000000000000000E+00     0.0000000000000000E+00 
    0.0000000000000000E+00     9.3749999999973976E-01     0.0000000000000000E+00 
    0.0000000000000000E+00     8.7499999999950118E-01     0.0000000000000000E+00 
    0.0000000000000000E+00     8.1249999999991318E-01     0.0000000000000000E+00 
    0.0000000000000000E+00     7.5000000000034706E-01     0.0000000000000000E+00 
    0.0000000000000000E+00     6.8750000000078049E-01     0.0000000000000000E+00 
    0.0000000000000000E+00     6.2500000000121403E-01     0.0000000000000000E+00 
    0.0000000000000000E+00     5.6250000000164757E-01     0.0000000000000000E+00 
    0.0000000000000000E+00     5.0000000000205946E-01     0.0000000000000000E+00 
    0.0000000000000000E+00     4.3750000000182099E-01     0.0000000000000000E+00 
    0.0000000000000000E+00     3.7500000000156092E-01     0.0000000000000000E+00 
    0.0000000000000000E+00     3.1250000000130068E-01     0.0000000000000000E+00 
    0.0000000000000000E+00     2.5000000000104050E-01     0.0000000000000000E+00 
    0.0000000000000000E+00     1.8750000000078040E-01     0.0000000000000000E+00 
    0.0000000000000000E+00     1.2500000000052031E-01     0.0000000000000000E+00 
    0.0000000000000000E+00     6.2500000000260125E-02     0.0000000000000000E+00 
    6.2499999999897131E-02     6.2500000000235922E-02     0.0000000000000000E+00 
    6.2499999999921327E-02     1.2500000000047351E-01     0.0000000000000000E+00 
    6.2499999999945530E-02     1.8750000000070621E-01     0.0000000000000000E+00 
    6.2499999999969733E-02     2.5000000000093858E-01     0.0000000000000000E+00 
    6.2499999999993928E-02     3.1250000000117117E-01     0.0000000000000000E+00 
    6.2500000000018124E-02     3.7500000000140382E-01     0.0000000000000000E+00 
    6.2500000000042327E-02     4.3750000000163619E-01     0.0000000000000000E+00 
    6.2500000000066530E-02     5.0000000000184897E-01     0.0000000000000000E+00 
    6.2500000000090733E-02     5.6250000000147260E-01     0.0000000000000000E+00 
    6.2500000000114922E-02     6.2500000000107636E-01     0.0000000000000000E+00 
    6.2500000000139125E-02     6.8750000000068034E-01     0.0000000000000000E+00 
    6.2500000000163328E-02     7.5000000000028411E-01     0.0000000000000000E+00 
    6.2500000000187531E-02     8.1249999999988787E-01     0.0000000000000000E+00 
    6.2500000000211720E-02     8.7499999999951172E-01     0.0000000000000000E+00 
    6.2500000000235922E-02     9.3749999999974565E-01     0.0000000000000000E+00 
    1.2499999999981980E-01     6.2500000000211733E-02     0.0000000000000000E+00 
    1.2499999999986650E-01     1.2500000000042691E-01     0.0000000000000000E+00 
    1.2499999999991319E-01     1.8750000000063199E-01     0.0000000000000000E+00 
    1.2499999999995989E-01     2.5000000000083678E-01     0.0000000000000000E+00 
    1.2500000000000661E-01     3.1250000000104172E-01     0.0000000000000000E+00 
    1.2500000000005329E-01     3.7500000000124661E-01     0.0000000000000000E+00 
    1.2500000000010000E-01     4.3750000000145117E-01     0.0000000000000000E+00 
    1.2500000000014669E-01     5.0000000000163858E-01     0.0000000000000000E+00 
    1.2500000000019340E-01     5.6250000000129741E-01     0.0000000000000000E+00 
    1.2500000000024011E-01     6.2500000000093847E-01     0.0000000000000000E+00 
    1.2500000000028680E-01     6.8750000000057998E-01     0.0000000000000000E+00 
    1.2500000000033351E-01     7.5000000000022127E-01     0.0000000000000000E+00 
    1.2500000000038020E-01     8.1249999999986211E-01     0.0000000000000000E+00 
    1.2500000000042691E-01     8.7499999999952238E-01     0.0000000000000000E+00 
    1.2500000000047359E-01     9.3749999999975164E-01     0.0000000000000000E+00 
    1.8749999999966760E-01     6.2500000000187531E-02     0.0000000000000000E+00 
    1.8749999999974179E-01     1.2500000000038020E-01     0.0000000000000000E+00 
    1.8749999999981601E-01     1.8750000000055780E-01     0.0000000000000000E+00 
    1.8749999999989009E-01     2.5000000000073502E-01     0.0000000000000000E+00 
    1.8749999999996431E-01     3.1250000000091221E-01     0.0000000000000000E+00 
    1.8750000000003850E-01     3.7500000000108941E-01     0.0000000000000000E+00 
    1.8750000000011269E-01     4.3750000000126649E-01     0.0000000000000000E+00 
    1.8750000000018691E-01     5.0000000000142808E-01     0.0000000000000000E+00 
    1.8750000000026110E-01     5.6250000000112244E-01     0.0000000000000000E+00 
    1.8750000000033529E-01     6.2500000000080080E-01     0.0000000000000000E+00 
    1.8750000000040951E-01     6.8750000000047962E-01     0.0000000000000000E+00 
    1.8750000000048361E-01     7.5000000000015843E-01     0.0000000000000000E+00 
    1.8750000000055780E-01     8.1249999999983680E-01     0.0000000000000000E+00 
    1.8750000000063199E-01     8.7499999999953304E-01     0.0000000000000000E+00 
    1.8750000000070621E-01     9.3749999999975764E-01     0.0000000000000000E+00 
    2.4999999999951281E-01     6.2500000000163314E-02     0.0000000000000000E+00 
    2.4999999999961461E-01     1.2500000000033351E-01     0.0000000000000000E+00 
    2.4999999999971650E-01     1.8750000000048361E-01     0.0000000000000000E+00 
    2.4999999999981831E-01     2.5000000000063310E-01     0.0000000000000000E+00 
    2.4999999999992020E-01     3.1250000000078260E-01     0.0000000000000000E+00 
    2.5000000000002198E-01     3.7500000000093209E-01     0.0000000000000000E+00 
    2.5000000000012390E-01     4.3750000000108180E-01     0.0000000000000000E+00 
    2.5000000000022571E-01     5.0000000000121769E-01     0.0000000000000000E+00 
    2.5000000000032763E-01     5.6250000000094724E-01     0.0000000000000000E+00 
    2.5000000000042938E-01     6.2500000000066314E-01     0.0000000000000000E+00 
    2.5000000000053119E-01     6.8750000000037925E-01     0.0000000000000000E+00 
[...]
CELL_DATA 256 
SCALARS Pressure double 1 
LOOKUP_TABLE default 

    1.6195859452812522E+00 
    1.3855152539720195E+00 
    1.2517019850531306E+00 
    1.1434292399904806E+00 
    1.0430891917461493E+00 
    9.4499732193188368E-01 
    8.4712003781041156E-01 
    7.4890504296113958E-01 
    6.5050045615645280E-01 
    5.5237578686308952E-01 
    4.5511978546148879E-01 
    3.6348466102028754E-01 
    3.0884102895272764E-01 
    2.7798378775328703E-01 
    2.5926192921526542E-01 
    2.5167714350949727E-01 
    1.5480288809021012E+00 
    1.3895902770764308E+00 
    1.2605609977950509E+00 
    1.1525896542493379E+00 
    1.0523261783356479E+00 
    9.5432459752080634E-01 
    8.5651813021960754E-01 
    7.5831506831006745E-01 
    6.5983145372373331E-01 
    5.6149622168702751E-01 
    4.6373741735345714E-01 
    3.7012222555990881E-01 
    3.1230930087005387E-01 
    2.7956804488665243E-01 
    2.5961552529544618E-01 
    2.5133647450660196E-01 
    1.4923808644398737E+00 
    1.3828935421802169E+00 
    1.2657679625225513E+00 
    1.1602977534768455E+00 
    1.0608104659230049E+00 
    9.6315743160030598E-01 
    8.6551015670053388E-01 
    7.6732267426920564E-01 
    6.6870710422824509E-01 
    5.7005382885235800E-01 
    4.7167411865459530E-01 
    3.7615986596412604E-01 
    3.1517967840013250E-01 
    2.8034531784850142E-01 
    2.5899825051995973E-01 
    2.5011044864723148E-01 
    1.4485290801226645E+00 
    1.3709570558818349E+00 
    1.2676234868431888E+00 
    1.1664590903531094E+00 
    1.0684896613616752E+00 
    9.7148111256254888E-01 
    8.7410290551490877E-01 
    7.7594948779974560E-01 
    6.7716513449327931E-01 
    5.7810996853341512E-01 
    4.7899300953829199E-01 
    3.8163485069934350E-01 
    3.1751758093385984E-01 
    2.8034781278332777E-01 
    2.5734951371569503E-01 
    2.4782960092862361E-01 
    1.4135708622635146E+00 
    1.3569756506909540E+00 
    1.2668810241648478E+00 
    1.1711457224341690E+00 
    1.0753587553903161E+00 
    9.7929816018073823E-01 
    8.8231118795354668E-01 
    7.8422088151522773E-01 
    6.8524388673694703E-01 
    5.8572311020785839E-01 
    4.8576965849901255E-01 
    3.8659412268164939E-01 
    3.1941391635976790E-01 
    2.7962832149048999E-01 
    2.5460709112590146E-01 
    2.4431554347478840E-01 
    1.3854731277101742E+00 
    1.3427705249615540E+00 
    1.2643666658749328E+00 
    1.1745559436814794E+00 
    1.0814639510532538E+00 
    9.8663170369374453E-01 
    8.9015946702980298E-01 
    7.9216666776840694E-01 
    6.9298269723028805E-01 
    5.9294978977461676E-01 
    4.9208209478379750E-01 
    3.9110510955808814E-01 
    3.2099939309034781E-01 
    2.7827377720238172E-01 
    2.5071154913012517E-01 
    2.3936879865834737E-01 
    1.3627907705600939E+00 
    1.3293532772630883E+00 
    1.2608222900179167E+00 
    1.1769606151187757E+00 
    1.0868972895455324E+00 
    9.9352676138899643E-01 
    8.9768310789161865E-01 
    7.9982166441877656E-01 
    7.0042192327712804E-01 
    5.9984437362674936E-01 
    4.9800611408296674E-01 
    3.9527126198569823E-01 
    3.2244991079592294E-01 
    2.7641355187491407E-01 
    2.4561229984471092E-01 
    2.3275467004065062E-01 
    1.3444794667237128E+00 
    1.3172611263647014E+00 
    1.2568561784724563E+00 
    1.1786586651647493E+00 
    1.0917862248194903E+00 
    1.0000494330420984E+00 
    9.0492914409194813E-01 
    8.0722615511581475E-01 
    7.0760281747604226E-01 
    6.0645861198816353E-01 
    5.0360827946556330E-01 
    3.9924664150373579E-01 
    3.2398956019005243E-01 
    2.7422778470905440E-01 
    2.3927703266199585E-01 
    2.2418529005090712E-01 
    1.3297706499143753E+00 
    1.3067561476348308E+00 
    1.2529422078620964E+00 
    1.1799467997816484E+00 
    1.0962819079520150E+00 
    1.0062845407511516E+00 
    9.1195659021491349E-01 
    8.1442625949644598E-01 
    7.1456722197861100E-01 
    6.1284188029547804E-01 
    5.0893566547658886E-01 
    4.0325586019518828E-01 
    3.2589060995499586E-01 
    2.7195448373577730E-01 
    2.3170775958678344E-01 
    2.1329548766810330E-01 
    1.3180868544297413E+00 
    1.2979433990814067E+00 
    1.2494381766236000E+00 
    1.1811019211930514E+00 
    1.1005485426551713E+00 
    1.0123324221274590E+00 
    9.1883646846323930E-01 
    8.2147428135700329E-01 
    7.2135679126357521E-01 
    6.1904300381728583E-01 
    5.1400660446930058E-01 
    4.0760096194650602E-01 
    3.2845968947728038E-01 
    2.6988912266523613E-01 
    2.2296876978542493E-01 
    1.9960922177451715E-01 
    1.3089831513216990E+00 
    1.2908405067728317E+00 
    1.2466091708625795E+00 
    1.1823729310632898E+00 
    1.1047548924357029E+00 
    1.0183054931124009E+00 
    9.2565181422153076E-01 
    8.2842922565546151E-01 
    7.2801112079874220E-01 
    6.2511304164652004E-01 
    5.1882657436212232E-01 
    4.1264186470996900E-01 
    3.3201106045977025E-01 
    2.6837701418678567E-01 
    2.1323626373036569E-01 
    1.8249187209801587E-01 
    1.3021050716107518E+00 
    1.2854178756517045E+00 
    1.2446495595085363E+00 
    1.1839785576453179E+00 
    1.1090680977362977E+00 
    1.0243249735927347E+00 
    9.3249797130879253E-01 
    8.3535787155855667E-01 
    7.3456402481215888E-01 
    6.3110137734676042E-01 
    5.2348929952689338E-01 
    4.1872545609036949E-01 
    3.3681987946612385E-01 
    2.6780666012734550E-01 
    2.0288692363111249E-01 
    1.6108133139954342E-01 
    1.2971556623991021E+00 
    1.2816199721307264E+00 
    1.2437003455236573E+00 
    1.1861079873888083E+00 
    1.1136491713809868E+00 
    1.0305178026941448E+00 
    9.3948348590140307E-01 
    8.4233709609620955E-01 
    7.4103842283092725E-01 
    6.3702452046523139E-01 
    5.2840619014898871E-01 
    4.2606559083462570E-01 
    3.4303724613398645E-01 
    2.6861260465456965E-01 
    1.9265330370833902E-01 
    1.3418688835984449E-01 
    1.2938621466991453E+00 
    1.2793689015343048E+00 
    1.2438564166516681E+00 
    1.1889188746882193E+00 
    1.1186475441269044E+00 
    1.0370126968681819E+00 
    9.4673160174341364E-01 
    8.4945785854212086E-01 
    7.4744304925096183E-01 
    6.4280940940171372E-01 
    5.3446559908109947E-01 
    4.3466229194279854E-01 
    3.5054866820939812E-01 
    2.7127885687213743E-01 
    1.8389116245336459E-01 
    1.0013830890581019E-01 
    1.2919269658087793E+00 
    1.2785357505792221E+00 
    1.2451457011669627E+00 
    1.1925174531388592E+00 
    1.1241849683304164E+00 
    1.0439310048571162E+00 
    9.5438256644554420E-01 
    8.5683224963807825E-01 
    7.5371936670012807E-01 
    6.4903021953008500E-01 
    5.4266944895381897E-01 
    4.4423681291838435E-01 
    3.5890183145862942E-01 
    2.7624247791608586E-01 
    1.7902854787117400E-01 
    5.6556547192127729E-02 
    1.2913930196559082E+00 
    1.2791921568805313E+00 
    1.2477010297814943E+00 
    1.1970784905953653E+00 
    1.1304396358748112E+00 
    1.0514514604124086E+00 
    9.6270988431662596E-01 
    8.6519500947272621E-01 
    7.6155205605769760E-01 
    6.5741053341780320E-01 
    5.5249967582656767E-01 
    4.5408749389179970E-01 
    3.6754465578643819E-01 
    2.8359053543623852E-01 
    1.8231423972587932E-01 
    0.0000000000000000E+00 

SCALARS Saturarion double 1 
LOOKUP_TABLE default 

    1.0000000000000000E+00 
    9.8095521021607823E-01 
    9.5633293479098314E-01 
    9.2956489360119532E-01 
    9.0262525989848097E-01 
    8.7589696089757796E-01 
    8.4909793823581137E-01 
    8.2142055692929650E-01 
    7.9110812027293487E-01 
    7.5379588233615391E-01 
    6.9488230073768109E-01 
    5.3406558962065975E-01 
    1.0548741872665809E-01 
    2.7746462483288861E-04 
    5.4924459739079930E-11 
    9.7412581967631243E-28 
    9.9382527741334414E-01 
    9.7806321214159342E-01 
    9.5525619265061190E-01 
    9.2937027290097141E-01 
    9.0285672085866042E-01 
    8.7638793572910945E-01 
    8.4980766925172768E-01 
    8.2239433355978520E-01 
    7.9252442633621512E-01 
    7.5620416537306367E-01 
    7.0061212335475331E-01 
    5.5888792594012637E-01 
    1.4153955255407194E-01 
    6.9601819280923653E-04 
    5.5311712039401595E-10 
    2.7562568515491003E-25 
    9.8871627975213172E-01 
    9.7386127967559644E-01 
    9.5253472768981207E-01 
    9.2778345820510622E-01 
    9.0197686691986800E-01 
    8.7599166573895393E-01 
    8.4980254235450570E-01 
    8.2277505847021293E-01 
    7.9339718568425377E-01 
    7.5795264180040389E-01 
    7.0476136331040484E-01 
    5.7463621554658406E-01 
    1.6963597671191016E-01 
    1.2562143850708728E-03 
    2.4380124351238903E-09 
    9.5665717367881594E-24 
    9.8272212154519256E-01 
    9.6863516893661417E-01 
    9.4851776845220692E-01 
    9.2493223132586055E-01 
    8.9999814809842182E-01 
    8.7466694891382990E-01 
    8.4901380010052740E-01 
    8.2248150866726188E-01 
    7.9365200024706906E-01 
    7.5903124030595959E-01 
    7.0780118434544204E-01 
    5.8677875208464902E-01 
    1.9560848699720818E-01 
    2.0271467072229812E-03 
    8.0440490463459105E-09 
    1.5444672042916472E-22 
    9.7558893962454674E-01 
    9.6235827744837787E-01 
    9.4335237030396957E-01 
    9.2092241695833399E-01 
    8.9696250768369634E-01 
    8.7241825141604679E-01 
    8.4742603233722014E-01 
    8.2148875928935672E-01 
    7.9326455236111593E-01 
    7.5944169417218466E-01 
    7.0989129791167405E-01 
    5.9606138244464690E-01 
    2.1707643111409486E-01 
    2.8897925760379382E-03 
    1.9138513539405758E-08 
    1.0476625271630057E-21 
    9.6713736663403882E-01 
    9.5494168636225651E-01 
    9.3705896835627123E-01 
    9.1579401216871970E-01 
    8.9288487234918557E-01 
    8.6923889689502709E-01 
    8.4502045057956676E-01 
    8.1977170343753614E-01 
    7.9220589450494960E-01 
    7.5915538370193103E-01 
    7.1102579590644133E-01 
    6.0256030566462560E-01 
    2.3219177636739968E-01 
    3.6273187280883279E-03 
    3.2357188680411062E-08 
    2.8302653460746016E-21 
    9.5719473802581123E-01 
    9.4625913413961382E-01 
    9.2958237737858695E-01 
    9.0952620257326711E-01 
    8.8774309710041155E-01 
    8.6509884134656312E-01 
    8.4176252966464227E-01 
    8.1729354487875272E-01 
    7.9043476735296314E-01 
    7.5811969234613630E-01 
    7.1112254062179248E-01 
    6.0607116681059015E-01 
    2.3889846344625182E-01 
    3.9531225079697304E-03 
    3.7215623666896584E-08 
    2.6679378581575998E-21 
    9.4556309621373846E-01 
    9.3614113640028251E-01 
    9.2080416361085093E-01 
    9.0203755459047563E-01 
    8.8146907921993767E-01 
    8.5993433250396811E-01 
    8.3759256065122589E-01 
    8.1399785763611099E-01 
    7.8789203256178164E-01 
    7.5625832479239397E-01 
    7.1004423035015474E-01 
    6.0605731286515951E-01 
    2.3526159455785361E-01 
    3.6649421826177109E-03 
    2.7393780054203696E-08 
    7.2839540481212876E-22 
    9.3198339699539789E-01 
    9.2435315863578327E-01 
    9.1053182609714656E-01 
    8.9317363395084093E-01 
    8.7393247396670604E-01 
    8.5363152134783049E-01 
    8.3241123180793886E-01 
    8.0979626385513670E-01 
    7.8448850182062613E-01 
    7.5345385986246283E-01 
    7.0755600583775946E-01 
    6.0120318539047723E-01 
    2.1738068114486236E-01 
    2.6831765121156231E-03 
    1.0365281501765350E-08 
    2.9938582580500107E-23 
    9.1607841968526438E-01 
    9.1055124449398439E-01 
    8.9846302767618302E-01 
    8.8267380126357431E-01 
    8.6490761794381688E-01 
    8.4599560439799038E-01 
    8.2605291346399734E-01 
    8.0454593333971458E-01 
    7.8008484206221007E-01 
    7.4952293355109967E-01 
    7.0326374006876835E-01 
    5.8877128843665893E-01 
    1.8383068643694406E-01 
    1.4533668812432132E-03 
    1.6951132692198430E-09 
    1.1149775198500739E-25 
    8.9724099479432218E-01 
    8.9418894340090371E-01 
    8.8410307820107625E-01 
    8.7009462685241945E-01 
    8.5400140726931550E-01 
    8.3668560074585652E-01 
    8.1823004550103018E-01 
    7.9800289940427549E-01 
    7.7444737237416494E-01 
    7.4415614048292122E-01 
    6.9642684546012612E-01 
    5.6262961180698678E-01 
    1.3329183122756488E-01 
    4.7860735791125460E-04 
    6.5819494554788645E-11 
    6.0855655342119473E-30 
    8.7436433012795822E-01 
    8.7429057124459908E-01 
    8.6655949829494550E-01 
    8.5461742336965796E-01 
    8.4047331188939400E-01 
    8.2505224779802755E-01 
    8.0839514729425943E-01 
    7.8970766178890750E-01 
    7.6714301190556433E-01 
    7.3677441643271691E-01 
    6.8543800451538417E-01 
    5.0928336582646638E-01 
    7.3886482609407500E-02 
    7.0986441177231508E-05 
    2.3052624168546319E-13 
    2.8236389847713898E-37 
    8.4500578277954663E-01 
    8.4875531411325111E-01 
    8.4391034342527638E-01 
    8.3445254774247946E-01 
    8.2267508531105904E-01 
    8.0962847069906418E-01 
    7.9530484658177547E-01 
    7.7863846209320720E-01 
    7.5726282764880337E-01 
    7.2618430631908459E-01 
    6.6636063411402480E-01 
    4.0940215611777830E-01 
    2.5353594768721337E-02 
    2.5457524969631954E-06 
    9.2277966965833723E-18 
    6.4784395940132503E-51 
    8.0159844129102642E-01 
    8.1123738339130558E-01 
    8.1038487519513125E-01 
    8.0417425041715451E-01 
    7.9552459879556603E-01 
    7.8581790510301996E-01 
    7.7502793704941442E-01 
    7.6162094892795451E-01 
    7.4217211772440705E-01 
    7.0948533082715215E-01 
    6.3044864409538082E-01 
    2.5881798438766634E-01 
    3.2728223542852243E-03 
    3.2061727210283840E-09 
    1.3236812061772714E-27 
    2.2444242308142978E-85 
    7.0662522930812499E-01 
    7.3037262341299336E-01 
    7.3792055416796454E-01 
    7.3754984623859987E-01 
    7.3422789731587046E-01 
    7.3081028063726017E-01 
    7.2801128035094331E-01 
    7.2351077251208606E-01 
    7.1070360496805929E-01 
    6.7478843444669079E-01 
    4.6930358033582920E-01 
    2.7859645286588360E-02 
    4.9203357826404976E-07 
    3.3019184606754153E-23 
    9.4949325578041483E-81 
   7.0034239650719416E-274 
    3.1777840241749677E-01 
    4.4954382481236776E-01 
    4.8406566831087616E-01 
    4.9021953634694621E-01 
    4.8360648185241084E-01 
    4.7165326819290621E-01 
    4.5786958488467394E-01 
    4.3263445144297458E-01 
    3.3228095127624807E-01 
    1.1562549869896040E-01 
    1.7358372364388842E-03 
    8.0155133576898648E-11 
    1.5701379867940493E-34 
    1.7873801207393158E-81 
   1.9246360413551768E-274 
    0.0000000000000000E+00 
