# vtk DataFile Version 2.0
Pressure Field Data 
ASCII 
DATASET UNSTRUCTURED_GRID 

POINTS 289 double 

    0.0000000000000000E+00     0.0000000000000000E+00     0.0000000000000000E+00 
    1.0000000000000000E+00     0.0000000000000000E+00     0.0000000000000000E+00 
    1.0000000000000000E+00     1.0000000000000000E+00     0.0000000000000000E+00 
    0.0000000000000000E+00     1.0000000000000000E+00     0.0000000000000000E+00 
    6.2499999999872928E-02     0.0000000000000000E+00     0.0000000000000000E+00 
    1.2499999999977310E-01     0.0000000000000000E+00     0.0000000000000000E+00 
    1.8749999999959341E-01     0.0000000000000000E+00     0.0000000000000000E+00 
    2.4999999999941089E-01     0.0000000000000000E+00     0.0000000000000000E+00 
    3.1249999999922851E-01     0.0000000000000000E+00     0.0000000000000000E+00 
    3.7499999999904610E-01     0.0000000000000000E+00     0.0000000000000000E+00 
    4.3749999999886358E-01     0.0000000000000000E+00     0.0000000000000000E+00 
    4.9999999999869210E-01     0.0000000000000000E+00     0.0000000000000000E+00 
    5.6249999999884603E-01     0.0000000000000000E+00     0.0000000000000000E+00 
    6.2499999999901090E-01     0.0000000000000000E+00     0.0000000000000000E+00 
    6.8749999999917577E-01     0.0000000000000000E+00     0.0000000000000000E+00 
    7.4999999999934064E-01     0.0000000000000000E+00     0.0000000000000000E+00 
    8.1249999999950551E-01     0.0000000000000000E+00     0.0000000000000000E+00 
    8.7499999999967026E-01     0.0000000000000000E+00     0.0000000000000000E+00 
    9.3749999999983513E-01     0.0000000000000000E+00     0.0000000000000000E+00 
    1.0000000000000000E+00     6.2499999999872928E-02     0.0000000000000000E+00 
    1.0000000000000000E+00     1.2499999999977310E-01     0.0000000000000000E+00 
    1.0000000000000000E+00     1.8749999999959341E-01     0.0000000000000000E+00 
    1.0000000000000000E+00     2.4999999999941089E-01     0.0000000000000000E+00 
    1.0000000000000000E+00     3.1249999999922851E-01     0.0000000000000000E+00 
    1.0000000000000000E+00     3.7499999999904610E-01     0.0000000000000000E+00 
    1.0000000000000000E+00     4.3749999999886358E-01     0.0000000000000000E+00 
    1.0000000000000000E+00     4.9999999999869210E-01     0.0000000000000000E+00 
    1.0000000000000000E+00     5.6249999999884603E-01     0.0000000000000000E+00 
    1.0000000000000000E+00     6.2499999999901090E-01     0.0000000000000000E+00 
    1.0000000000000000E+00     6.8749999999917577E-01     0.0000000000000000E+00 
    1.0000000000000000E+00     7.4999999999934064E-01     0.0000000000000000E+00 
    1.0000000000000000E+00     8.1249999999950551E-01     0.0000000000000000E+00 
    1.0000000000000000E+00     8.7499999999967026E-01     0.0000000000000000E+00 
    1.0000000000000000E+00     9.3749999999983513E-01     0.0000000000000000E+00 
    9.3749999999973976E-01     1.0000000000000000E+00     0.0000000000000000E+00 
    8.7499999999950118E-01     1.0000000000000000E+00     0.0000000000000000E+00 
    8.1249999999991318E-01     1.0000000000000000E+00     0.0000000000000000E+00 
    7.5000000000034706E-01     1.0000000000000000E+00     0.0000000000000000E+00 
    6.8750000000078049E-01     1.0000000000000000E+00     0.0000000000000000E+00 
    6.2500000000121403E-01     1.0000000000000000E+00     0.0000000000000000E+00 
    5.6250000000164757E-01     1.0000000000000000E+00     0.0000000000000000E+00 
    5.0000000000205946E-01     1.0000000000000000E+00     0.0000000000000000E+00 
    4.3750000000182099E-01     1.0000000000000000E+00     0.0000000000000000E+00 
    3.7500000000156092E-01     1.0000000000000000E+00     0.0000000000000000E+00 
    3.1250000000130068E-01     1.0000000000000000E+00     0.0000000000000000E+00 
    2.5000000000104050E-01     1.0000000000000000E+00     0.0000000000000000E+00 
    1.8750000000078040E-01     1.0000000000000000E+00     0.0000000000000000E+00 
    1.2500000000052031E-01     1.0000000000000000E+00     0.0000000000000000E+00 
    6.2500000000260125E-02     1.0000000000000000E+00     0.0000000000000000E+00 
    0.0000000000000000E+00     9.3749999999973976E-01     0.0000000000000000E+00 
    0.0000000000000000E+00     8.7499999999950118E-01     0.0000000000000000E+00 
    0.0000000000000000E+00     8.1249999999991318E-01     0.0000000000000000E+00 
    0.0000000000000000E+00     7.5000000000034706E-01     0.0000000000000000E+00 
    0.0000000000000000E+00     6.8750000000078049E-01     0.0000000000000000E+00 
    0.0000000000000000E+00     6.2500000000121403E-01     0.0000000000000000E+00 
    0.0000000000000000E+00     5.6250000000164757E-01     0.0000000000000000E+00 
    0.0000000000000000E+00     5.0000000000205946E-01     0.0000000000000000E+00 
    0.0000000000000000E+00     4.3750000000182099E-01     0.0000000000000000E+00 
    0.0000000000000000E+00     3.7500000000156092E-01     0.0000000000000000E+00 
    0.0000000000000000E+00     3.1250000000130068E-01     0.0000000000000000E+00 
    0.0000000000000000E+00     2.5000000000104050E-01     0.0000000000000000E+00 
    0.0000000000000000E+00     1.8750000000078040E-01     0.0000000000000000E+00 
    0.0000000000000000E+00     1.2500000000052031E-01     0.0000000000000000E+00 
    0.0000000000000000E+00     6.2500000000260125E-02     0.0000000000000000E+00 
    6.2499999999897131E-02     6.2500000000235922E-02     0.0000000000000000E+00 
    6.2499999999921327E-02     1.2500000000047351E-01     0.0000000000000000E+00 
    6.2499999999945530E-02     1.8750000000070621E-01     0.0000000000000000E+00 
    6.2499999999969733E-02     2.5000000000093858E-01     0.0000000000000000E+00 
    6.2499999999993928E-02     3.1250000000117117E-01     0.0000000000000000E+00 
    6.2500000000018124E-02     3.7500000000140382E-01     0.0000000000000000E+00 
    6.2500000000042327E-02     4.3750000000163619E-01     0.0000000000000000E+00 
    6.2500000000066530E-02     5.0000000000184897E-01     0.0000000000000000E+00 
    6.2500000000090733E-02     5.6250000000147260E-01     0.0000000000000000E+00 
    6.2500000000114922E-02     6.2500000000107636E-01     0.0000000000000000E+00 
    6.2500000000139125E-02     6.8750000000068034E-01     0.0000000000000000E+00 
    6.2500000000163328E-02     7.5000000000028411E-01     0.0000000000000000E+00 
    6.2500000000187531E-02     8.1249999999988787E-01     0.0000000000000000E+00 
    6.2500000000211720E-02     8.7499999999951172E-01     0.0000000000000000E+00 
    6.2500000000235922E-02     9.3749999999974565E-01     0.0000000000000000E+00 
    1.2499999999981980E-01     6.2500000000211733E-02     0.0000000000000000E+00 
    1.2499999999986650E-01     1.2500000000042691E-01     0.0000000000000000E+00 
    1.2499999999991319E-01     1.8750000000063199E-01     0.0000000000000000E+00 
    1.2499999999995989E-01     2.5000000000083678E-01     0.0000000000000000E+00 
    1.2500000000000661E-01     3.1250000000104172E-01     0.0000000000000000E+00 
    1.2500000000005329E-01     3.7500000000124661E-01     0.0000000000000000E+00 
    1.2500000000010000E-01     4.3750000000145117E-01     0.0000000000000000E+00 
    1.2500000000014669E-01     5.0000000000163858E-01     0.0000000000000000E+00 
    1.2500000000019340E-01     5.6250000000129741E-01     0.0000000000000000E+00 
    1.2500000000024011E-01     6.2500000000093847E-01     0.0000000000000000E+00 
    1.2500000000028680E-01     6.8750000000057998E-01     0.0000000000000000E+00 
    1.2500000000033351E-01     7.5000000000022127E-01     0.0000000000000000E+00 
    1.2500000000038020E-01     8.1249999999986211E-01     0.0000000000000000E+00 
    1.2500000000042691E-01     8.7499999999952238E-01     0.0000000000000000E+00 
    1.2500000000047359E-01     9.3749999999975164E-01     0.0000000000000000E+00 
    1.8749999999966760E-01     6.2500000000187531E-02     0.0000000000000000E+00 
    1.8749999999974179E-01     1.2500000000038020E-01     0.0000000000000000E+00 
    1.8749999999981601E-01     1.8750000000055780E-01     0.0000000000000000E+00 
    1.8749999999989009E-01     2.5000000000073502E-01     0.0000000000000000E+00 
    1.8749999999996431E-01     3.1250000000091221E-01     0.0000000000000000E+00 
    1.8750000000003850E-01     3.7500000000108941E-01     0.0000000000000000E+00 
    1.8750000000011269E-01     4.3750000000126649E-01     0.0000000000000000E+00 
    1.8750000000018691E-01     5.0000000000142808E-01     0.0000000000000000E+00 
    1.8750000000026110E-01     5.6250000000112244E-01     0.0000000000000000E+00 
    1.8750000000033529E-01     6.2500000000080080E-01     0.0000000000000000E+00 
    1.8750000000040951E-01     6.8750000000047962E-01     0.0000000000000000E+00 
    1.8750000000048361E-01     7.5000000000015843E-01     0.0000000000000000E+00 
    1.8750000000055780E-01     8.1249999999983680E-01     0.0000000000000000E+00 
    1.8750000000063199E-01     8.7499999999953304E-01     0.0000000000000000E+00 
    1.8750000000070621E-01     9.3749999999975764E-01     0.0000000000000000E+00 
    2.4999999999951281E-01     6.2500000000163314E-02     0.0000000000000000E+00 
    2.4999999999961461E-01     1.2500000000033351E-01     0.0000000000000000E+00 
    2.4999999999971650E-01     1.8750000000048361E-01     0.0000000000000000E+00 
    2.4999999999981831E-01     2.5000000000063310E-01     0.0000000000000000E+00 
    2.4999999999992020E-01     3.1250000000078260E-01     0.0000000000000000E+00 
    2.5000000000002198E-01     3.7500000000093209E-01     0.0000000000000000E+00 
    2.5000000000012390E-01     4.3750000000108180E-01     0.0000000000000000E+00 
    2.5000000000022571E-01     5.0000000000121769E-01     0.0000000000000000E+00 
    2.5000000000032763E-01     5.6250000000094724E-01     0.0000000000000000E+00 
    2.5000000000042938E-01     6.2500000000066314E-01     0.0000000000000000E+00 
    2.5000000000053119E-01     6.8750000000037925E-01     0.0000000000000000E+00 
[...]
CELL_DATA 256 
SCALARS Pressure double 1 
LOOKUP_TABLE default 

    1.4798767881531907E+00 
    1.2447857614292186E+00 
    1.1099471734106801E+00 
    1.0010961344461786E+00 
    9.0084259090569374E-01 
    8.0357742531582577E-01 
    7.0709918277821560E-01 
    6.1028495584529197E-01 
    5.1338140821889111E-01 
    4.4344793926870857E-01 
    3.9480485070504229E-01 
    3.5183964226853331E-01 
    3.1312914900624261E-01 
    2.8258370660334825E-01 
    2.6312725929067071E-01 
    2.5529183732673122E-01 
    1.4077653070109581E+00 
    1.2486442630943739E+00 
    1.1186299725799764E+00 
    1.0100362096714275E+00 
    9.0979151227388266E-01 
    8.1255460881238240E-01 
    7.1611249017954481E-01 
    6.1925831253203711E-01 
    5.2149530645455933E-01 
    4.4943672141425911E-01 
    3.9939328208852926E-01 
    3.5560998563276752E-01 
    3.1592634974792805E-01 
    2.8415237416944528E-01 
    2.6348390775441688E-01 
    2.5493945673179430E-01 
    1.3513025955546312E+00 
    1.2414238174730825E+00 
    1.1234042063766030E+00 
    1.0172814439396349E+00 
    9.1774673597170975E-01 
    8.2079843419438037E-01 
    7.2448565817160238E-01 
    6.2762030402568803E-01 
    5.2926363877016358E-01 
    4.5561523515390573E-01 
    4.0412068133323070E-01 
    3.5918516483053908E-01 
    3.1818512304173047E-01 
    2.8487845751575408E-01 
    2.6282389939439926E-01 
    2.5367169392940914E-01 
    1.3064655731548649E+00 
    1.2287205860011765E+00 
    1.1245843701397440E+00 
    1.0227413289325258E+00 
    9.2465525289204398E-01 
    8.2829052626735633E-01 
    7.3222316540350985E-01 
    6.3539396559241335E-01 
    5.3662943054896484E-01 
    4.6198166260902729E-01 
    4.0905421800816627E-01 
    3.6264887582112276E-01 
    3.1999399507946635E-01 
    2.8480253696348290E-01 
    2.6108741624771981E-01 
    2.5131440994614607E-01 
    1.2703883943952219E+00 
    1.2137742945834238E+00 
    1.1229459950191538E+00 
    1.0264964610100846E+00 
    9.3051292839049771E-01 
    8.3502876884674715E-01 
    7.3933123442056770E-01 
    6.4259377253854055E-01 
    5.4361384946807989E-01 
    4.6854928739969753E-01 
    4.1424457577291413E-01 
    3.6608321443862119E-01 
    3.2144671420135301E-01 
    2.8397272020082692E-01 
    2.5821073996070903E-01 
    2.4768559059252293E-01 
    1.2410692162391821E+00 
    1.1984445850709116E+00 
    1.1193407259866708E+00 
    1.0287575034267746E+00 
    9.3536845587561812E-01 
    8.4103126788540861E-01 
    7.4582128357009003E-01 
    6.4921985754941358E-01 
    5.5031192882588664E-01 
    4.7534642990380749E-01 
    4.1972783138298531E-01 
    3.6956829908386424E-01 
    3.2264666901599637E-01 
    2.8245223390528013E-01 
    2.5412945332069203E-01 
    2.4258265220398376E-01 
    1.2170920271853383E+00 
    1.1837781941202752E+00 
    1.1145379058524445E+00 
    1.0298108059050424E+00 
    9.3931788919948667E-01 
    8.4633796834409991E-01 
    7.5171348166025198E-01 
    6.5525053055868798E-01 
    5.5689433658144949E-01 
    4.8241662329385093E-01 
    4.2551856300230678E-01 
    3.7318152315179576E-01 
    3.2371099976344203E-01 
    2.8032912034627849E-01 
    2.4878426173909390E-01 
    2.3576813063360053E-01 
    1.1974403406914971E+00 
    1.1703456471002764E+00 
    1.1091746344995552E+00 
    1.0299734811691694E+00 
    9.4249399663825573E-01 
    8.5100967771820124E-01 
    7.5704121882591224E-01 
    6.6064458098324030E-01 
    5.6358810431219364E-01 
    4.8981987300850577E-01 
    4.3160727109999270E-01 
    3.7699639493481629E-01 
    3.2477405413450899E-01 
    2.7772856934169382E-01 
    2.4213154573038767E-01 
    2.2695202117893984E-01 
    1.1813721273540110E+00 
    1.1584411213968608E+00 
    1.1037547588086851E+00 
    1.0295629645625541E+00 
    9.4505427800031561E-01 
    8.5512454905517132E-01 
    7.6185338433852845E-01 
    6.6539139226814770E-01 
    5.7062883473955861E-01 
    4.9762557072063895E-01 
    4.3796574118024001E-01 
    3.8108107280734749E-01 
    3.2598944606613006E-01 
    2.7482820677559694E-01 
    2.3416201690879015E-01 
    2.1576847520153491E-01 
    1.1683344665419426E+00 
    1.1482005795633763E+00 
    1.0986670014872393E+00 
    1.0288794814610642E+00 
    9.4717009751071091E-01 
    8.5877272629999479E-01 
    7.6620230935724276E-01 
    6.6964550180695714E-01 
    5.7818452704632051E-01 
    5.0588050869472634E-01 
    4.4456039237873141E-01 
    3.8549637413195370E-01 
    3.2752942497110760E-01 
    2.7187603417012968E-01 
    2.2493301850686298E-01 
    2.0174358129592060E-01 
    1.1579034419942191E+00 
    1.1396705724325045E+00 
    1.0942077263871310E+00 
    1.0281979176414240E+00 
    9.4901795923040122E-01 
    8.6205200767524215E-01 
    7.7009447986762747E-01 
    6.7393727058419972E-01 
    5.8629156735937660E-01 
    5.1452226064208539E-01 
    4.5136211203519588E-01 
    3.9029228434713586E-01 
    3.2957955660976057E-01 
    2.6920924692202519E-01 
    2.1462367002944802E-01 
    1.8424935995346320E-01 
    1.1497387482665875E+00 
    1.1328459892367453E+00 
    1.0906010188112778E+00 
    1.0277652206324959E+00 
    9.5077214973362678E-01 
    8.6506748715205917E-01 
    7.7345145918893954E-01 
    6.7912377532240475E-01 
    5.9491450450065009E-01 
    5.2330144795830069E-01 
    4.5833563053960336E-01 
    3.9550141539625222E-01 
    3.3232604728920284E-01 
    2.6726905851922317E-01 
    2.0362819832821810E-01 
    1.6243653648841810E-01 
    1.1435427487515142E+00 
    1.1276841701950990E+00 
    1.0880100451487837E+00 
    1.0277983017436578E+00 
    9.5259511891145898E-01 
    8.6789844427371499E-01 
    7.7673341943422580E-01 
    6.8581595128089301E-01 
    6.0402794478937671E-01 
    5.3193065272272633E-01 
    4.6542532818415061E-01 
    4.0113014874761110E-01 
    3.3593303264134572E-01 
    2.6660045919416897E-01 
    1.9271310734766847E-01 
    1.3513456110971370E-01 
    1.1390021888774446E+00 
    1.1240832827330145E+00 
    1.0865224109910898E+00 
    1.0284667338531721E+00 
    9.5459806532097535E-01 
    8.7063366644997564E-01 
    7.8158514722143857E-01 
    6.9390121066410082E-01 
    6.1329330583680008E-01 
    5.4027088205294804E-01 
    4.7256000138181364E-01 
    4.0715115605766394E-01 
    3.4050881229686297E-01 
    2.6781382779473445E-01 
    1.8328116162152908E-01 
    1.0070078945836423E-01 
    1.1358724011881491E+00 
    1.1219032493543333E+00 
    1.0861149577748346E+00 
    1.0297708491478159E+00 
    9.5761833762960935E-01 
    8.7537778164443558E-01 
    7.8869413095623486E-01 
    7.0271342311100504E-01 
    6.2217942298230833E-01 
    5.4827719203527658E-01 
    4.7966326557605587E-01 
    4.1350079743503709E-01 
    3.4606528556047855E-01 
    2.7146251720244163E-01 
    1.7781430746566504E-01 
    5.6790199690728786E-02 
    1.1351889133019542E+00 
    1.1223757377633798E+00 
    1.0883545760728714E+00 
    1.0337199503176602E+00 
    9.6331449546054659E-01 
    8.8255959830033359E-01 
    7.9694730632719535E-01 
    7.1146684022812368E-01 
    6.3050594848468511E-01 
    5.5591046672344702E-01 
    4.8665674093762257E-01 
    4.2008360074562523E-01 
    3.5248840065583814E-01 
    2.7774794881518750E-01 
    1.8061678863754177E-01 
    0.0000000000000000E+00 

SCALARS Saturarion double 1 
LOOKUP_TABLE default 

    1.0000000000000000E+00 
    9.7373567257232685E-01 
    9.4017193450626213E-01 
    9.0345926733278503E-01 
    8.6566494747036216E-01 
    8.2638711344034621E-01 
    7.8316826995178168E-01 
    7.2730513426693988E-01 
    6.1446154423049415E-01 
    2.2868429786604982E-01 
    3.1004001156858373E-03 
    1.4604623539454525E-08 
    8.8012737943091099E-23 
    4.6883338875797772E-61 
   5.9589557703075216E-164 
    0.0000000000000000E+00 
    9.9137979016109201E-01 
    9.6981064225887148E-01 
    9.3880119123364281E-01 
    9.0335963486092719E-01 
    8.6622152794264651E-01 
    8.2742034921724494E-01 
    7.8482975038118408E-01 
    7.3068120339902731E-01 
    6.2684563025548623E-01 
    2.6247004418227737E-01 
    5.0344068077492511E-03 
    5.1075673833099485E-08 
    2.0703639935210313E-21 
    1.3561131403199413E-57 
   1.8427738727569310E-155 
    0.0000000000000000E+00 
    9.8434543523397144E-01 
    9.6415839689850469E-01 
    9.3529449211332150E-01 
    9.0150692189568937E-01 
    8.6541708914281401E-01 
    8.2735777003155608E-01 
    7.8546788683808744E-01 
    7.3242535823471144E-01 
    6.3203990851856051E-01 
    2.7613026737801050E-01 
    6.0227267386949550E-03 
    7.8990023506006033E-08 
    5.4621811076894219E-21 
    9.6851037974393266E-57 
   4.9803859111333694E-154 
    0.0000000000000000E+00 
    9.7620823735793938E-01 
    9.5721130542089650E-01 
    9.3014284505858169E-01 
    8.9807149127564456E-01 
    8.6325646066632744E-01 
    8.2613009049336839E-01 
    7.8500006377312825E-01 
    7.3270667133676581E-01 
    6.3325946976832370E-01 
    2.7851805980309641E-01 
    6.1488141022287141E-03 
    7.7504024736175788E-08 
    3.8912571045193556E-21 
    1.4381264091205318E-57 
   1.6446938300871873E-157 
    0.0000000000000000E+00 
    9.6667849925810634E-01 
    9.4898230070740797E-01 
    9.2358022215199775E-01 
    8.9321613324844695E-01 
    8.5980584041448038E-01 
    8.2374977419986872E-01 
    7.8342275023997876E-01 
    7.3157487864361526E-01 
    6.3044538905747138E-01 
    2.6790012808504127E-01 
    5.2359786855205410E-03 
    4.5148052378845324E-08 
    6.1261710501117397E-22 
    2.4071121333914727E-60 
   9.7162906818902592E-167 
    0.0000000000000000E+00 
    9.5558523904409087E-01 
    9.3940932928658183E-01 
    9.1568164511480898E-01 
    8.8703136847561059E-01 
    8.5511206614575064E-01 
    8.2022701741791026E-01 
    7.8072189190983554E-01 
    7.2896168781046100E-01 
    6.2264293027299222E-01 
    2.4325521567184219E-01 
    3.5897360121920638E-03 
    1.4058112027045537E-08 
    1.4858560245317042E-23 
    1.4872262101715344E-65 
   2.2589507449262445E-183 
    0.0000000000000000E+00 
    9.4277941610093385E-01 
    9.2839019197966399E-01 
    9.0643122297089818E-01 
    8.7953950685242843E-01 
    8.4918660680112479E-01 
    8.1555117743635264E-01 
    7.7685396879910151E-01 
    7.2469343864927638E-01 
    6.0797322913810403E-01 
    2.0479370891804008E-01 
    1.8729015784612470E-03 
    1.9394441411825431E-09 
    2.8322621668963488E-26 
    2.9716003626705465E-74 
   6.5351358268889455E-211 
    0.0000000000000000E+00 
    9.2808750901284942E-01 
    9.1577520493610998E-01 
    8.9574000839693579E-01 
    8.7069557587615443E-01 
    8.4199427904855151E-01 
    8.0967710767506418E-01 
    7.7172735777893298E-01 
    7.1841506114356901E-01 
    5.8270335032612119E-01 
    1.5433784815884341E-01 
    6.7017104790602702E-04 
    8.2836966502997055E-11 
    1.2456508277122120E-30 
    2.3061592318520385E-88 
   1.0283994266326973E-255 
    0.0000000000000000E+00 
    9.1125898196798516E-01 
    9.0133731661370420E-01 
    8.8343294185770371E-01 
    8.6037308222675046E-01 
    8.3343433617600571E-01 
    8.0250387778320920E-01 
    7.6516406631928002E-01 
    7.0934848506443426E-01 
    5.3797386930422819E-01 
    9.5415429622885170E-02 
    1.2863167583931836E-04 
    4.6753025375469677E-13 
    7.7540256810021012E-38 
   2.5754221398408247E-112 
    0.0000000000000000E+00 
    0.0000000000000000E+00 
    8.9187833203472411E-01 
    8.8470735018802227E-01 
    8.6919986674248428E-01 
    8.4832144283991129E-01 
    8.2330017498773223E-01 
    7.9383271490612983E-01 
    7.5681754044868432E-01 
    6.9574340914314192E-01 
    4.6330943525566826E-01 
    4.3328552810759348E-02 
    8.9130051865010911E-06 
    8.6956466827792660E-17 
    1.5122400995702834E-50 
   1.2390427944456767E-155 
    0.0000000000000000E+00 
    0.0000000000000000E+00 
    8.6917473659156907E-01 
    8.6522443067791710E-01 
    8.5247073760032799E-01 
    8.3405762863688448E-01 
    8.1118494837681110E-01 
    7.8327730562040210E-01 
    7.4596492101894984E-01 
    6.7290156019561120E-01 
    3.4228568488771033E-01 
    1.0488135327523121E-02 
    7.5779910587808095E-08 
    6.3282673177162829E-24 
    5.4277478942522902E-76 
   7.0279980384252941E-249 
    0.0000000000000000E+00 
    0.0000000000000000E+00 
    8.4149746643454304E-01 
    8.4152242690215917E-01 
    8.3206567973330869E-01 
    8.1656326038983995E-01 
    7.9622290724633360E-01 
    7.6999702635792622E-01 
    7.3079536004763224E-01 
    6.2469432899371502E-01 
    1.7825860825447362E-01 
    5.9778956062144612E-04 
    3.2164710942929899E-12 
    2.1150476089654514E-40 
   3.5766417627149561E-143 
    0.0000000000000000E+00 
    0.0000000000000000E+00 
    0.0000000000000000E+00 
    8.0446135840362953E-01 
    8.1007923240480129E-01 
    8.0497758820565701E-01 
    7.9324506516162119E-01 
    7.7618716091269924E-01 
    7.5154778485613849E-01 
    7.0602007914566789E-01 
    4.7043445094987846E-01 
    2.9181252753013604E-02 
    3.0543786106536959E-07 
    4.9192651314768796E-26 
   5.2525216397646916E-105 
    0.0000000000000000E+00 
    0.0000000000000000E+00 
    0.0000000000000000E+00 
    0.0000000000000000E+00 
    7.4081158874532027E-01 
    7.5744768801241447E-01 
    7.6009072988297177E-01 
    7.5465719257327013E-01 
    7.4252966582598889E-01 
    7.1740069941754681E-01 
    6.1564642121503366E-01 
    9.2295847017279220E-02 
    5.0803300199463374E-06 
    8.2217033958358569E-25 
   1.8887006499351411E-109 
    0.0000000000000000E+00 
    0.0000000000000000E+00 
    0.0000000000000000E+00 
    0.0000000000000000E+00 
    0.0000000000000000E+00 
    5.3742260309393142E-01 
    6.1268266697254004E-01 
    6.4092255266269005E-01 
    6.4644890531679022E-01 
    6.2499524069532864E-01 
    4.3650154595804347E-01 
    3.4116854497637288E-02 
    1.9253988277999413E-07 
    2.1048104801777113E-29 
   2.1888409112845512E-122 
    0.0000000000000000E+00 
    0.0000000000000000E+00 
    0.0000000000000000E+00 
    0.0000000000000000E+00 
    0.0000000000000000E+00 
    0.0000000000000000E+00 
    6.4814890000448933E-02 
    1.8744521033610162E-01 
    2.0936749917710840E-01 
    1.6234673322423451E-01 
    6.5961881284809745E-02 
    2.6538474391045105E-03 
    8.6321165707645386E-09 
    2.4699714486426851E-33 
   6.5321566323849541E-133 
    0.0000000000000000E+00 
    0.0000000000000000E+00 
    0.0000000000000000E+00 
    0.0000000000000000E+00 
    0.0000000000000000E+00 
    0.0000000000000000E+00 
    0.0000000000000000E+00 
