# vtk DataFile Version 2.0
Pressure Field Data 
ASCII 
DATASET UNSTRUCTURED_GRID 

POINTS 289 double 

    0.0000000000000000E+00     0.0000000000000000E+00     0.0000000000000000E+00 
    1.0000000000000000E+00     0.0000000000000000E+00     0.0000000000000000E+00 
    1.0000000000000000E+00     1.0000000000000000E+00     0.0000000000000000E+00 
    0.0000000000000000E+00     1.0000000000000000E+00     0.0000000000000000E+00 
    6.2499999999872928E-02     0.0000000000000000E+00     0.0000000000000000E+00 
    1.2499999999977310E-01     0.0000000000000000E+00     0.0000000000000000E+00 
    1.8749999999959341E-01     0.0000000000000000E+00     0.0000000000000000E+00 
    2.4999999999941089E-01     0.0000000000000000E+00     0.0000000000000000E+00 
    3.1249999999922851E-01     0.0000000000000000E+00     0.0000000000000000E+00 
    3.7499999999904610E-01     0.0000000000000000E+00     0.0000000000000000E+00 
    4.3749999999886358E-01     0.0000000000000000E+00     0.0000000000000000E+00 
    4.9999999999869210E-01     0.0000000000000000E+00     0.0000000000000000E+00 
    5.6249999999884603E-01     0.0000000000000000E+00     0.0000000000000000E+00 
    6.2499999999901090E-01     0.0000000000000000E+00     0.0000000000000000E+00 
    6.8749999999917577E-01     0.0000000000000000E+00     0.0000000000000000E+00 
    7.4999999999934064E-01     0.0000000000000000E+00     0.0000000000000000E+00 
    8.1249999999950551E-01     0.0000000000000000E+00     0.0000000000000000E+00 
    8.7499999999967026E-01     0.0000000000000000E+00     0.0000000000000000E+00 
    9.3749999999983513E-01     0.0000000000000000E+00     0.0000000000000000E+00 
    1.0000000000000000E+00     6.2499999999872928E-02     0.0000000000000000E+00 
    1.0000000000000000E+00     1.2499999999977310E-01     0.0000000000000000E+00 
    1.0000000000000000E+00     1.8749999999959341E-01     0.0000000000000000E+00 
    1.0000000000000000E+00     2.4999999999941089E-01     0.0000000000000000E+00 
    1.0000000000000000E+00     3.1249999999922851E-01     0.0000000000000000E+00 
    1.0000000000000000E+00     3.7499999999904610E-01     0.0000000000000000E+00 
    1.0000000000000000E+00     4.3749999999886358E-01     0.0000000000000000E+00 
    1.0000000000000000E+00     4.9999999999869210E-01     0.0000000000000000E+00 
    1.0000000000000000E+00     5.6249999999884603E-01     0.0000000000000000E+00 
    1.0000000000000000E+00     6.2499999999901090E-01     0.0000000000000000E+00 
    1.0000000000000000E+00     6.8749999999917577E-01     0.0000000000000000E+00 
    1.0000000000000000E+00     7.4999999999934064E-01     0.0000000000000000E+00 
    1.0000000000000000E+00     8.1249999999950551E-01     0.0000000000000000E+00 
    1.0000000000000000E+00     8.7499999999967026E-01     0.0000000000000000E+00 
    1.0000000000000000E+00     9.3749999999983513E-01     0.0000000000000000E+00 
    9.3749999999973976E-01     1.0000000000000000E+00     0.0000000000000000E+00 
    8.7499999999950118E-01     1.0000000000000000E+00     0.0000000000000000E+00 
    8.1249999999991318E-01     1.0000000000000000E+00     0.0000000000000000E+00 
    7.5000000000034706E-01     1.0000000000000000E+00     0.0000000000000000E+00 
    6.8750000000078049E-01     1.0000000000000000E+00     0.0000000000000000E+00 
    6.2500000000121403E-01     1.0000000000000000E+00     0.0000000000000000E+00 
    5.6250000000164757E-01     1.0000000000000000E+00     0.0000000000000000E+00 
    5.0000000000205946E-01     1.0000000000000000E+00     0.0000000000000000E+00 
    4.3750000000182099E-01     1.0000000000000000E+00     0.0000000000000000E+00 
    3.7500000000156092E-01     1.0000000000000000E+00     0.0000000000000000E+00 
    3.1250000000130068E-01     1.0000000000000000E+00     0.0000000000000000E+00 
    2.5000000000104050E-01     1.0000000000000000E+00     0.0000000000000000E+00 
    1.8750000000078040E-01     1.0000000000000000E+00     0.0000000000000000E+00 
    1.2500000000052031E-01     1.0000000000000000E+00     0.0000000000000000E+00 
    6.2500000000260125E-02     1.0000000000000000E+00     0.0000000000000000E+00 
    0.0000000000000000E+00     9.3749999999973976E-01     0.0000000000000000E+00 
    0.0000000000000000E+00     8.7499999999950118E-01     0.0000000000000000E+00 
    0.0000000000000000E+00     8.1249999999991318E-01     0.0000000000000000E+00 
    0.0000000000000000E+00     7.5000000000034706E-01     0.0000000000000000E+00 
    0.0000000000000000E+00     6.8750000000078049E-01     0.0000000000000000E+00 
    0.0000000000000000E+00     6.2500000000121403E-01     0.0000000000000000E+00 
    0.0000000000000000E+00     5.6250000000164757E-01     0.0000000000000000E+00 
    0.0000000000000000E+00     5.0000000000205946E-01     0.0000000000000000E+00 
    0.0000000000000000E+00     4.3750000000182099E-01     0.0000000000000000E+00 
    0.0000000000000000E+00     3.7500000000156092E-01     0.0000000000000000E+00 
    0.0000000000000000E+00     3.1250000000130068E-01     0.0000000000000000E+00 
    0.0000000000000000E+00     2.5000000000104050E-01     0.0000000000000000E+00 
    0.0000000000000000E+00     1.8750000000078040E-01     0.0000000000000000E+00 
    0.0000000000000000E+00     1.2500000000052031E-01     0.0000000000000000E+00 
    0.0000000000000000E+00     6.2500000000260125E-02     0.0000000000000000E+00 
    6.2499999999897131E-02     6.2500000000235922E-02     0.0000000000000000E+00 
    6.2499999999921327E-02     1.2500000000047351E-01     0.0000000000000000E+00 
    6.2499999999945530E-02     1.8750000000070621E-01     0.0000000000000000E+00 
    6.2499999999969733E-02     2.5000000000093858E-01     0.0000000000000000E+00 
    6.2499999999993928E-02     3.1250000000117117E-01     0.0000000000000000E+00 
    6.2500000000018124E-02     3.7500000000140382E-01     0.0000000000000000E+00 
    6.2500000000042327E-02     4.3750000000163619E-01     0.0000000000000000E+00 
    6.2500000000066530E-02     5.0000000000184897E-01     0.0000000000000000E+00 
    6.2500000000090733E-02     5.6250000000147260E-01     0.0000000000000000E+00 
    6.2500000000114922E-02     6.2500000000107636E-01     0.0000000000000000E+00 
    6.2500000000139125E-02     6.8750000000068034E-01     0.0000000000000000E+00 
    6.2500000000163328E-02     7.5000000000028411E-01     0.0000000000000000E+00 
    6.2500000000187531E-02     8.1249999999988787E-01     0.0000000000000000E+00 
    6.2500000000211720E-02     8.7499999999951172E-01     0.0000000000000000E+00 
    6.2500000000235922E-02     9.3749999999974565E-01     0.0000000000000000E+00 
    1.2499999999981980E-01     6.2500000000211733E-02     0.0000000000000000E+00 
    1.2499999999986650E-01     1.2500000000042691E-01     0.0000000000000000E+00 
    1.2499999999991319E-01     1.8750000000063199E-01     0.0000000000000000E+00 
    1.2499999999995989E-01     2.5000000000083678E-01     0.0000000000000000E+00 
    1.2500000000000661E-01     3.1250000000104172E-01     0.0000000000000000E+00 
    1.2500000000005329E-01     3.7500000000124661E-01     0.0000000000000000E+00 
    1.2500000000010000E-01     4.3750000000145117E-01     0.0000000000000000E+00 
    1.2500000000014669E-01     5.0000000000163858E-01     0.0000000000000000E+00 
    1.2500000000019340E-01     5.6250000000129741E-01     0.0000000000000000E+00 
    1.2500000000024011E-01     6.2500000000093847E-01     0.0000000000000000E+00 
    1.2500000000028680E-01     6.8750000000057998E-01     0.0000000000000000E+00 
    1.2500000000033351E-01     7.5000000000022127E-01     0.0000000000000000E+00 
    1.2500000000038020E-01     8.1249999999986211E-01     0.0000000000000000E+00 
    1.2500000000042691E-01     8.7499999999952238E-01     0.0000000000000000E+00 
    1.2500000000047359E-01     9.3749999999975164E-01     0.0000000000000000E+00 
    1.8749999999966760E-01     6.2500000000187531E-02     0.0000000000000000E+00 
    1.8749999999974179E-01     1.2500000000038020E-01     0.0000000000000000E+00 
    1.8749999999981601E-01     1.8750000000055780E-01     0.0000000000000000E+00 
    1.8749999999989009E-01     2.5000000000073502E-01     0.0000000000000000E+00 
    1.8749999999996431E-01     3.1250000000091221E-01     0.0000000000000000E+00 
    1.8750000000003850E-01     3.7500000000108941E-01     0.0000000000000000E+00 
    1.8750000000011269E-01     4.3750000000126649E-01     0.0000000000000000E+00 
    1.8750000000018691E-01     5.0000000000142808E-01     0.0000000000000000E+00 
    1.8750000000026110E-01     5.6250000000112244E-01     0.0000000000000000E+00 
    1.8750000000033529E-01     6.2500000000080080E-01     0.0000000000000000E+00 
    1.8750000000040951E-01     6.8750000000047962E-01     0.0000000000000000E+00 
    1.8750000000048361E-01     7.5000000000015843E-01     0.0000000000000000E+00 
    1.8750000000055780E-01     8.1249999999983680E-01     0.0000000000000000E+00 
    1.8750000000063199E-01     8.7499999999953304E-01     0.0000000000000000E+00 
    1.8750000000070621E-01     9.3749999999975764E-01     0.0000000000000000E+00 
    2.4999999999951281E-01     6.2500000000163314E-02     0.0000000000000000E+00 
    2.4999999999961461E-01     1.2500000000033351E-01     0.0000000000000000E+00 
    2.4999999999971650E-01     1.8750000000048361E-01     0.0000000000000000E+00 
    2.4999999999981831E-01     2.5000000000063310E-01     0.0000000000000000E+00 
    2.4999999999992020E-01     3.1250000000078260E-01     0.0000000000000000E+00 
    2.5000000000002198E-01     3.7500000000093209E-01     0.0000000000000000E+00 
    2.5000000000012390E-01     4.3750000000108180E-01     0.0000000000000000E+00 
    2.5000000000022571E-01     5.0000000000121769E-01     0.0000000000000000E+00 
    2.5000000000032763E-01     5.6250000000094724E-01     0.0000000000000000E+00 
    2.5000000000042938E-01     6.2500000000066314E-01     0.0000000000000000E+00 
    2.5000000000053119E-01     6.8750000000037925E-01     0.0000000000000000E+00 
[...]
CELL_DATA 256 
SCALARS Pressure double 1 
LOOKUP_TABLE default 

    1.3562503416423908E+00 
    1.1165084360548805E+00 
    9.7599520550803676E-01 
    8.6074998658023705E-01 
    7.5306701666219666E-01 
    6.6619309915408875E-01 
    6.0792230942151781E-01 
    5.5709337310959184E-01 
    5.0485767476299015E-01 
    4.5290369470792269E-01 
    4.0276272687970616E-01 
    3.5626791908752609E-01 
    3.1587408636618169E-01 
    2.8451164623310143E-01 
    2.6468528739692143E-01 
    2.5672685841434706E-01 
    1.2820274816913539E+00 
    1.1197054331649674E+00 
    9.8442980803245761E-01 
    8.6961370279458228E-01 
    7.6151068000043898E-01 
    6.7349956026494673E-01 
    6.1381302657363124E-01 
    5.6245028454862056E-01 
    5.1005996679157661E-01 
    4.5786926082899626E-01 
    4.0730392114240088E-01 
    3.6011767150915991E-01 
    3.1871702007682179E-01 
    2.8609935137948567E-01 
    2.6504436268485937E-01 
    2.5636877889874810E-01 
    1.2223925425752540E+00 
    1.1106459404727027E+00 
    9.8806673184029614E-01 
    8.7605492169652666E-01 
    7.6850210455752854E-01 
    6.8081320416371471E-01 
    6.2018055857971244E-01 
    5.6803933694604702E-01 
    5.1529724966186796E-01 
    4.6275070648894762E-01 
    4.1163397844893224E-01 
    3.6357948988491678E-01 
    3.2093282245088484E-01 
    2.8679987829166786E-01 
    2.6436222815960719E-01 
    2.5508047691948932E-01 
    1.1737054072430928E+00 
    1.0951660271351917E+00 
    9.8724393331479843E-01 
    8.7997545320097870E-01 
    7.7399762063230981E-01 
    6.8806064345043572E-01 
    6.2695583648857167E-01 
    5.7385231084708899E-01 
    5.2059901273435438E-01 
    4.6759066025866591E-01 
    4.1581317462390549E-01 
    3.6673181461782395E-01 
    3.2260050415513553E-01 
    2.8664846133444899E-01 
    2.6257613609626923E-01 
    2.5268524183134483E-01 
    1.1332363262988920E+00 
    1.0766612299082423E+00 
    9.8278796259868639E-01 
    8.8143175296163923E-01 
    7.7817517708849093E-01 
    6.9521569382503701E-01 
    6.3404681645731054E-01 
    5.7986162061241231E-01 
    5.2598351186212078E-01 
    4.7242840530555003E-01 
    4.1990268142394005E-01 
    3.6965872494281188E-01 
    3.2380971449732160E-01 
    2.8569000530656868E-01 
    2.5962046645366993E-01 
    2.4899929357289563E-01 
    1.0990858901105236E+00 
    1.0571137726123319E+00 
    9.7560947056260428E-01 
    8.8056888539490685E-01 
    7.8144926435563788E-01 
    7.0229866324463586E-01 
    6.4133084010197516E-01 
    5.8602682920200699E-01 
    5.3145903511448600E-01 
    4.7729869780919693E-01 
    4.2396348251879828E-01 
    3.7245043147081680E-01 
    3.2466499591827014E-01 
    2.8398705410247266E-01 
    2.5543019070743644E-01 
    2.4381922472758397E-01 
    1.0699211945984390E+00 
    1.0376674690029632E+00 
    9.6653841459439904E-01 
    8.7760404855177343E-01 
    7.8439293893450790E-01 
    7.0937840308733691E-01 
    6.4865637304468682E-01 
    5.9230031288037055E-01 
    5.3702561917293368E-01 
    4.8223096844174101E-01 
    4.2805498212697246E-01 
    3.7520298932777291E-01 
    3.2528975763034185E-01 
    2.8162967639535819E-01 
    2.4994688280498106E-01 
    2.3690781295551452E-01 
    1.0447906069218043E+00 
    1.0189630880843481E+00 
    9.5624498235722533E-01 
    8.7311591150258050E-01 
    7.8754644737384261E-01 
    7.1654024105356617E-01 
    6.5588473265377822E-01 
    5.9863311022474619E-01 
    5.4267700875748481E-01 
    4.8724878236970681E-01 
    4.3223326142045831E-01 
    3.7801693529388519E-01 
    3.2582949043318765E-01 
    2.7874783518499074E-01 
    2.4312937999767309E-01 
    2.2797645642509368E-01 
    1.0229895507525646E+00 
    1.0013313494004783E+00 
    9.4511534955236531E-01 
    8.6848224928394913E-01 
    7.9127053127096036E-01 
    7.2374872313121585E-01 
    6.6293969172624556E-01 
    6.0498171451445915E-01 
    5.4840275518196935E-01 
    4.9236948311821244E-01 
    4.3654897084787775E-01 
    3.8099451167994192E-01 
    3.2645337542036423E-01 
    2.7552657583574808E-01 
    2.3497246325055393E-01 
    2.1666192796317213E-01 
    1.0039443057448523E+00 
    9.8487125925543939E-01 
    9.3349857676563119E-01 
    8.6519864408202218E-01 
    7.9567987827227238E-01 
    7.3077229588402570E-01 
    6.6980061674002056E-01 
    6.1131255497547154E-01 
    5.5419014515513487E-01 
    4.9760398160925251E-01 
    4.4104492338027257E-01 
    3.8423516622881954E-01 
    3.2735294331959736E-01 
    2.7222373452870946E-01 
    2.2553909804110997E-01 
    2.0249417042076362E-01 
    9.8705426054554046E-01 
    9.6921586102708912E-01 
    9.2387722528506411E-01 
    8.6443640378563369E-01 
    8.0058730588901361E-01 
    7.3741652383780287E-01 
    6.7646604140888267E-01 
    6.1760200722070835E-01 
    5.6002556529262770E-01 
    5.0295667998903293E-01 
    4.4575357254982584E-01 
    3.8782917365243402E-01 
    3.2873585114301529E-01 
    2.6918841108776009E-01 
    2.1501543704455323E-01 
    1.8485026122332951E-01 
    9.7251038050030503E-01 
    9.5707748324109532E-01 
    9.1869240299549226E-01 
    8.6575670492532242E-01 
    8.0557514266650920E-01 
    7.4369244083974839E-01 
    6.8294272886938545E-01 
    6.2383455058915660E-01 
    5.6589525030015442E-01 
    5.0842556657325788E-01 
    4.5069470870751621E-01 
    3.9184959434634647E-01 
    3.3081231046482512E-01 
    2.6687536776992038E-01 
    2.0380393069967576E-01 
    1.6288711418471447E-01 
    9.6544359545374547E-01 
    9.5120772114365371E-01 
    9.1705834633381145E-01 
    8.6807273568280297E-01 
    8.1039047012929788E-01 
    7.4970603424089144E-01 
    6.8924976942254634E-01 
    6.3000138839043884E-01 
    5.7178564866715698E-01 
    5.1400256084492835E-01 
    4.5587385045301937E-01 
    3.9634345574280244E-01 
    3.3377165403590092E-01 
    2.6584432581938144E-01 
    1.9268020134164210E-01 
    1.3544139510762643E-01 
    9.6197897763390627E-01 
    9.4873365803724119E-01 
    9.1719003492281936E-01 
    8.7084257848383584E-01 
    8.1516730129298265E-01 
    7.5555276464201560E-01 
    6.9541580535615544E-01 
    6.3609919921005220E-01 
    5.7768358380258422E-01 
    5.1967417602339505E-01 
    4.6128186921325803E-01 
    4.0132403213826046E-01 
    3.3774798498372860E-01 
    2.6672111104577889E-01 
    1.8305665420168102E-01 
    1.0087857661139676E-01 
    9.6015586513079321E-01 
    9.4783576534893377E-01 
    9.1836692162748279E-01 
    8.7412716901165821E-01 
    8.2005988281607967E-01 
    7.6132397930192808E-01 
    7.0147434220360505E-01 
    6.4212860889548296E-01 
    5.8357626265476870E-01 
    5.2542249175837530E-01 
    4.6689625137249197E-01 
    4.0676717920631000E-01 
    3.4277906166283661E-01 
    2.7007478822420738E-01 
    1.7742493573975912E-01 
    5.6862525442347420E-02 
    9.5964907989359471E-01 
    9.4836369355080108E-01 
    9.2064126538375501E-01 
    8.7806529973643510E-01 
    8.2520279497463866E-01 
    7.6710610782278876E-01 
    7.0746048898747993E-01 
    6.4809253608224016E-01 
    5.8945114327266035E-01 
    5.3122632689283678E-01 
    4.7268397967292286E-01 
    4.1261492374463871E-01 
    3.4877623679272068E-01 
    2.7612234542732883E-01 
    1.8009846360876425E-01 
    0.0000000000000000E+00 

SCALARS Saturarion double 1 
LOOKUP_TABLE default 

    1.0000000000000000E+00 
    9.4496503822483680E-01 
    8.7599324904892839E-01 
    7.9199060354906003E-01 
    6.6685018364130788E-01 
    3.4807005562279669E-01 
    2.0649763471399289E-02 
    8.5294780068679194E-06 
    9.4934963909262538E-14 
    3.4244181884184137E-32 
    9.6667621415685054E-75 
   2.4649055333029637E-172 
    0.0000000000000000E+00 
    0.0000000000000000E+00 
    0.0000000000000000E+00 
    0.0000000000000000E+00 
    9.8115880039922776E-01 
    9.3715187279755585E-01 
    8.7368799799877017E-01 
    7.9268829128945062E-01 
    6.7124521904833334E-01 
    3.6206397153754599E-01 
    2.3483468015680464E-02 
    1.1062116369187419E-05 
    1.5424651404736299E-13 
    7.8867123924411286E-32 
    3.1347303315018163E-74 
   5.8453980239713900E-172 
    0.0000000000000000E+00 
    0.0000000000000000E+00 
    0.0000000000000000E+00 
    0.0000000000000000E+00 
    9.6646778835692648E-01 
    9.2617381703556245E-01 
    8.6751960808141149E-01 
    7.8991940653868475E-01 
    6.6914729424706954E-01 
    3.5221539601768859E-01 
    2.0797313406291686E-02 
    7.6868843189292927E-06 
    5.5337313747271999E-14 
    4.7171639819725981E-33 
    1.5588559310377591E-77 
   1.0564313512871263E-180 
    0.0000000000000000E+00 
    0.0000000000000000E+00 
    0.0000000000000000E+00 
    0.0000000000000000E+00 
    9.5016017476015924E-01 
    9.1308650705301986E-01 
    8.5847574003861959E-01 
    7.8391555392588019E-01 
    6.6058136140608004E-01 
    3.2175594724971623E-01 
    1.4565815651672878E-02 
    2.9233773227286223E-06 
    4.3800467739020267E-15 
    6.4798794131362298E-36 
    6.6667422266791378E-85 
   1.7564748682787950E-199 
    0.0000000000000000E+00 
    0.0000000000000000E+00 
    0.0000000000000000E+00 
    0.0000000000000000E+00 
    9.3182811703748547E-01 
    8.9805981637220256E-01 
    8.4706028230218533E-01 
    7.7486083860660415E-01 
    6.4389938224452647E-01 
    2.6958243905084422E-01 
    7.5511998125618084E-03 
    5.0987611239954146E-07 
    4.7099261040069366E-17 
    5.5283191811274849E-41 
    6.8462518090798900E-98 
   1.1937539336949535E-232 
    0.0000000000000000E+00 
    0.0000000000000000E+00 
    0.0000000000000000E+00 
    0.0000000000000000E+00 
    9.1127708494682214E-01 
    8.8107144763573864E-01 
    8.3343001297002195E-01 
    7.6261301490139399E-01 
    6.1444076974009509E-01 
    1.9636536376591271E-01 
    2.5040406000230195E-03 
    2.7470168565346967E-08 
    2.4055634806107970E-20 
    1.5533467347190950E-49 
   3.0741675332981600E-120 
   6.8948252368739752E-291 
    0.0000000000000000E+00 
    0.0000000000000000E+00 
    0.0000000000000000E+00 
    0.0000000000000000E+00 
    8.8823619925601405E-01 
    8.6192318639336296E-01 
    8.1744987768908095E-01 
    7.4636841789284858E-01 
    5.5977080728592177E-01 
    1.1037185623165217E-01 
    3.9018079103077572E-04 
    2.0093528289068421E-10 
    5.6762634012196789E-26 
    9.2110088802273300E-65 
   5.5572895767818222E-161 
    0.0000000000000000E+00 
    0.0000000000000000E+00 
    0.0000000000000000E+00 
    0.0000000000000000E+00 
    0.0000000000000000E+00 
    8.6210808206532419E-01 
    8.4009336187333905E-01 
    7.9855291237007597E-01 
    7.2350815405704572E-01 
    4.4920174422917136E-01 
    3.6453467779640279E-02 
    1.4966965332731808E-05 
    2.6416268112077422E-14 
    6.6162356066310953E-37 
    1.5148878868997123E-94 
   3.7256087859999289E-241 
    0.0000000000000000E+00 
    0.0000000000000000E+00 
    0.0000000000000000E+00 
    0.0000000000000000E+00 
    0.0000000000000000E+00 
    8.3144831103593575E-01 
    8.1430236888342977E-01 
    7.7514339703195001E-01 
    6.8558154235768487E-01 
    2.6077325179181388E-01 
    3.9602634793818661E-03 
    1.9283913922065069E-08 
    1.2198363896334601E-22 
    2.0882730838632540E-60 
   4.7455748528309358E-166 
    0.0000000000000000E+00 
    0.0000000000000000E+00 
    0.0000000000000000E+00 
    0.0000000000000000E+00 
    0.0000000000000000E+00 
    0.0000000000000000E+00 
    7.9239041139905941E-01 
    7.8111391505040506E-01 
    7.4170976150805212E-01 
    5.7665501925469065E-01 
    5.7766922650100166E-02 
    1.5576610375855031E-05 
    1.6255339629400636E-15 
    2.1112918516838322E-45 
   2.6969661113421061E-134 
    0.0000000000000000E+00 
    0.0000000000000000E+00 
    0.0000000000000000E+00 
    0.0000000000000000E+00 
    0.0000000000000000E+00 
    0.0000000000000000E+00 
    0.0000000000000000E+00 
    7.3122179122599429E-01 
    7.2795980529764737E-01 
    6.6889369509557184E-01 
    1.8021218246766943E-01 
    3.1825126070089829E-04 
    7.1116725482375485E-13 
    3.5963513033395329E-40 
   2.2928837073776143E-122 
    0.0000000000000000E+00 
    0.0000000000000000E+00 
    0.0000000000000000E+00 
    0.0000000000000000E+00 
    0.0000000000000000E+00 
    0.0000000000000000E+00 
    0.0000000000000000E+00 
    0.0000000000000000E+00 
    5.5663010171598226E-01 
    5.6429363639207608E-01 
    2.3378001959042688E-01 
    7.4726932718473379E-04 
    3.3312706049531480E-12 
    9.4682801923402281E-39 
   8.7723126536956993E-119 
    0.0000000000000000E+00 
    0.0000000000000000E+00 
    0.0000000000000000E+00 
    0.0000000000000000E+00 
    0.0000000000000000E+00 
    0.0000000000000000E+00 
    0.0000000000000000E+00 
    0.0000000000000000E+00 
    0.0000000000000000E+00 
    8.6194820234286373E-02 
    8.3554976049438165E-02 
    6.1471106852721211E-04 
    3.4327910694480915E-12 
    1.2293878476407238E-38 
   2.7658829297876699E-118 
    0.0000000000000000E+00 
    0.0000000000000000E+00 
    0.0000000000000000E+00 
    0.0000000000000000E+00 
    0.0000000000000000E+00 
    0.0000000000000000E+00 
    0.0000000000000000E+00 
    0.0000000000000000E+00 
    0.0000000000000000E+00 
    0.0000000000000000E+00 
    7.4573548414705134E-05 
    3.9465626760471569E-05 
    1.3708281849784749E-12 
    6.1766357242615884E-39 
   1.3804544679004408E-118 
    0.0000000000000000E+00 
    0.0000000000000000E+00 
    0.0000000000000000E+00 
    0.0000000000000000E+00 
    0.0000000000000000E+00 
    0.0000000000000000E+00 
    0.0000000000000000E+00 
    0.0000000000000000E+00 
    0.0000000000000000E+00 
    0.0000000000000000E+00 
    0.0000000000000000E+00 
    2.7813840076695799E-13 
    6.2081704017974164E-15 
    8.9030211012869641E-40 
   3.0648918833387062E-119 
    0.0000000000000000E+00 
    0.0000000000000000E+00 
    0.0000000000000000E+00 
    0.0000000000000000E+00 
    0.0000000000000000E+00 
    0.0000000000000000E+00 
    0.0000000000000000E+00 
    0.0000000000000000E+00 
    0.0000000000000000E+00 
    0.0000000000000000E+00 
    0.0000000000000000E+00 
    0.0000000000000000E+00 
    7.9854348597228918E-36 
    9.7808858633009844E-44 
   7.3713023977555599E-121 
    0.0000000000000000E+00 
    0.0000000000000000E+00 
    0.0000000000000000E+00 
    0.0000000000000000E+00 
    0.0000000000000000E+00 
    0.0000000000000000E+00 
    0.0000000000000000E+00 
    0.0000000000000000E+00 
    0.0000000000000000E+00 
    0.0000000000000000E+00 
    0.0000000000000000E+00 
    0.0000000000000000E+00 
    0.0000000000000000E+00 
