# vtk DataFile Version 2.0
Pressure Field Data 
ASCII 
DATASET UNSTRUCTURED_GRID 

POINTS 289 double 

    0.0000000000000000E+00     0.0000000000000000E+00     0.0000000000000000E+00 
    1.0000000000000000E+00     0.0000000000000000E+00     0.0000000000000000E+00 
    1.0000000000000000E+00     1.0000000000000000E+00     0.0000000000000000E+00 
    0.0000000000000000E+00     1.0000000000000000E+00     0.0000000000000000E+00 
    6.2499999999872928E-02     0.0000000000000000E+00     0.0000000000000000E+00 
    1.2499999999977310E-01     0.0000000000000000E+00     0.0000000000000000E+00 
    1.8749999999959341E-01     0.0000000000000000E+00     0.0000000000000000E+00 
    2.4999999999941089E-01     0.0000000000000000E+00     0.0000000000000000E+00 
    3.1249999999922851E-01     0.0000000000000000E+00     0.0000000000000000E+00 
    3.7499999999904610E-01     0.0000000000000000E+00     0.0000000000000000E+00 
    4.3749999999886358E-01     0.0000000000000000E+00     0.0000000000000000E+00 
    4.9999999999869210E-01     0.0000000000000000E+00     0.0000000000000000E+00 
    5.6249999999884603E-01     0.0000000000000000E+00     0.0000000000000000E+00 
    6.2499999999901090E-01     0.0000000000000000E+00     0.0000000000000000E+00 
    6.8749999999917577E-01     0.0000000000000000E+00     0.0000000000000000E+00 
    7.4999999999934064E-01     0.0000000000000000E+00     0.0000000000000000E+00 
    8.1249999999950551E-01     0.0000000000000000E+00     0.0000000000000000E+00 
    8.7499999999967026E-01     0.0000000000000000E+00     0.0000000000000000E+00 
    9.3749999999983513E-01     0.0000000000000000E+00     0.0000000000000000E+00 
    1.0000000000000000E+00     6.2499999999872928E-02     0.0000000000000000E+00 
    1.0000000000000000E+00     1.2499999999977310E-01     0.0000000000000000E+00 
    1.0000000000000000E+00     1.8749999999959341E-01     0.0000000000000000E+00 
    1.0000000000000000E+00     2.4999999999941089E-01     0.0000000000000000E+00 
    1.0000000000000000E+00     3.1249999999922851E-01     0.0000000000000000E+00 
    1.0000000000000000E+00     3.7499999999904610E-01     0.0000000000000000E+00 
    1.0000000000000000E+00     4.3749999999886358E-01     0.0000000000000000E+00 
    1.0000000000000000E+00     4.9999999999869210E-01     0.0000000000000000E+00 
    1.0000000000000000E+00     5.6249999999884603E-01     0.0000000000000000E+00 
    1.0000000000000000E+00     6.2499999999901090E-01     0.0000000000000000E+00 
    1.0000000000000000E+00     6.8749999999917577E-01     0.0000000000000000E+00 
    1.0000000000000000E+00     7.4999999999934064E-01     0.0000000000000000E+00 
    1.0000000000000000E+00     8.1249999999950551E-01     0.0000000000000000E+00 
    1.0000000000000000E+00     8.7499999999967026E-01     0.0000000000000000E+00 
    1.0000000000000000E+00     9.3749999999983513E-01     0.0000000000000000E+00 
    9.3749999999973976E-01     1.0000000000000000E+00     0.0000000000000000E+00 
    8.7499999999950118E-01     1.0000000000000000E+00     0.0000000000000000E+00 
    8.1249999999991318E-01     1.0000000000000000E+00     0.0000000000000000E+00 
    7.5000000000034706E-01     1.0000000000000000E+00     0.0000000000000000E+00 
    6.8750000000078049E-01     1.0000000000000000E+00     0.0000000000000000E+00 
    6.2500000000121403E-01     1.0000000000000000E+00     0.0000000000000000E+00 
    5.6250000000164757E-01     1.0000000000000000E+00     0.0000000000000000E+00 
    5.0000000000205946E-01     1.0000000000000000E+00     0.0000000000000000E+00 
    4.3750000000182099E-01     1.0000000000000000E+00     0.0000000000000000E+00 
    3.7500000000156092E-01     1.0000000000000000E+00     0.0000000000000000E+00 
    3.1250000000130068E-01     1.0000000000000000E+00     0.0000000000000000E+00 
    2.5000000000104050E-01     1.0000000000000000E+00     0.0000000000000000E+00 
    1.8750000000078040E-01     1.0000000000000000E+00     0.0000000000000000E+00 
    1.2500000000052031E-01     1.0000000000000000E+00     0.0000000000000000E+00 
    6.2500000000260125E-02     1.0000000000000000E+00     0.0000000000000000E+00 
    0.0000000000000000E+00     9.3749999999973976E-01     0.0000000000000000E+00 
    0.0000000000000000E+00     8.7499999999950118E-01     0.0000000000000000E+00 
    0.0000000000000000E+00     8.1249999999991318E-01     0.0000000000000000E+00 
    0.0000000000000000E+00     7.5000000000034706E-01     0.0000000000000000E+00 
    0.0000000000000000E+00     6.8750000000078049E-01     0.0000000000000000E+00 
    0.0000000000000000E+00     6.2500000000121403E-01     0.0000000000000000E+00 
    0.0000000000000000E+00     5.6250000000164757E-01     0.0000000000000000E+00 
    0.0000000000000000E+00     5.0000000000205946E-01     0.0000000000000000E+00 
    0.0000000000000000E+00     4.3750000000182099E-01     0.0000000000000000E+00 
    0.0000000000000000E+00     3.7500000000156092E-01     0.0000000000000000E+00 
    0.0000000000000000E+00     3.1250000000130068E-01     0.0000000000000000E+00 
    0.0000000000000000E+00     2.5000000000104050E-01     0.0000000000000000E+00 
    0.0000000000000000E+00     1.8750000000078040E-01     0.0000000000000000E+00 
    0.0000000000000000E+00     1.2500000000052031E-01     0.0000000000000000E+00 
    0.0000000000000000E+00     6.2500000000260125E-02     0.0000000000000000E+00 
    6.2499999999897131E-02     6.2500000000235922E-02     0.0000000000000000E+00 
    6.2499999999921327E-02     1.2500000000047351E-01     0.0000000000000000E+00 
    6.2499999999945530E-02     1.8750000000070621E-01     0.0000000000000000E+00 
    6.2499999999969733E-02     2.5000000000093858E-01     0.0000000000000000E+00 
    6.2499999999993928E-02     3.1250000000117117E-01     0.0000000000000000E+00 
    6.2500000000018124E-02     3.7500000000140382E-01     0.0000000000000000E+00 
    6.2500000000042327E-02     4.3750000000163619E-01     0.0000000000000000E+00 
    6.2500000000066530E-02     5.0000000000184897E-01     0.0000000000000000E+00 
    6.2500000000090733E-02     5.6250000000147260E-01     0.0000000000000000E+00 
    6.2500000000114922E-02     6.2500000000107636E-01     0.0000000000000000E+00 
    6.2500000000139125E-02     6.8750000000068034E-01     0.0000000000000000E+00 
    6.2500000000163328E-02     7.5000000000028411E-01     0.0000000000000000E+00 
    6.2500000000187531E-02     8.1249999999988787E-01     0.0000000000000000E+00 
    6.2500000000211720E-02     8.7499999999951172E-01     0.0000000000000000E+00 
    6.2500000000235922E-02     9.3749999999974565E-01     0.0000000000000000E+00 
    1.2499999999981980E-01     6.2500000000211733E-02     0.0000000000000000E+00 
    1.2499999999986650E-01     1.2500000000042691E-01     0.0000000000000000E+00 
    1.2499999999991319E-01     1.8750000000063199E-01     0.0000000000000000E+00 
    1.2499999999995989E-01     2.5000000000083678E-01     0.0000000000000000E+00 
    1.2500000000000661E-01     3.1250000000104172E-01     0.0000000000000000E+00 
    1.2500000000005329E-01     3.7500000000124661E-01     0.0000000000000000E+00 
    1.2500000000010000E-01     4.3750000000145117E-01     0.0000000000000000E+00 
    1.2500000000014669E-01     5.0000000000163858E-01     0.0000000000000000E+00 
    1.2500000000019340E-01     5.6250000000129741E-01     0.0000000000000000E+00 
    1.2500000000024011E-01     6.2500000000093847E-01     0.0000000000000000E+00 
    1.2500000000028680E-01     6.8750000000057998E-01     0.0000000000000000E+00 
    1.2500000000033351E-01     7.5000000000022127E-01     0.0000000000000000E+00 
    1.2500000000038020E-01     8.1249999999986211E-01     0.0000000000000000E+00 
    1.2500000000042691E-01     8.7499999999952238E-01     0.0000000000000000E+00 
    1.2500000000047359E-01     9.3749999999975164E-01     0.0000000000000000E+00 
    1.8749999999966760E-01     6.2500000000187531E-02     0.0000000000000000E+00 
    1.8749999999974179E-01     1.2500000000038020E-01     0.0000000000000000E+00 
    1.8749999999981601E-01     1.8750000000055780E-01     0.0000000000000000E+00 
    1.8749999999989009E-01     2.5000000000073502E-01     0.0000000000000000E+00 
    1.8749999999996431E-01     3.1250000000091221E-01     0.0000000000000000E+00 
    1.8750000000003850E-01     3.7500000000108941E-01     0.0000000000000000E+00 
    1.8750000000011269E-01     4.3750000000126649E-01     0.0000000000000000E+00 
    1.8750000000018691E-01     5.0000000000142808E-01     0.0000000000000000E+00 
    1.8750000000026110E-01     5.6250000000112244E-01     0.0000000000000000E+00 
    1.8750000000033529E-01     6.2500000000080080E-01     0.0000000000000000E+00 
    1.8750000000040951E-01     6.8750000000047962E-01     0.0000000000000000E+00 
    1.8750000000048361E-01     7.5000000000015843E-01     0.0000000000000000E+00 
    1.8750000000055780E-01     8.1249999999983680E-01     0.0000000000000000E+00 
    1.8750000000063199E-01     8.7499999999953304E-01     0.0000000000000000E+00 
    1.8750000000070621E-01     9.3749999999975764E-01     0.0000000000000000E+00 
    2.4999999999951281E-01     6.2500000000163314E-02     0.0000000000000000E+00 
    2.4999999999961461E-01     1.2500000000033351E-01     0.0000000000000000E+00 
    2.4999999999971650E-01     1.8750000000048361E-01     0.0000000000000000E+00 
    2.4999999999981831E-01     2.5000000000063310E-01     0.0000000000000000E+00 
    2.4999999999992020E-01     3.1250000000078260E-01     0.0000000000000000E+00 
    2.5000000000002198E-01     3.7500000000093209E-01     0.0000000000000000E+00 
    2.5000000000012390E-01     4.3750000000108180E-01     0.0000000000000000E+00 
    2.5000000000022571E-01     5.0000000000121769E-01     0.0000000000000000E+00 
    2.5000000000032763E-01     5.6250000000094724E-01     0.0000000000000000E+00 
    2.5000000000042938E-01     6.2500000000066314E-01     0.0000000000000000E+00 
    2.5000000000053119E-01     6.8750000000037925E-01     0.0000000000000000E+00 
[...]
CELL_DATA 256 
SCALARS Pressure double 1 
LOOKUP_TABLE default 

    1.3520934774146285E+00 
    1.1116151015665070E+00 
    9.7010339033462634E-01 
    8.5364347877983404E-01 
    7.4510764932125551E-01 
    6.6503355512622020E-01 
    6.0917107561084149E-01 
    5.5778732232540151E-01 
    5.0519868715873573E-01 
    4.5308164484361335E-01 
    4.0286017718818401E-01 
    3.5632453437555972E-01 
    3.1590986388802828E-01 
    2.8453700544947996E-01 
    2.6470586811973745E-01 
    2.5674584186808624E-01 
    1.2776784958666094E+00 
    1.1147813275260223E+00 
    9.7855689283992076E-01 
    8.6253417058576543E-01 
    7.5343266702072742E-01 
    6.7199403991386264E-01 
    6.1494215175997746E-01 
    5.6314005584132232E-01 
    5.1040829950691091E-01 
    4.5805178847055872E-01 
    4.0740383511790629E-01 
    3.6017556267731560E-01 
    3.1875342166679954E-01 
    2.8612496420965161E-01 
    2.6506497635646897E-01 
    2.5638768842652010E-01 
    1.2177525665157563E+00 
    1.1055742177567118E+00 
    9.8211911365590521E-01 
    8.6892504717109487E-01 
    7.6047515987601333E-01 
    6.7909672134032739E-01 
    6.2115439993441390E-01 
    5.6867551500734581E-01 
    5.1563242165662693E-01 
    4.6292915714040933E-01 
    4.1173229546043855E-01 
    3.6363663659184203E-01 
    3.2096880704446706E-01 
    2.8682518858073874E-01 
    2.6438255984929832E-01 
    2.5509912003072571E-01 
    1.1687199343586239E+00 
    1.0898590629609937E+00 
    9.8113208188095202E-01 
    8.7268947350939663E-01 
    7.6624006767071995E-01 
    6.8624334070115123E-01 
    6.2773864874590501E-01 
    5.7439280389100245E-01 
    5.2090001804290142E-01 
    4.6775539831945834E-01 
    4.1590529779730817E-01 
    3.6678592701654628E-01 
    3.2263489549998481E-01 
    2.8667284482426597E-01 
    2.6259583327566205E-01 
    2.5270339254451257E-01 
    1.1278656903462487E+00 
    1.0710507752599068E+00 
    9.7643292209588184E-01 
    8.7384881973603723E-01 
    7.7095666428978560E-01 
    6.9338878972378681E-01 
    6.3458934504822961E-01 
    5.8027267378160496E-01 
    5.2623063730592179E-01 
    4.7256952758977189E-01 
    4.1998371088177766E-01 
    3.6970733260630445E-01 
    3.2384124063615521E-01 
    2.8571278930017779E-01 
    2.5963915053847658E-01 
    2.4901670238602977E-01 
    1.0933003974021711E+00 
    1.0511461757505829E+00 
    9.6894732018028873E-01 
    8.7255664260413790E-01 
    7.7502804186157404E-01 
    7.0054465433531943E-01 
    6.4157542822061997E-01 
    5.8628263566284677E-01 
    5.3163508934030013E-01 
    4.7740672137535572E-01 
    4.2402849277292504E-01 
    3.7249099707374284E-01 
    3.2469234031121108E-01 
    2.8400754283516344E-01 
    2.5544747175628529E-01 
    2.4383563023679561E-01 
    1.0636972418064015E+00 
    1.0312986107346491E+00 
    9.5950881929571563E-01 
    8.6923907823967195E-01 
    7.7890309429140703E-01 
    7.0775849664281265E-01 
    6.4856685389204027E-01 
    5.9238326390501383E-01 
    5.3711675806246750E-01 
    4.8229742725398744E-01 
    4.2809931105227528E-01 
    3.7523303869988872E-01 
    3.2531161975908551E-01 
    2.8164718136421513E-01 
    2.4996237698519552E-01 
    2.3692295510902123E-01 
    1.0381053428405289E+00 
    1.0121542414890192E+00 
    9.4872892688088895E-01 
    8.6493748158610828E-01 
    7.8294370978236161E-01 
    7.1502449963338555E-01 
    6.5547148252413923E-01 
    5.9853515236021360E-01 
    5.4267333571467502E-01 
    4.8726670940409672E-01 
    4.3225278450415466E-01 
    3.7803419395317994E-01 
    3.2584465267628732E-01 
    2.7876170923601384E-01 
    2.4314272923419347E-01 
    2.2799009122996150E-01 
    1.0158096987510836E+00 
    9.9404676980998363E-01 
    9.3688292401791007E-01 
    8.6113996819469718E-01 
    7.8738091066797289E-01 
    7.2216949825062871E-01 
    6.6224293576366244E-01 
    6.0470430288976729E-01 
    5.4829862947190910E-01 
    4.9233376346828123E-01 
    4.3654034135866548E-01 
    3.8099703816334041E-01 
    3.2646077237968130E-01 
    2.7553624943041899E-01 
    2.3498335627655922E-01 
    2.1667384331321610E-01 
    9.9619998406734478E-01 
    9.7698872602772657E-01 
    9.2551480778545114E-01 
    8.5915262347152699E-01 
    7.9224500139303355E-01 
    7.2897219567053062E-01 
    6.6885883914894650E-01 
    6.1086399000271663E-01 
    5.5398404186832551E-01 
    4.9751155943439601E-01 
    4.4100576483087167E-01 
    3.8422147380068206E-01 
    3.2735172963577530E-01 
    2.7222875236056487E-01 
    2.2554729188801570E-01 
    2.0250420259274482E-01 
    9.7854291388725145E-01 
    9.6096450463202487E-01 
    9.1698532576180392E-01 
    8.5935815177054753E-01 
    7.9729155590823697E-01 
    7.3537368641503720E-01 
    6.7530861481047966E-01 
    6.1699442389440395E-01 
    5.5971957092041025E-01 
    5.0280661995864351E-01 
    4.4568261598360076E-01 
    3.8779833389646223E-01 
    3.2872546410518572E-01 
    2.6918846711770233E-01 
    2.1502077785662083E-01 
    1.8485831150336451E-01 
    9.6548368802814799E-01 
    9.5024408643382208E-01 
    9.1282518969755799E-01 
    8.6106379425953983E-01 
    8.0218577817433756E-01 
    7.4145140409286481E-01 
    6.8159634837750038E-01 
    6.2308227893924184E-01 
    5.6549445214977423E-01 
    5.0821900080085081E-01 
    4.5059187477956897E-01 
    3.9180131852644423E-01 
    3.3079252430859873E-01 
    2.6687033679854244E-01 
    2.0380637263360923E-01 
    1.6289316504769602E-01 
    9.5913641343453093E-01 
    9.4515306321039516E-01 
    9.1161919306681094E-01 
    8.6346741701402907E-01 
    8.0688250950500662E-01 
    7.4729916986297118E-01 
    6.8773996984844421E-01 
    6.2912017670973208E-01 
    5.7129758614774839E-01 
    5.1374256652057326E-01 
    4.5574028300523178E-01 
    3.9627815232805685E-01 
    3.3374262362350227E-01 
    2.6583428990371183E-01 
    1.9267982219764510E-01 
    1.3544552539050356E-01 
    9.5579305936173731E-01 
    9.4278184972560763E-01 
    9.1177714447275160E-01 
    8.6620482287193756E-01 
    8.1155847235651024E-01 
    7.5300466660438214E-01 
    6.9376614387860835E-01 
    6.3510567651479666E-01 
    5.7711780180586980E-01 
    5.1936562330367297E-01 
    4.6111993094432840E-01 
    4.0124284108413316E-01 
    3.3771027743867715E-01 
    2.6670637938102215E-01 
    1.8305366629280934E-01 
    1.0088097520948219E-01 
    9.5400180770430476E-01 
    9.4189803199016342E-01 
    9.1293346279978949E-01 
    8.6944166301477199E-01 
    8.1635615141130469E-01 
    7.5865400227149538E-01 
    6.9970626718824280E-01 
    6.4103991280525252E-01 
    5.8294396847011121E-01 
    5.2507189008033428E-01 
    4.6670949317088700E-01 
    4.0667198514052000E-01 
    3.4273367535369048E-01 
    2.7005590954389441E-01 
    1.7741969027721727E-01 
    5.6863503234344796E-02 
    9.5350387947583748E-01 
    9.4241625640929549E-01 
    9.1516870885749901E-01 
    8.7331513613629219E-01 
    8.2140480080472178E-01 
    7.6432884816923796E-01 
    7.0559343960140453E-01 
    6.4692611460890137E-01 
    5.8876496716920823E-01 
    5.3084168880996907E-01 
    4.7247709428776236E-01 
    4.1250835102621075E-01 
    3.4872460770928870E-01 
    2.7610011255771472E-01 
    1.8009144645853675E-01 
    0.0000000000000000E+00 

SCALARS Saturarion double 1 
LOOKUP_TABLE default 

    1.0000000000000000E+00 
    9.4202845204358110E-01 
    8.6929650767527655E-01 
    7.7881463760344560E-01 
    6.3346452878776571E-01 
    2.6232805840859508E-01 
    7.8622264047864005E-03 
    8.6159910260387420E-07 
    5.1983126522906803E-16 
    2.8090318193497545E-37 
    4.6522385726477095E-86 
   3.8863191983021760E-197 
    0.0000000000000000E+00 
    0.0000000000000000E+00 
    0.0000000000000000E+00 
    0.0000000000000000E+00 
    9.8008382092240232E-01 
    9.3383667634129763E-01 
    8.6690942873658550E-01 
    7.7963850424708458E-01 
    6.3866902557361038E-01 
    2.7474021379068753E-01 
    8.9453688666447963E-03 
    1.0977561685738205E-06 
    7.8633650288606085E-16 
    5.0236709652416976E-37 
    7.0749660341537615E-86 
   1.1181607082691710E-197 
    0.0000000000000000E+00 
    0.0000000000000000E+00 
    0.0000000000000000E+00 
    0.0000000000000000E+00 
    9.6461621263383601E-01 
    9.2234733974748395E-01 
    8.6048469867803279E-01 
    7.7667797670469541E-01 
    6.3507870890489060E-01 
    2.6273918787997774E-01 
    7.4844501372814901E-03 
    6.5657406122539401E-07 
    1.9157471817631842E-16 
    1.1121439136134958E-38 
    2.9689860193820730E-90 
   4.1403780233616665E-209 
    0.0000000000000000E+00 
    0.0000000000000000E+00 
    0.0000000000000000E+00 
    0.0000000000000000E+00 
    9.4750087793355997E-01 
    9.0867809268261623E-01 
    8.5105006644431125E-01 
    7.7015590800043199E-01 
    6.2256601782274612E-01 
    2.2991797745311959E-01 
    4.6453980652320656E-03 
    1.8417301467194643E-07 
    7.0680084159697700E-18 
    2.2820661749035404E-42 
    1.1942692219495413E-99 
   5.1750899089229357E-233 
    0.0000000000000000E+00 
    0.0000000000000000E+00 
    0.0000000000000000E+00 
    0.0000000000000000E+00 
    9.2831091018437362E-01 
    8.9300752134586570E-01 
    8.3912001991470908E-01 
    7.6017213538204420E-01 
    5.9802810860789113E-01 
    1.7775810130152842E-01 
    1.9513485822390899E-03 
    1.9011309334148840E-08 
    2.0538809522654312E-20 
    7.2542001736346268E-49 
   3.0704542042587234E-116 
   1.5548341400635124E-275 
    0.0000000000000000E+00 
    0.0000000000000000E+00 
    0.0000000000000000E+00 
    0.0000000000000000E+00 
    9.0683075459597018E-01 
    8.7530018778128382E-01 
    8.2482708758606460E-01 
    7.4632027848845206E-01 
    5.5322373685220372E-01 
    1.1196032777254977E-01 
    4.5362494010992027E-04 
    4.2717419408384532E-10 
    1.0827337228355116E-24 
    4.8217775135690751E-60 
   2.3014380521988260E-145 
    0.0000000000000000E+00 
    0.0000000000000000E+00 
    0.0000000000000000E+00 
    0.0000000000000000E+00 
    0.0000000000000000E+00 
    8.8273498938713946E-01 
    8.5530876613153684E-01 
    8.0795387293587140E-01 
    7.2706104123005577E-01 
    4.6933859826407787E-01 
    4.8224645335160889E-02 
    3.8637071951164302E-05 
    6.5205734526635175E-13 
    2.6218000097791603E-32 
    2.0340367342492080E-80 
   1.0953765758202785E-198 
    0.0000000000000000E+00 
    0.0000000000000000E+00 
    0.0000000000000000E+00 
    0.0000000000000000E+00 
    0.0000000000000000E+00 
    8.5528455575997275E-01 
    8.3237590471629441E-01 
    7.8769966278994141E-01 
    6.9744324391342460E-01 
    3.2401347582374573E-01 
    1.0004569918710862E-02 
    4.3953067116842791E-07 
    2.2122538369338288E-18 
    3.3438847982959546E-47 
   1.6532065604428910E-120 
   9.4874516890106226E-317 
    0.0000000000000000E+00 
    0.0000000000000000E+00 
    0.0000000000000000E+00 
    0.0000000000000000E+00 
    0.0000000000000000E+00 
    8.2264241156018703E-01 
    8.0483766565291992E-01 
    7.6165294494356162E-01 
    6.3858406002422274E-01 
    1.3679668654170773E-01 
    3.6408760793041936E-04 
    2.9635587832280271E-11 
    3.9072897842411625E-30 
    5.8880898652524484E-83 
   5.9309135704191319E-233 
    0.0000000000000000E+00 
    0.0000000000000000E+00 
    0.0000000000000000E+00 
    0.0000000000000000E+00 
    0.0000000000000000E+00 
    0.0000000000000000E+00 
    7.7963155857980304E-01 
    7.6794826575881869E-01 
    7.2022013284872899E-01 
    4.0338868221435387E-01 
    9.9236350203587616E-03 
    1.0529005493736787E-07 
    1.2252807965138144E-22 
    4.4172350936660051E-67 
   2.4747593545694111E-196 
    0.0000000000000000E+00 
    0.0000000000000000E+00 
    0.0000000000000000E+00 
    0.0000000000000000E+00 
    0.0000000000000000E+00 
    0.0000000000000000E+00 
    0.0000000000000000E+00 
    7.0562429769222079E-01 
    7.0132530443744312E-01 
    5.8250080034393092E-01 
    4.3741865644393065E-02 
    2.1410445438952145E-06 
    4.9402894754844211E-20 
    4.0187097637341574E-61 
   1.5510269868105119E-182 
    0.0000000000000000E+00 
    0.0000000000000000E+00 
    0.0000000000000000E+00 
    0.0000000000000000E+00 
    0.0000000000000000E+00 
    0.0000000000000000E+00 
    0.0000000000000000E+00 
    0.0000000000000000E+00 
    4.4110636434683947E-01 
    4.2401720621345917E-01 
    5.9854798571334147E-02 
    4.5746237060958261E-06 
    2.4912201560210127E-19 
    2.4388946210142130E-59 
   2.6607770151088982E-178 
    0.0000000000000000E+00 
    0.0000000000000000E+00 
    0.0000000000000000E+00 
    0.0000000000000000E+00 
    0.0000000000000000E+00 
    0.0000000000000000E+00 
    0.0000000000000000E+00 
    0.0000000000000000E+00 
    0.0000000000000000E+00 
    2.5569282022912455E-02 
    1.7194502967641179E-02 
    3.6067761943720018E-06 
    2.6523212380861368E-19 
    4.2875361084309546E-59 
   1.4754922250538056E-177 
    0.0000000000000000E+00 
    0.0000000000000000E+00 
    0.0000000000000000E+00 
    0.0000000000000000E+00 
    0.0000000000000000E+00 
    0.0000000000000000E+00 
    0.0000000000000000E+00 
    0.0000000000000000E+00 
    0.0000000000000000E+00 
    0.0000000000000000E+00 
    2.0816266641400152E-06 
    2.7366246011775363E-07 
    1.1217717657721575E-19 
    2.4644335178990236E-59 
   8.6266862024778858E-178 
    0.0000000000000000E+00 
    0.0000000000000000E+00 
    0.0000000000000000E+00 
    0.0000000000000000E+00 
    0.0000000000000000E+00 
    0.0000000000000000E+00 
    0.0000000000000000E+00 
    0.0000000000000000E+00 
    0.0000000000000000E+00 
    0.0000000000000000E+00 
    0.0000000000000000E+00 
    1.6591913537155953E-17 
    1.5562026633447391E-21 
    4.5319769127505106E-60 
   2.1311720858856438E-178 
    0.0000000000000000E+00 
    0.0000000000000000E+00 
    0.0000000000000000E+00 
    0.0000000000000000E+00 
    0.0000000000000000E+00 
    0.0000000000000000E+00 
    0.0000000000000000E+00 
    0.0000000000000000E+00 
    0.0000000000000000E+00 
    0.0000000000000000E+00 
    0.0000000000000000E+00 
    0.0000000000000000E+00 
    2.3850135468935242E-47 
    4.7682104439109880E-63 
   7.0063733708634656E-180 
    0.0000000000000000E+00 
    0.0000000000000000E+00 
    0.0000000000000000E+00 
    0.0000000000000000E+00 
    0.0000000000000000E+00 
    0.0000000000000000E+00 
    0.0000000000000000E+00 
    0.0000000000000000E+00 
    0.0000000000000000E+00 
    0.0000000000000000E+00 
    0.0000000000000000E+00 
    0.0000000000000000E+00 
    0.0000000000000000E+00 
