# vtk DataFile Version 2.0
Pressure Field Data 
ASCII 
DATASET UNSTRUCTURED_GRID 

POINTS 289 double 

    0.0000000000000000E+00     0.0000000000000000E+00     0.0000000000000000E+00 
    1.0000000000000000E+00     0.0000000000000000E+00     0.0000000000000000E+00 
    1.0000000000000000E+00     1.0000000000000000E+00     0.0000000000000000E+00 
    0.0000000000000000E+00     1.0000000000000000E+00     0.0000000000000000E+00 
    6.2499999999872928E-02     0.0000000000000000E+00     0.0000000000000000E+00 
    1.2499999999977310E-01     0.0000000000000000E+00     0.0000000000000000E+00 
    1.8749999999959341E-01     0.0000000000000000E+00     0.0000000000000000E+00 
    2.4999999999941089E-01     0.0000000000000000E+00     0.0000000000000000E+00 
    3.1249999999922851E-01     0.0000000000000000E+00     0.0000000000000000E+00 
    3.7499999999904610E-01     0.0000000000000000E+00     0.0000000000000000E+00 
    4.3749999999886358E-01     0.0000000000000000E+00     0.0000000000000000E+00 
    4.9999999999869210E-01     0.0000000000000000E+00     0.0000000000000000E+00 
    5.6249999999884603E-01     0.0000000000000000E+00     0.0000000000000000E+00 
    6.2499999999901090E-01     0.0000000000000000E+00     0.0000000000000000E+00 
    6.8749999999917577E-01     0.0000000000000000E+00     0.0000000000000000E+00 
    7.4999999999934064E-01     0.0000000000000000E+00     0.0000000000000000E+00 
    8.1249999999950551E-01     0.0000000000000000E+00     0.0000000000000000E+00 
    8.7499999999967026E-01     0.0000000000000000E+00     0.0000000000000000E+00 
    9.3749999999983513E-01     0.0000000000000000E+00     0.0000000000000000E+00 
    1.0000000000000000E+00     6.2499999999872928E-02     0.0000000000000000E+00 
    1.0000000000000000E+00     1.2499999999977310E-01     0.0000000000000000E+00 
    1.0000000000000000E+00     1.8749999999959341E-01     0.0000000000000000E+00 
    1.0000000000000000E+00     2.4999999999941089E-01     0.0000000000000000E+00 
    1.0000000000000000E+00     3.1249999999922851E-01     0.0000000000000000E+00 
    1.0000000000000000E+00     3.7499999999904610E-01     0.0000000000000000E+00 
    1.0000000000000000E+00     4.3749999999886358E-01     0.0000000000000000E+00 
    1.0000000000000000E+00     4.9999999999869210E-01     0.0000000000000000E+00 
    1.0000000000000000E+00     5.6249999999884603E-01     0.0000000000000000E+00 
    1.0000000000000000E+00     6.2499999999901090E-01     0.0000000000000000E+00 
    1.0000000000000000E+00     6.8749999999917577E-01     0.0000000000000000E+00 
    1.0000000000000000E+00     7.4999999999934064E-01     0.0000000000000000E+00 
    1.0000000000000000E+00     8.1249999999950551E-01     0.0000000000000000E+00 
    1.0000000000000000E+00     8.7499999999967026E-01     0.0000000000000000E+00 
    1.0000000000000000E+00     9.3749999999983513E-01     0.0000000000000000E+00 
    9.3749999999973976E-01     1.0000000000000000E+00     0.0000000000000000E+00 
    8.7499999999950118E-01     1.0000000000000000E+00     0.0000000000000000E+00 
    8.1249999999991318E-01     1.0000000000000000E+00     0.0000000000000000E+00 
    7.5000000000034706E-01     1.0000000000000000E+00     0.0000000000000000E+00 
    6.8750000000078049E-01     1.0000000000000000E+00     0.0000000000000000E+00 
    6.2500000000121403E-01     1.0000000000000000E+00     0.0000000000000000E+00 
    5.6250000000164757E-01     1.0000000000000000E+00     0.0000000000000000E+00 
    5.0000000000205946E-01     1.0000000000000000E+00     0.0000000000000000E+00 
    4.3750000000182099E-01     1.0000000000000000E+00     0.0000000000000000E+00 
    3.7500000000156092E-01     1.0000000000000000E+00     0.0000000000000000E+00 
    3.1250000000130068E-01     1.0000000000000000E+00     0.0000000000000000E+00 
    2.5000000000104050E-01     1.0000000000000000E+00     0.0000000000000000E+00 
    1.8750000000078040E-01     1.0000000000000000E+00     0.0000000000000000E+00 
    1.2500000000052031E-01     1.0000000000000000E+00     0.0000000000000000E+00 
    6.2500000000260125E-02     1.0000000000000000E+00     0.0000000000000000E+00 
    0.0000000000000000E+00     9.3749999999973976E-01     0.0000000000000000E+00 
    0.0000000000000000E+00     8.7499999999950118E-01     0.0000000000000000E+00 
    0.0000000000000000E+00     8.1249999999991318E-01     0.0000000000000000E+00 
    0.0000000000000000E+00     7.5000000000034706E-01     0.0000000000000000E+00 
    0.0000000000000000E+00     6.8750000000078049E-01     0.0000000000000000E+00 
    0.0000000000000000E+00     6.2500000000121403E-01     0.0000000000000000E+00 
    0.0000000000000000E+00     5.6250000000164757E-01     0.0000000000000000E+00 
    0.0000000000000000E+00     5.0000000000205946E-01     0.0000000000000000E+00 
    0.0000000000000000E+00     4.3750000000182099E-01     0.0000000000000000E+00 
    0.0000000000000000E+00     3.7500000000156092E-01     0.0000000000000000E+00 
    0.0000000000000000E+00     3.1250000000130068E-01     0.0000000000000000E+00 
    0.0000000000000000E+00     2.5000000000104050E-01     0.0000000000000000E+00 
    0.0000000000000000E+00     1.8750000000078040E-01     0.0000000000000000E+00 
    0.0000000000000000E+00     1.2500000000052031E-01     0.0000000000000000E+00 
    0.0000000000000000E+00     6.2500000000260125E-02     0.0000000000000000E+00 
    6.2499999999897131E-02     6.2500000000235922E-02     0.0000000000000000E+00 
    6.2499999999921327E-02     1.2500000000047351E-01     0.0000000000000000E+00 
    6.2499999999945530E-02     1.8750000000070621E-01     0.0000000000000000E+00 
    6.2499999999969733E-02     2.5000000000093858E-01     0.0000000000000000E+00 
    6.2499999999993928E-02     3.1250000000117117E-01     0.0000000000000000E+00 
    6.2500000000018124E-02     3.7500000000140382E-01     0.0000000000000000E+00 
    6.2500000000042327E-02     4.3750000000163619E-01     0.0000000000000000E+00 
    6.2500000000066530E-02     5.0000000000184897E-01     0.0000000000000000E+00 
    6.2500000000090733E-02     5.6250000000147260E-01     0.0000000000000000E+00 
    6.2500000000114922E-02     6.2500000000107636E-01     0.0000000000000000E+00 
    6.2500000000139125E-02     6.8750000000068034E-01     0.0000000000000000E+00 
    6.2500000000163328E-02     7.5000000000028411E-01     0.0000000000000000E+00 
    6.2500000000187531E-02     8.1249999999988787E-01     0.0000000000000000E+00 
    6.2500000000211720E-02     8.7499999999951172E-01     0.0000000000000000E+00 
    6.2500000000235922E-02     9.3749999999974565E-01     0.0000000000000000E+00 
    1.2499999999981980E-01     6.2500000000211733E-02     0.0000000000000000E+00 
    1.2499999999986650E-01     1.2500000000042691E-01     0.0000000000000000E+00 
    1.2499999999991319E-01     1.8750000000063199E-01     0.0000000000000000E+00 
    1.2499999999995989E-01     2.5000000000083678E-01     0.0000000000000000E+00 
    1.2500000000000661E-01     3.1250000000104172E-01     0.0000000000000000E+00 
    1.2500000000005329E-01     3.7500000000124661E-01     0.0000000000000000E+00 
    1.2500000000010000E-01     4.3750000000145117E-01     0.0000000000000000E+00 
    1.2500000000014669E-01     5.0000000000163858E-01     0.0000000000000000E+00 
    1.2500000000019340E-01     5.6250000000129741E-01     0.0000000000000000E+00 
    1.2500000000024011E-01     6.2500000000093847E-01     0.0000000000000000E+00 
    1.2500000000028680E-01     6.8750000000057998E-01     0.0000000000000000E+00 
    1.2500000000033351E-01     7.5000000000022127E-01     0.0000000000000000E+00 
    1.2500000000038020E-01     8.1249999999986211E-01     0.0000000000000000E+00 
    1.2500000000042691E-01     8.7499999999952238E-01     0.0000000000000000E+00 
    1.2500000000047359E-01     9.3749999999975164E-01     0.0000000000000000E+00 
    1.8749999999966760E-01     6.2500000000187531E-02     0.0000000000000000E+00 
    1.8749999999974179E-01     1.2500000000038020E-01     0.0000000000000000E+00 
    1.8749999999981601E-01     1.8750000000055780E-01     0.0000000000000000E+00 
    1.8749999999989009E-01     2.5000000000073502E-01     0.0000000000000000E+00 
    1.8749999999996431E-01     3.1250000000091221E-01     0.0000000000000000E+00 
    1.8750000000003850E-01     3.7500000000108941E-01     0.0000000000000000E+00 
    1.8750000000011269E-01     4.3750000000126649E-01     0.0000000000000000E+00 
    1.8750000000018691E-01     5.0000000000142808E-01     0.0000000000000000E+00 
    1.8750000000026110E-01     5.6250000000112244E-01     0.0000000000000000E+00 
    1.8750000000033529E-01     6.2500000000080080E-01     0.0000000000000000E+00 
    1.8750000000040951E-01     6.8750000000047962E-01     0.0000000000000000E+00 
    1.8750000000048361E-01     7.5000000000015843E-01     0.0000000000000000E+00 
    1.8750000000055780E-01     8.1249999999983680E-01     0.0000000000000000E+00 
    1.8750000000063199E-01     8.7499999999953304E-01     0.0000000000000000E+00 
    1.8750000000070621E-01     9.3749999999975764E-01     0.0000000000000000E+00 
    2.4999999999951281E-01     6.2500000000163314E-02     0.0000000000000000E+00 
    2.4999999999961461E-01     1.2500000000033351E-01     0.0000000000000000E+00 
    2.4999999999971650E-01     1.8750000000048361E-01     0.0000000000000000E+00 
    2.4999999999981831E-01     2.5000000000063310E-01     0.0000000000000000E+00 
    2.4999999999992020E-01     3.1250000000078260E-01     0.0000000000000000E+00 
    2.5000000000002198E-01     3.7500000000093209E-01     0.0000000000000000E+00 
    2.5000000000012390E-01     4.3750000000108180E-01     0.0000000000000000E+00 
    2.5000000000022571E-01     5.0000000000121769E-01     0.0000000000000000E+00 
    2.5000000000032763E-01     5.6250000000094724E-01     0.0000000000000000E+00 
    2.5000000000042938E-01     6.2500000000066314E-01     0.0000000000000000E+00 
    2.5000000000053119E-01     6.8750000000037925E-01     0.0000000000000000E+00 
[...]
CELL_DATA 256 
SCALARS Pressure double 1 
LOOKUP_TABLE default 

    1.9793013497669567E+00 
    1.7469727125401711E+00 
    1.6157343260869037E+00 
    1.5105813271449406E+00 
    1.4137312868166354E+00 
    1.3192883886903219E+00 
    1.2249641303218108E+00 
    1.1299558137094217E+00 
    1.0343046239116218E+00 
    9.3877505271725692E-01 
    8.4498862501865402E-01 
    7.5563847854793764E-01 
    6.7443691526872573E-01 
    6.0538661671482885E-01 
    5.5844337577768843E-01 
    5.4483064300130568E-01 
    1.9079420825423410E+00 
    1.7509680630198425E+00 
    1.6244090789828451E+00 
    1.5195087357708603E+00 
    1.4227189625257257E+00 
    1.3283823637620591E+00 
    1.2341760175516885E+00 
    1.1392446244293308E+00 
    1.0435641567822060E+00 
    9.4780803179960571E-01 
    8.5347587472182662E-01 
    7.6313584378819665E-01 
    6.8045855715885495E-01 
    6.0949068868077616E-01 
    5.5968234013306528E-01 
    5.4439218913649801E-01 
    1.8525723984468536E+00 
    1.7443221261653141E+00 
    1.6295339922866239E+00 
    1.5270789772730515E+00 
    1.4310557844107972E+00 
    1.3371003364091345E+00 
    1.2431246688638258E+00 
    1.1483015727173129E+00 
    1.0525632826888556E+00 
    9.5648524553504610E-01 
    8.6141929430411279E-01 
    7.6977587432453687E-01 
    6.8518786161899514E-01 
    6.1194986013082775E-01 
    5.5912991669012035E-01 
    5.4253289851411834E-01 
    1.8090364264368828E+00 
    1.7325277528948417E+00 
    1.6313991390723788E+00 
    1.5331901764148368E+00 
    1.4386809810205197E+00 
    1.3454183693322062E+00 
    1.2518084990199101E+00 
    1.1571434201006239E+00 
    1.0613404316860873E+00 
    9.6487486565026437E-01 
    8.6892466496748255E-01 
    7.7569695929217386E-01 
    6.8875241584963098E-01 
    6.1273587688299358E-01 
    5.5666363766624483E-01 
    5.3890268184691548E-01 
    1.7744191067807051E+00 
    1.7187547240746512E+00 
    1.6307432193756126E+00 
    1.5379039413906073E+00 
    1.4455790627276988E+00 
    1.3533280146864979E+00 
    1.2602326281991516E+00 
    1.1657902504481419E+00 
    1.0699360043164807E+00 
    9.7304750248109173E-01 
    8.7610368325900023E-01 
    7.8105063972590527E-01 
    6.9130037858231097E-01 
    6.1186142612374717E-01 
    5.5210751977517825E-01 
    5.3309701165796342E-01 
    1.7466774921628978E+00 
    1.7048045884254575E+00 
    1.6283763553094601E+00 
    1.5414058582082071E+00 
    1.4517837320603943E+00 
    1.3608394560427717E+00 
    1.2684100126267395E+00 
    1.1742654903143881E+00 
    1.0783916222719503E+00 
    9.8107493167909132E-01 
    8.8307315837194067E-01 
    7.8600441566347456E-01 
    6.9301160455412336E-01 
    6.0938151119247630E-01 
    5.4523691227878712E-01 
    5.2460821900601085E-01 
    1.7243573748873564E+00 
    1.6916722717903871E+00 
    1.6250242271677766E+00 
    1.5439524830147726E+00 
    1.4573726652715000E+00 
    1.3679825922135673E+00 
    1.2763622036514033E+00 
    1.1825958849613218E+00 
    1.0867493093256917E+00 
    9.8902844029731707E-01 
    8.8995313850512392E-01 
    7.9074278314886326E-01 
    6.9410844577194741E-01 
    6.0540925765866171E-01 
    5.3578539580841766E-01 
    5.1276513092030918E-01 
    1.7064057509565236E+00 
    1.6798801130760155E+00 
    1.6212790559127457E+00 
    1.5458273342310753E+00 
    1.4624572742893434E+00 
    1.3748060586029998E+00 
    1.2841195872310303E+00 
    1.1908114088783006E+00 
    1.0950506656195198E+00 
    9.9697687873580043E-01 
    8.9686387213830643E-01 
    7.9546584959582323E-01 
    6.9486537745572186E-01 
    6.0014434947220208E-01 
    5.2347246477257781E-01 
    4.9666950551981592E-01 
    1.6920459170430364E+00 
    1.6696765225072430E+00 
    1.6175989417954437E+00 
    1.5473109749049843E+00 
    1.4671712031319419E+00 
    1.3813747199092390E+00 
    1.2917210875969967E+00 
    1.1989451040912578E+00 
    1.1033361018591279E+00 
    1.0049845464491662E+00 
    9.0392159662947513E-01 
    8.0038473321959935E-01 
    6.9561535270095509E-01 
    5.9391278036029105E-01 
    5.0807401197943258E-01 
    4.7515700033133867E-01 
    1.6806931940777756E+00 
    1.6611538762511959E+00 
    1.6143262892480099E+00 
    1.5486637402927608E+00 
    1.4716599316244825E+00 
    1.3877663486374554E+00 
    1.2992134395132375E+00 
    1.2070328776661734E+00 
    1.1116442288443602E+00 
    1.0131091222389188E+00 
    9.1123333890169778E-01 
    8.0571300476355445E-01 
    6.9674952046932848E-01 
    5.8721293578302414E-01 
    4.8954734266629851E-01 
    4.4681241939519400E-01 
    1.6718970210440407E+00 
    1.6543181402278599E+00 
    1.6117113269456351E+00 
    1.5501178480652891E+00 
    1.4760725917229374E+00 
    1.3940681323637529E+00 
    1.3066502013988373E+00 
    1.2151133255512991E+00 
    1.1200115271517028E+00 
    1.0213999416417603E+00 
    9.1889119994478452E-01 
    8.1165379393776227E-01 
    6.9870594564782940E-01 
    5.8075953999867269E-01 
    4.6819330390283792E-01 
    4.0999050796745334E-01 
    1.6653000482349016E+00 
    1.6491295208162944E+00 
    1.6099344960660993E+00 
    1.5518756445470105E+00 
    1.4805562007299204E+00 
    1.4003734453435717E+00 
    1.3140906863120529E+00 
    1.2232276755765941E+00 
    1.1284724517820945E+00 
    1.0298970147177950E+00 
    9.2696696597091310E-01 
    8.1838298912617558E-01 
    7.0194230943592550E-01 
    5.7551449476196104E-01 
    4.4485553164547720E-01 
    3.6271934545202156E-01 
    1.6606076321273591E+00 
    1.6455252529384086E+00 
    1.6091250188407995E+00 
    1.5541111266750494E+00 
    1.4852518091619931E+00 
    1.4067789623375262E+00 
    1.3215988774296896E+00 
    1.2314199362525362E+00 
    1.1370601777520031E+00 
    1.0386312981663013E+00 
    9.3550834891961676E-01 
    8.2603041368186270E-01 
    7.0688758411940733E-01 
    5.7268488969689724E-01 
    4.2123091919044953E-01 
    3.0245095682969225E-01 
    1.6575612414252383E+00 
    1.6434289006206735E+00 
    1.6093728685209538E+00 
    1.5569710027824071E+00 
    1.4902905553706458E+00 
    1.4133810558989570E+00 
    1.3292417214105026E+00 
    1.2397370644419032E+00 
    1.1458082672411354E+00 
    1.0476270764173314E+00 
    9.4453891398632184E-01 
    8.3466336161815491E-01 
    7.1387033620226015E-01 
    5.7364304837664859E-01 
    4.0041132167849108E-01 
    2.2569610866401363E-01 
    1.6559035847604973E+00 
    1.6427377872031559E+00 
    1.6107223811481319E+00 
    1.5605642089799618E+00 
    1.4957814787681192E+00 
    1.4202656624428494E+00 
    1.3370827031682055E+00 
    1.2482268560808987E+00 
    1.1547532028716903E+00 
    1.0569089537844174E+00 
    9.5406717157045762E-01 
    8.4428343222875324E-01 
    7.2303396929665331E-01 
    5.7967362797182043E-01 
    3.8781591433482393E-01 
    1.2749069074911465E-01 
    1.6554042759081287E+00 
    1.6433372956720103E+00 
    1.6131801184611265E+00 
    1.5649665050937869E+00 
    1.5018150801931154E+00 
    1.4275117755869251E+00 
    1.3451847177886413E+00 
    1.2569394084893808E+00 
    1.1639341551335347E+00 
    1.0664999916535587E+00 
    9.6408247092218091E-01 
    8.5480960755623803E-01 
    7.3420848909395897E-01 
    5.9123615137692331E-01 
    3.9256254774642874E-01 
    0.0000000000000000E+00 

SCALARS Saturarion double 1 
LOOKUP_TABLE default 

    1.0000000000000000E+00 
    9.8545038975615640E-01 
    9.6641843126663329E-01 
    9.4568701945318645E-01 
    9.2495573978688361E-01 
    9.0470296700555042E-01 
    8.8494053332424527E-01 
    8.6546186568621630E-01 
    8.4588710881784412E-01 
    8.2557338315178874E-01 
    8.0329976799260816E-01 
    7.7623632784727425E-01 
    7.3554482115206898E-01 
    6.4249389881629659E-01 
    3.3019982000738440E-01 
    1.1972555557728895E-02 
    9.9532563929777484E-01 
    9.8322013127836339E-01 
    9.6555647405738354E-01 
    9.4547530121321421E-01 
    9.2503763683351659E-01 
    9.0494411262580821E-01 
    8.8529685598834340E-01 
    8.6593321628692954E-01 
    8.4650661652321790E-01 
    8.2641675956212035E-01 
    8.0452343510239122E-01 
    7.7820902146692317E-01 
    7.3949429113171061E-01 
    6.5467964028768588E-01 
    3.7963657571142329E-01 
    2.3250512909375850E-02 
    9.9142502620794715E-01 
    9.7996148281789064E-01 
    9.6338411592182405E-01 
    9.4412292772222117E-01 
    9.2417520546760112E-01 
    9.0440170270939435E-01 
    8.8500262792091577E-01 
    8.6586805005422085E-01 
    8.4669007701789678E-01 
    8.2691446416820691E-01 
    8.0548298577373911E-01 
    7.7998004015622968E-01 
    7.4316999703748421E-01 
    6.6521386103510072E-01 
    4.1934687988841590E-01 
    3.8495138989482307E-02 
    9.8680782303939962E-01 
    9.7587750616279412E-01 
    9.6016412037654830E-01 
    9.4172948281044644E-01 
    9.2238261304511582E-01 
    9.0304864961696119E-01 
    8.8400732065156218E-01 
    8.6520123155995055E-01 
    8.4636373312046453E-01 
    8.2698967566515658E-01 
    8.0610500239569172E-01 
    7.8148899350333767E-01 
    7.4656943800333420E-01 
    6.7474109799179449E-01 
    4.5433755992772445E-01 
    5.9077799942369870E-02 
    9.8125645715379894E-01 
    9.7092764206530957E-01 
    9.5599540146017770E-01 
    9.3836772182870254E-01 
    9.1968710722571934E-01 
    9.0088452075427816E-01 
    8.8229394990268717E-01 
    8.6390446365459161E-01 
    8.4549033105680160E-01 
    8.2659749606574873E-01 
    8.0633929499212353E-01 
    7.8268820506635484E-01 
    7.4968379950213770E-01 
    6.8355628160646253E-01 
    4.8549618936134625E-01 
    8.5806850285193942E-02 
    9.7460167400588849E-01 
    9.6501774812534702E-01 
    9.5087250915690236E-01 
    9.3405111055277701E-01 
    9.1608551445612685E-01 
    8.9789043777034805E-01 
    8.7983351409076216E-01 
    8.6194186772648929E-01 
    8.4402806472231984E-01 
    8.2568970296552702E-01 
    8.0613110417532718E-01 
    7.8352123810630059E-01 
    7.5248028610917017E-01 
    6.9178648713241142E-01 
    5.1352905782458036E-01 
    1.1946855367164821E-01 
    9.6667048221610374E-01 
    9.5801805911384474E-01 
    9.4472485347688961E-01 
    9.2873835135716742E-01 
    9.1153708116971544E-01 
    8.9401979234182150E-01 
    8.7657508826796771E-01 
    8.5925988046170065E-01 
    8.4192076670943983E-01 
    8.2420578534978373E-01 
    8.0541324019914340E-01 
    7.8391583820097466E-01 
    7.5489961863381783E-01 
    6.9947050235286146E-01 
    5.3906113474505768E-01 
    1.6055759861949287E-01 
    9.5726055619615402E-01 
    9.4975698402027087E-01 
    9.3742485167336209E-01 
    9.2233247304050670E-01 
    9.0595546517211678E-01 
    8.8918861311261255E-01 
    8.7243623627942446E-01 
    8.5577820524555759E-01 
    8.3908975981183442E-01 
    8.2206604433181385E-01 
    8.0410048034683645E-01 
    7.8377904306547808E-01 
    7.5685384725318361E-01 
    7.0658844078757688E-01 
    5.6259831095664325E-01 
    2.0863319337046798E-01 
    9.4611086791056764E-01 
    9.4000194672487669E-01 
    9.2877710145403425E-01 
    9.1466867297122179E-01 
    8.9919313070715856E-01 
    8.8325904165967828E-01 
    8.6728705922348637E-01 
    8.5137508723426247E-01 
    8.3542076000202947E-01 
    8.1916043548439588E-01 
    8.0208042201673491E-01 
    7.8298930251103249E-01 
    7.5821991389583210E-01 
    7.1306924654234949E-01 
    5.8450339187295641E-01 
    2.6141620235763657E-01 
    9.3285531072097194E-01 
    9.2842217289433804E-01 
    9.1848720292792307E-01 
    9.0548441512576405E-01 
    8.9101037897176028E-01 
    8.7600830619715864E-01 
    8.6092044081026342E-01 
    8.4585980713413789E-01 
    8.3073938196114705E-01 
    8.1532765697811982E-01 
    7.9919629384588109E-01 
    7.8138179389211915E-01 
    7.5882563693106542E-01 
    7.1878427887650609E-01 
    6.0498357804814240E-01 
    3.1503992624759208E-01 
    9.1693623148215431E-01 
    9.1451486467759380E-01 
    9.0609439340043108E-01 
    8.9435471422870838E-01 
    8.8101108155400820E-01 
    8.6706530203102605E-01 
    8.5299104118140234E-01 
    8.3891587570520909E-01 
    8.2476013846245533E-01 
    8.1031118981560435E-01 
    7.9521064269428798E-01 
    7.7871822466595175E-01 
    7.5842092380095560E-01 
    7.2352450827695114E-01 
    6.2408802779861983E-01 
    3.6628802700781088E-01 
    8.9741344771442666E-01 
    8.9743984223769691E-01 
    8.9081706220888746E-01 
    8.8054189173908182E-01 
    8.6849339640222689E-01 
    8.5576236470755418E-01 
    8.4287092755128590E-01 
    8.2996487785683482E-01 
    8.1696305988057283E-01 
    8.0365231634405521E-01 
    7.8971677240708071E-01 
    7.7461514796052600E-01 
    7.5661341370818613E-01 
    7.2694477113162081E-01 
    6.4170354422286635E-01 
    4.1394392559656823E-01 
    8.7243427219006131E-01 
    8.7556485902588754E-01 
    8.7112604101759505E-01 
    8.6257563798178527E-01 
    8.5202646781875946E-01 
    8.4070717860276645E-01 
    8.2922367646096862E-01 
    8.1775700185471079E-01 
    8.0621849903908560E-01 
    7.9436502593842939E-01 
    7.8187289164474461E-01 
    7.6833590996529044E-01 
    7.5269642910549250E-01 
    7.2841641731876583E-01 
    6.5750727971638689E-01 
    4.5789220565404676E-01 
    8.3712715457621101E-01 
    8.4469543413677117E-01 
    8.4308796286808407E-01 
    8.3660413788038623E-01 
    8.2775597414605273E-01 
    8.1802820757655892E-01 
    8.0821294161844537E-01 
    7.9860276412787734E-01 
    7.8912893102897430E-01 
    7.7948099938324578E-01 
    7.6922226764621238E-01 
    7.5790912778427544E-01 
    7.4500360579653813E-01 
    7.2652546461512313E-01 
    6.7074276963703983E-01 
    4.9820157204839649E-01 
    7.7099724552018167E-01 
    7.8727745405132299E-01 
    7.9027992395923152E-01 
    7.8643056203474915E-01 
    7.7922982970389354E-01 
    7.7082121656168345E-01 
    7.6256299201366728E-01 
    7.5526138574049251E-01 
    7.4923311819608840E-01 
    7.4427712733653750E-01 
    7.3965952776395272E-01 
    7.3427314630967866E-01 
    7.2712832552495832E-01 
    7.1659048801539815E-01 
    6.7891837470987837E-01 
    5.3428758109300123E-01 
    5.2120297205269206E-01 
    5.8903465630067253E-01 
    6.1147789064025437E-01 
    6.1562510556003047E-01 
    6.1055374011048191E-01 
    6.0058243174020809E-01 
    5.8817199991306068E-01 
    5.7502061020895168E-01 
    5.6271016432708321E-01 
    5.5318653343277158E-01 
    5.4886019317799739E-01 
    5.5172798167295578E-01 
    5.6247754764998903E-01 
    5.8624179899871898E-01 
    6.2316478579297507E-01 
    5.5103739111894912E-01 
