# vtk DataFile Version 2.0
Pressure Field Data 
ASCII 
DATASET UNSTRUCTURED_GRID 

POINTS 289 double 

    0.0000000000000000E+00     0.0000000000000000E+00     0.0000000000000000E+00 
    1.0000000000000000E+00     0.0000000000000000E+00     0.0000000000000000E+00 
    1.0000000000000000E+00     1.0000000000000000E+00     0.0000000000000000E+00 
    0.0000000000000000E+00     1.0000000000000000E+00     0.0000000000000000E+00 
    6.2499999999872928E-02     0.0000000000000000E+00     0.0000000000000000E+00 
    1.2499999999977310E-01     0.0000000000000000E+00     0.0000000000000000E+00 
    1.8749999999959341E-01     0.0000000000000000E+00     0.0000000000000000E+00 
    2.4999999999941089E-01     0.0000000000000000E+00     0.0000000000000000E+00 
    3.1249999999922851E-01     0.0000000000000000E+00     0.0000000000000000E+00 
    3.7499999999904610E-01     0.0000000000000000E+00     0.0000000000000000E+00 
    4.3749999999886358E-01     0.0000000000000000E+00     0.0000000000000000E+00 
    4.9999999999869210E-01     0.0000000000000000E+00     0.0000000000000000E+00 
    5.6249999999884603E-01     0.0000000000000000E+00     0.0000000000000000E+00 
    6.2499999999901090E-01     0.0000000000000000E+00     0.0000000000000000E+00 
    6.8749999999917577E-01     0.0000000000000000E+00     0.0000000000000000E+00 
    7.4999999999934064E-01     0.0000000000000000E+00     0.0000000000000000E+00 
    8.1249999999950551E-01     0.0000000000000000E+00     0.0000000000000000E+00 
    8.7499999999967026E-01     0.0000000000000000E+00     0.0000000000000000E+00 
    9.3749999999983513E-01     0.0000000000000000E+00     0.0000000000000000E+00 
    1.0000000000000000E+00     6.2499999999872928E-02     0.0000000000000000E+00 
    1.0000000000000000E+00     1.2499999999977310E-01     0.0000000000000000E+00 
    1.0000000000000000E+00     1.8749999999959341E-01     0.0000000000000000E+00 
    1.0000000000000000E+00     2.4999999999941089E-01     0.0000000000000000E+00 
    1.0000000000000000E+00     3.1249999999922851E-01     0.0000000000000000E+00 
    1.0000000000000000E+00     3.7499999999904610E-01     0.0000000000000000E+00 
    1.0000000000000000E+00     4.3749999999886358E-01     0.0000000000000000E+00 
    1.0000000000000000E+00     4.9999999999869210E-01     0.0000000000000000E+00 
    1.0000000000000000E+00     5.6249999999884603E-01     0.0000000000000000E+00 
    1.0000000000000000E+00     6.2499999999901090E-01     0.0000000000000000E+00 
    1.0000000000000000E+00     6.8749999999917577E-01     0.0000000000000000E+00 
    1.0000000000000000E+00     7.4999999999934064E-01     0.0000000000000000E+00 
    1.0000000000000000E+00     8.1249999999950551E-01     0.0000000000000000E+00 
    1.0000000000000000E+00     8.7499999999967026E-01     0.0000000000000000E+00 
    1.0000000000000000E+00     9.3749999999983513E-01     0.0000000000000000E+00 
    9.3749999999973976E-01     1.0000000000000000E+00     0.0000000000000000E+00 
    8.7499999999950118E-01     1.0000000000000000E+00     0.0000000000000000E+00 
    8.1249999999991318E-01     1.0000000000000000E+00     0.0000000000000000E+00 
    7.5000000000034706E-01     1.0000000000000000E+00     0.0000000000000000E+00 
    6.8750000000078049E-01     1.0000000000000000E+00     0.0000000000000000E+00 
    6.2500000000121403E-01     1.0000000000000000E+00     0.0000000000000000E+00 
    5.6250000000164757E-01     1.0000000000000000E+00     0.0000000000000000E+00 
    5.0000000000205946E-01     1.0000000000000000E+00     0.0000000000000000E+00 
    4.3750000000182099E-01     1.0000000000000000E+00     0.0000000000000000E+00 
    3.7500000000156092E-01     1.0000000000000000E+00     0.0000000000000000E+00 
    3.1250000000130068E-01     1.0000000000000000E+00     0.0000000000000000E+00 
    2.5000000000104050E-01     1.0000000000000000E+00     0.0000000000000000E+00 
    1.8750000000078040E-01     1.0000000000000000E+00     0.0000000000000000E+00 
    1.2500000000052031E-01     1.0000000000000000E+00     0.0000000000000000E+00 
    6.2500000000260125E-02     1.0000000000000000E+00     0.0000000000000000E+00 
    0.0000000000000000E+00     9.3749999999973976E-01     0.0000000000000000E+00 
    0.0000000000000000E+00     8.7499999999950118E-01     0.0000000000000000E+00 
    0.0000000000000000E+00     8.1249999999991318E-01     0.0000000000000000E+00 
    0.0000000000000000E+00     7.5000000000034706E-01     0.0000000000000000E+00 
    0.0000000000000000E+00     6.8750000000078049E-01     0.0000000000000000E+00 
    0.0000000000000000E+00     6.2500000000121403E-01     0.0000000000000000E+00 
    0.0000000000000000E+00     5.6250000000164757E-01     0.0000000000000000E+00 
    0.0000000000000000E+00     5.0000000000205946E-01     0.0000000000000000E+00 
    0.0000000000000000E+00     4.3750000000182099E-01     0.0000000000000000E+00 
    0.0000000000000000E+00     3.7500000000156092E-01     0.0000000000000000E+00 
    0.0000000000000000E+00     3.1250000000130068E-01     0.0000000000000000E+00 
    0.0000000000000000E+00     2.5000000000104050E-01     0.0000000000000000E+00 
    0.0000000000000000E+00     1.8750000000078040E-01     0.0000000000000000E+00 
    0.0000000000000000E+00     1.2500000000052031E-01     0.0000000000000000E+00 
    0.0000000000000000E+00     6.2500000000260125E-02     0.0000000000000000E+00 
    6.2499999999897131E-02     6.2500000000235922E-02     0.0000000000000000E+00 
    6.2499999999921327E-02     1.2500000000047351E-01     0.0000000000000000E+00 
    6.2499999999945530E-02     1.8750000000070621E-01     0.0000000000000000E+00 
    6.2499999999969733E-02     2.5000000000093858E-01     0.0000000000000000E+00 
    6.2499999999993928E-02     3.1250000000117117E-01     0.0000000000000000E+00 
    6.2500000000018124E-02     3.7500000000140382E-01     0.0000000000000000E+00 
    6.2500000000042327E-02     4.3750000000163619E-01     0.0000000000000000E+00 
    6.2500000000066530E-02     5.0000000000184897E-01     0.0000000000000000E+00 
    6.2500000000090733E-02     5.6250000000147260E-01     0.0000000000000000E+00 
    6.2500000000114922E-02     6.2500000000107636E-01     0.0000000000000000E+00 
    6.2500000000139125E-02     6.8750000000068034E-01     0.0000000000000000E+00 
    6.2500000000163328E-02     7.5000000000028411E-01     0.0000000000000000E+00 
    6.2500000000187531E-02     8.1249999999988787E-01     0.0000000000000000E+00 
    6.2500000000211720E-02     8.7499999999951172E-01     0.0000000000000000E+00 
    6.2500000000235922E-02     9.3749999999974565E-01     0.0000000000000000E+00 
    1.2499999999981980E-01     6.2500000000211733E-02     0.0000000000000000E+00 
    1.2499999999986650E-01     1.2500000000042691E-01     0.0000000000000000E+00 
    1.2499999999991319E-01     1.8750000000063199E-01     0.0000000000000000E+00 
    1.2499999999995989E-01     2.5000000000083678E-01     0.0000000000000000E+00 
    1.2500000000000661E-01     3.1250000000104172E-01     0.0000000000000000E+00 
    1.2500000000005329E-01     3.7500000000124661E-01     0.0000000000000000E+00 
    1.2500000000010000E-01     4.3750000000145117E-01     0.0000000000000000E+00 
    1.2500000000014669E-01     5.0000000000163858E-01     0.0000000000000000E+00 
    1.2500000000019340E-01     5.6250000000129741E-01     0.0000000000000000E+00 
    1.2500000000024011E-01     6.2500000000093847E-01     0.0000000000000000E+00 
    1.2500000000028680E-01     6.8750000000057998E-01     0.0000000000000000E+00 
    1.2500000000033351E-01     7.5000000000022127E-01     0.0000000000000000E+00 
    1.2500000000038020E-01     8.1249999999986211E-01     0.0000000000000000E+00 
    1.2500000000042691E-01     8.7499999999952238E-01     0.0000000000000000E+00 
    1.2500000000047359E-01     9.3749999999975164E-01     0.0000000000000000E+00 
    1.8749999999966760E-01     6.2500000000187531E-02     0.0000000000000000E+00 
    1.8749999999974179E-01     1.2500000000038020E-01     0.0000000000000000E+00 
    1.8749999999981601E-01     1.8750000000055780E-01     0.0000000000000000E+00 
    1.8749999999989009E-01     2.5000000000073502E-01     0.0000000000000000E+00 
    1.8749999999996431E-01     3.1250000000091221E-01     0.0000000000000000E+00 
    1.8750000000003850E-01     3.7500000000108941E-01     0.0000000000000000E+00 
    1.8750000000011269E-01     4.3750000000126649E-01     0.0000000000000000E+00 
    1.8750000000018691E-01     5.0000000000142808E-01     0.0000000000000000E+00 
    1.8750000000026110E-01     5.6250000000112244E-01     0.0000000000000000E+00 
    1.8750000000033529E-01     6.2500000000080080E-01     0.0000000000000000E+00 
    1.8750000000040951E-01     6.8750000000047962E-01     0.0000000000000000E+00 
    1.8750000000048361E-01     7.5000000000015843E-01     0.0000000000000000E+00 
    1.8750000000055780E-01     8.1249999999983680E-01     0.0000000000000000E+00 
    1.8750000000063199E-01     8.7499999999953304E-01     0.0000000000000000E+00 
    1.8750000000070621E-01     9.3749999999975764E-01     0.0000000000000000E+00 
    2.4999999999951281E-01     6.2500000000163314E-02     0.0000000000000000E+00 
    2.4999999999961461E-01     1.2500000000033351E-01     0.0000000000000000E+00 
    2.4999999999971650E-01     1.8750000000048361E-01     0.0000000000000000E+00 
    2.4999999999981831E-01     2.5000000000063310E-01     0.0000000000000000E+00 
    2.4999999999992020E-01     3.1250000000078260E-01     0.0000000000000000E+00 
    2.5000000000002198E-01     3.7500000000093209E-01     0.0000000000000000E+00 
    2.5000000000012390E-01     4.3750000000108180E-01     0.0000000000000000E+00 
    2.5000000000022571E-01     5.0000000000121769E-01     0.0000000000000000E+00 
    2.5000000000032763E-01     5.6250000000094724E-01     0.0000000000000000E+00 
    2.5000000000042938E-01     6.2500000000066314E-01     0.0000000000000000E+00 
    2.5000000000053119E-01     6.8750000000037925E-01     0.0000000000000000E+00 
[...]
CELL_DATA 256 
SCALARS Pressure double 1 
LOOKUP_TABLE default 

    1.2565217547720253E+00 
    9.7819736482499242E-01 
    8.6475951545010565E-01 
    7.9514622946246527E-01 
    7.3314934101668217E-01 
    6.7440603862694959E-01 
    6.1749702699035713E-01 
    5.6180375462204768E-01 
    5.0723751612242818E-01 
    4.5416080385350549E-01 
    4.0345526289551159E-01 
    3.5667150564315786E-01 
    3.1612955467052239E-01 
    2.8469288584969477E-01 
    2.6483244129833250E-01 
    2.5686261307091518E-01 
    1.1663157119198431E+00 
    9.8066090480110946E-01 
    8.7212063606575718E-01 
    8.0127721349702330E-01 
    7.3890288673920490E-01 
    6.8002584118266540E-01 
    6.2302168319623630E-01 
    5.6722281245814987E-01 
    5.1249916212771018E-01 
    4.5915979251853178E-01 
    4.0801416333977020E-01 
    3.6053039459518477E-01 
    3.1897695236945622E-01 
    2.8628240452890191E-01 
    2.6519175267316081E-01 
    2.5650400601671258E-01 
    1.0868450911151641E+00 
    9.7100931666133827E-01 
    8.7709774887635650E-01 
    8.0672206950835912E-01 
    7.4433231279309431E-01 
    6.8547029451893171E-01 
    6.2844120801562964E-01 
    5.7256006374715884E-01 
    5.1766738727480921E-01 
    4.6401696870014630E-01 
    4.1233390285513688E-01 
    3.6398716819908039E-01 
    3.2118984855479893E-01 
    2.8698078990672971E-01 
    2.6450760923993072E-01 
    2.5521380289033641E-01 
    1.0277219039692522E+00 
    9.5860490488619454E-01 
    8.7953705971825591E-01 
    8.1123114649768957E-01 
    7.4937203061048407E-01 
    6.9071846507492551E-01 
    6.3375061913132302E-01 
    5.7782182595482923E-01 
    5.2276094409780294E-01 
    4.6876765670228504E-01 
    4.1647100343992161E-01 
    3.6711837501248984E-01 
    3.2284629825555355E-01 
    2.8682279264521915E-01 
    2.6271699538286969E-01 
    2.5281505397504012E-01 
    9.9270137267461678E-01 
    9.4659009708097241E-01 
    8.7967799493132237E-01 
    8.1474239344282140E-01 
    7.5397797293138069E-01 
    6.9575502768006947E-01 
    6.3894758798709728E-01 
    5.8301553657257210E-01 
    5.2779897640634088E-01 
    4.7344774289199243E-01 
    4.2048425996887889E-01 
    3.7000677383747294E-01 
    3.2403526209590189E-01 
    2.8585297045975960E-01 
    2.5975410456345394E-01 
    2.4912381098121017E-01 
    9.6931042029342318E-01 
    9.3562200525196682E-01 
    8.7816994844850205E-01 
    8.1732967337456286E-01 
    7.5814189765450024E-01 
    7.0057439338715610E-01 
    6.4403341301989403E-01 
    5.8814985416982157E-01 
    5.3280061590005201E-01 
    4.7809288791033761E-01 
    4.2443399748684901E-01 
    3.7274199285675763E-01 
    3.2486093963663076E-01 
    2.8413369627076912E-01 
    2.5555382535431587E-01 
    2.4393658076669361E-01 
    9.5062775546654732E-01 
    9.2513809969550342E-01 
    8.7570737285097200E-01 
    8.1915741489275851E-01 
    7.6189312041421053E-01 
    7.0518354549280327E-01 
    6.4901395969862008E-01 
    5.9323477843243166E-01 
    5.3778457365038035E-01 
    4.8273759905963337E-01 
    4.2838085946136534E-01 
    3.7542036928730571E-01 
    3.2544681054306585E-01 
    2.8175507888672813E-01 
    2.5005777201225765E-01 
    2.3701614940867996E-01 
    9.3568015106079694E-01 
    9.1563516879441131E-01 
    8.7280232825622495E-01 
    8.2043067908868372E-01 
    7.6529249694828527E-01 
    7.0960288449973918E-01 
    6.5390029603351818E-01 
    5.9828174310305160E-01 
    5.4276873778546730E-01 
    4.8741418876596887E-01 
    4.3238407824642744E-01 
    3.7814365865297117E-01 
    3.2593889883413252E-01 
    2.7884736019836825E-01 
    2.4322496107393085E-01 
    2.2807402807763888E-01 
    9.2377816548705938E-01 
    9.0736130641905544E-01 
    8.6985212889987373E-01 
    8.2136133410700429E-01 
    7.6842312596092199E-01 
    7.1386527575214120E-01 
    6.5870887237139764E-01 
    6.0330363756064875E-01 
    5.4776979535795123E-01 
    4.9215167684370126E-01 
    4.3649923674080332E-01 
    3.8101627103265268E-01 
    3.2650740799270167E-01 
    2.7559612091571345E-01 
    2.3505050232494487E-01 
    2.1674721539508071E-01 
    9.1440531116834500E-01 
    9.0041539308453644E-01 
    8.6715314444918401E-01 
    8.2214983981291345E-01 
    7.7138112609588616E-01 
    7.1801390690284950E-01 
    6.6346123355894726E-01 
    6.0831473137277881E-01 
    5.5280290300416779E-01 
    4.9697472818403815E-01 
    4.4077562139002857E-01 
    3.8414072618425060E-01 
    3.2734538120273893E-01 
    2.7225999477420165E-01 
    2.2559784364719210E-01 
    2.0256599790808083E-01 
    9.0716553368536790E-01 
    8.9481268270777736E-01 
    8.6492009904621658E-01 
    8.2297604144320347E-01 
    7.7426799578116989E-01 
    7.2209960303396425E-01 
    6.6818335088526859E-01 
    6.1333049975161935E-01 
    5.5788143490257347E-01 
    5.0190274689391468E-01 
    4.4525339284227322E-01 
    3.8761118184590110E-01 
    3.2866245344448647E-01 
    2.6918913398868860E-01 
    2.1505377005340892E-01 
    1.8490791601326251E-01 
    9.0174668714800787E-01 
    8.9052340707313526E-01 
    8.6330529095460640E-01 
    8.2399605545738841E-01 
    7.7718500104147803E-01 
    7.2617810521718196E-01 
    6.7290470626548959E-01 
    6.1836736657907199E-01 
    5.6301683416928572E-01 
    5.0694926234335858E-01 
    4.4996094984963936E-01 
    3.9150526313048861E-01 
    3.3067123201357962E-01 
    2.6683958728213963E-01 
    2.0382150183734438E-01 
    1.6293046307167067E-01 
    8.9789436431343095E-01 
    8.8749529250480397E-01 
    8.6241538043553456E-01 
    8.2534293854698160E-01 
    7.8022953349974800E-01 
    7.3030763899530704E-01 
    6.7765726296051809E-01 
    6.2344239088630904E-01 
    5.6821858282883142E-01 
    5.1212172900408104E-01 
    4.5491299787840789E-01 
    3.9587509197874871E-01 
    3.3356379600253955E-01 
    2.6577256295307089E-01 
    1.9267754648810662E-01 
    1.3547099428298384E-01 
    8.9539230482955323E-01 
    8.8566654702726033E-01 
    8.6232520734185225E-01 
    8.2712950654245165E-01 
    7.8349314562862671E-01 
    7.3454694180452562E-01 
    6.8247443329151369E-01 
    6.2857292252595975E-01 
    5.7349428651348588E-01 
    5.1742180932243309E-01 
    4.6010988364295291E-01 
    4.0073940494187166E-01 
    3.3747726366256814E-01 
    2.6661552981840791E-01 
    1.8303527642859663E-01 
    1.0089577129342020E-01 
    8.9404674563787201E-01 
    8.8497330255780016E-01 
    8.6308890536470528E-01 
    8.2945224849745425E-01 
    7.8706089946727331E-01 
    7.3895380057114801E-01 
    6.8739011915801496E-01 
    6.3377624625739781E-01 
    5.7884984768453640E-01 
    5.2284611700445427E-01 
    4.6553861243777850E-01 
    4.0607972541693421E-01 
    3.4245258547977447E-01 
    2.6993929837750080E-01 
    1.7738734118102817E-01 
    5.6869536957616741E-02 
    8.9367273604152742E-01 
    8.8535399087616906E-01 
    8.6474889102350816E-01 
    8.3239571702095383E-01 
    7.9101168226646246E-01 
    7.4358407280432715E-01 
    6.9243786563251253E-01 
    6.3906922434112223E-01 
    5.8428968315334906E-01 
    5.2838728939681412E-01 
    4.7117553384944383E-01 
    4.1184379758806039E-01 
    3.4840438578073729E-01 
    2.7596264712007285E-01 
    1.8004813506589104E-01 
    0.0000000000000000E+00 

SCALARS Saturarion double 1 
LOOKUP_TABLE default 

    1.0000000000000000E+00 
    6.1641864606946595E-01 
    7.4117296273742167E-02 
    8.9832530187641650E-05 
    9.5209449810379694E-12 
    3.7529206784349854E-28 
    1.1864804591807863E-68 
    0.0000000000000000E+00 
    0.0000000000000000E+00 
    0.0000000000000000E+00 
    0.0000000000000000E+00 
    0.0000000000000000E+00 
    0.0000000000000000E+00 
    0.0000000000000000E+00 
    0.0000000000000000E+00 
    0.0000000000000000E+00 
    8.7343852029047597E-01 
    4.7865817881555606E-01 
    2.0407510509550995E-02 
    1.8267082071366383E-06 
    2.2834885394585238E-16 
    4.0431852461801329E-42 
    0.0000000000000000E+00 
    0.0000000000000000E+00 
    0.0000000000000000E+00 
    0.0000000000000000E+00 
    0.0000000000000000E+00 
    0.0000000000000000E+00 
    0.0000000000000000E+00 
    0.0000000000000000E+00 
    0.0000000000000000E+00 
    0.0000000000000000E+00 
    7.7239060450614228E-01 
    1.8968747176286641E-01 
    6.4834507032316161E-04 
    8.6473221587508253E-11 
    1.2755920782610215E-31 
    0.0000000000000000E+00 
    0.0000000000000000E+00 
    0.0000000000000000E+00 
    0.0000000000000000E+00 
    0.0000000000000000E+00 
    0.0000000000000000E+00 
    0.0000000000000000E+00 
    0.0000000000000000E+00 
    0.0000000000000000E+00 
    0.0000000000000000E+00 
    0.0000000000000000E+00 
    5.1872014803562017E-01 
    1.0081395494507830E-02 
    1.8986113998553905E-08 
    3.9278624505521599E-27 
    0.0000000000000000E+00 
    0.0000000000000000E+00 
    0.0000000000000000E+00 
    0.0000000000000000E+00 
    0.0000000000000000E+00 
    0.0000000000000000E+00 
    0.0000000000000000E+00 
    0.0000000000000000E+00 
    0.0000000000000000E+00 
    0.0000000000000000E+00 
    0.0000000000000000E+00 
    0.0000000000000000E+00 
    3.3731493933014417E-02 
    1.9130204143294214E-07 
    4.3518084383958590E-25 
    0.0000000000000000E+00 
    0.0000000000000000E+00 
    0.0000000000000000E+00 
    0.0000000000000000E+00 
    0.0000000000000000E+00 
    0.0000000000000000E+00 
    0.0000000000000000E+00 
    0.0000000000000000E+00 
    0.0000000000000000E+00 
    0.0000000000000000E+00 
    0.0000000000000000E+00 
    0.0000000000000000E+00 
    0.0000000000000000E+00 
    6.0388797632798615E-07 
    3.6465171134752818E-24 
    0.0000000000000000E+00 
    0.0000000000000000E+00 
    0.0000000000000000E+00 
    0.0000000000000000E+00 
    0.0000000000000000E+00 
    0.0000000000000000E+00 
    0.0000000000000000E+00 
    0.0000000000000000E+00 
    0.0000000000000000E+00 
    0.0000000000000000E+00 
    0.0000000000000000E+00 
    0.0000000000000000E+00 
    0.0000000000000000E+00 
    0.0000000000000000E+00 
    1.0472353234671585E-23 
    0.0000000000000000E+00 
    0.0000000000000000E+00 
    0.0000000000000000E+00 
    0.0000000000000000E+00 
    0.0000000000000000E+00 
    0.0000000000000000E+00 
    0.0000000000000000E+00 
    0.0000000000000000E+00 
    0.0000000000000000E+00 
    0.0000000000000000E+00 
    0.0000000000000000E+00 
    0.0000000000000000E+00 
    0.0000000000000000E+00 
    0.0000000000000000E+00 
    0.0000000000000000E+00 
    0.0000000000000000E+00 
    0.0000000000000000E+00 
    0.0000000000000000E+00 
    0.0000000000000000E+00 
    0.0000000000000000E+00 
    0.0000000000000000E+00 
    0.0000000000000000E+00 
    0.0000000000000000E+00 
    0.0000000000000000E+00 
    0.0000000000000000E+00 
    0.0000000000000000E+00 
    0.0000000000000000E+00 
    0.0000000000000000E+00 
    0.0000000000000000E+00 
    0.0000000000000000E+00 
    0.0000000000000000E+00 
    0.0000000000000000E+00 
    0.0000000000000000E+00 
    0.0000000000000000E+00 
    0.0000000000000000E+00 
    0.0000000000000000E+00 
    0.0000000000000000E+00 
    0.0000000000000000E+00 
    0.0000000000000000E+00 
    0.0000000000000000E+00 
    0.0000000000000000E+00 
    0.0000000000000000E+00 
    0.0000000000000000E+00 
    0.0000000000000000E+00 
    0.0000000000000000E+00 
    0.0000000000000000E+00 
    0.0000000000000000E+00 
    0.0000000000000000E+00 
    0.0000000000000000E+00 
    0.0000000000000000E+00 
    0.0000000000000000E+00 
    0.0000000000000000E+00 
    0.0000000000000000E+00 
    0.0000000000000000E+00 
    0.0000000000000000E+00 
    0.0000000000000000E+00 
    0.0000000000000000E+00 
    0.0000000000000000E+00 
    0.0000000000000000E+00 
    0.0000000000000000E+00 
    0.0000000000000000E+00 
    0.0000000000000000E+00 
    0.0000000000000000E+00 
    0.0000000000000000E+00 
    0.0000000000000000E+00 
    0.0000000000000000E+00 
    0.0000000000000000E+00 
    0.0000000000000000E+00 
    0.0000000000000000E+00 
    0.0000000000000000E+00 
    0.0000000000000000E+00 
    0.0000000000000000E+00 
    0.0000000000000000E+00 
    0.0000000000000000E+00 
    0.0000000000000000E+00 
    0.0000000000000000E+00 
    0.0000000000000000E+00 
    0.0000000000000000E+00 
    0.0000000000000000E+00 
    0.0000000000000000E+00 
    0.0000000000000000E+00 
    0.0000000000000000E+00 
    0.0000000000000000E+00 
    0.0000000000000000E+00 
    0.0000000000000000E+00 
    0.0000000000000000E+00 
    0.0000000000000000E+00 
    0.0000000000000000E+00 
    0.0000000000000000E+00 
    0.0000000000000000E+00 
    0.0000000000000000E+00 
    0.0000000000000000E+00 
    0.0000000000000000E+00 
    0.0000000000000000E+00 
    0.0000000000000000E+00 
    0.0000000000000000E+00 
    0.0000000000000000E+00 
    0.0000000000000000E+00 
    0.0000000000000000E+00 
    0.0000000000000000E+00 
    0.0000000000000000E+00 
    0.0000000000000000E+00 
    0.0000000000000000E+00 
    0.0000000000000000E+00 
    0.0000000000000000E+00 
    0.0000000000000000E+00 
    0.0000000000000000E+00 
    0.0000000000000000E+00 
    0.0000000000000000E+00 
    0.0000000000000000E+00 
    0.0000000000000000E+00 
    0.0000000000000000E+00 
    0.0000000000000000E+00 
    0.0000000000000000E+00 
    0.0000000000000000E+00 
    0.0000000000000000E+00 
    0.0000000000000000E+00 
    0.0000000000000000E+00 
    0.0000000000000000E+00 
    0.0000000000000000E+00 
    0.0000000000000000E+00 
    0.0000000000000000E+00 
    0.0000000000000000E+00 
    0.0000000000000000E+00 
    0.0000000000000000E+00 
    0.0000000000000000E+00 
    0.0000000000000000E+00 
    0.0000000000000000E+00 
    0.0000000000000000E+00 
    0.0000000000000000E+00 
    0.0000000000000000E+00 
    0.0000000000000000E+00 
    0.0000000000000000E+00 
    0.0000000000000000E+00 
    0.0000000000000000E+00 
    0.0000000000000000E+00 
    0.0000000000000000E+00 
    0.0000000000000000E+00 
    0.0000000000000000E+00 
    0.0000000000000000E+00 
    0.0000000000000000E+00 
    0.0000000000000000E+00 
    0.0000000000000000E+00 
    0.0000000000000000E+00 
    0.0000000000000000E+00 
    0.0000000000000000E+00 
    0.0000000000000000E+00 
    0.0000000000000000E+00 
    0.0000000000000000E+00 
    0.0000000000000000E+00 
    0.0000000000000000E+00 
    0.0000000000000000E+00 
    0.0000000000000000E+00 
    0.0000000000000000E+00 
    0.0000000000000000E+00 
    0.0000000000000000E+00 
    0.0000000000000000E+00 
    0.0000000000000000E+00 
    0.0000000000000000E+00 
