# vtk DataFile Version 2.0
Pressure Field Data 
ASCII 
DATASET UNSTRUCTURED_GRID 

POINTS 289 double 

    0.0000000000000000E+00     0.0000000000000000E+00     0.0000000000000000E+00 
    1.0000000000000000E+00     0.0000000000000000E+00     0.0000000000000000E+00 
    1.0000000000000000E+00     1.0000000000000000E+00     0.0000000000000000E+00 
    0.0000000000000000E+00     1.0000000000000000E+00     0.0000000000000000E+00 
    6.2499999999872928E-02     0.0000000000000000E+00     0.0000000000000000E+00 
    1.2499999999977310E-01     0.0000000000000000E+00     0.0000000000000000E+00 
    1.8749999999959341E-01     0.0000000000000000E+00     0.0000000000000000E+00 
    2.4999999999941089E-01     0.0000000000000000E+00     0.0000000000000000E+00 
    3.1249999999922851E-01     0.0000000000000000E+00     0.0000000000000000E+00 
    3.7499999999904610E-01     0.0000000000000000E+00     0.0000000000000000E+00 
    4.3749999999886358E-01     0.0000000000000000E+00     0.0000000000000000E+00 
    4.9999999999869210E-01     0.0000000000000000E+00     0.0000000000000000E+00 
    5.6249999999884603E-01     0.0000000000000000E+00     0.0000000000000000E+00 
    6.2499999999901090E-01     0.0000000000000000E+00     0.0000000000000000E+00 
    6.8749999999917577E-01     0.0000000000000000E+00     0.0000000000000000E+00 
    7.4999999999934064E-01     0.0000000000000000E+00     0.0000000000000000E+00 
    8.1249999999950551E-01     0.0000000000000000E+00     0.0000000000000000E+00 
    8.7499999999967026E-01     0.0000000000000000E+00     0.0000000000000000E+00 
    9.3749999999983513E-01     0.0000000000000000E+00     0.0000000000000000E+00 
    1.0000000000000000E+00     6.2499999999872928E-02     0.0000000000000000E+00 
    1.0000000000000000E+00     1.2499999999977310E-01     0.0000000000000000E+00 
    1.0000000000000000E+00     1.8749999999959341E-01     0.0000000000000000E+00 
    1.0000000000000000E+00     2.4999999999941089E-01     0.0000000000000000E+00 
    1.0000000000000000E+00     3.1249999999922851E-01     0.0000000000000000E+00 
    1.0000000000000000E+00     3.7499999999904610E-01     0.0000000000000000E+00 
    1.0000000000000000E+00     4.3749999999886358E-01     0.0000000000000000E+00 
    1.0000000000000000E+00     4.9999999999869210E-01     0.0000000000000000E+00 
    1.0000000000000000E+00     5.6249999999884603E-01     0.0000000000000000E+00 
    1.0000000000000000E+00     6.2499999999901090E-01     0.0000000000000000E+00 
    1.0000000000000000E+00     6.8749999999917577E-01     0.0000000000000000E+00 
    1.0000000000000000E+00     7.4999999999934064E-01     0.0000000000000000E+00 
    1.0000000000000000E+00     8.1249999999950551E-01     0.0000000000000000E+00 
    1.0000000000000000E+00     8.7499999999967026E-01     0.0000000000000000E+00 
    1.0000000000000000E+00     9.3749999999983513E-01     0.0000000000000000E+00 
    9.3749999999973976E-01     1.0000000000000000E+00     0.0000000000000000E+00 
    8.7499999999950118E-01     1.0000000000000000E+00     0.0000000000000000E+00 
    8.1249999999991318E-01     1.0000000000000000E+00     0.0000000000000000E+00 
    7.5000000000034706E-01     1.0000000000000000E+00     0.0000000000000000E+00 
    6.8750000000078049E-01     1.0000000000000000E+00     0.0000000000000000E+00 
    6.2500000000121403E-01     1.0000000000000000E+00     0.0000000000000000E+00 
    5.6250000000164757E-01     1.0000000000000000E+00     0.0000000000000000E+00 
    5.0000000000205946E-01     1.0000000000000000E+00     0.0000000000000000E+00 
    4.3750000000182099E-01     1.0000000000000000E+00     0.0000000000000000E+00 
    3.7500000000156092E-01     1.0000000000000000E+00     0.0000000000000000E+00 
    3.1250000000130068E-01     1.0000000000000000E+00     0.0000000000000000E+00 
    2.5000000000104050E-01     1.0000000000000000E+00     0.0000000000000000E+00 
    1.8750000000078040E-01     1.0000000000000000E+00     0.0000000000000000E+00 
    1.2500000000052031E-01     1.0000000000000000E+00     0.0000000000000000E+00 
    6.2500000000260125E-02     1.0000000000000000E+00     0.0000000000000000E+00 
    0.0000000000000000E+00     9.3749999999973976E-01     0.0000000000000000E+00 
    0.0000000000000000E+00     8.7499999999950118E-01     0.0000000000000000E+00 
    0.0000000000000000E+00     8.1249999999991318E-01     0.0000000000000000E+00 
    0.0000000000000000E+00     7.5000000000034706E-01     0.0000000000000000E+00 
    0.0000000000000000E+00     6.8750000000078049E-01     0.0000000000000000E+00 
    0.0000000000000000E+00     6.2500000000121403E-01     0.0000000000000000E+00 
    0.0000000000000000E+00     5.6250000000164757E-01     0.0000000000000000E+00 
    0.0000000000000000E+00     5.0000000000205946E-01     0.0000000000000000E+00 
    0.0000000000000000E+00     4.3750000000182099E-01     0.0000000000000000E+00 
    0.0000000000000000E+00     3.7500000000156092E-01     0.0000000000000000E+00 
    0.0000000000000000E+00     3.1250000000130068E-01     0.0000000000000000E+00 
    0.0000000000000000E+00     2.5000000000104050E-01     0.0000000000000000E+00 
    0.0000000000000000E+00     1.8750000000078040E-01     0.0000000000000000E+00 
    0.0000000000000000E+00     1.2500000000052031E-01     0.0000000000000000E+00 
    0.0000000000000000E+00     6.2500000000260125E-02     0.0000000000000000E+00 
    6.2499999999897131E-02     6.2500000000235922E-02     0.0000000000000000E+00 
    6.2499999999921327E-02     1.2500000000047351E-01     0.0000000000000000E+00 
    6.2499999999945530E-02     1.8750000000070621E-01     0.0000000000000000E+00 
    6.2499999999969733E-02     2.5000000000093858E-01     0.0000000000000000E+00 
    6.2499999999993928E-02     3.1250000000117117E-01     0.0000000000000000E+00 
    6.2500000000018124E-02     3.7500000000140382E-01     0.0000000000000000E+00 
    6.2500000000042327E-02     4.3750000000163619E-01     0.0000000000000000E+00 
    6.2500000000066530E-02     5.0000000000184897E-01     0.0000000000000000E+00 
    6.2500000000090733E-02     5.6250000000147260E-01     0.0000000000000000E+00 
    6.2500000000114922E-02     6.2500000000107636E-01     0.0000000000000000E+00 
    6.2500000000139125E-02     6.8750000000068034E-01     0.0000000000000000E+00 
    6.2500000000163328E-02     7.5000000000028411E-01     0.0000000000000000E+00 
    6.2500000000187531E-02     8.1249999999988787E-01     0.0000000000000000E+00 
    6.2500000000211720E-02     8.7499999999951172E-01     0.0000000000000000E+00 
    6.2500000000235922E-02     9.3749999999974565E-01     0.0000000000000000E+00 
    1.2499999999981980E-01     6.2500000000211733E-02     0.0000000000000000E+00 
    1.2499999999986650E-01     1.2500000000042691E-01     0.0000000000000000E+00 
    1.2499999999991319E-01     1.8750000000063199E-01     0.0000000000000000E+00 
    1.2499999999995989E-01     2.5000000000083678E-01     0.0000000000000000E+00 
    1.2500000000000661E-01     3.1250000000104172E-01     0.0000000000000000E+00 
    1.2500000000005329E-01     3.7500000000124661E-01     0.0000000000000000E+00 
    1.2500000000010000E-01     4.3750000000145117E-01     0.0000000000000000E+00 
    1.2500000000014669E-01     5.0000000000163858E-01     0.0000000000000000E+00 
    1.2500000000019340E-01     5.6250000000129741E-01     0.0000000000000000E+00 
    1.2500000000024011E-01     6.2500000000093847E-01     0.0000000000000000E+00 
    1.2500000000028680E-01     6.8750000000057998E-01     0.0000000000000000E+00 
    1.2500000000033351E-01     7.5000000000022127E-01     0.0000000000000000E+00 
    1.2500000000038020E-01     8.1249999999986211E-01     0.0000000000000000E+00 
    1.2500000000042691E-01     8.7499999999952238E-01     0.0000000000000000E+00 
    1.2500000000047359E-01     9.3749999999975164E-01     0.0000000000000000E+00 
    1.8749999999966760E-01     6.2500000000187531E-02     0.0000000000000000E+00 
    1.8749999999974179E-01     1.2500000000038020E-01     0.0000000000000000E+00 
    1.8749999999981601E-01     1.8750000000055780E-01     0.0000000000000000E+00 
    1.8749999999989009E-01     2.5000000000073502E-01     0.0000000000000000E+00 
    1.8749999999996431E-01     3.1250000000091221E-01     0.0000000000000000E+00 
    1.8750000000003850E-01     3.7500000000108941E-01     0.0000000000000000E+00 
    1.8750000000011269E-01     4.3750000000126649E-01     0.0000000000000000E+00 
    1.8750000000018691E-01     5.0000000000142808E-01     0.0000000000000000E+00 
    1.8750000000026110E-01     5.6250000000112244E-01     0.0000000000000000E+00 
    1.8750000000033529E-01     6.2500000000080080E-01     0.0000000000000000E+00 
    1.8750000000040951E-01     6.8750000000047962E-01     0.0000000000000000E+00 
    1.8750000000048361E-01     7.5000000000015843E-01     0.0000000000000000E+00 
    1.8750000000055780E-01     8.1249999999983680E-01     0.0000000000000000E+00 
    1.8750000000063199E-01     8.7499999999953304E-01     0.0000000000000000E+00 
    1.8750000000070621E-01     9.3749999999975764E-01     0.0000000000000000E+00 
    2.4999999999951281E-01     6.2500000000163314E-02     0.0000000000000000E+00 
    2.4999999999961461E-01     1.2500000000033351E-01     0.0000000000000000E+00 
    2.4999999999971650E-01     1.8750000000048361E-01     0.0000000000000000E+00 
    2.4999999999981831E-01     2.5000000000063310E-01     0.0000000000000000E+00 
    2.4999999999992020E-01     3.1250000000078260E-01     0.0000000000000000E+00 
    2.5000000000002198E-01     3.7500000000093209E-01     0.0000000000000000E+00 
    2.5000000000012390E-01     4.3750000000108180E-01     0.0000000000000000E+00 
    2.5000000000022571E-01     5.0000000000121769E-01     0.0000000000000000E+00 
    2.5000000000032763E-01     5.6250000000094724E-01     0.0000000000000000E+00 
    2.5000000000042938E-01     6.2500000000066314E-01     0.0000000000000000E+00 
    2.5000000000053119E-01     6.8750000000037925E-01     0.0000000000000000E+00 
[...]
CELL_DATA 256 
SCALARS Pressure double 1 
LOOKUP_TABLE default 

    1.9777102514340079E+00 
    1.7451618741636636E+00 
    1.6135876846013393E+00 
    1.5080071052426829E+00 
    1.4106415480542591E+00 
    1.3155921871114979E+00 
    1.2205589272104271E+00 
    1.1247142559283128E+00 
    1.0280525027983389E+00 
    9.3125334613332722E-01 
    8.3578705424428312E-01 
    7.4407866913452259E-01 
    6.5938391734995350E-01 
    5.8557390554049504E-01 
    5.4005871693485641E-01 
    5.2684698079726244E-01 
    1.9063334699176129E+00 
    1.7491721993424783E+00 
    1.6222922728873419E+00 
    1.5169748995454975E+00 
    1.4196795614566364E+00 
    1.3247473172535067E+00 
    1.2298451796738776E+00 
    1.1340953351021836E+00 
    1.0374307026964498E+00 
    9.4044626788983499E-01 
    8.4450071623572520E-01 
    7.5190778685993054E-01 
    6.6587534071958210E-01 
    5.9008074490725904E-01 
    5.4120719495213976E-01 
    5.2637843346309243E-01 
    1.8509396100202240E+00 
    1.7425287654315238E+00 
    1.6274379868573123E+00 
    1.5245781909758691E+00 
    1.4280603342068945E+00 
    1.3335209522173461E+00 
    1.2388639372750876E+00 
    1.1432422731554552E+00 
    1.0465495232625037E+00 
    9.4928997683781446E-01 
    8.5268614613396354E-01 
    7.5890980774408334E-01 
    6.7113750994488908E-01 
    5.9313659686546871E-01 
    5.4060042118602802E-01 
    5.2449178334253554E-01 
    1.8073769886376607E+00 
    1.7307284227816113E+00 
    1.6293156788514784E+00 
    1.5307153429806868E+00 
    1.4357231503939030E+00 
    1.3418889819170075E+00 
    1.2476130818368178E+00 
    1.1521707138546811E+00 
    1.0554453248267490E+00 
    9.5784909693214593E-01 
    8.6044363680842750E-01 
    7.6521609351349662E-01 
    6.7528741311336526E-01 
    5.9467497783283407E-01 
    5.3813830176072042E-01 
    5.2088064738768647E-01 
    1.7727314791338455E+00 
    1.7169433660309781E+00 
    1.6286652530041339E+00 
    1.5354485051232145E+00 
    1.4426527789395824E+00 
    1.3498429487691439E+00 
    1.2560973439223402E+00 
    1.1608997557611442E+00 
    1.0641565554229855E+00 
    9.6619073434991831E-01 
    8.6787910512338740E-01 
    7.7096973416769143E-01 
    6.7846094782550170E-01 
    5.9467391422157811E-01 
    5.3369088227506811E-01 
    5.1521599142416341E-01 
    1.7449608367822951E+00 
    1.7029769451386874E+00 
    1.6262981485615751E+00 
    1.5389640312897872E+00 
    1.4488833701097903E+00 
    1.3573931933870358E+00 
    1.2643294515810595E+00 
    1.1694520107090434E+00 
    1.0727230717579910E+00 
    9.7438332635721236E-01 
    8.7510350138751525E-01 
    7.7632879067514049E-01 
    6.8082416379470490E-01 
    5.9316254683753422E-01 
    5.2710646983605192E-01 
    5.0710628318910544E-01 
    1.7226115193181530E+00 
    1.6898255616119267E+00 
    1.6229413833426416E+00 
    1.5415194114388744E+00 
    1.4544932216803514E+00 
    1.3645699407621592E+00 
    1.2723309043792634E+00 
    1.1778536119205507E+00 
    1.0811853831852070E+00 
    9.8249511016109137E-01 
    8.8223116802582413E-01 
    7.8146767479934087E-01 
    6.8258344435943952E-01 
    5.9023331099743293E-01 
    5.1820678125765751E-01 
    4.9603989551168270E-01 
    1.7046311943905932E+00 
    1.6780128510620784E+00 
    1.6191885114572893E+00 
    1.5433992247504305E+00 
    1.4595945280298399E+00 
    1.3714223241265298E+00 
    1.2801322259042087E+00 
    1.1861341511128234E+00 
    1.0895838800799127E+00 
    9.9059229230543699E-01 
    8.8937705840613435E-01 
    7.8657620729775390E-01 
    6.8399456201396081E-01 
    5.8606055913628985E-01 
    5.0678597181477281E-01 
    4.8130348413184060E-01 
    1.6902438333026129E+00 
    1.6677884188868397E+00 
    1.6154989608996109E+00 
    1.5448851989621248E+00 
    1.4643218677623866E+00 
    1.3780158815048815E+00 
    1.2877726797461233E+00 
    1.1943265387265209E+00 
    1.0979581119571844E+00 
    9.9873703945142467E-01 
    8.9665279644669726E-01 
    7.9185565786680201E-01 
    6.8536951702376259E-01 
    5.8093126011701135E-01 
    4.9262997097739497E-01 
    4.6186957227729364E-01 
    1.6788654073518541E+00 
    1.6592457728905288E+00 
    1.6122164629465892E+00 
    1.5462389247846178E+00 
    1.4688218029948894E+00 
    1.3844292409959669E+00 
    1.2952995556005795E+00 
    1.2024668205544760E+00 
    1.1063462099826307E+00 
    1.0069854922197254E+00 
    9.0416172824898722E-01 
    7.9751096614303574E-01 
    6.8707824925513106E-01 
    5.7529008938141946E-01 
    4.7558768025378800E-01 
    4.3626643899181361E-01 
    1.6700459316545608E+00 
    1.6523919564028509E+00 
    1.6095925715060293E+00 
    1.5476939559537741E+00 
    1.4732446945317448E+00 
    1.3907506398308169E+00 
    1.3027672020562981E+00 
    1.2105940227382097E+00 
    1.1147845810913046E+00 
    1.0153860982478444E+00 
    9.1199339705880422E-01 
    8.0373857990045849E-01 
    6.8954030930352228E-01 
    5.6979368042668765E-01 
    4.5574393790549028E-01 
    4.0249421690117443E-01 
    1.6634284685695790E+00 
    1.6471881712246070E+00 
    1.6078090289048836E+00 
    1.5494540355509727E+00 
    1.4777389322199010E+00 
    1.3970747152929948E+00 
    1.3102359920252591E+00 
    1.2187501303668253E+00 
    1.1233080397356070E+00 
    1.0239786614062341E+00 
    9.2021825829178172E-01 
    8.1071013597765906E-01 
    6.9320014262000618E-01 
    5.6535666446098021E-01 
    4.3372178257728833E-01 
    3.5806020260297194E-01 
    1.6587184322136943E+00 
    1.6435724456475287E+00 
    1.6069962374694413E+00 
    1.5516945480831528E+00 
    1.4824470567682475E+00 
    1.4034996453333526E+00 
    1.3177713090704315E+00 
    1.2269803246383648E+00 
    1.1319506278063511E+00 
    1.0327946602420446E+00 
    9.2888395581464778E-01 
    8.1855377142734076E-01 
    6.9847994329799068E-01 
    5.6315877587526930E-01 
    4.1108357320181699E-01 
    3.0000771143408966E-01 
    1.6556564560481584E+00 
    1.6414684523278256E+00 
    1.6072448131820836E+00 
    1.5545632735953996E+00 
    1.4875016525360611E+00 
    1.4101235522764308E+00 
    1.3254420113053633E+00 
    1.2353334400454221E+00 
    1.1407476114325266E+00 
    1.0418599196846121E+00 
    9.3801543303821200E-01 
    8.2733759573582011E-01 
    7.0570770775750713E-01 
    5.6456584864796744E-01 
    3.9087362758387456E-01 
    2.2465509322665508E-01 
    1.6539820856511469E+00 
    1.6407711873353170E+00 
    1.6085975780088544E+00 
    1.5581687022981339E+00 
    1.4930124393174735E+00 
    1.4170341746933544E+00 
    1.3333144391249716E+00 
    1.2438610063980309E+00 
    1.1497398347641541E+00 
    1.0512038239286334E+00 
    9.4762624873822565E-01 
    8.3706831372713608E-01 
    7.1503332094373573E-01 
    5.7087960352470468E-01 
    3.7852153789062470E-01 
    1.2700482874986593E-01 
    1.6534797874024776E+00 
    1.6413760836792515E+00 
    1.6110675964932466E+00 
    1.5625917074777629E+00 
    1.4990746412580673E+00 
    1.4243155376780186E+00 
    1.3414573428672436E+00 
    1.2526200109452998E+00 
    1.1589742209210361E+00 
    1.0608579417823565E+00 
    9.5771630904505145E-01 
    8.4768184106931843E-01 
    7.2631985518703357E-01 
    5.8263571809839643E-01 
    3.8333783125775672E-01 
    0.0000000000000000E+00 

SCALARS Saturarion double 1 
LOOKUP_TABLE default 

    1.0000000000000000E+00 
    9.8491203941242333E-01 
    9.6521005068554966E-01 
    9.4376301448330580E-01 
    9.2231091088749984E-01 
    9.0132993990801613E-01 
    8.8081248964655712E-01 
    8.6051688042247809E-01 
    8.4000010900167932E-01 
    8.1849304543244294E-01 
    7.9447754126867243E-01 
    7.6424114880761407E-01 
    7.1527154630002154E-01 
    5.8726644222829305E-01 
    1.9987067606774647E-01 
    2.3004107391261428E-03 
    9.9514682617508798E-01 
    9.8260160680555342E-01 
    9.6432043865845085E-01 
    9.4355021033530495E-01 
    9.2240629717159717E-01 
    9.0159496335859834E-01 
    8.8120233820094629E-01 
    8.6103312754143646E-01 
    8.4068101763233383E-01 
    8.1942673200454708E-01 
    7.9585441241682309E-01 
    7.6654890105863382E-01 
    7.2036160215044975E-01 
    6.0597235220508006E-01 
    2.5120108266020386E-01 
    5.3848848029754998E-03 
    9.9110098329350726E-01 
    9.7922798949029655E-01 
    9.6207876154333505E-01 
    9.4216454121676141E-01 
    9.2153514101664769E-01 
    9.0106222159668048E-01 
    8.8093340290016675E-01 
    8.6100849975315752E-01 
    8.4092278034009327E-01 
    8.2000915577703237E-01 
    7.9695253263908372E-01 
    7.6861182949455076E-01 
    7.2495911098323707E-01 
    6.2114241578239082E-01 
    2.9706115413966772E-01 
    1.0419423352375230E-02 
    9.8631681250444869E-01 
    9.7500368197127707E-01 
    9.5875799342881141E-01 
    9.3970902167693615E-01 
    9.1971145811577648E-01 
    8.9970287967049667E-01 
    8.7995277270251193E-01 
    8.6037542339324735E-01 
    8.4064964449648816E-01 
    8.2016246386873382E-01 
    7.9769914970959754E-01 
    7.7037590503063058E-01 
    7.2913592904399571E-01 
    6.3445711697176588E-01 
    3.4123045055288898E-01 
    1.8536648564836073E-02 
    9.8057162973117884E-01 
    9.6988917818246390E-01 
    9.5446239105872421E-01 
    9.3626012516414869E-01 
    9.1696410117004967E-01 
    8.9751690157824082E-01 
    8.7824334215498645E-01 
    8.5910547076446331E-01 
    8.3982472496734262E-01 
    8.1984327034899829E-01 
    7.9804776613841966E-01 
    7.7180312854315924E-01 
    7.3293192956751274E-01 
    6.4651414836459276E-01 
    3.8263212990979434E-01 
    3.0862479435935175E-02 
    9.7369403996838744E-01 
    9.6379022760303679E-01 
    9.4918900939894579E-01 
    9.3183400995452004E-01 
    9.1329164649507777E-01 
    8.9448643905729674E-01 
    8.7577684432916703E-01 
    8.5716355537263045E-01 
    8.3840738471669274E-01 
    8.1900527581567917E-01 
    7.9794687876622328E-01 
    7.7284368067870135E-01 
    7.3633925338346917E-01 
    6.5757072890599000E-01 
    4.2069368809890639E-01 
    4.8685107968675381E-02 
    9.6551006200046341E-01 
    9.5657665333405462E-01 
    9.4286838173342169E-01 
    9.2639116587484349E-01 
    9.0865492646098833E-01 
    8.9056620099409878E-01 
    8.7250363231753747E-01 
    8.5449758082017757E-01 
    8.3634329999720480E-01 
    8.1759038115427962E-01 
    7.9733249307591891E-01 
    7.7342996411139631E-01 
    7.3931123786653663E-01 
    6.6774332708010453E-01 
    4.5539216474891292E-01 
    7.3440854003698472E-02 
    9.5581683169364218E-01 
    9.4807620785973912E-01 
    9.3537318180695661E-01 
    9.1983564154489805E-01 
    9.0296890022617293E-01 
    8.8567368608883967E-01 
    8.6834302960023879E-01 
    8.5102942793914538E-01 
    8.3355646873577494E-01 
    8.1552212668220947E-01 
    7.9612320136915804E-01 
    7.7347328505046409E-01 
    7.4176712670834566E-01 
    6.7706663415429680E-01 
    4.8704289847310567E-01 
    1.0665853296966961E-01 
    9.4435255759903114E-01 
    9.3805513302695109E-01 
    9.2650740155011091E-01 
    9.1200283297997453E-01 
    8.9608689975222389E-01 
    8.7967255765628483E-01 
    8.6316741542959052E-01 
    8.4664042487432323E-01 
    8.2993643174271470E-01 
    8.1269492230030316E-01 
    7.9421154000746508E-01 
    7.7285700178413430E-01 
    7.4358907621451231E-01 
    6.8550983889871009E-01 
    5.1606515731199121E-01 
    1.4950027116160819E-01 
    9.3074905165018773E-01 
    9.2618019351182723E-01 
    9.1597465585969273E-01 
    9.0262914435067532E-01 
    8.8776927104171555E-01 
    8.7234139398130184E-01 
    8.5677253125837449E-01 
    8.4114423058427856E-01 
    8.2531445685531557E-01 
    8.0895397728051921E-01 
    7.9144765386448079E-01 
    7.7142275357188539E-01 
    7.4460979165664321E-01 
    6.9297350378970657E-01 
    5.4283151813795372E-01 
    2.0169199698416870E-01 
    9.1444277715821942E-01 
    9.1194288990852213E-01 
    9.0330918117037395E-01 
    8.9128584360110019E-01 
    8.7761790736818257E-01 
    8.6330949119592126E-01 
    8.4881636070851385E-01 
    8.3423070106717623E-01 
    8.1941391080445292E-01 
    8.0405313834038405E-01 
    7.8760479024066954E-01 
    7.6894167302765193E-01 
    7.4458458824938689E-01 
    6.9926786412179542E-01 
    5.6757544439318508E-01 
    2.5998112221817737E-01 
    8.9447637006919201E-01 
    8.9448805383212082E-01 
    8.8771607288806842E-01 
    8.7722402971069668E-01 
    8.6492276701990012E-01 
    8.5190550441937818E-01 
    8.3867335544104615E-01 
    8.2533053199450901E-01 
    8.1172984816357940E-01 
    7.9755242373116142E-01 
    7.8229564558146647E-01 
    7.6504644640247466E-01 
    7.4312786756873750E-01 
    7.0405548124432482E-01 
    5.9032767679019205E-01 
    3.1877260340217495E-01 
    8.6893976097596204E-01 
    8.7213588094494099E-01 
    8.6762390984187687E-01 
    8.5893542040478899E-01 
    8.4822089549056323E-01 
    8.3671472841979977E-01 
    8.2499930493537610E-01 
    8.1320436082983105E-01 
    8.0116139034322686E-01 
    7.8850831347202122E-01 
    7.7472591673480717E-01 
    7.5904032279470013E-01 
    7.3954666032434546E-01 
    7.0669540704365241E-01 
    6.1084440962468056E-01 
    3.7398608094980645E-01 
    8.3270809568580850E-01 
    8.4048519093633856E-01 
    8.3891426118992307E-01 
    8.3239526186684343E-01 
    8.2349925282274483E-01 
    8.1373352479881933E-01 
    8.0387205233325021E-01 
    7.9414346900389976E-01 
    7.8436969028854353E-01 
    7.7408364756098846E-01 
    7.6261715651598272E-01 
    7.4912969319741374E-01 
    7.3227074401977699E-01 
    7.0573336235593687E-01 
    6.2837893234616404E-01 
    4.2426605760691100E-01 
    7.6375095013250993E-01 
    7.8067715659301218E-01 
    7.8399448615748368E-01 
    7.8031239994689305E-01 
    7.7327074306448729E-01 
    7.6511121740914423E-01 
    7.5724404624048447E-01 
    7.5045489577877755E-01 
    7.4492621744345500E-01 
    7.4017129970654250E-01 
    7.3500715295914887E-01 
    7.2770311510659447E-01 
    7.1629814627230848E-01 
    6.9731954901628834E-01 
    6.4071263480475438E-01 
    4.6896948552460610E-01 
    4.9740576905226369E-01 
    5.7241315281754701E-01 
    5.9670570011773483E-01 
    6.0131251370896344E-01 
    5.9611779882056315E-01 
    5.8575271086948999E-01 
    5.7288012759562501E-01 
    5.5942310635474046E-01 
    5.4729317169838654E-01 
    5.3882326282055071E-01 
    5.3630375603103198E-01 
    5.3937263879328001E-01 
    5.4166725414396799E-01 
    5.4141722108058477E-01 
    5.6683586784103168E-01 
    4.8566421322091796E-01 
