# vtk DataFile Version 2.0
Pressure Field Data 
ASCII 
DATASET UNSTRUCTURED_GRID 

POINTS 801 double 

    0.0000000000000000E+00     0.0000000000000000E+00     0.0000000000000000E+00 
    1.0000000000000000E+00     0.0000000000000000E+00     0.0000000000000000E+00 
    1.0000000000000000E+00     1.0000000000000000E+00     0.0000000000000000E+00 
    0.0000000000000000E+00     1.0000000000000000E+00     0.0000000000000000E+00 
    2.5000000000000000E-01     2.5000000000000000E-01     0.0000000000000000E+00 
    7.5000000000000000E-01     2.5000000000000000E-01     0.0000000000000000E+00 
    7.5000000000000000E-01     7.5000000000000000E-01     0.0000000000000000E+00 
    2.5000000000000000E-01     7.5000000000000000E-01     0.0000000000000000E+00 
    2.4999999999941941E-01     0.0000000000000000E+00     0.0000000000000000E+00 
    4.9999999999869399E-01     0.0000000000000000E+00     0.0000000000000000E+00 
    7.4999999999934697E-01     0.0000000000000000E+00     0.0000000000000000E+00 
    1.2499999999977940E-01     0.0000000000000000E+00     0.0000000000000000E+00 
    3.7499999999905670E-01     0.0000000000000000E+00     0.0000000000000000E+00 
    6.2499999999902045E-01     0.0000000000000000E+00     0.0000000000000000E+00 
    8.7499999999967348E-01     0.0000000000000000E+00     0.0000000000000000E+00 
    6.2499999999889699E-02     0.0000000000000000E+00     0.0000000000000000E+00 
    1.8749999999959940E-01     0.0000000000000000E+00     0.0000000000000000E+00 
    3.1249999999923811E-01     0.0000000000000000E+00     0.0000000000000000E+00 
    4.3749999999887529E-01     0.0000000000000000E+00     0.0000000000000000E+00 
    5.6249999999885725E-01     0.0000000000000000E+00     0.0000000000000000E+00 
    6.8749999999918376E-01     0.0000000000000000E+00     0.0000000000000000E+00 
    8.1249999999951017E-01     0.0000000000000000E+00     0.0000000000000000E+00 
    9.3749999999983680E-01     0.0000000000000000E+00     0.0000000000000000E+00 
    1.0000000000000000E+00     2.4999999999941941E-01     0.0000000000000000E+00 
    1.0000000000000000E+00     4.9999999999869399E-01     0.0000000000000000E+00 
    1.0000000000000000E+00     7.4999999999934697E-01     0.0000000000000000E+00 
    1.0000000000000000E+00     1.2499999999977940E-01     0.0000000000000000E+00 
    1.0000000000000000E+00     3.7499999999905670E-01     0.0000000000000000E+00 
    1.0000000000000000E+00     6.2499999999902045E-01     0.0000000000000000E+00 
    1.0000000000000000E+00     8.7499999999967348E-01     0.0000000000000000E+00 
    1.0000000000000000E+00     6.2499999999889699E-02     0.0000000000000000E+00 
    1.0000000000000000E+00     1.8749999999959940E-01     0.0000000000000000E+00 
    1.0000000000000000E+00     3.1249999999923811E-01     0.0000000000000000E+00 
    1.0000000000000000E+00     4.3749999999887529E-01     0.0000000000000000E+00 
    1.0000000000000000E+00     5.6249999999885725E-01     0.0000000000000000E+00 
    1.0000000000000000E+00     6.8749999999918376E-01     0.0000000000000000E+00 
    1.0000000000000000E+00     8.1249999999951017E-01     0.0000000000000000E+00 
    1.0000000000000000E+00     9.3749999999983680E-01     0.0000000000000000E+00 
    7.5000000000112044E-01     1.0000000000000000E+00     0.0000000000000000E+00 
    5.0000000000205913E-01     1.0000000000000000E+00     0.0000000000000000E+00 
    2.5000000000102962E-01     1.0000000000000000E+00     0.0000000000000000E+00 
    8.7499999999991362E-01     1.0000000000000000E+00     0.0000000000000000E+00 
    6.2499999999988309E-01     1.0000000000000000E+00     0.0000000000000000E+00 
    3.7499999999869987E-01     1.0000000000000000E+00     0.0000000000000000E+00 
    1.2499999999880820E-01     1.0000000000000000E+00     0.0000000000000000E+00 
    9.3749999999995681E-01     1.0000000000000000E+00     0.0000000000000000E+00 
    8.1250000000051703E-01     1.0000000000000000E+00     0.0000000000000000E+00 
    6.8750000000050182E-01     1.0000000000000000E+00     0.0000000000000000E+00 
    5.6250000000097111E-01     1.0000000000000000E+00     0.0000000000000000E+00 
    4.3750000000037947E-01     1.0000000000000000E+00     0.0000000000000000E+00 
    3.1249999999986477E-01     1.0000000000000000E+00     0.0000000000000000E+00 
    1.8749999999991890E-01     1.0000000000000000E+00     0.0000000000000000E+00 
    6.2499999999404102E-02     1.0000000000000000E+00     0.0000000000000000E+00 
    0.0000000000000000E+00     7.5000000000112044E-01     0.0000000000000000E+00 
    0.0000000000000000E+00     5.0000000000205913E-01     0.0000000000000000E+00 
    0.0000000000000000E+00     2.5000000000102962E-01     0.0000000000000000E+00 
    0.0000000000000000E+00     8.7499999999991362E-01     0.0000000000000000E+00 
    0.0000000000000000E+00     6.2499999999988309E-01     0.0000000000000000E+00 
    0.0000000000000000E+00     3.7499999999869987E-01     0.0000000000000000E+00 
    0.0000000000000000E+00     1.2499999999880820E-01     0.0000000000000000E+00 
    0.0000000000000000E+00     9.3749999999995681E-01     0.0000000000000000E+00 
    0.0000000000000000E+00     8.1250000000051703E-01     0.0000000000000000E+00 
    0.0000000000000000E+00     6.8750000000050182E-01     0.0000000000000000E+00 
    0.0000000000000000E+00     5.6250000000097111E-01     0.0000000000000000E+00 
    0.0000000000000000E+00     4.3750000000037947E-01     0.0000000000000000E+00 
    0.0000000000000000E+00     3.1249999999986477E-01     0.0000000000000000E+00 
    0.0000000000000000E+00     1.8749999999991890E-01     0.0000000000000000E+00 
    0.0000000000000000E+00     6.2499999999404102E-02     0.0000000000000000E+00 
    4.9999999999972200E-01     2.5000000000000000E-01     0.0000000000000000E+00 
    3.7500000000067490E-01     2.5000000000000000E-01     0.0000000000000000E+00 
    6.2500000000042988E-01     2.5000000000000000E-01     0.0000000000000000E+00 
    3.1250000000033751E-01     2.5000000000000000E-01     0.0000000000000000E+00 
    4.3750000000019851E-01     2.5000000000000000E-01     0.0000000000000000E+00 
    5.6250000000007594E-01     2.5000000000000000E-01     0.0000000000000000E+00 
    6.8750000000021494E-01     2.5000000000000000E-01     0.0000000000000000E+00 
    7.5000000000000000E-01     4.9999999999972200E-01     0.0000000000000000E+00 
    7.5000000000000000E-01     3.7500000000067490E-01     0.0000000000000000E+00 
    7.5000000000000000E-01     6.2500000000042988E-01     0.0000000000000000E+00 
    7.5000000000000000E-01     3.1250000000033751E-01     0.0000000000000000E+00 
    7.5000000000000000E-01     4.3750000000019851E-01     0.0000000000000000E+00 
    7.5000000000000000E-01     5.6250000000007594E-01     0.0000000000000000E+00 
    7.5000000000000000E-01     6.8750000000021494E-01     0.0000000000000000E+00 
    5.0000000000118039E-01     7.5000000000000000E-01     0.0000000000000000E+00 
    6.2500000000161415E-01     7.5000000000000000E-01     0.0000000000000000E+00 
    3.7500000000140910E-01     7.5000000000000000E-01     0.0000000000000000E+00 
    6.8750000000080713E-01     7.5000000000000000E-01     0.0000000000000000E+00 
    5.6250000000139733E-01     7.5000000000000000E-01     0.0000000000000000E+00 
    4.3750000000129469E-01     7.5000000000000000E-01     0.0000000000000000E+00 
    3.1250000000070460E-01     7.5000000000000000E-01     0.0000000000000000E+00 
    2.5000000000000000E-01     5.0000000000118039E-01     0.0000000000000000E+00 
    2.5000000000000000E-01     6.2500000000161415E-01     0.0000000000000000E+00 
    2.5000000000000000E-01     3.7500000000140910E-01     0.0000000000000000E+00 
    2.5000000000000000E-01     6.8750000000080713E-01     0.0000000000000000E+00 
    2.5000000000000000E-01     5.6250000000139733E-01     0.0000000000000000E+00 
    2.5000000000000000E-01     4.3750000000129469E-01     0.0000000000000000E+00 
    2.5000000000000000E-01     3.1250000000070460E-01     0.0000000000000000E+00 
    3.7499999999934702E-01     1.2500000000000000E-01     0.0000000000000000E+00 
    1.2500000000000000E-01     1.2500000000000000E-01     0.0000000000000000E+00 
    1.2500000000000000E-01     3.7500000000102962E-01     0.0000000000000000E+00 
    8.7500000000000000E-01     1.2500000000000000E-01     0.0000000000000000E+00 
    6.2499999999934697E-01     1.2500000000000000E-01     0.0000000000000000E+00 
    8.7500000000000000E-01     3.7499999999934702E-01     0.0000000000000000E+00 
    8.7500000000000000E-01     6.2499999999934697E-01     0.0000000000000000E+00 
    1.2500000000000000E-01     6.2500000000102962E-01     0.0000000000000000E+00 
    1.2500000000000000E-01     8.7500000000000000E-01     0.0000000000000000E+00 
    8.7500000000000000E-01     8.7500000000000000E-01     0.0000000000000000E+00 
    6.2500000000102962E-01     8.7500000000000000E-01     0.0000000000000000E+00 
    3.7500000000102962E-01     8.7500000000000000E-01     0.0000000000000000E+00 
    2.4999999999957681E-01     8.3333333333333329E-02     0.0000000000000000E+00 
    8.3333333333333329E-02     2.5000000000068640E-01     0.0000000000000000E+00 
    7.4999999999956468E-01     8.3333333333333329E-02     0.0000000000000000E+00 
    4.9999999999951827E-01     1.6666666666666671E-01     0.0000000000000000E+00 
    9.1666666666666674E-01     2.4999999999957681E-01     0.0000000000000000E+00 
    8.3333333333333337E-01     4.9999999999951827E-01     0.0000000000000000E+00 
    1.6666666666666671E-01     5.0000000000088307E-01     0.0000000000000000E+00 
    8.3333333333333329E-02     7.5000000000070155E-01     0.0000000000000000E+00 
    9.1666666666666674E-01     7.4999999999956468E-01     0.0000000000000000E+00 
    5.0000000000088307E-01     8.3333333333333348E-01     0.0000000000000000E+00 
    2.5000000000068640E-01     9.1666666666666674E-01     0.0000000000000000E+00 
    7.5000000000070155E-01     9.1666666666666674E-01     0.0000000000000000E+00 
[...]
CELL_DATA 768 
SCALARS Pressure double 1 
LOOKUP_TABLE default 

    3.2450705309280128E+00 
    3.1476820303345190E+00 
    3.1150946173708900E+00 
    3.1765817255551552E+00 
    3.0795743590098152E+00 
    3.0220066103825158E+00 
    3.0166358111564699E+00 
    3.0641086259414263E+00 
    3.0475952850667500E+00 
    3.0100107960262150E+00 
    3.0022880070761389E+00 
    3.0303698121700795E+00 
    3.1238534635961663E+00 
    3.0849251366739927E+00 
    3.0563938282070260E+00 
    3.0805478819476066E+00 
    2.9657319030530869E+00 
    2.9079185624723358E+00 
    2.9189237588012151E+00 
    2.9684913289290922E+00 
    2.8470188497121507E+00 
    2.7823843793572016E+00 
    2.8124874254312324E+00 
    2.8671290919507357E+00 
    2.8859057856429038E+00 
    2.8411022019314949E+00 
    2.8677662793626983E+00 
    2.9030482545059404E+00 
    2.9701027908412034E+00 
    2.9287428842803802E+00 
    2.9371948780920332E+00 
    2.9705624211599337E+00 
    3.0417552130145995E+00 
    3.0254130458786070E+00 
    2.9934943744613904E+00 
    3.0065144192997293E+00 
    3.0056990195196058E+00 
    2.9829125220059276E+00 
    2.9533868261380651E+00 
    2.9755398212274136E+00 
    2.9464542044369604E+00 
    2.9238183522541052E+00 
    2.8937995214052141E+00 
    2.9179576467884729E+00 
    2.9754685627941599E+00 
    2.9641039943629246E+00 
    2.9371231347767091E+00 
    2.9493545854377397E+00 
    3.2451217789420523E+00 
    3.1766502998799826E+00 
    3.1153283876423976E+00 
    3.1479034259987331E+00 
    3.1239379897400532E+00 
    3.0806369211696794E+00 
    3.0566254884144461E+00 
    3.0851559494924805E+00 
    3.0479334020037179E+00 
    3.0306593163821165E+00 
    3.0026163673473634E+00 
    3.0103988711582876E+00 
    3.0799299866242653E+00 
    3.0644585466686043E+00 
    3.0170732044139497E+00 
    3.0224516357156626E+00 
    3.0418502211798861E+00 
    3.0065853228698143E+00 
    2.9936534775843446E+00 
    3.0256369320042680E+00 
    2.9754721287794026E+00 
    2.9493508241470821E+00 
    2.9370657175040917E+00 
    2.9641385920504368E+00 
    2.9464542913513982E+00 
    2.9177242484579744E+00 
    2.8933735777834682E+00 
    2.9237124708906341E+00 
    3.0059615306789711E+00 
    2.9757004167585870E+00 
    2.9535127870749465E+00 
    2.9831691605028365E+00 
    2.9661455564649217E+00 
    2.9688807968603825E+00 
    2.9190177111326179E+00 
    2.9079561935303415E+00 
    2.9704395199265008E+00 
    2.9708249485898994E+00 
    2.9372720800244405E+00 
    2.9288251557355642E+00 
    2.8856286784488905E+00 
    2.9028230965650961E+00 
    2.8671427232179609E+00 
    2.8403948696633914E+00 
    2.8465945777592774E+00 
    2.8667856811328285E+00 
    2.8117472338115617E+00 
    2.7816179186558996E+00 
    2.6756416063118396E+00 
    2.6023846586172343E+00 
    2.5769799410276089E+00 
    2.6410892310297247E+00 
    2.5290417478929301E+00 
    2.4586200037098189E+00 
    2.4523512551395621E+00 
    2.5133056401062142E+00 
    2.4958276663794385E+00 
    2.4441996522577969E+00 
    2.4339905609356203E+00 
    2.4760497942398558E+00 
    2.6050138570934962E+00 
    2.5499833733310764E+00 
    2.5205650728165487E+00 
    2.5664664850916465E+00 
    2.3942688970541393E+00 
    2.3339832711161388E+00 
    2.3421745284081057E+00 
    2.3958633773274998E+00 
    2.2818193647371259E+00 
    2.2510919413473500E+00 
    2.2562996632595618E+00 
    2.2919742574079809E+00 
    2.3004928736037482E+00 
    2.2604358402236375E+00 
    2.2648195282056101E+00 
    2.3063974932552362E+00 
    2.3952171550758496E+00 
    2.3472556373582081E+00 
    2.3492246806747104E+00 
    2.3924961869945811E+00 
    2.5213234877603270E+00 
    2.4798334641155098E+00 
    2.4253636870732129E+00 
    2.4666968969902081E+00 
    2.4410752797011770E+00 
    2.4058775077464944E+00 
    2.3614221758266711E+00 
    2.3904370210443791E+00 
    2.3357734683266003E+00 
    2.3163699930585162E+00 
    2.2709861004772263E+00 
    2.2779780425724239E+00 
    2.3997285120417611E+00 
    2.3619447979769483E+00 
    2.2869146633778148E+00 
    2.3053674914035485E+00 
    2.7298788231657198E+00 
    2.6916089081831243E+00 
    2.7287953855300962E+00 
    2.7658895858849428E+00 
    2.6518487846225707E+00 
    2.6098803698750594E+00 
    2.6501483461581525E+00 
    2.6903740915364689E+00 
    2.7279461288083517E+00 
    2.6895582357945300E+00 
    2.7274629017662266E+00 
    2.7640522148288205E+00 
    2.8003990313012697E+00 
    2.7647980780087797E+00 
    2.7991876890930372E+00 
    2.8330658279822840E+00 
    2.5673703840356707E+00 
    2.5240824938145487E+00 
    2.5866248793599738E+00 
    2.6152149242695684E+00 
    2.4765516344982501E+00 
    2.4232302581832283E+00 
    2.5240395721207114E+00 
    2.5564929672273622E+00 
    2.6299929041892720E+00 
    2.6133099256183510E+00 
    2.6916841829518079E+00 
    2.6964761232239409E+00 
    2.6616161102897284E+00 
    2.6458845213632713E+00 
    2.7011033778798694E+00 
    2.7058979768721851E+00 
    2.8613126060950740E+00 
    2.8252810293615367E+00 
    2.8438933899637813E+00 
    2.8851341384218068E+00 
    2.7874362475709700E+00 
    2.7476059171604348E+00 
    2.7517984450907722E+00 
    2.7994239606728502E+00 
    2.8110437184010073E+00 
    2.7559971223702151E+00 
    2.7601220216131064E+00 
    2.8223929268836985E+00 
    2.9064576709213523E+00 
    2.8614150589228662E+00 
    2.8780084145494307E+00 
    2.9251777960232288E+00 
    2.2439990672759214E+00 
    2.2133462901343171E+00 
    2.2032810999607930E+00 
    2.2384478714555165E+00 
    2.1607265796497801E+00 
    2.0873648165253309E+00 
    2.0844757021956917E+00 
    2.1515612470176348E+00 
    2.1450542068291742E+00 
    2.0839971787475253E+00 
    2.0858593721647520E+00 
    2.1411379080927473E+00 
    2.2339193354395950E+00 
    2.1954553156522727E+00 
    2.1897821739381644E+00 
    2.2309762040547194E+00 
    1.9973799802470473E+00 
    1.8953678291447662E+00 
    1.9180881025462651E+00 
    2.0058298440953815E+00 
    1.7860201219250502E+00 
    1.6725134327333451E+00 
    1.7266805080401126E+00 
    1.8241676985373358E+00 
    1.8636578431396085E+00 
    1.7815310544214544E+00 
    1.8378937927152672E+00 
    1.9054215949479625E+00 
    2.0164113854994326E+00 
    1.9427668357261474E+00 
    1.9698575146428241E+00 
    2.0293533994042559E+00 
    2.2280816088688433E+00 
    2.1786539992425338E+00 
    2.1541633124432957E+00 
    2.2199446532685028E+00 
    2.1242855884418290E+00 
    2.0664958568359690E+00 
    2.0172671605405523E+00 
    2.0854337984416675E+00 
    2.0374486299653989E+00 
    1.9619230026444650E+00 
    1.9015473003037260E+00 
    1.9788769127993551E+00 
    2.2039623868280436E+00 
    2.1193201018617840E+00 
    2.0680282284624028E+00 
    2.1743020864438010E+00 
    2.0321180642897447E+00 
    1.9626384359450773E+00 
    1.8486095731087013E+00 
    1.8932012602233919E+00 
    1.8955123581385829E+00 
    1.8340159079575131E+00 
    1.7641694334516778E+00 
    1.8053763139250942E+00 
    1.7200923988355563E+00 
    1.6953470820633598E+00 
    1.6263175624356394E+00 
    1.6351435770755050E+00 
    1.7698018940172573E+00 
    1.7448780102747772E+00 
    1.6436760672502941E+00 
    1.6518337243360688E+00 
    1.7731760539923631E+00 
    1.7096959303197587E+00 
    1.6491316482939968E+00 
    1.7123441161954838E+00 
    1.6465331695631302E+00 
    1.5832618474844526E+00 
    1.5213257030007805E+00 
    1.5855108279405818E+00 
    1.5244083886251552E+00 
    1.4596420774767669E+00 
    1.3990261328128430E+00 
    1.4634878521354764E+00 
    1.6514606396948006E+00 
    1.5881973853489606E+00 
    1.5271748717688109E+00 
    1.5902678612744838E+00 
    1.5360728034619291E+00 
    1.5432113938986736E+00 
    1.4434467792570556E+00 
    1.4218501278541298E+00 
    1.5499737068236206E+00 
    1.5564386117635776E+00 
    1.4860221233447031E+00 
    1.4646848410709195E+00 
    1.3801449464129552E+00 
    1.4153090934205146E+00 
    1.3443863063061656E+00 
    1.2968645615878005E+00 
    1.3127162523535734E+00 
    1.3459290896309775E+00 
    1.2531830375323072E+00 
    1.2141017510935597E+00 
    2.9252502093215287E+00 
    2.8774681215653821E+00 
    2.8605801362460292E+00 
    2.9061924698755037E+00 
    2.8209476383585237E+00 
    2.7577680136587404E+00 
    2.7536614140763596E+00 
    2.8094268129097757E+00 
    2.7976332739977874E+00 
    2.7494776059047359E+00 
    2.7453884425010973E+00 
    2.7855636780958788E+00 
    2.8845664503565152E+00 
    2.8427672463494398E+00 
    2.8239311956912947E+00 
    2.8604752136557443E+00 
    2.6890893544600174E+00 
    2.6118991723269578E+00 
    2.6284835505023048E+00 
    2.6940439630392374E+00 
    2.5246323538586681E+00 
    2.4260231880237906E+00 
    2.4779806647667590E+00 
    2.5564863694709166E+00 
    2.5861631239764487E+00 
    2.5244839801845136E+00 
    2.5671414159329293E+00 
    2.6144478776524864E+00 
    2.6988022266493279E+00 
    2.6443560710148515E+00 
    2.6600973449745542E+00 
    2.7037568535076528E+00 
    2.8319977701179360E+00 
    2.7976356892239318E+00 
    2.7633194168851869E+00 
    2.7993357074421259E+00 
    2.7621200274744599E+00 
    2.7253851980345809E+00 
    2.6879371092948130E+00 
    2.7262825798991566E+00 
    2.6891221418032449E+00 
    2.6491204117944789E+00 
    2.6092465863365613E+00 
    2.6509440794866532E+00 
    2.7649150564120766E+00 
    2.7276198581230831E+00 
    2.6906512026039686E+00 
    2.7290239149609254E+00 
    2.6748752906014044E+00 
    2.6403311578228568E+00 
    2.5764238263417232E+00 
    2.6018040587649915E+00 
    2.6043736031240647E+00 
    2.5660680034054604E+00 
    2.5201628077685050E+00 
    2.5494809600983954E+00 
    2.4952991799932560E+00 
    2.4754569103362605E+00 
    2.4333941022616510E+00 
    2.4436228196015888E+00 
    2.5285432520231530E+00 
    2.5127888465463086E+00 
    2.4518077108012859E+00 
    2.4580442925310106E+00 
    2.5213350482465087E+00 
    2.4675524086950427E+00 
    2.4259039496500536E+00 
    2.4796545042498153E+00 
    2.4019480409517091E+00 
    2.3082997327099375E+00 
    2.2898952567800244E+00 
    2.3637062520916343E+00 
    2.3372673893095368E+00 
    2.2812657010068560E+00 
    2.2749346675567219E+00 
    2.3180124791126784E+00 
    2.4406393679212819E+00 
    2.3906710736947447E+00 
    2.3616561236272284E+00 
    2.4054472427517641E+00 
    2.3940793228635111E+00 
    2.3956001842540693E+00 
    2.3425195303338531E+00 
    2.3343505110854994E+00 
    2.3948368159928553E+00 
    2.3920702548923800E+00 
    2.3494138225067691E+00 
    2.3474625006500398E+00 
    2.3025312885034679E+00 
    2.3083079878475070E+00 
    2.2688479511440400E+00 
    2.2635529006748398E+00 
    2.2834132340889179E+00 
    2.2937266057613055E+00 
    2.2586694437762862E+00 
    2.2532939303402624E+00 
    1.4922000701129545E+00 
    1.3697656158132481E+00 
    1.3292709516871031E+00 
    1.4366576510446378E+00 
    1.2412306422683772E+00 
    1.1015877780183074E+00 
    1.0949301674943017E+00 
    1.2166471886780175E+00 
    1.1947050059162161E+00 
    1.0917007535401730E+00 
    1.0918465770279815E+00 
    1.1760838514765151E+00 
    1.3821256129831843E+00 
    1.2905833183740780E+00 
    1.2546777481792288E+00 
    1.3297010946925880E+00 
    9.4097810418185812E-01 
    7.3964954536546090E-01 
    7.9924040647991024E-01 
    9.5860340515101616E-01 
    4.5476125544056678E-01 
    0.0000000000000000E+00 
    3.2571978641744859E-01 
    5.9814219919410527E-01 
    7.2302919581202785E-01 
    5.6362781863821809E-01 
    7.4250077233616585E-01 
    8.3154442598088962E-01 
    9.8002821661921957E-01 
    8.5978159888177808E-01 
    9.1915653449087475E-01 
    1.0042774986922225E+00 
    1.2766631010433895E+00 
    1.2098300501440051E+00 
    1.1585317231918049E+00 
    1.2257373465422794E+00 
    1.1386476458917099E+00 
    1.0608913939939797E+00 
    9.9755321683132991E-01 
    1.0834639535949995E+00 
    1.0358556822341469E+00 
    9.3806192548774192E-01 
    8.8478493899589639E-01 
    9.9906215789151087E-01 
    1.1844942304774517E+00 
    1.1170644525899145E+00 
    1.0894212181722682E+00 
    1.1585550056844054E+00 
    2.0348677900579712E+00 
    1.8951571178870961E+00 
    1.8502352623520097E+00 
    1.9655468406273207E+00 
    1.7699076423780464E+00 
    1.6506354349268437E+00 
    1.6424143780215479E+00 
    1.7449159010565787E+00 
    1.7201099597176646E+00 
    1.6339972328850341E+00 
    1.6254304702250879E+00 
    1.6954994025191419E+00 
    1.8981132531657983E+00 
    1.8069008692023631E+00 
    1.7655584147794505E+00 
    1.8365088679809471E+00 
    1.5340290881472372E+00 
    1.4205094272275476E+00 
    1.4420390774554372E+00 
    1.5413446542066682E+00 
    1.3124196750767296E+00 
    1.2146278734518170E+00 
    1.2537833641190606E+00 
    1.3455781385013996E+00 
    1.3798111992954538E+00 
    1.2975757976422941E+00 
    1.3452176080231066E+00 
    1.4152386252044216E+00 
    1.5484311487202937E+00 
    1.4635864050026270E+00 
    1.4852399464785488E+00 
    1.5553636425705035E+00 
    1.7754369535383181E+00 
    1.7134979648793383E+00 
    1.6500482621918915E+00 
    1.7116300070506103E+00 
    1.6515483471628720E+00 
    1.5895907424603830E+00 
    1.5266705530271871E+00 
    1.5882747896058107E+00 
    1.5247824582671559E+00 
    1.4635334576602852E+00 
    1.3998811331652514E+00 
    1.4606888307421189E+00 
    1.6483297925107505E+00 
    1.5865320047882765E+00 
    1.5226524857192905E+00 
    1.5850008878724242E+00 
    2.1771883686496047E+00 
    2.0718947339449234E+00 
    2.1250222324937855E+00 
    2.2081050125251167E+00 
    1.9826723685254997E+00 
    1.9049353231053758E+00 
    1.9664024971657359E+00 
    2.0429929256968613E+00 
    2.0918839646717369E+00 
    2.0227841849221329E+00 
    2.0725651410977424E+00 
    2.1307914523084066E+00 
    2.2253738996179622E+00 
    2.1608420450447312E+00 
    2.1857055859675918E+00 
    2.2344120190433805E+00 
    1.8412684320370254E+00 
    1.7845955592342473E+00 
    1.8679826435022144E+00 
    1.9098466096528066E+00 
    1.7294105680740639E+00 
    1.6747989106684416E+00 
    1.7897519792653038E+00 
    1.8282329157601884E+00 
    1.9234387304705420E+00 
    1.9005979504143695E+00 
    2.0035505187285843E+00 
    2.0119487105498273E+00 
    1.9751906439499629E+00 
    1.9481220978660225E+00 
    2.0224644538559091E+00 
    2.0353234096720327E+00 
    2.2359288794130547E+00 
    2.1954805655277023E+00 
    2.2000127935599436E+00 
    2.2374612590750775E+00 
    2.1469704659225202E+00 
    2.0919700607211311E+00 
    2.0901348124021926E+00 
    2.1506298280598961E+00 
    2.1568480543556277E+00 
    2.0906784697101464E+00 
    2.0936180960235204E+00 
    2.1658325243116483E+00 
    2.2413093617820796E+00 
    2.2073505721361242E+00 
    2.2170073916335564E+00 
    2.2464955553151311E+00 
    1.1589571032678319E+00 
    1.0900130434842379E+00 
    1.1186594498293823E+00 
    1.1855890560757987E+00 
    9.9979274388849737E-01 
    8.8553312819929375E-01 
    9.4017933172912882E-01 
    1.0378738208337146E+00 
    1.0864414466196037E+00 
    1.0008528093455862E+00 
    1.0649707868363358E+00 
    1.1422130923784350E+00 
    1.2272895354307192E+00 
    1.1609261157315633E+00 
    1.2125868903657453E+00 
    1.2784739120231505E+00 
    7.4321810777386998E-01 
    5.6422797690960469E-01 
    7.2522883476857625E-01 
    8.3370532990640434E-01 
    3.2606216572087365E-01 
    0.0000000000000000E+00 
    4.5630930680789172E-01 
    6.0007836802667713E-01 
    8.0304649293222607E-01 
    7.4317476319133713E-01 
    9.4624250729452419E-01 
    9.6373690931471312E-01 
    9.2261115080261036E-01 
    8.6345964414153131E-01 
    9.8485179698464387E-01 
    1.0086158009750814E+00 
    1.3315394489081740E+00 
    1.2575343769058864E+00 
    1.2935369469125262E+00 
    1.3839977109227932E+00 
    1.1799279386327688E+00 
    1.0964044769572345E+00 
    1.0967125170651726E+00 
    1.1988442939254174E+00 
    1.2208427923799614E+00 
    1.1002118829734215E+00 
    1.1069268113177613E+00 
    1.2452932660471097E+00 
    1.4384864062021121E+00 
    1.3321195836982078E+00 
    1.3723636417584173E+00 
    1.4939190367855582E+00 
    2.2207977556880052E+00 
    2.3450720965207239E+00 
    2.3336223162567560E+00 
    2.2190147490310395E+00 
    2.4638784607932722E+00 
    2.5755737376551053E+00 
    2.5471661866489139E+00 
    2.4433992025679823E+00 
    2.4264307611816616E+00 
    2.5215733459151104E+00 
    2.4981927475627046E+00 
    2.4124299719191922E+00 
    2.2205274143779197E+00 
    2.3258827094509957E+00 
    2.3214029493562123E+00 
    2.2251576185520854E+00 
    2.6765078345385143E+00 
    2.7663325397302789E+00 
    2.7182658793699037E+00 
    2.6381670978862033E+00 
    2.8458869114775007E+00 
    2.9142140932913696E+00 
    2.8612332410178878E+00 
    2.7926577171399969E+00 
    2.7378972968717816E+00 
    2.8025959587136584E+00 
    2.7381912436023286E+00 
    2.6807593776853551E+00 
    2.6018255576192550E+00 
    2.6710223944450138E+00 
    2.6236956203549631E+00 
    2.5667877918510973E+00 
    2.2389445094300466E+00 
    2.3365668259706616E+00 
    2.3736993507851332E+00 
    2.2641245934882863E+00 
    2.4268631774741585E+00 
    2.5106663651534822E+00 
    2.5594148799742453E+00 
    2.4713033089806777E+00 
    2.5201766346972896E+00 
    2.6104036785515157E+00 
    2.6639939847551548E+00 
    2.5741543273386598E+00 
    2.2973600186837579E+00 
    2.4174273483110311E+00 
    2.4695166756354361E+00 
    2.3435044830651020E+00 
    2.0925709258477365E+00 
    1.9627002455843894E+00 
    1.9797809191091904E+00 
    2.0999252942591680E+00 
    1.8327450769891067E+00 
    1.7040708881229720E+00 
    1.7415542660968382E+00 
    1.8600213534935384E+00 
    1.8873334157076760E+00 
    1.7788445537154771E+00 
    1.8163712856938541E+00 
    1.9150606581123004E+00 
    2.1092755760862261E+00 
    1.9976157880978502E+00 
    2.0163536959358819E+00 
    2.1205210800761058E+00 
    1.5805576028084303E+00 
    1.4628350908893946E+00 
    1.5340134851757119E+00 
    1.6331113720636063E+00 
    1.3493877572286461E+00 
    1.2415903577124960E+00 
    1.3416375717588451E+00 
    1.4367862899380772E+00 
    1.5270010137266388E+00 
    1.4485453971028432E+00 
    1.5601606028815400E+00 
    1.6199353747256617E+00 
    1.6856926387086708E+00 
    1.6061392644469894E+00 
    1.6795255597598939E+00 
    1.7388079748592804E+00 
    2.1266589917095304E+00 
    2.0173316719960832E+00 
    1.9971817978616189E+00 
    2.1248566484706117E+00 
    1.9135505577304019E+00 
    1.8139534417487255E+00 
    1.7699328251450905E+00 
    1.8801576282303123E+00 
    1.8440828493208128E+00 
    1.7247533479975106E+00 
    1.6784046514091777E+00 
    1.8046623602140559E+00 
    2.1187707856877056E+00 
    1.9727644214907223E+00 
    1.9418517548941407E+00 
    2.1037885731096480E+00 
    2.3461381690636949E+00 
    2.4700026065125340E+00 
    2.4174604559255877E+00 
    2.2988830591412630E+00 
    2.5723419142888937E+00 
    2.6608893185704097E+00 
    2.6080898115635316E+00 
    2.5187618460252672E+00 
    2.4702172442182020E+00 
    2.5577155657075452E+00 
    2.5094503667186556E+00 
    2.4260694111164649E+00 
    2.2648509359857143E+00 
    2.3735226811082732E+00 
    2.3362901433114507E+00 
    2.2391569534334206E+00 
    2.7354949705134222E+00 
    2.8010279285051793E+00 
    2.7364820804947403E+00 
    2.6786352527686024E+00 
    2.8606821013918178E+00 
    2.9142884042414003E+00 
    2.8457677283312903E+00 
    2.7919930122243239E+00 
    2.7175967315579586E+00 
    2.7661300656122396E+00 
    2.6763057101377972E+00 
    2.6375982677633827E+00 
    2.6220520520107660E+00 
    2.6698328855505893E+00 
    2.6008976398892258E+00 
    2.5655611973665864E+00 
    2.2249969252233601E+00 
    2.3210084479632425E+00 
    2.3254743572057652E+00 
    2.2202219766367710E+00 
    2.4117422534531507E+00 
    2.4972341271130443E+00 
    2.5208262594612960E+00 