# vtk DataFile Version 2.0
Pressure Field Data 
ASCII 
DATASET UNSTRUCTURED_GRID 

POINTS 801 double 

    0.0000000000000000E+00     0.0000000000000000E+00     0.0000000000000000E+00 
    1.0000000000000000E+00     0.0000000000000000E+00     0.0000000000000000E+00 
    1.0000000000000000E+00     1.0000000000000000E+00     0.0000000000000000E+00 
    0.0000000000000000E+00     1.0000000000000000E+00     0.0000000000000000E+00 
    2.5000000000000000E-01     2.5000000000000000E-01     0.0000000000000000E+00 
    7.5000000000000000E-01     2.5000000000000000E-01     0.0000000000000000E+00 
    7.5000000000000000E-01     7.5000000000000000E-01     0.0000000000000000E+00 
    2.5000000000000000E-01     7.5000000000000000E-01     0.0000000000000000E+00 
    2.4999999999941941E-01     0.0000000000000000E+00     0.0000000000000000E+00 
    4.9999999999869399E-01     0.0000000000000000E+00     0.0000000000000000E+00 
    7.4999999999934697E-01     0.0000000000000000E+00     0.0000000000000000E+00 
    1.2499999999977940E-01     0.0000000000000000E+00     0.0000000000000000E+00 
    3.7499999999905670E-01     0.0000000000000000E+00     0.0000000000000000E+00 
    6.2499999999902045E-01     0.0000000000000000E+00     0.0000000000000000E+00 
    8.7499999999967348E-01     0.0000000000000000E+00     0.0000000000000000E+00 
    6.2499999999889699E-02     0.0000000000000000E+00     0.0000000000000000E+00 
    1.8749999999959940E-01     0.0000000000000000E+00     0.0000000000000000E+00 
    3.1249999999923811E-01     0.0000000000000000E+00     0.0000000000000000E+00 
    4.3749999999887529E-01     0.0000000000000000E+00     0.0000000000000000E+00 
    5.6249999999885725E-01     0.0000000000000000E+00     0.0000000000000000E+00 
    6.8749999999918376E-01     0.0000000000000000E+00     0.0000000000000000E+00 
    8.1249999999951017E-01     0.0000000000000000E+00     0.0000000000000000E+00 
    9.3749999999983680E-01     0.0000000000000000E+00     0.0000000000000000E+00 
    1.0000000000000000E+00     2.4999999999941941E-01     0.0000000000000000E+00 
    1.0000000000000000E+00     4.9999999999869399E-01     0.0000000000000000E+00 
    1.0000000000000000E+00     7.4999999999934697E-01     0.0000000000000000E+00 
    1.0000000000000000E+00     1.2499999999977940E-01     0.0000000000000000E+00 
    1.0000000000000000E+00     3.7499999999905670E-01     0.0000000000000000E+00 
    1.0000000000000000E+00     6.2499999999902045E-01     0.0000000000000000E+00 
    1.0000000000000000E+00     8.7499999999967348E-01     0.0000000000000000E+00 
    1.0000000000000000E+00     6.2499999999889699E-02     0.0000000000000000E+00 
    1.0000000000000000E+00     1.8749999999959940E-01     0.0000000000000000E+00 
    1.0000000000000000E+00     3.1249999999923811E-01     0.0000000000000000E+00 
    1.0000000000000000E+00     4.3749999999887529E-01     0.0000000000000000E+00 
    1.0000000000000000E+00     5.6249999999885725E-01     0.0000000000000000E+00 
    1.0000000000000000E+00     6.8749999999918376E-01     0.0000000000000000E+00 
    1.0000000000000000E+00     8.1249999999951017E-01     0.0000000000000000E+00 
    1.0000000000000000E+00     9.3749999999983680E-01     0.0000000000000000E+00 
    7.5000000000112044E-01     1.0000000000000000E+00     0.0000000000000000E+00 
    5.0000000000205913E-01     1.0000000000000000E+00     0.0000000000000000E+00 
    2.5000000000102962E-01     1.0000000000000000E+00     0.0000000000000000E+00 
    8.7499999999991362E-01     1.0000000000000000E+00     0.0000000000000000E+00 
    6.2499999999988309E-01     1.0000000000000000E+00     0.0000000000000000E+00 
    3.7499999999869987E-01     1.0000000000000000E+00     0.0000000000000000E+00 
    1.2499999999880820E-01     1.0000000000000000E+00     0.0000000000000000E+00 
    9.3749999999995681E-01     1.0000000000000000E+00     0.0000000000000000E+00 
    8.1250000000051703E-01     1.0000000000000000E+00     0.0000000000000000E+00 
    6.8750000000050182E-01     1.0000000000000000E+00     0.0000000000000000E+00 
    5.6250000000097111E-01     1.0000000000000000E+00     0.0000000000000000E+00 
    4.3750000000037947E-01     1.0000000000000000E+00     0.0000000000000000E+00 
    3.1249999999986477E-01     1.0000000000000000E+00     0.0000000000000000E+00 
    1.8749999999991890E-01     1.0000000000000000E+00     0.0000000000000000E+00 
    6.2499999999404102E-02     1.0000000000000000E+00     0.0000000000000000E+00 
    0.0000000000000000E+00     7.5000000000112044E-01     0.0000000000000000E+00 
    0.0000000000000000E+00     5.0000000000205913E-01     0.0000000000000000E+00 
    0.0000000000000000E+00     2.5000000000102962E-01     0.0000000000000000E+00 
    0.0000000000000000E+00     8.7499999999991362E-01     0.0000000000000000E+00 
    0.0000000000000000E+00     6.2499999999988309E-01     0.0000000000000000E+00 
    0.0000000000000000E+00     3.7499999999869987E-01     0.0000000000000000E+00 
    0.0000000000000000E+00     1.2499999999880820E-01     0.0000000000000000E+00 
    0.0000000000000000E+00     9.3749999999995681E-01     0.0000000000000000E+00 
    0.0000000000000000E+00     8.1250000000051703E-01     0.0000000000000000E+00 
    0.0000000000000000E+00     6.8750000000050182E-01     0.0000000000000000E+00 
    0.0000000000000000E+00     5.6250000000097111E-01     0.0000000000000000E+00 
    0.0000000000000000E+00     4.3750000000037947E-01     0.0000000000000000E+00 
    0.0000000000000000E+00     3.1249999999986477E-01     0.0000000000000000E+00 
    0.0000000000000000E+00     1.8749999999991890E-01     0.0000000000000000E+00 
    0.0000000000000000E+00     6.2499999999404102E-02     0.0000000000000000E+00 
    4.9999999999972200E-01     2.5000000000000000E-01     0.0000000000000000E+00 
    3.7500000000067490E-01     2.5000000000000000E-01     0.0000000000000000E+00 
    6.2500000000042988E-01     2.5000000000000000E-01     0.0000000000000000E+00 
    3.1250000000033751E-01     2.5000000000000000E-01     0.0000000000000000E+00 
    4.3750000000019851E-01     2.5000000000000000E-01     0.0000000000000000E+00 
    5.6250000000007594E-01     2.5000000000000000E-01     0.0000000000000000E+00 
    6.8750000000021494E-01     2.5000000000000000E-01     0.0000000000000000E+00 
    7.5000000000000000E-01     4.9999999999972200E-01     0.0000000000000000E+00 
    7.5000000000000000E-01     3.7500000000067490E-01     0.0000000000000000E+00 
    7.5000000000000000E-01     6.2500000000042988E-01     0.0000000000000000E+00 
    7.5000000000000000E-01     3.1250000000033751E-01     0.0000000000000000E+00 
    7.5000000000000000E-01     4.3750000000019851E-01     0.0000000000000000E+00 
    7.5000000000000000E-01     5.6250000000007594E-01     0.0000000000000000E+00 
    7.5000000000000000E-01     6.8750000000021494E-01     0.0000000000000000E+00 
    5.0000000000118039E-01     7.5000000000000000E-01     0.0000000000000000E+00 
    6.2500000000161415E-01     7.5000000000000000E-01     0.0000000000000000E+00 
    3.7500000000140910E-01     7.5000000000000000E-01     0.0000000000000000E+00 
    6.8750000000080713E-01     7.5000000000000000E-01     0.0000000000000000E+00 
    5.6250000000139733E-01     7.5000000000000000E-01     0.0000000000000000E+00 
    4.3750000000129469E-01     7.5000000000000000E-01     0.0000000000000000E+00 
    3.1250000000070460E-01     7.5000000000000000E-01     0.0000000000000000E+00 
    2.5000000000000000E-01     5.0000000000118039E-01     0.0000000000000000E+00 
    2.5000000000000000E-01     6.2500000000161415E-01     0.0000000000000000E+00 
    2.5000000000000000E-01     3.7500000000140910E-01     0.0000000000000000E+00 
    2.5000000000000000E-01     6.8750000000080713E-01     0.0000000000000000E+00 
    2.5000000000000000E-01     5.6250000000139733E-01     0.0000000000000000E+00 
    2.5000000000000000E-01     4.3750000000129469E-01     0.0000000000000000E+00 
    2.5000000000000000E-01     3.1250000000070460E-01     0.0000000000000000E+00 
    3.7499999999934702E-01     1.2500000000000000E-01     0.0000000000000000E+00 
    1.2500000000000000E-01     1.2500000000000000E-01     0.0000000000000000E+00 
    1.2500000000000000E-01     3.7500000000102962E-01     0.0000000000000000E+00 
    8.7500000000000000E-01     1.2500000000000000E-01     0.0000000000000000E+00 
    6.2499999999934697E-01     1.2500000000000000E-01     0.0000000000000000E+00 
    8.7500000000000000E-01     3.7499999999934702E-01     0.0000000000000000E+00 
    8.7500000000000000E-01     6.2499999999934697E-01     0.0000000000000000E+00 
    1.2500000000000000E-01     6.2500000000102962E-01     0.0000000000000000E+00 
    1.2500000000000000E-01     8.7500000000000000E-01     0.0000000000000000E+00 
    8.7500000000000000E-01     8.7500000000000000E-01     0.0000000000000000E+00 
    6.2500000000102962E-01     8.7500000000000000E-01     0.0000000000000000E+00 
    3.7500000000102962E-01     8.7500000000000000E-01     0.0000000000000000E+00 
    2.4999999999957681E-01     8.3333333333333329E-02     0.0000000000000000E+00 
    8.3333333333333329E-02     2.5000000000068640E-01     0.0000000000000000E+00 
    7.4999999999956468E-01     8.3333333333333329E-02     0.0000000000000000E+00 
    4.9999999999951827E-01     1.6666666666666671E-01     0.0000000000000000E+00 
    9.1666666666666674E-01     2.4999999999957681E-01     0.0000000000000000E+00 
    8.3333333333333337E-01     4.9999999999951827E-01     0.0000000000000000E+00 
    1.6666666666666671E-01     5.0000000000088307E-01     0.0000000000000000E+00 
    8.3333333333333329E-02     7.5000000000070155E-01     0.0000000000000000E+00 
    9.1666666666666674E-01     7.4999999999956468E-01     0.0000000000000000E+00 
    5.0000000000088307E-01     8.3333333333333348E-01     0.0000000000000000E+00 
    2.5000000000068640E-01     9.1666666666666674E-01     0.0000000000000000E+00 
    7.5000000000070155E-01     9.1666666666666674E-01     0.0000000000000000E+00 
[...]
CELL_DATA 768 
SCALARS Pressure double 1 
LOOKUP_TABLE default 

    2.8784993471962386E+00 
    2.7832927718209723E+00 
    2.7520983082649439E+00 
    2.8111638379558053E+00 
    2.7190278996761221E+00 
    2.6674419901184776E+00 
    2.6627479817502677E+00 
    2.7048434084118402E+00 
    2.6899670576629813E+00 
    2.6570130077753018E+00 
    2.6504006149901005E+00 
    2.6747490967337550E+00 
    2.7603252467408508E+00 
    2.7238540343028887E+00 
    2.6978772006147032E+00 
    2.7198411130627824E+00 
    2.6193777772537263E+00 
    2.5714603376750018E+00 
    2.5805284008720020E+00 
    2.6217022408407971E+00 
    2.5218798912695579E+00 
    2.4698196686547336E+00 
    2.4940099683591215E+00 
    2.5382102961637387E+00 
    2.5535448930068316E+00 
    2.5171253797380611E+00 
    2.5387996151463117E+00 
    2.5676207046013473E+00 
    2.6230759061811919E+00 
    2.5886642455775393E+00 
    2.5957011775753251E+00 
    2.6234960919057682E+00 
    2.6848789666639257E+00 
    2.6704565014023509E+00 
    2.6429740228266634E+00 
    2.6541428133543969E+00 
    2.6533409217093844E+00 
    2.6338992879337120E+00 
    2.6091646167819049E+00 
    2.6277426793923668E+00 
    2.6034943785112996E+00 
    2.5847318151899148E+00 
    2.5601068973167811E+00 
    2.5800143441915808E+00 
    2.6277671279304249E+00 
    2.6182268845346401E+00 
    2.5959026556847453E+00 
    2.6061087354215249E+00 
    2.8785425926133836E+00 
    2.8112169269232132E+00 
    2.7522655389225497E+00 
    2.7834613544102962E+00 
    2.7603862035271645E+00 
    2.7198989887913898E+00 
    2.6980136941495076E+00 
    2.7240048789562459E+00 
    2.6901585674822863E+00 
    2.6748855953743336E+00 
    2.6504965056853620E+00 
    2.6571628036733399E+00 
    2.7192633441479659E+00 
    2.7050591855084987E+00 
    2.6629440268594213E+00 
    2.6676520664007768E+00 
    2.6849329783210418E+00 
    2.6541656098534832E+00 
    2.6429923735361216E+00 
    2.6705632378305242E+00 
    2.6277195318229594E+00 
    2.6060170786517705E+00 
    2.5956161366493880E+00 
    2.6180955186301764E+00 
    2.6032172689286521E+00 
    2.5794511574407766E+00 
    2.5592730196187525E+00 
    2.5842493956681460E+00 
    2.6534193479291797E+00 
    2.6276737172001376E+00 
    2.6089641549217073E+00 
    2.6338930320842469E+00 
    2.6194017593941958E+00 
    2.6217191646978142E+00 
    2.5801531647196678E+00 
    2.5710053083743416E+00 
    2.6230639036365626E+00 
    2.6234382455406418E+00 
    2.5953868330713150E+00 
    2.5883163882861218E+00 
    2.5527786485309192E+00 
    2.5669560512528951E+00 
    2.5377211379875639E+00 
    2.5158973541465102E+00 
    2.5208733564266139E+00 
    2.5373317070790824E+00 
    2.4926624575653702E+00 
    2.4683488040441595E+00 
    2.3845027306938360E+00 
    2.3262740334907455E+00 
    2.3059804928881462E+00 
    2.3568683587527186E+00 
    2.2679630541713043E+00 
    2.2120356137034700E+00 
    2.2071442197006252E+00 
    2.2554178028048435E+00 
    2.2415067982220180E+00 
    2.2008144000759624E+00 
    2.1929409815783938E+00 
    2.2258900522513021E+00 
    2.3279849548725626E+00 
    2.2844059185535350E+00 
    2.2610462106646358E+00 
    2.2973046839334255E+00 
    2.1617352971334318E+00 
    2.1203995291299620E+00 
    2.1250722482343396E+00 
    2.1630600487934486E+00 
    2.0908027597688625E+00 
    2.0722483792056265E+00 
    2.0748381782099146E+00 
    2.0957037861478556E+00 
    2.0986421347551683E+00 
    2.0756348608358013E+00 
    2.0749656841603095E+00 
    2.0999816095941770E+00 
    2.1627913401928818E+00 
    2.1278163758446746E+00 
    2.1289083193711398E+00 
    2.1609687926738586E+00 
    2.2618700007544832E+00 
    2.2291675481593676E+00 
    2.1872369733952004E+00 
    2.2196245660154137E+00 
    2.1986989721556340E+00 
    2.1713264602804201E+00 
    2.1378397991639968E+00 
    2.1600804711519390E+00 
    2.1193636777310050E+00 
    2.1053013882850666E+00 
    2.0748429460283782E+00 
    2.0775911921111283E+00 
    2.1684012969641073E+00 
    2.1391895790850750E+00 
    2.0836139604472339E+00 
    2.0985764628063883E+00 
    2.4277672876405654E+00 
    2.3970141280900394E+00 
    2.4264791053366541E+00 
    2.4564742475710286E+00 
    2.3650105093605851E+00 
    2.3314570179543468E+00 
    2.3630416847910953E+00 
    2.3953796796783724E+00 
    2.4251090899172754E+00 
    2.3940190776851256E+00 
    2.4240873912540026E+00 
    2.4539389306807662E+00 
    2.4841194735456771E+00 
    2.4551312040800357E+00 
    2.4827312776446480E+00 
    2.5104764498715246E+00 
    2.2979199565625290E+00 
    2.2641869329344284E+00 
    2.3124708171026498E+00 
    2.3352105651043660E+00 
    2.2276616325609795E+00 
    2.1874509845879162E+00 
    2.2641426243423064E+00 
    2.2887999682935658E+00 
    2.3450705869167980E+00 
    2.3317445252884585E+00 
    2.3933027140582039E+00 
    2.3975335842167000E+00 
    2.3714363908921960E+00 
    2.3583488339014052E+00 
    2.4019338821520968E+00 
    2.4063924803680439E+00 
    2.5334669116146626E+00 
    2.5038479246111955E+00 
    2.5190368087523352E+00 
    2.5530245430785912E+00 
    2.4727128729917078E+00 
    2.4400879438273622E+00 
    2.4431253933276453E+00 
    2.4823211720170897E+00 
    2.4917966185345386E+00 
    2.4462579863378613E+00 
    2.4495135636721277E+00 
    2.5011764701215906E+00 
    2.5706663068185898E+00 
    2.5334942836223062E+00 
    2.5472621332867700E+00 
    2.5862268340867445E+00 
    2.0672192439363126E+00 
    2.0448302097744233E+00 
    2.0374911085128460E+00 
    2.0630024305161219E+00 
    2.0063092029992866E+00 
    1.9524666109861284E+00 
    1.9503867619746105E+00 
    1.9995991624358354E+00 
    1.9941765073976885E+00 
    1.9497414637656070E+00 
    1.9501353504450387E+00 
    1.9896431205733915E+00 
    2.0587266077380639E+00 
    2.0308560048738293E+00 
    2.0244394993744832E+00 
    2.0536374482023363E+00 
    1.8860644472639316E+00 
    1.8088388950197229E+00 
    1.8267500972577790E+00 
    1.8927427453506185E+00 
    1.7236948256191447E+00 
    1.6325050569903177E+00 
    1.6773703213513771E+00 
    1.7544570298519098E+00 
    1.7859195831735499E+00 
    1.7221217988674180E+00 
    1.7660058279518971E+00 
    1.8171828844347098E+00 
    1.9009136081928169E+00 
    1.8459360657877015E+00 
    1.8653284124786331E+00 
    1.9094561527688985E+00 
    2.0468801872316496E+00 
    2.0128654918485194E+00 
    1.9914458024110322E+00 
    2.0368432963340779E+00 
    1.9752072129420326E+00 
    1.9350927505167308E+00 
    1.8987845363321585E+00 
    1.9450438335141464E+00 
    1.9089837230433622E+00 
    1.8580333876665551E+00 
    1.8135959013012044E+00 
    1.8665545432071593E+00 
    2.0234887007073437E+00 
    1.9638462788799689E+00 
    1.9261417526834734E+00 
    2.0014645123319439E+00 
    1.9028009401671158E+00 
    1.8546789752969304E+00 
    1.7746714288448611E+00 
    1.8068943803270507E+00 
    1.8086080669792699E+00 
    1.7636459319607554E+00 
    1.7099373897703019E+00 
    1.7424183417027879E+00 
    1.6756683186273120E+00 
    1.6551745505447677E+00 
    1.5988974753794956E+00 
    1.6070773840242787E+00 
    1.7145801397321438E+00 
    1.6954363915898045E+00 
    1.6146464839739225E+00 
    1.6214141524149439E+00 
    1.7161180266130183E+00 
    1.6653039902520326E+00 
    1.6157333812152197E+00 
    1.6679964616591609E+00 
    1.6122070533059323E+00 
    1.5563971017163083E+00 
    1.5037718703377996E+00 
    1.5612372393031981E+00 
    1.5093891345255377E+00 
    1.4510486259838131E+00 
    1.3979758163592599E+00 
    1.4565241442182326E+00 
    1.6186728618407178E+00 
    1.5649969270694690E+00 
    1.5131982501800529E+00 
    1.5680237266242842E+00 
    1.5244435364906750E+00 
    1.5303646175845471E+00 
    1.4415840790230874E+00 
    1.4224589546306570E+00 
    1.5354113562057778E+00 
    1.5398729750576894E+00 
    1.4777207388065168E+00 
    1.4597240214686118E+00 
    1.3823166561158080E+00 
    1.4137803372325128E+00 
    1.3485316090277366E+00 
    1.3048393608447306E+00 
    1.3206609430427487E+00 
    1.3513758047954212E+00 
    1.2642886629695100E+00 
    1.2275738572744210E+00 
    2.5860250387939585E+00 
    2.5462717765496552E+00 
    2.5322044064914340E+00 
    2.5700492930382834E+00 
    2.4991687375582825E+00 
    2.4465796385641667E+00 
    2.4434570073066149E+00 
    2.4896950967608173E+00 
    2.4801718651399263E+00 
    2.4404510537108588E+00 
    2.4375383609409180E+00 
    2.4705477694260449E+00 
    2.5520647383292605E+00 
    2.5175082190450504E+00 
    2.5021444595055233E+00 
    2.5322229625792199E+00 
    2.3901897982459057E+00 
    2.3291845429815781E+00 
    2.3424860714089784E+00 
    2.3945758745134302E+00 
    2.2622431689858167E+00 
    2.1857294234772375E+00 
    2.2257861383774409E+00 
    2.2866882755896452E+00 
    2.3102413454756721E+00 
    2.2621828571635763E+00 
    2.2958768344326628E+00 
    2.3329834162516434E+00 
    2.3991036898754130E+00 
    2.3557713945219065E+00 
    2.3689440920007554E+00 
    2.4037154913505785E+00 
    2.5089845723051671E+00 
    2.4808299851806566E+00 
    2.4531659010554567E+00 
    2.4825276269322214E+00 
    2.4516847397346884E+00 
    2.4215805715691872E+00 
    2.3916416529550943E+00 
    2.4228977866716788E+00 
    2.3932725572296167E+00 
    2.3608750619751606E+00 
    2.3294165364523804E+00 
    2.3629860673748611E+00 
    2.4548146656097849E+00 
    2.4245705597482972E+00 
    2.3951042780764578E+00 
    2.4260571872641830E+00 
    2.3826745605063562E+00 
    2.3549284816960552E+00 
    2.3040161692440315E+00 
    2.3243558580853185E+00 
    2.3259995500284010E+00 
    2.2953407498859804E+00 
    2.2591154904197928E+00 
    2.2824364674339881E+00 
    2.2394967001525314E+00 
    2.2239009334987898E+00 
    2.1908202440102893E+00 
    2.1986058433547098E+00 
    2.2659265389085252E+00 
    2.2533639144537543E+00 
    2.2048519023765261E+00 
    2.2096786542377216E+00 
    2.2599311243537499E+00 
    2.2177434354197909E+00 
    2.1853430420478808E+00 
    2.2272345972208916E+00 
    2.1665900761151407E+00 
    2.0967649199213385E+00 
    2.0816807121126493E+00 
    2.1372824316200973E+00 
    2.1172925141333612E+00 
    2.0754656043219053E+00 
    2.0724778188373003E+00 
    2.1029919466904676E+00 
    2.1966981864662740E+00 
    2.1580620602554847E+00 
    2.1356209350096345E+00 
    2.1691767697067936E+00 
    2.1590585325822027E+00 
    2.1604756972748227E+00 
    2.1220956064200047E+00 
    2.1172322959334822E+00 
    2.1603182947891031E+00 
    2.1586225042559550E+00 
    2.1264013027847235E+00 
    2.1250608397437105E+00 
    2.0956421794109366E+00 
    2.0973059602322741E+00 
    2.0722078213358262E+00 
    2.0725475265016824E+00 
    2.0873382269414278E+00 
    2.0924472982698941E+00 
    2.0714233513537059E+00 
    2.0686357179771808E+00 
    1.4751603929775781E+00 
    1.3638320080335735E+00 
    1.3277871219536337E+00 
    1.4269987990818096E+00 
    1.2437803071846936E+00 
    1.1088472895004016E+00 
    1.1030728557223164E+00 
    1.2213609898209083E+00 
    1.2026314902914548E+00 
    1.1019558260762814E+00 
    1.1054226115927954E+00 
    1.1876207611914258E+00 
    1.3803189977119286E+00 
    1.2942784567222470E+00 
    1.2628128290383207E+00 
    1.3338633060440046E+00 
    9.4768693280485639E-01 
    7.4285834818241747E-01 
    8.0307449422033295E-01 
    9.6591278627461730E-01 
    4.5522138032367759E-01 
    0.0000000000000000E+00 
    3.2566307576609044E-01 
    5.9867877468404163E-01 
    7.2381930855272603E-01 
    5.6331097368367300E-01 
    7.4432386879434875E-01 
    8.3701663360061884E-01 
    9.8950087964995925E-01 
    8.6584533679589337E-01 
    9.3135651842049483E-01 
    1.0182473820582363E+00 
    1.2853930814836385E+00 
    1.2221335674433227E+00 
    1.1748320400973391E+00 
    1.2386808222728769E+00 
    1.1538801818357785E+00 
    1.0774526422085788E+00 
    1.0149066592899343E+00 
    1.1016009771464155E+00 
    1.0527572544921155E+00 
    9.5104674095620878E-01 
    8.9281713481713310E-01 
    1.0117720415252360E+00 
    1.2000922936069565E+00 
    1.1345305109227759E+00 
    1.1047100542557104E+00 
    1.1743078093706925E+00 
    1.9013630453498664E+00 
    1.8045192249782160E+00 
    1.7719362667381784E+00 
    1.8527524538107012E+00 
    1.7107794538986281E+00 
    1.6162350195978916E+00 
    1.6094927110079078E+00 
    1.6914946183520478E+00 
    1.6715481351893777E+00 
    1.6019927861358214E+00 
    1.5939487804855264E+00 
    1.6509530023437766E+00 
    1.8061849143554825E+00 
    1.7393126875511487E+00 
    1.7064367554307058E+00 
    1.7606793178277500E+00 
    1.5189764176075209E+00 
    1.4184919810731849E+00 
    1.4373594254910871E+00 
    1.5250150168289427E+00 
    1.3189252299021959E+00 
    1.2280075879347829E+00 
    1.2645308924730392E+00 
    1.3492703800351888E+00 
    1.3799693173095033E+00 
    1.3048425290435355E+00 
    1.3481443774606239E+00 
    1.4113170982434766E+00 
    1.5302490396965938E+00 
    1.4555856427368312E+00 
    1.4736906721148635E+00 
    1.5350212949461817E+00 
    1.7126014309868640E+00 
    1.6640793082937488E+00 
    1.6118023700859325E+00 
    1.6614775933831971E+00 
    1.6142842363003276E+00 
    1.5632961493438708E+00 
    1.5090579569781428E+00 
    1.5609012604789789E+00 
    1.5061505127304839E+00 
    1.4536118867947050E+00 
    1.3969314640560535E+00 
    1.4495204561195787E+00 
    1.6091607081933148E+00 
    1.5581918033562092E+00 
    1.5021942005606308E+00 
    1.5548456197553493E+00 
    1.9996704513387438E+00 
    1.9242074133567000E+00 
    1.9618253106327603E+00 
    2.0215311093436834E+00 
    1.8643576137419700E+00 
    1.8109830594267737E+00 
    1.8556684687193599E+00 
    1.9068717409674170E+00 
    1.9429282818897577E+00 
    1.8966298341755008E+00 
    1.9330120397716932E+00 
    1.9730837800763728E+00 
    2.0347330645188175E+00 
    1.9893979590032782E+00 
    2.0106852522103553E+00 
    2.0445846286319971E+00 
    1.7629661444432088E+00 
    1.7186869184700251E+00 
    1.7831853620343063E+00 
    1.8145928540637402E+00 
    1.6738782891699420E+00 
    1.6295815813331225E+00 
    1.7208220712076407E+00 
    1.7515775697529419E+00 
    1.8245886601739758E+00 
    1.8066590818624735E+00 
    1.8843206039295797E+00 
    1.8909190566898542E+00 
    1.8630901162260745E+00 
    1.8437180739106021E+00 
    1.8989854076336425E+00 
    1.9074253795729199E+00 
    2.0510172080438931E+00 
    2.0220329742607581E+00 
    2.0282479410593113E+00 
    2.0558142824449579E+00 
    1.9874340829166677E+00 
    1.9480941768503774E+00 
    1.9477689324552157E+00 
    1.9919327089630836E+00 
    1.9972547076576137E+00 
    1.9485146833051952E+00 
    1.9506662934414254E+00 
    2.0039110793875654E+00 
    2.0597182114871422E+00 
    2.0346389910996332E+00 
    2.0417926664686918E+00 
    2.0637076046127354E+00 
    1.1748171275078785E+00 
    1.1054960578425734E+00 
    1.1366018293435636E+00 
    1.2014276762622103E+00 
    1.0127350006598417E+00 
    8.9379175812550282E-01 
    9.5396864552223071E-01 
    1.0553935009424951E+00 
    1.1052960233832769E+00 
    1.0194002606223564E+00 
    1.0826503665048295E+00 
    1.1580198403115654E+00 
    1.2404149123536687E+00 
    1.1777327170593277E+00 
    1.2253920708510395E+00 
    1.2871109247531483E+00 
    7.4518515339213587E-01 
    5.6396435955255142E-01 
    7.2633107897322136E-01 
    8.3991652618470158E-01 
    3.2604025973339723E-01 
    0.0000000000000000E+00 
    4.5691826615109143E-01 
    6.0079667545926374E-01 
    8.0727880753111536E-01 
    7.4677540389116770E-01 
    9.5401128575735961E-01 
    9.7225247649104496E-01 
    9.3656512163133887E-01 
    8.7040187356749288E-01 
    9.9634709947804156E-01 
    1.0249697761809060E+00 
    1.3351173352101511E+00 
    1.2662634437834073E+00 
    1.2976519320594515E+00 
    1.3812304171551346E+00 
    1.1922115506887212E+00 
    1.1110676133387569E+00 
    1.1082955188143309E+00 
    1.2076955092587867E+00 
    1.2260073037659895E+00 
    1.1093961427778716E+00 
    1.1150239298307076E+00 
    1.2479168635304838E+00 
    1.4276873412271776E+00 
    1.3306325842408406E+00 
    1.3659897613012042E+00 
    1.4751667349508397E+00 
    2.0408371460187436E+00 
    2.1360056456108807E+00 
    2.1273916037699658E+00 
    2.0398905715585003E+00 
    2.2270629986589170E+00 
    2.3129626928563249E+00 
    2.2909406981516760E+00 
    2.2113248119691917E+00 
    2.1982161808342173E+00 
    2.2709669324164032E+00 
    2.2526660889590171E+00 
    2.1874028041414797E+00 
    2.0416361845388127E+00 
    2.1216532748988310E+00 
    2.1184890365027442E+00 
    2.0458711429898919E+00 
    2.3910620717851292E+00 
    2.4611120429681326E+00 
    2.4231792331571200E+00 
    2.3611189092713287E+00 
    2.5237791560079477E+00 
    2.5785300340739292E+00 
    2.5356252358605280E+00 
    2.4812537328775952E+00 
    2.4371823209855550E+00 
    2.4876787480201057E+00 
    2.4350584475768855E+00 
    2.3912576795596934E+00 
    2.3325835237752779E+00 
    2.3856837258774122E+00 
    2.3481361066196564E+00 
    2.3050340247723713E+00 
    2.0570128783647714E+00 
    2.1302765539992383E+00 
    2.1585809615595069E+00 
    2.0765558198292879E+00 
    2.1982526013780643E+00 
    2.2617784385635682E+00 
    2.2982702930148013E+00 
    2.2316129882505087E+00 
    2.2681519318477186E+00 
    2.3361631675191110E+00 
    2.3762127000596065E+00 
    2.3091726668545909E+00 
    2.1019335990294095E+00 
    2.1919643064048113E+00 
    2.2329659702021512E+00 
    2.1379021838253696E+00 
    1.9421867524796308E+00 
    1.8420248930198324E+00 
    1.8556155349956693E+00 
    1.9480271922116417E+00 
    1.7409483484381982E+00 
    1.6395566113868203E+00 
    1.6699480108003200E+00 
    1.7628065694717576E+00 
    1.7851929527499792E+00 
    1.7006449237706613E+00 
    1.7316893341282775E+00 
    1.8081311229317290E+00 
    1.9557398568115547E+00 
    1.8702413677739562E+00 
    1.8857707744588830E+00 
    1.9650418622675947E+00 
    1.5404301557423723E+00 
    1.4438322852117329E+00 
    1.5041366635240663E+00 
    1.5837906363066874E+00 
    1.3481340138416125E+00 
    1.2541872718086444E+00 
    1.3449803861676299E+00 
    1.4245695720080642E+00 
    1.5030569247500551E+00 
    1.4409147539531690E+00 
    1.5375778909149853E+00 
    1.5820651573581375E+00 
    1.6274937729751362E+00 
    1.5652907623340493E+00 
    1.6267701420974117E+00 
    1.6715417499200509E+00 
    1.9702996044646583E+00 
    1.8876916466566465E+00 
    1.8736727227113819E+00 
    1.9690304911709147E+00 
    1.8085394384414621E+00 
    1.7315397008017277E+00 
    1.6995310819190126E+00 
    1.7849498951647154E+00 
    1.7598101606960426E+00 
    1.6671760406788532E+00 
    1.6345316996328558E+00 
    1.7326287433243774E+00 
    1.9632498904949154E+00 
    1.8563314936546236E+00 
    1.8336677795819352E+00 
    1.9484345049704452E+00 
    2.1361126796958954E+00 
    2.2309812825890130E+00 
    2.1899842414569739E+00 
    2.1001055344597463E+00 
    2.3066352058741284E+00 
    2.3731653702326909E+00 
    2.3335966139052275E+00 
    2.2658686507588643E+00 
    2.2295677615116767E+00 
    2.2961008022567704E+00 
    2.2599617796359288E+00 
    2.1964756710196371E+00 
    2.0746641940088555E+00 
    2.1566723481462442E+00 
    2.1285049328447210E+00 
    2.0551530065672092E+00 
    2.4321937178914830E+00 
    2.4857376049028548E+00 
    2.4354654987720146E+00 
    2.3888816516131852E+00 
    2.5347178856890347E+00 
    2.5784204238430006E+00 
    2.5235423609860130E+00 
    2.4803302218948655E+00 
    2.4223081555681154E+00 
    2.4608328605838099E+00 
    2.3908009556814007E+00 
    2.3603634505081970E+00 
    2.3461497910898790E+00 
    2.3842076814288462E+00 
    2.3313497308970805E+00 
    2.3033844569575428E+00 
    2.0441467474173924E+00 
    2.1169238633718748E+00 
    2.1204341198405698E+00 
    2.0402438355437895E+00 
    2.1858950706033098E+00 
    2.2511612325575663E+00 
    2.2698371934370938E+00 