# vtk DataFile Version 2.0
Pressure Field Data 
ASCII 
DATASET UNSTRUCTURED_GRID 

POINTS 801 double 

    0.0000000000000000E+00     0.0000000000000000E+00     0.0000000000000000E+00 
    1.0000000000000000E+00     0.0000000000000000E+00     0.0000000000000000E+00 
    1.0000000000000000E+00     1.0000000000000000E+00     0.0000000000000000E+00 
    0.0000000000000000E+00     1.0000000000000000E+00     0.0000000000000000E+00 
    2.5000000000000000E-01     2.5000000000000000E-01     0.0000000000000000E+00 
    7.5000000000000000E-01     2.5000000000000000E-01     0.0000000000000000E+00 
    7.5000000000000000E-01     7.5000000000000000E-01     0.0000000000000000E+00 
    2.5000000000000000E-01     7.5000000000000000E-01     0.0000000000000000E+00 
    2.4999999999941941E-01     0.0000000000000000E+00     0.0000000000000000E+00 
    4.9999999999869399E-01     0.0000000000000000E+00     0.0000000000000000E+00 
    7.4999999999934697E-01     0.0000000000000000E+00     0.0000000000000000E+00 
    1.2499999999977940E-01     0.0000000000000000E+00     0.0000000000000000E+00 
    3.7499999999905670E-01     0.0000000000000000E+00     0.0000000000000000E+00 
    6.2499999999902045E-01     0.0000000000000000E+00     0.0000000000000000E+00 
    8.7499999999967348E-01     0.0000000000000000E+00     0.0000000000000000E+00 
    6.2499999999889699E-02     0.0000000000000000E+00     0.0000000000000000E+00 
    1.8749999999959940E-01     0.0000000000000000E+00     0.0000000000000000E+00 
    3.1249999999923811E-01     0.0000000000000000E+00     0.0000000000000000E+00 
    4.3749999999887529E-01     0.0000000000000000E+00     0.0000000000000000E+00 
    5.6249999999885725E-01     0.0000000000000000E+00     0.0000000000000000E+00 
    6.8749999999918376E-01     0.0000000000000000E+00     0.0000000000000000E+00 
    8.1249999999951017E-01     0.0000000000000000E+00     0.0000000000000000E+00 
    9.3749999999983680E-01     0.0000000000000000E+00     0.0000000000000000E+00 
    1.0000000000000000E+00     2.4999999999941941E-01     0.0000000000000000E+00 
    1.0000000000000000E+00     4.9999999999869399E-01     0.0000000000000000E+00 
    1.0000000000000000E+00     7.4999999999934697E-01     0.0000000000000000E+00 
    1.0000000000000000E+00     1.2499999999977940E-01     0.0000000000000000E+00 
    1.0000000000000000E+00     3.7499999999905670E-01     0.0000000000000000E+00 
    1.0000000000000000E+00     6.2499999999902045E-01     0.0000000000000000E+00 
    1.0000000000000000E+00     8.7499999999967348E-01     0.0000000000000000E+00 
    1.0000000000000000E+00     6.2499999999889699E-02     0.0000000000000000E+00 
    1.0000000000000000E+00     1.8749999999959940E-01     0.0000000000000000E+00 
    1.0000000000000000E+00     3.1249999999923811E-01     0.0000000000000000E+00 
    1.0000000000000000E+00     4.3749999999887529E-01     0.0000000000000000E+00 
    1.0000000000000000E+00     5.6249999999885725E-01     0.0000000000000000E+00 
    1.0000000000000000E+00     6.8749999999918376E-01     0.0000000000000000E+00 
    1.0000000000000000E+00     8.1249999999951017E-01     0.0000000000000000E+00 
    1.0000000000000000E+00     9.3749999999983680E-01     0.0000000000000000E+00 
    7.5000000000112044E-01     1.0000000000000000E+00     0.0000000000000000E+00 
    5.0000000000205913E-01     1.0000000000000000E+00     0.0000000000000000E+00 
    2.5000000000102962E-01     1.0000000000000000E+00     0.0000000000000000E+00 
    8.7499999999991362E-01     1.0000000000000000E+00     0.0000000000000000E+00 
    6.2499999999988309E-01     1.0000000000000000E+00     0.0000000000000000E+00 
    3.7499999999869987E-01     1.0000000000000000E+00     0.0000000000000000E+00 
    1.2499999999880820E-01     1.0000000000000000E+00     0.0000000000000000E+00 
    9.3749999999995681E-01     1.0000000000000000E+00     0.0000000000000000E+00 
    8.1250000000051703E-01     1.0000000000000000E+00     0.0000000000000000E+00 
    6.8750000000050182E-01     1.0000000000000000E+00     0.0000000000000000E+00 
    5.6250000000097111E-01     1.0000000000000000E+00     0.0000000000000000E+00 
    4.3750000000037947E-01     1.0000000000000000E+00     0.0000000000000000E+00 
    3.1249999999986477E-01     1.0000000000000000E+00     0.0000000000000000E+00 
    1.8749999999991890E-01     1.0000000000000000E+00     0.0000000000000000E+00 
    6.2499999999404102E-02     1.0000000000000000E+00     0.0000000000000000E+00 
    0.0000000000000000E+00     7.5000000000112044E-01     0.0000000000000000E+00 
    0.0000000000000000E+00     5.0000000000205913E-01     0.0000000000000000E+00 
    0.0000000000000000E+00     2.5000000000102962E-01     0.0000000000000000E+00 
    0.0000000000000000E+00     8.7499999999991362E-01     0.0000000000000000E+00 
    0.0000000000000000E+00     6.2499999999988309E-01     0.0000000000000000E+00 
    0.0000000000000000E+00     3.7499999999869987E-01     0.0000000000000000E+00 
    0.0000000000000000E+00     1.2499999999880820E-01     0.0000000000000000E+00 
    0.0000000000000000E+00     9.3749999999995681E-01     0.0000000000000000E+00 
    0.0000000000000000E+00     8.1250000000051703E-01     0.0000000000000000E+00 
    0.0000000000000000E+00     6.8750000000050182E-01     0.0000000000000000E+00 
    0.0000000000000000E+00     5.6250000000097111E-01     0.0000000000000000E+00 
    0.0000000000000000E+00     4.3750000000037947E-01     0.0000000000000000E+00 
    0.0000000000000000E+00     3.1249999999986477E-01     0.0000000000000000E+00 
    0.0000000000000000E+00     1.8749999999991890E-01     0.0000000000000000E+00 
    0.0000000000000000E+00     6.2499999999404102E-02     0.0000000000000000E+00 
    4.9999999999972200E-01     2.5000000000000000E-01     0.0000000000000000E+00 
    3.7500000000067490E-01     2.5000000000000000E-01     0.0000000000000000E+00 
    6.2500000000042988E-01     2.5000000000000000E-01     0.0000000000000000E+00 
    3.1250000000033751E-01     2.5000000000000000E-01     0.0000000000000000E+00 
    4.3750000000019851E-01     2.5000000000000000E-01     0.0000000000000000E+00 
    5.6250000000007594E-01     2.5000000000000000E-01     0.0000000000000000E+00 
    6.8750000000021494E-01     2.5000000000000000E-01     0.0000000000000000E+00 
    7.5000000000000000E-01     4.9999999999972200E-01     0.0000000000000000E+00 
    7.5000000000000000E-01     3.7500000000067490E-01     0.0000000000000000E+00 
    7.5000000000000000E-01     6.2500000000042988E-01     0.0000000000000000E+00 
    7.5000000000000000E-01     3.1250000000033751E-01     0.0000000000000000E+00 
    7.5000000000000000E-01     4.3750000000019851E-01     0.0000000000000000E+00 
    7.5000000000000000E-01     5.6250000000007594E-01     0.0000000000000000E+00 
    7.5000000000000000E-01     6.8750000000021494E-01     0.0000000000000000E+00 
    5.0000000000118039E-01     7.5000000000000000E-01     0.0000000000000000E+00 
    6.2500000000161415E-01     7.5000000000000000E-01     0.0000000000000000E+00 
    3.7500000000140910E-01     7.5000000000000000E-01     0.0000000000000000E+00 
    6.8750000000080713E-01     7.5000000000000000E-01     0.0000000000000000E+00 
    5.6250000000139733E-01     7.5000000000000000E-01     0.0000000000000000E+00 
    4.3750000000129469E-01     7.5000000000000000E-01     0.0000000000000000E+00 
    3.1250000000070460E-01     7.5000000000000000E-01     0.0000000000000000E+00 
    2.5000000000000000E-01     5.0000000000118039E-01     0.0000000000000000E+00 
    2.5000000000000000E-01     6.2500000000161415E-01     0.0000000000000000E+00 
    2.5000000000000000E-01     3.7500000000140910E-01     0.0000000000000000E+00 
    2.5000000000000000E-01     6.8750000000080713E-01     0.0000000000000000E+00 
    2.5000000000000000E-01     5.6250000000139733E-01     0.0000000000000000E+00 
    2.5000000000000000E-01     4.3750000000129469E-01     0.0000000000000000E+00 
    2.5000000000000000E-01     3.1250000000070460E-01     0.0000000000000000E+00 
    3.7499999999934702E-01     1.2500000000000000E-01     0.0000000000000000E+00 
    1.2500000000000000E-01     1.2500000000000000E-01     0.0000000000000000E+00 
    1.2500000000000000E-01     3.7500000000102962E-01     0.0000000000000000E+00 
    8.7500000000000000E-01     1.2500000000000000E-01     0.0000000000000000E+00 
    6.2499999999934697E-01     1.2500000000000000E-01     0.0000000000000000E+00 
    8.7500000000000000E-01     3.7499999999934702E-01     0.0000000000000000E+00 
    8.7500000000000000E-01     6.2499999999934697E-01     0.0000000000000000E+00 
    1.2500000000000000E-01     6.2500000000102962E-01     0.0000000000000000E+00 
    1.2500000000000000E-01     8.7500000000000000E-01     0.0000000000000000E+00 
    8.7500000000000000E-01     8.7500000000000000E-01     0.0000000000000000E+00 
    6.2500000000102962E-01     8.7500000000000000E-01     0.0000000000000000E+00 
    3.7500000000102962E-01     8.7500000000000000E-01     0.0000000000000000E+00 
    2.4999999999957681E-01     8.3333333333333329E-02     0.0000000000000000E+00 
    8.3333333333333329E-02     2.5000000000068640E-01     0.0000000000000000E+00 
    7.4999999999956468E-01     8.3333333333333329E-02     0.0000000000000000E+00 
    4.9999999999951827E-01     1.6666666666666671E-01     0.0000000000000000E+00 
    9.1666666666666674E-01     2.4999999999957681E-01     0.0000000000000000E+00 
    8.3333333333333337E-01     4.9999999999951827E-01     0.0000000000000000E+00 
    1.6666666666666671E-01     5.0000000000088307E-01     0.0000000000000000E+00 
    8.3333333333333329E-02     7.5000000000070155E-01     0.0000000000000000E+00 
    9.1666666666666674E-01     7.4999999999956468E-01     0.0000000000000000E+00 
    5.0000000000088307E-01     8.3333333333333348E-01     0.0000000000000000E+00 
    2.5000000000068640E-01     9.1666666666666674E-01     0.0000000000000000E+00 
    7.5000000000070155E-01     9.1666666666666674E-01     0.0000000000000000E+00 
[...]
CELL_DATA 768 
SCALARS Pressure double 1 
LOOKUP_TABLE default 

    3.5363406620495992E+00 
    3.4346918624577740E+00 
    3.3992619156506181E+00 
    3.4655743265009966E+00 
    3.3588220121383703E+00 
    3.2889020239915001E+00 
    3.2821064538312430E+00 
    3.3406712791551016E+00 
    3.3206519915309514E+00 
    3.2735730712553672E+00 
    3.2635136319752793E+00 
    3.2991142647282250E+00 
    3.4089250206208903E+00 
    3.3650242245320667E+00 
    3.3310262956612187E+00 
    3.3596041491373514E+00 
    3.2162678264485867E+00 
    3.1401850993069416E+00 
    3.1546837352627342E+00 
    3.2198202124680981E+00 
    3.0603713364153222E+00 
    2.9762934234905352E+00 
    3.0156385745356604E+00 
    3.0868120776084496E+00 
    3.1116678065272394E+00 
    3.0531811796394184E+00 
    3.0884942468850700E+00 
    3.1345430386607886E+00 
    3.2218378328428057E+00 
    3.1676560872925021E+00 
    3.1789029473329644E+00 
    3.2223744102402518E+00 
    3.3128230199023032E+00 
    3.2926615840783775E+00 
    3.2521146595088228E+00 
    3.2686446915319873E+00 
    3.2677698443512546E+00 
    3.2384678521017496E+00 
    3.2002502590565478E+00 
    3.2290300560904810E+00 
    3.1918338558927877E+00 
    3.1621605276990881E+00 
    3.1232955295588551E+00 
    3.1555008138000962E+00 
    3.2291548838915500E+00 
    3.2146424436538727E+00 
    3.1806415211446919E+00 
    3.1962190116020426E+00 
    3.5363958837091083E+00 
    3.4656512959185752E+00 
    3.3995288939497956E+00 
    3.4349365171093105E+00 
    3.4090243100671698E+00 
    3.3597138599556673E+00 
    3.3313118622430697E+00 
    3.3652974650923397E+00 
    3.3210659529634583E+00 
    3.2994814058307198E+00 
    3.2639642611152513E+00 
    3.2740966164936656E+00 
    3.3592373352174238E+00 
    3.3410894179201294E+00 
    3.2826870972886311E+00 
    3.2894876542402125E+00 
    3.3129392414207963E+00 
    3.2687189850636651E+00 
    3.2522849640036777E+00 
    3.2929370766810653E+00 
    3.2291398062384462E+00 
    3.1961804382911949E+00 
    3.1804918506583530E+00 
    3.2146194784593809E+00 
    3.1917231255038518E+00 
    3.1551551240653835E+00 
    3.1228375883006185E+00 
    3.1619586663479584E+00 
    3.2681123018733551E+00 
    3.2292041518861523E+00 
    3.2003972223682302E+00 
    3.2388327829112464E+00 
    3.2169059956777417E+00 
    3.2204193213987033E+00 
    3.1549576894985849E+00 
    3.1404258841491872E+00 
    3.2223591943916947E+00 
    3.2227818132559931E+00 
    3.1790515805841340E+00 
    3.1678749391592023E+00 
    3.1114686882068412E+00 
    3.1343119577059375E+00 
    3.0879113200847095E+00 
    3.0525337908846382E+00 
    3.0601593172929658E+00 
    3.0866061637613078E+00 
    3.0150346878420886E+00 
    2.9759601574450270E+00 
    2.8294107098018535E+00 
    2.7097408432173773E+00 
    2.6674603200015934E+00 
    2.7738614273096753E+00 
    2.5920412458770739E+00 
    2.4895428454431645E+00 
    2.4811111822372913E+00 
    2.5686987076430050E+00 
    2.5436713996299658E+00 
    2.4705810713071346E+00 
    2.4578239796842110E+00 
    2.5164722548306253E+00 
    2.7112573310041768E+00 
    2.6239825849383749E+00 
    2.5801673170526160E+00 
    2.6477556733094003E+00 
    2.4003846432575320E+00 
    2.3282532827754623E+00 
    2.3372173485797392E+00 
    2.4032157067266748E+00 
    2.2764386008571065E+00 
    2.2461832440786922E+00 
    2.2513384890595987E+00 
    2.2861460790783670E+00 
    2.2936776395507024E+00 
    2.2552392393706739E+00 
    2.2581733634418071E+00 
    2.2992347535472737E+00 
    2.4037376061540550E+00 
    2.3435556195965668E+00 
    2.3475998862746450E+00 
    2.4020112596615522E+00 
    2.5824188739900968E+00 
    2.5238263496605269E+00 
    2.4525524470696318E+00 
    2.5094105623845833E+00 
    2.4697047089745259E+00 
    2.4213178433104541E+00 
    2.3650661779324476E+00 
    2.4046954390582744E+00 
    2.3381676230196118E+00 
    2.3116099097445435E+00 
    2.2626624453495721E+00 
    2.2719241658372966E+00 
    2.4246555131381138E+00 
    2.3738511205844728E+00 
    2.2861461440926347E+00 
    2.3135144353394224E+00 
    2.9065202823390783E+00 
    2.8520113736448045E+00 
    2.9037158529460654E+00 
    2.9544622663698763E+00 
    2.7879971336103697E+00 
    2.7147936939061799E+00 
    2.7776867925607269E+00 
    2.8461452281904527E+00 
    2.8991193867045695E+00 
    2.8370322336559051E+00 
    2.8929984865684282E+00 
    2.9485681440362859E+00 
    2.9997186201119632E+00 
    2.9517363032475199E+00 
    2.9971550753780174E+00 
    3.0426467638851458E+00 
    2.6482987492538506E+00 
    2.5877080086972533E+00 
    2.6751352688862067E+00 
    2.7189753853612992E+00 
    2.5249321118728716E+00 
    2.4580365295426443E+00 
    2.5887070137521144E+00 
    2.6320813853185920E+00 
    2.7345179150575962E+00 
    2.7097761681477128E+00 
    2.8230738967364677E+00 
    2.8315989117707305E+00 
    2.7878124436735092E+00 
    2.7603331016341435E+00 
    2.8417675561722215E+00 
    2.8540798488511387E+00 
    3.0804045708632368E+00 
    3.0318196142130565E+00 
    3.0570315494910143E+00 
    3.1127715887845651E+00 
    2.9796285041722550E+00 
    2.9202778870720985E+00 
    2.9220344940827898E+00 
    2.9943527241695671E+00 
    3.0088193305831541E+00 
    2.9246972143055330E+00 
    2.9293223644776765E+00 
    3.0238858860201954E+00 
    3.1417670062636720E+00 
    3.0810720791866193E+00 
    3.1039475768499085E+00 
    3.1662094411940691E+00 
    2.2390333588896123E+00 
    2.2081333885057983E+00 
    2.1979485219385211E+00 
    2.2334176324565527E+00 
    2.1552999075518415E+00 
    2.0822050472252314E+00 
    2.0792434150807293E+00 
    2.1460294574955294E+00 
    2.1392603916844961E+00 
    2.0785653955564096E+00 
    2.0800794335854795E+00 
    2.1348360521463849E+00 
    2.2288111035979465E+00 
    2.1898593063465279E+00 
    2.1836654350888960E+00 
    2.2251276039255816E+00 
    1.9931428102582955E+00 
    1.8924696915097468E+00 
    1.9149123119874709E+00 
    2.0014354111897021E+00 
    1.7843809153222239E+00 
    1.6717239690380559E+00 
    1.7256685641522289E+00 
    1.8222276466839717E+00 
    1.8613973448379348E+00 
    1.7803489136903239E+00 
    1.8365473556263394E+00 
    1.9027128947585306E+00 
    2.0117584705100020E+00 
    1.9392347542990267E+00 
    1.9658232801434401E+00 
    2.0243081639619875E+00 
    2.2197547874419854E+00 
    2.1705610454018838E+00 
    2.1435194866220550E+00 
    2.2098901100470356E+00 
    2.1169049593203133E+00 
    2.0605766726460861E+00 
    2.0121187770229594E+00 
    2.0769987487509551E+00 
    2.0289900138990156E+00 
    1.9580805697739363E+00 
    1.8995251440428114E+00 
    1.9720595391307993E+00 
    2.1952802185369653E+00 
    2.1076014911644019E+00 
    2.0566534128363125E+00 
    2.1677565399524741E+00 
    2.0231836923582849E+00 
    1.9563321747025155E+00 
    1.8492101825086429E+00 
    1.8924850774813782E+00 
    1.8938216109691073E+00 
    1.8341977328906094E+00 
    1.7650960627390295E+00 
    1.8067940891351206E+00 
    1.7209138668513830E+00 
    1.6958915253901938E+00 
    1.6266381774411345E+00 
    1.6355663113279242E+00 
    1.7704368100818975E+00 
    1.7457147962457189E+00 
    1.6441492850691017E+00 
    1.6523230905873836E+00 
    1.7728557442382622E+00 
    1.7091662145882052E+00 
    1.6489671556783014E+00 
    1.7124809191960659E+00 
    1.6459954622779387E+00 
    1.5828139043987044E+00 
    1.5210868186134665E+00 
    1.5852618747555232E+00 
    1.5243183417183750E+00 
    1.4595418261004407E+00 
    1.3990080998710703E+00 
    1.4634821331755958E+00 
    1.6516191478526985E+00 
    1.5881741991862028E+00 
    1.5272113697549112E+00 
    1.5904058338839859E+00 
    1.5363240420538700E+00 
    1.5434567109839128E+00 
    1.4435772195666210E+00 
    1.4219805681359183E+00 
    1.5501951232662206E+00 
    1.5566095652501191E+00 
    1.4861045007563984E+00 
    1.4648024822098926E+00 
    1.3802146898886265E+00 
    1.4153521371668218E+00 
    1.3444138983463543E+00 
    1.2969142311916473E+00 
    1.3127943443014163E+00 
    1.3460085496987577E+00 
    1.2532406419537918E+00 
    1.2141594509297866E+00 
    3.1661812178514244E+00 
    3.1034743724236717E+00 
    3.0806635454637092E+00 
    3.1415175846699159E+00 
    3.0228846054066780E+00 
    2.9285374414758345E+00 
    2.9238137227140415E+00 
    3.0077317084844206E+00 
    2.9931671508320510E+00 
    2.9210935717559861E+00 
    2.9194065507992888E+00 
    2.9782713882458571E+00 
    3.1124113881216275E+00 
    3.0565693893101740E+00 
    3.0310129174473204E+00 
    3.0798385453353836E+00 
    2.8244570963543327E+00 
    2.7128240759627165E+00 
    2.7373769313787015E+00 
    2.8329280767599303E+00 
    2.5931303901668925E+00 
    2.4631000237727991E+00 
    2.5299586311950231E+00 
    2.6363100872678737E+00 
    2.6792809682073679E+00 
    2.5928603096528153E+00 
    2.6537523664748091E+00 
    2.7230230601532561E+00 
    2.8429542606719642E+00 
    2.7630406042747984E+00 
    2.7908394303074897E+00 
    2.8553048192822996E+00 
    3.0417679211440829E+00 
    2.9958764517822156E+00 
    2.9505105798540741E+00 
    2.9987243501059666E+00 
    2.9471359094303882E+00 
    2.8928658507650660E+00 
    2.8393785228787514E+00 
    2.8987779426855456E+00 
    2.8477592897695918E+00 
    2.7816011100465472E+00 
    2.7200995662544405E+00 
    2.7917121977638231E+00 
    2.9537728544513286E+00 
    2.9034370201826034E+00 
    2.8533949207028724E+00 
    2.9068741489693846E+00 
    2.8318102455184522E+00 
    2.7779761756950259E+00 
    2.6731711282767976E+00 
    2.7148622332561896E+00 
    2.7172373370974490E+00 
    2.6538994103228442E+00 
    2.5859248344012933E+00 
    2.6297651291397104E+00 
    2.5490522139848069E+00 
    2.5219342947304813E+00 
    2.4630021348108815E+00 
    2.4756355502210958E+00 
    2.5972924306926291E+00 
    2.5739596603224939E+00 
    2.4860384849939647E+00 
    2.4943613937220381E+00 
    2.5882061737354869E+00 
    2.5148149509807438E+00 
    2.4579126984539097E+00 
    2.5293853894137879E+00 
    2.4298190840815375E+00 
    2.3184500264315639E+00 
    2.2911270964322457E+00 
    2.3790033634871972E+00 
    2.3431539490740207E+00 
    2.2767372116835194E+00 
    2.2671006408266887E+00 
    2.3162095200969368E+00 
    2.4750534667935131E+00 
    2.4098613477394482E+00 
    2.3698910536736841E+00 
    2.4263662881571566E+00 
    2.4046394100662631E+00 
    2.4076068601037535E+00 
    2.3408909129843636E+00 
    2.3316113314566129E+00 
    2.4082861484099976E+00 
    2.4067369323030521E+00 
    2.3519742942230564E+00 
    2.3475555441101505E+00 
    2.2972186164417034E+00 
    2.3032565581253017E+00 
    2.2619907394257033E+00 
    2.2585597647231106E+00 
    2.2792589702693773E+00 
    2.2892838974593803E+00 
    2.2542133262624069E+00 
    2.2488390147394322E+00 
    1.4919504492138036E+00 
    1.3696564274849832E+00 
    1.3292042419628438E+00 
    1.4365125861066912E+00 
    1.2411928937734917E+00 
    1.1015827706457908E+00 
    1.0949289503188808E+00 
    1.2166239354459962E+00 
    1.1946966290615844E+00 
    1.0917047966679247E+00 
    1.0918571422924903E+00 
    1.1760893411699409E+00 
    1.3820595890188467E+00 
    1.2905522449222329E+00 
    1.2546751906778957E+00 
    1.3296887659548640E+00 
    9.4098305691557904E-01 
    7.3965370264018748E-01 
    7.9924720819111050E-01 
    9.5861001839157722E-01 
    4.5476270681955738E-01 
    0.0000000000000000E+00 
    3.2572191631925956E-01 
    5.9814677402392991E-01 
    7.2303879654263337E-01 
    5.6363575086474427E-01 
    7.4251677462890453E-01 
    8.3156128846249533E-01 
    9.8003800634185523E-01 
    8.5979277580429780E-01 
    9.1917331830470661E-01 
    1.0042919154724412E+00 
    1.2766847713834923E+00 
    1.2098494126859973E+00 
    1.1585642593735892E+00 
    1.2257768435929477E+00 
    1.1386664760490093E+00 
    1.0609095288343053E+00 
    9.9757587237928613E-01 
    1.0834912710323623E+00 
    1.0358883837843373E+00 
    9.3808677711228949E-01 
    8.8481093184993731E-01 
    9.9909832396878562E-01 
    1.1845430241709116E+00 
    1.1171047433114161E+00 
    1.0894672490777424E+00 
    1.1586100482910471E+00 
    2.0270397516681680E+00 
    1.8949863940661325E+00 
    1.8512584697301417E+00 
    1.9597160981579200E+00 
    1.7711091450731917E+00 
    1.6513317494767716E+00 
    1.6430558273771125E+00 
    1.7461353188995430E+00 
    1.7211025684902230E+00 
    1.6345353976105872E+00 
    1.6258152300107813E+00 
    1.6960955313761377E+00 
    1.8967638446103430E+00 
    1.8084544517903445E+00 
    1.7664740483030785E+00 
    1.8367310569139106E+00 
    1.5343659484266814E+00 
    1.4206855135965604E+00 
    1.4422155615202255E+00 
    1.5416701439327023E+00 
    1.3125319684580519E+00 
    1.2147094950931219E+00 
    1.2538691675909757E+00 
    1.3456921422245309E+00 
    1.3799112390318844E+00 
    1.2976530696823330E+00 
    1.3452650130666075E+00 
    1.4153008348199418E+00 
    1.5487168219229670E+00 
    1.4637426081549845E+00 
    1.4853471890295828E+00 
    1.5555758023464512E+00 
    1.7750182563046046E+00 
    1.7135832264585182E+00 
    1.6498200190588070E+00 
    1.7109823024437549E+00 
    1.6517083203487057E+00 
    1.5897542092627901E+00 
    1.5267165204433064E+00 
    1.5882346209554037E+00 
    1.5246688635323355E+00 
    1.4635322989818316E+00 
    1.3998682220622163E+00 
    1.4605674211153328E+00 
    1.6476765808048590E+00 
    1.5862194528618605E+00 
    1.5223575182849582E+00 
    1.5844564580196538E+00 
    2.1722900949378232E+00 
    2.0608287344477736E+00 
    2.1122174509620426E+00 
    2.2000682328313625E+00 
    1.9759118270934648E+00 
    1.9030449732549672E+00 
    1.9623512207665479E+00 
    2.0334825058146899E+00 
    2.0818182290600524E+00 
    2.0169451733066399E+00 
    2.0656634547987043E+00 
    2.1218614018491677E+00 
    2.2146528281202933E+00 
    2.1483752156463889E+00 
    2.1753174786577416E+00 
    2.2242675409700428E+00 
    1.8397771100972617E+00 
    1.7832307468726529E+00 
    1.8654264005607504E+00 
    1.9068569326690346E+00 
    1.7282181732820181E+00 
    1.6738567579324848E+00 
    1.7878504648827165E+00 
    1.8260054721189407E+00 
    1.9198065458469844E+00 
    1.8972666218002403E+00 
    1.9986892917478831E+00 
    2.0069092994007405E+00 
    1.9706333736736568E+00 
    1.9441060410813040E+00 
    2.0171221213237454E+00 
    2.0295099607741505E+00 
    2.2291115039551443E+00 
    2.1880688489539377E+00 
    2.1939854586841543E+00 
    2.2323624380434315E+00 
    2.1396859859725570E+00 
    2.0852994152323925E+00 
    2.0839110954101105E+00 
    2.1440733643012515E+00 
    2.1507219421781905E+00 
    2.0847134006041319E+00 
    2.0877524534161451E+00 
    2.1599060500168430E+00 
    2.2365475059608575E+00 
    2.2018027030442044E+00 
    2.2117257703007374E+00 
    2.2418759138184270E+00 
    1.1590203364924103E+00 
    1.0900645998957175E+00 
    1.1187153993865138E+00 
    1.1856567875285959E+00 
    9.9983314030573167E-01 
    8.8556236896713503E-01 
    9.4021506089498041E-01 
    1.0379193671140097E+00 
    1.0864889250776504E+00 
    1.0008928212194714E+00 
    1.0650112667686613E+00 
    1.1422549435775622E+00 
    1.2273528662820272E+00 
    1.1609795639539360E+00 
    1.2126281878464729E+00 
    1.2785161558173359E+00 
    7.4323685976397447E-01 
    5.6423834582261134E-01 
    7.2524827506139133E-01 
    8.3373183397597506E-01 
    3.2606687900468806E-01 
    0.0000000000000000E+00 
    4.5631904374611398E-01 
    6.0009263130838031E-01 
    8.0307016737490089E-01 
    7.4319580028900167E-01 
    9.4626960311622865E-01 
    9.6376537114277994E-01 
    9.2264377577748979E-01 
    8.6348711557096269E-01 
    9.8488300644333193E-01 
    1.0086507775044427E+00 
    1.3315374871129728E+00 
    1.2575480025523054E+00 
    1.2935120658143364E+00 
    1.3839230696307785E+00 
    1.1799537206944823E+00 
    1.0964368948492613E+00 
    1.0967378119027162E+00 
    1.1988520642805800E+00 
    1.2208307435529677E+00 
    1.1002302491351466E+00 
    1.1069394320236436E+00 
    1.2452600056782643E+00 
    1.4383097392313513E+00 
    1.3320453199444564E+00 
    1.3722332476910035E+00 
    1.4936130419490632E+00 
    2.3026124099952141E+00 
    2.4460266455036996E+00 
    2.4303323619499513E+00 
    2.2979887274735704E+00 
    2.5856721663940880E+00 
    2.7196871987824562E+00 
    2.6835106301491112E+00 
    2.5592734988596906E+00 
    2.5352154196659527E+00 
    2.6492704062842125E+00 
    2.6161757852683953E+00 
    2.5128306612045970E+00 
    2.2947739883281542E+00 
    2.4168417105172457E+00 
    2.4050430636910729E+00 
    2.2927600135250477E+00 
    2.8435093826927207E+00 
    2.9562189364743672E+00 
    2.8933436720995735E+00 
    2.7943329475879093E+00 
    3.0584887470855828E+00 
    3.1481563759817410E+00 
    3.0754635110667463E+00 
    2.9872703893389643E+00 
    2.9118468954481349E+00 
    2.9922578488059708E+00 
    2.8984000947432333E+00 
    2.8310618080433261E+00 
    2.7462532796054071E+00 
    2.8298056969581422E+00 
    2.7643943630452354E+00 
    2.6983428352170038E+00 
    2.2990153932129784E+00 
    2.4143911525172128E+00 
    2.4478199677778809E+00 
    2.3162009658776315E+00 
    2.5228171358261502E+00 
    2.6254109537066657E+00 
    2.6783097278420311E+00 
    2.5674106081341912E+00 
    2.6158307619548107E+00 
    2.7331559462819537E+00 
    2.7899692469444393E+00 
    2.6686446817744258E+00 
    2.3404276512896329E+00 
    2.4872066032156215E+00 
    2.5347505251308626E+00 
    2.3772682043268931E+00 
    2.1573057770643640E+00 
    2.0121427858725802E+00 
    2.0295511335414789E+00 
    2.1635910775243787E+00 
    1.8689064822572174E+00 
    1.7289954307868145E+00 
    1.7685895217780838E+00 
    1.8975772239055870E+00 
    1.9250102944604950E+00 
    1.8070861303542065E+00 
    1.8449054838575945E+00 
    1.9515703811019760E+00 
    2.1699135138967094E+00 
    2.0460843032563232E+00 
    2.0618591580154537E+00 
    2.1760941557742766E+00 
    1.5964775867811312E+00 
    1.4718005055530676E+00 
    1.5457156529805125E+00 
    1.6516781456394989E+00 
    1.3532662058777090E+00 
    1.2422215069825555E+00 
    1.3433027030073152E+00 
    1.4428534454532616E+00 
    1.5348363431510956E+00 
    1.4510424817739880E+00 
    1.5633921415909235E+00 
    1.6291580677931377E+00 
    1.7062103714523462E+00 
    1.6199826118170104E+00 
    1.6949274506649785E+00 
    1.7605753033440330E+00 
    2.1743569486181578E+00 
    2.0565641908726802E+00 
    2.0270790635801554E+00 
    2.1615886293595361E+00 
    1.9452536052259635E+00 
    1.8389438371813784E+00 
    1.7882451009370650E+00 
    1.9039738103810753E+00 
    1.8592827879640819E+00 
    1.7361775568001729E+00 
    1.6827427396199695E+00 
    1.8105400419701092E+00 
    2.1412789117598252E+00 
    1.9916543622930332E+00 
    1.9477654435331098E+00 
    2.1074202969074536E+00 
    2.3819051822401551E+00 
    2.5388018786339401E+00 
    2.4903829309926580E+00 
    2.3441142946875351E+00 
    2.6714795160301872E+00 
    2.7912515759484786E+00 
    2.7342421236415286E+00 
    2.6180982822376939E+00 
    2.5692100459248168E+00 
    2.6792814825644888E+00 
    2.6262924018936835E+00 
    2.5242376631128689E+00 
    2.3190053655359426E+00 
    2.4502761850302353E+00 
    2.4162129897537152E+00 
    2.3010357496965965E+00 
    2.8978657785154103E+00 
    2.9914154184625463E+00 
    2.9113242444990370E+00 
    2.8309262753338578E+00 
    3.0749510111909406E+00 
    3.1481484688262729E+00 
    3.0583643122129742E+00 
    2.9868626622047851E+00 
    2.8930852256887172E+00 
    2.9560893267891810E+00 
    2.8434357826140424E+00 
    2.7942474423625674E+00 
    2.7645408605754667E+00 
    2.8295930733256522E+00 
    2.7462809266365253E+00 
    2.6986739439597129E+00 
    2.2940528673425158E+00 
    2.4062620617810420E+00 
    2.4175597421136761E+00 
    2.2955112433734248E+00 
    2.5138046149333273E+00 
    2.6167783352313192E+00 
    2.6495398453705641E+00 