# vtk DataFile Version 2.0
Pressure Field Data 
ASCII 
DATASET UNSTRUCTURED_GRID 

POINTS 801 double 

    0.0000000000000000E+00     0.0000000000000000E+00     0.0000000000000000E+00 
    1.0000000000000000E+00     0.0000000000000000E+00     0.0000000000000000E+00 
    1.0000000000000000E+00     1.0000000000000000E+00     0.0000000000000000E+00 
    0.0000000000000000E+00     1.0000000000000000E+00     0.0000000000000000E+00 
    2.5000000000000000E-01     2.5000000000000000E-01     0.0000000000000000E+00 
    7.5000000000000000E-01     2.5000000000000000E-01     0.0000000000000000E+00 
    7.5000000000000000E-01     7.5000000000000000E-01     0.0000000000000000E+00 
    2.5000000000000000E-01     7.5000000000000000E-01     0.0000000000000000E+00 
    2.4999999999941941E-01     0.0000000000000000E+00     0.0000000000000000E+00 
    4.9999999999869399E-01     0.0000000000000000E+00     0.0000000000000000E+00 
    7.4999999999934697E-01     0.0000000000000000E+00     0.0000000000000000E+00 
    1.2499999999977940E-01     0.0000000000000000E+00     0.0000000000000000E+00 
    3.7499999999905670E-01     0.0000000000000000E+00     0.0000000000000000E+00 
    6.2499999999902045E-01     0.0000000000000000E+00     0.0000000000000000E+00 
    8.7499999999967348E-01     0.0000000000000000E+00     0.0000000000000000E+00 
    6.2499999999889699E-02     0.0000000000000000E+00     0.0000000000000000E+00 
    1.8749999999959940E-01     0.0000000000000000E+00     0.0000000000000000E+00 
    3.1249999999923811E-01     0.0000000000000000E+00     0.0000000000000000E+00 
    4.3749999999887529E-01     0.0000000000000000E+00     0.0000000000000000E+00 
    5.6249999999885725E-01     0.0000000000000000E+00     0.0000000000000000E+00 
    6.8749999999918376E-01     0.0000000000000000E+00     0.0000000000000000E+00 
    8.1249999999951017E-01     0.0000000000000000E+00     0.0000000000000000E+00 
    9.3749999999983680E-01     0.0000000000000000E+00     0.0000000000000000E+00 
    1.0000000000000000E+00     2.4999999999941941E-01     0.0000000000000000E+00 
    1.0000000000000000E+00     4.9999999999869399E-01     0.0000000000000000E+00 
    1.0000000000000000E+00     7.4999999999934697E-01     0.0000000000000000E+00 
    1.0000000000000000E+00     1.2499999999977940E-01     0.0000000000000000E+00 
    1.0000000000000000E+00     3.7499999999905670E-01     0.0000000000000000E+00 
    1.0000000000000000E+00     6.2499999999902045E-01     0.0000000000000000E+00 
    1.0000000000000000E+00     8.7499999999967348E-01     0.0000000000000000E+00 
    1.0000000000000000E+00     6.2499999999889699E-02     0.0000000000000000E+00 
    1.0000000000000000E+00     1.8749999999959940E-01     0.0000000000000000E+00 
    1.0000000000000000E+00     3.1249999999923811E-01     0.0000000000000000E+00 
    1.0000000000000000E+00     4.3749999999887529E-01     0.0000000000000000E+00 
    1.0000000000000000E+00     5.6249999999885725E-01     0.0000000000000000E+00 
    1.0000000000000000E+00     6.8749999999918376E-01     0.0000000000000000E+00 
    1.0000000000000000E+00     8.1249999999951017E-01     0.0000000000000000E+00 
    1.0000000000000000E+00     9.3749999999983680E-01     0.0000000000000000E+00 
    7.5000000000112044E-01     1.0000000000000000E+00     0.0000000000000000E+00 
    5.0000000000205913E-01     1.0000000000000000E+00     0.0000000000000000E+00 
    2.5000000000102962E-01     1.0000000000000000E+00     0.0000000000000000E+00 
    8.7499999999991362E-01     1.0000000000000000E+00     0.0000000000000000E+00 
    6.2499999999988309E-01     1.0000000000000000E+00     0.0000000000000000E+00 
    3.7499999999869987E-01     1.0000000000000000E+00     0.0000000000000000E+00 
    1.2499999999880820E-01     1.0000000000000000E+00     0.0000000000000000E+00 
    9.3749999999995681E-01     1.0000000000000000E+00     0.0000000000000000E+00 
    8.1250000000051703E-01     1.0000000000000000E+00     0.0000000000000000E+00 
    6.8750000000050182E-01     1.0000000000000000E+00     0.0000000000000000E+00 
    5.6250000000097111E-01     1.0000000000000000E+00     0.0000000000000000E+00 
    4.3750000000037947E-01     1.0000000000000000E+00     0.0000000000000000E+00 
    3.1249999999986477E-01     1.0000000000000000E+00     0.0000000000000000E+00 
    1.8749999999991890E-01     1.0000000000000000E+00     0.0000000000000000E+00 
    6.2499999999404102E-02     1.0000000000000000E+00     0.0000000000000000E+00 
    0.0000000000000000E+00     7.5000000000112044E-01     0.0000000000000000E+00 
    0.0000000000000000E+00     5.0000000000205913E-01     0.0000000000000000E+00 
    0.0000000000000000E+00     2.5000000000102962E-01     0.0000000000000000E+00 
    0.0000000000000000E+00     8.7499999999991362E-01     0.0000000000000000E+00 
    0.0000000000000000E+00     6.2499999999988309E-01     0.0000000000000000E+00 
    0.0000000000000000E+00     3.7499999999869987E-01     0.0000000000000000E+00 
    0.0000000000000000E+00     1.2499999999880820E-01     0.0000000000000000E+00 
    0.0000000000000000E+00     9.3749999999995681E-01     0.0000000000000000E+00 
    0.0000000000000000E+00     8.1250000000051703E-01     0.0000000000000000E+00 
    0.0000000000000000E+00     6.8750000000050182E-01     0.0000000000000000E+00 
    0.0000000000000000E+00     5.6250000000097111E-01     0.0000000000000000E+00 
    0.0000000000000000E+00     4.3750000000037947E-01     0.0000000000000000E+00 
    0.0000000000000000E+00     3.1249999999986477E-01     0.0000000000000000E+00 
    0.0000000000000000E+00     1.8749999999991890E-01     0.0000000000000000E+00 
    0.0000000000000000E+00     6.2499999999404102E-02     0.0000000000000000E+00 
    4.9999999999972200E-01     2.5000000000000000E-01     0.0000000000000000E+00 
    3.7500000000067490E-01     2.5000000000000000E-01     0.0000000000000000E+00 
    6.2500000000042988E-01     2.5000000000000000E-01     0.0000000000000000E+00 
    3.1250000000033751E-01     2.5000000000000000E-01     0.0000000000000000E+00 
    4.3750000000019851E-01     2.5000000000000000E-01     0.0000000000000000E+00 
    5.6250000000007594E-01     2.5000000000000000E-01     0.0000000000000000E+00 
    6.8750000000021494E-01     2.5000000000000000E-01     0.0000000000000000E+00 
    7.5000000000000000E-01     4.9999999999972200E-01     0.0000000000000000E+00 
    7.5000000000000000E-01     3.7500000000067490E-01     0.0000000000000000E+00 
    7.5000000000000000E-01     6.2500000000042988E-01     0.0000000000000000E+00 
    7.5000000000000000E-01     3.1250000000033751E-01     0.0000000000000000E+00 
    7.5000000000000000E-01     4.3750000000019851E-01     0.0000000000000000E+00 
    7.5000000000000000E-01     5.6250000000007594E-01     0.0000000000000000E+00 
    7.5000000000000000E-01     6.8750000000021494E-01     0.0000000000000000E+00 
    5.0000000000118039E-01     7.5000000000000000E-01     0.0000000000000000E+00 
    6.2500000000161415E-01     7.5000000000000000E-01     0.0000000000000000E+00 
    3.7500000000140910E-01     7.5000000000000000E-01     0.0000000000000000E+00 
    6.8750000000080713E-01     7.5000000000000000E-01     0.0000000000000000E+00 
    5.6250000000139733E-01     7.5000000000000000E-01     0.0000000000000000E+00 
    4.3750000000129469E-01     7.5000000000000000E-01     0.0000000000000000E+00 
    3.1250000000070460E-01     7.5000000000000000E-01     0.0000000000000000E+00 
    2.5000000000000000E-01     5.0000000000118039E-01     0.0000000000000000E+00 
    2.5000000000000000E-01     6.2500000000161415E-01     0.0000000000000000E+00 
    2.5000000000000000E-01     3.7500000000140910E-01     0.0000000000000000E+00 
    2.5000000000000000E-01     6.8750000000080713E-01     0.0000000000000000E+00 
    2.5000000000000000E-01     5.6250000000139733E-01     0.0000000000000000E+00 
    2.5000000000000000E-01     4.3750000000129469E-01     0.0000000000000000E+00 
    2.5000000000000000E-01     3.1250000000070460E-01     0.0000000000000000E+00 
    3.7499999999934702E-01     1.2500000000000000E-01     0.0000000000000000E+00 
    1.2500000000000000E-01     1.2500000000000000E-01     0.0000000000000000E+00 
    1.2500000000000000E-01     3.7500000000102962E-01     0.0000000000000000E+00 
    8.7500000000000000E-01     1.2500000000000000E-01     0.0000000000000000E+00 
    6.2499999999934697E-01     1.2500000000000000E-01     0.0000000000000000E+00 
    8.7500000000000000E-01     3.7499999999934702E-01     0.0000000000000000E+00 
    8.7500000000000000E-01     6.2499999999934697E-01     0.0000000000000000E+00 
    1.2500000000000000E-01     6.2500000000102962E-01     0.0000000000000000E+00 
    1.2500000000000000E-01     8.7500000000000000E-01     0.0000000000000000E+00 
    8.7500000000000000E-01     8.7500000000000000E-01     0.0000000000000000E+00 
    6.2500000000102962E-01     8.7500000000000000E-01     0.0000000000000000E+00 
    3.7500000000102962E-01     8.7500000000000000E-01     0.0000000000000000E+00 
    2.4999999999957681E-01     8.3333333333333329E-02     0.0000000000000000E+00 
    8.3333333333333329E-02     2.5000000000068640E-01     0.0000000000000000E+00 
    7.4999999999956468E-01     8.3333333333333329E-02     0.0000000000000000E+00 
    4.9999999999951827E-01     1.6666666666666671E-01     0.0000000000000000E+00 
    9.1666666666666674E-01     2.4999999999957681E-01     0.0000000000000000E+00 
    8.3333333333333337E-01     4.9999999999951827E-01     0.0000000000000000E+00 
    1.6666666666666671E-01     5.0000000000088307E-01     0.0000000000000000E+00 
    8.3333333333333329E-02     7.5000000000070155E-01     0.0000000000000000E+00 
    9.1666666666666674E-01     7.4999999999956468E-01     0.0000000000000000E+00 
    5.0000000000088307E-01     8.3333333333333348E-01     0.0000000000000000E+00 
    2.5000000000068640E-01     9.1666666666666674E-01     0.0000000000000000E+00 
    7.5000000000070155E-01     9.1666666666666674E-01     0.0000000000000000E+00 
[...]
CELL_DATA 768 
SCALARS Pressure double 1 
LOOKUP_TABLE default 

    2.1240458993468363E+00 
    2.0305232771468105E+00 
    2.0003731654438375E+00 
    2.0576090172557961E+00 
    1.9691484313732466E+00 
    1.9221000972885196E+00 
    1.9179236611775647E+00 
    1.9559273493685529E+00 
    1.9422777197720906E+00 
    1.9128592039731493E+00 
    1.9070722597752476E+00 
    1.9285560252324205E+00 
    2.0081839521499627E+00 
    1.9735577432897282E+00 
    1.9494790394867549E+00 
    1.9697937271844039E+00 
    1.8803937948603757E+00 
    1.8402401298046183E+00 
    1.8477601552625886E+00 
    1.8823651844530749E+00 
    1.7996839623594556E+00 
    1.7577976905161263E+00 
    1.7772478431998293E+00 
    1.8129824652861857E+00 
    1.8255449496023239E+00 
    1.7959503125766370E+00 
    1.8135916673039478E+00 
    1.8371388881767321E+00 
    1.8835279101026767E+00 
    1.8545355710752041E+00 
    1.8604175424365943E+00 
    1.8838825765299536E+00 
    1.9377063067400619E+00 
    1.9247302494903751E+00 
    1.9006179743975891E+00 
    1.9103941565637685E+00 
    1.9096039978926267E+00 
    1.8927486678173804E+00 
    1.8717062861237070E+00 
    1.8874864071034771E+00 
    1.8669774932781913E+00 
    1.8512985208748445E+00 
    1.8310381103596443E+00 
    1.8474701905839064E+00 
    1.8876024977082806E+00 
    1.8794316305541245E+00 
    1.8607136453812976E+00 
    1.8693568290130820E+00 
    2.1240915459674339E+00 
    2.0576707033105097E+00 
    2.0005910026006020E+00 
    2.0307282509226301E+00 
    2.0082580265482712E+00 
    1.9698673653917960E+00 
    1.9496819196309647E+00 
    1.9737703548600842E+00 
    1.9426058829190345E+00 
    1.9288382685403891E+00 
    1.9073985594340854E+00 
    1.9132350419814690E+00 
    1.9694959098782232E+00 
    1.9562699320212937E+00 
    1.9183393598480682E+00 
    1.9225254859132253E+00 
    1.9377811029419107E+00 
    1.9104575702983990E+00 
    1.9007742000793575E+00 
    1.9249203860013122E+00 
    1.8876332934239839E+00 
    1.8693997993900575E+00 
    1.8607570192439320E+00 
    1.8795206134322258E+00 
    1.8670566768084604E+00 
    1.8474019402630233E+00 
    1.8308392770608193E+00 
    1.8513010714776990E+00 
    1.9098543690855074E+00 
    1.8876676436098543E+00 
    1.8718653671669940E+00 
    1.8930076694730722E+00 
    1.8807613168695823E+00 
    1.8827169337343637E+00 
    1.8478969801203544E+00 
    1.8403414189492195E+00 
    1.8838433618634103E+00 
    1.8841442801345276E+00 
    1.8605405111938094E+00 
    1.8546638650859910E+00 
    1.8254398199701298E+00 
    1.8370607957980236E+00 
    1.8132736082983154E+00 
    1.7955934060066585E+00 
    1.7995008233703875E+00 
    1.8128431469452209E+00 
    1.7768851151386902E+00 
    1.7574327002399073E+00 
    1.6901332817968973E+00 
    1.6443792304751104E+00 
    1.6285196655261658E+00 
    1.6684512179541720E+00 
    1.5987342341071733E+00 
    1.5550148611405745E+00 
    1.5512164912247328E+00 
    1.5889586600527217E+00 
    1.5781432902148447E+00 
    1.5463164159093929E+00 
    1.5402250021216706E+00 
    1.5660058996116228E+00 
    1.6458685291009032E+00 
    1.6117053016658029E+00 
    1.5935102892544142E+00 
    1.6219108722425897E+00 
    1.5155762816035110E+00 
    1.4828266903418683E+00 
    1.4866463272795689E+00 
    1.5166556208675099E+00 
    1.4588786992485199E+00 
    1.4446892410359926E+00 
    1.4467002890362375E+00 
    1.4630252180502847E+00 
    1.4657951894981527E+00 
    1.4476281453578030E+00 
    1.4477088059385212E+00 
    1.4673317211540038E+00 
    1.5165137542589036E+00 
    1.4889953967199105E+00 
    1.4900642689921091E+00 
    1.5151808968638512E+00 
    1.5942327134359044E+00 
    1.5686532084828493E+00 
    1.5360095554581676E+00 
    1.5613141793492467E+00 
    1.5448251661634407E+00 
    1.5233871866951507E+00 
    1.4972550986742568E+00 
    1.5147432652515149E+00 
    1.4831133329439858E+00 
    1.4718844564137092E+00 
    1.4481940633919510E+00 
    1.4507899752192388E+00 
    1.5216844803817331E+00 
    1.4987801669347116E+00 
    1.4559304367745920E+00 
    1.4681505301654119E+00 
    1.7243590343057860E+00 
    1.7001243990966024E+00 
    1.7235251639573861E+00 
    1.7472650376741228E+00 
    1.6750133019597784E+00 
    1.6487302556507861E+00 
    1.6736108798750466E+00 
    1.6990281846747304E+00 
    1.7226272599418342E+00 
    1.6980957145925037E+00 
    1.7219483980476582E+00 
    1.7455997935727481E+00 
    1.7694538411309273E+00 
    1.7463883334889669E+00 
    1.7685058859524252E+00 
    1.7907180133885678E+00 
    1.6224775066010475E+00 
    1.5961163704495476E+00 
    1.6339999887342953E+00 
    1.6517848786513054E+00 
    1.5676611133525056E+00 
    1.5364204338617082E+00 
    1.5963562767561814E+00 
    1.6155392997753981E+00 
    1.6597812565875594E+00 
    1.6494055755507953E+00 
    1.6979274836160847E+00 
    1.7011847015764405E+00 
    1.6803489791879813E+00 
    1.6701280740205520E+00 
    1.7045664439174106E+00 
    1.7080044333534350E+00 
    1.8093729233711415E+00 
    1.7855213015125346E+00 
    1.7978195443506089E+00 
    1.8253397075850732E+00 
    1.7606452607477783E+00 
    1.7347236410081619E+00 
    1.7372160131454968E+00 
    1.7683971351889047E+00 
    1.7760401550757436E+00 
    1.7397699404317402E+00 
    1.7423945543013650E+00 
    1.7835985836514829E+00 
    1.8398387014430939E+00 
    1.8095599464231023E+00 
    1.8207795767353692E+00 
    1.8527376569666094E+00 
    1.4411749951858397E+00 
    1.4245661902582976E+00 
    1.4187488069085112E+00 
    1.4379012703402398E+00 
    1.3957494686572764E+00 
    1.3554013920754253E+00 
    1.3535790624740038E+00 
    1.3904083748689449E+00 
    1.3860850907053903E+00 
    1.3527991335160048E+00 
    1.3530763572546989E+00 
    1.3828408937234105E+00 
    1.4345182920312070E+00 
    1.4135671151705611E+00 
    1.4091126009520460E+00 
    1.4311959006323509E+00 
    1.3060308736313389E+00 
    1.2490166717036024E+00 
    1.2617770127259083E+00 
    1.3106339568320780E+00 
    1.1865499223687470E+00 
    1.1199376059919925E+00 
    1.1520173566847598E+00 
    1.2085651491107343E+00 
    1.2307693827532709E+00 
    1.1838211715400360E+00 
    1.2159466884268875E+00 
    1.2538059895502101E+00 
    1.3160073414148927E+00 
    1.2751644006384106E+00 
    1.2895366499058170E+00 
    1.3223759231337477E+00 
    1.4266479327184634E+00 
    1.4007656014393215E+00 
    1.3848713654731946E+00 
    1.4194928035236838E+00 
    1.3721939223952404E+00 
    1.3418376350329397E+00 
    1.3147053048639061E+00 
    1.3496486664801961E+00 
    1.3226946192755240E+00 
    1.2843366472558917E+00 
    1.2512627693674307E+00 
    1.2909536326468987E+00 
    1.4097240144353791E+00 
    1.3642509587427094E+00 
    1.3359384650524562E+00 
    1.3931579752425998E+00 
    1.3184734813452115E+00 
    1.2820621363401803E+00 
    1.2218037551211396E+00 
    1.2459480721086440E+00 
    1.2474943260021787E+00 
    1.2140918749388816E+00 
    1.1741937214360780E+00 
    1.1979149245373244E+00 
    1.1480844246142161E+00 
    1.1336525476590358E+00 
    1.0924621641424954E+00 
    1.0976033925117554E+00 
    1.1764207328654925E+00 
    1.1623072856652754E+00 
    1.1025359435577853E+00 
    1.1072454782098189E+00 
    1.1791713814245712E+00 
    1.1423285020086258E+00 
    1.1065474315602648E+00 
    1.1438310498338251E+00 
    1.1054685628827585E+00 
    1.0675015515551649E+00 
    1.0296689152696725E+00 
    1.0687023168114109E+00 
    1.0312345008500072E+00 
    9.9132806944931406E-01 
    9.5315161969026763E-01 
    9.9345949107801068E-01 
    1.1077283630198729E+00 
    1.0698926172492087E+00 
    1.0326793005885204E+00 
    1.0709491210611111E+00 
    1.0377718418649864E+00 
    1.0421768290183275E+00 
    9.8055261942955252E-01 
    9.6694851479396948E-01 
    1.0463560536046339E+00 
    1.0503575363520166E+00 
    1.0072251891150878E+00 
    9.9388496768099910E-01 
    9.4086210475269583E-01 
    9.6319650667779388E-01 
    9.1828824153785815E-01 
    8.8762781655698264E-01 
    8.9750571420225067E-01 
    9.1896858009232585E-01 
    8.5910094572365303E-01 
    8.3307597908573738E-01 
    1.8529366242753917E+00 
    1.8205024185165857E+00 
    1.8090815064124843E+00 
    1.8397698377690366E+00 
    1.7826253327801465E+00 
    1.7407873372956939E+00 
    1.7383141202091230E+00 
    1.7750251892392823E+00 
    1.7673822635487892E+00 
    1.7359021566810016E+00 
    1.7335461343817347E+00 
    1.7596624879622589E+00 
    1.8250618565935008E+00 
    1.7971935769688971E+00 
    1.7848082281234343E+00 
    1.8089339308884822E+00 
    1.6963861578552839E+00 
    1.6486681864944017E+00 
    1.6589807811322859E+00 
    1.6997937977733653E+00 
    1.5966094952383305E+00 
    1.5372340348025522E+00 
    1.5681427885320227E+00 
    1.6154781819136816E+00 
    1.6337241066618484E+00 
    1.5962987830581152E+00 
    1.6224345890059626E+00 
    1.6513925100047542E+00 
    1.7033006236801145E+00 
    1.6692992689694224E+00 
    1.6795468210216662E+00 
    1.7068729741738073E+00 
    1.7901623017914161E+00 
    1.7677150716383450E+00 
    1.7456590406493429E+00 
    1.7689187942214371E+00 
    1.7446265058002954E+00 
    1.7208854008447345E+00 
    1.6972827915520063E+00 
    1.7218163186073761E+00 
    1.6984437665240579E+00 
    1.6731248426646226E+00 
    1.6485055656691050E+00 
    1.6746439237202828E+00 
    1.7467934987988629E+00 
    1.7229718566996426E+00 
    1.6997092327446057E+00 
    1.7239737991740247E+00 
    1.6898400137902541E+00 
    1.6681914283541661E+00 
    1.6284676525607873E+00 
    1.6442731653817741E+00 
    1.6457012335396513E+00 
    1.6219105279797137E+00 
    1.5936982506454709E+00 
    1.6117468725029336E+00 
    1.5783427778371786E+00 
    1.5662983370564934E+00 
    1.5405538651263366E+00 
    1.5465374819992224E+00 
    1.5987959198411064E+00 
    1.5890611558888528E+00 
    1.5513440310583255E+00 
    1.5550703456438837E+00 
    1.5944433540403153E+00 
    1.5617790039517028E+00 
    1.5365780195870802E+00 
    1.5690017762055803E+00 
    1.5223812889736745E+00 
    1.4689883664439869E+00 
    1.4568152471271785E+00 
    1.4995195963377113E+00 
    1.4838170227182641E+00 
    1.4516044544934268E+00 
    1.4488218838480240E+00 
    1.4724433521112992E+00 
    1.5452403002058330E+00 
    1.5153158483766485E+00 
    1.4977513096044495E+00 
    1.5237937692407695E+00 
    1.5155938327010998E+00 
    1.5167406229245126E+00 
    1.4865692374392467E+00 
    1.4826098590852381E+00 
    1.5166887891005503E+00 
    1.5154675828467927E+00 
    1.4903559963041051E+00 
    1.4890859900723266E+00 
    1.4658012489213823E+00 
    1.4676003239662418E+00 
    1.4479958736007390E+00 
    1.4476319660920804E+00 
    1.4585306090382524E+00 
    1.4628271929520222E+00 
    1.4464594991129935E+00 
    1.4443354150687491E+00 
    1.0126763160531651E+00 
    9.3547545953149247E-01 
    9.0932980744385772E-01 
    9.7785929726056098E-01 
    8.5212624432548811E-01 
    7.5919107194507174E-01 
    7.5473862043575035E-01 
    8.3584496203079828E-01 
    8.2126518077079935E-01 
    7.5269237879351225E-01 
    7.5302166311438501E-01 
    8.0898462021965478E-01 
    9.4298105248567066E-01 
    8.8406844563563491E-01 
    8.6057159679886341E-01 
    9.0914398982936362E-01 
    6.5113426114319817E-01 
    5.1370152573704486E-01 
    5.5578399075588758E-01 
    6.6366433537659397E-01 
    3.1670885726046227E-01 
    0.0000000000000000E+00 
    2.3238271384332029E-01 
    4.1878229715619830E-01 
    5.0429897954336222E-01 
    3.9482271978486494E-01 
    5.1677417684150373E-01 
    5.7806947664703723E-01 
    6.7845374881335285E-01 
    5.9729853209572881E-01 
    6.3757362378796034E-01 
    6.9481032445407997E-01 
    8.7477757222088737E-01 
    8.3125053582922070E-01 
    7.9754247887378082E-01 
    8.4160044183738014E-01 
    7.8435350309425078E-01 
    7.3265623837040028E-01 
    6.9032388576410897E-01 
    7.4778265554136625E-01 
    7.1582332645451208E-01 
    6.5003627640353256E-01 
    6.1348111663858218E-01 
    6.9066985060959063E-01 
    8.1433834947259354E-01 
    7.6991887147534854E-01 
    7.5097375985035209E-01 
    7.9632304940415255E-01 
    1.3197212009146246E+00 
    1.2462335639470346E+00 
    1.2217556664549551E+00 
    1.2828844972177815E+00 
    1.1753676068286638E+00 
    1.1050289902256321E+00 
    1.1004219894619327E+00 
    1.1611483000031688E+00 
    1.1468195303629518E+00 
    1.0956225469287688E+00 
    1.0906559477282995E+00 
    1.1324049665587983E+00 
    1.2479454737603948E+00 
    1.1975706228501781E+00 
    1.1736264778935430E+00 
    1.2142129502222874E+00 
    1.0352320356626010E+00 
    9.6542370102261521E-01 
    9.7890619516818278E-01 
    1.0398491564617234E+00 
    8.9719460723954780E-01 
    8.3347627458928852E-01 
    8.5932312438553116E-01 
    9.1836513962543964E-01 
    9.4003212661449453E-01 
    8.8763514451229031E-01 
    9.1810512309984715E-01 
    9.6230972705758377E-01 
    1.0442628840060129E+00 
    9.9231538697095656E-01 
    1.0057358021496923E+00 
    1.0485333781428636E+00 
    1.1790110122171773E+00 
    1.1430548746185072E+00 
    1.1056170238073744E+00 
    1.1419275275002232E+00 
    1.1064134807749215E+00 
    1.0692852027176545E+00 
    1.0312149167338409E+00 
    1.0686111622832239E+00 
    1.0302050262824325E+00 
    9.9244594371693995E-01 
    9.5275516732931642E-01 
    9.9082318852763251E-01 
    1.1049920321272499E+00 
    1.0678669281884936E+00 
    1.0291332350840827E+00 
    1.0671200730988555E+00 
    1.3941422302960655E+00 
    1.3369607268661250E+00 
    1.3653789255603270E+00 
    1.4107476223250681E+00 
    1.2918424792379495E+00 
    1.2519423995714312E+00 
    1.2854334556374531E+00 
    1.3238661433108210E+00 
    1.3509350504048678E+00 
    1.3160969002789524E+00 
    1.3433253046686067E+00 
    1.3734965426232866E+00 
    1.4204509810400829E+00 
    1.3860505039842166E+00 
    1.4018359228012409E+00 
    1.4274477997818023E+00 
    1.2164271454333513E+00 
    1.1840452992562704E+00 
    1.2317403982582367E+00 
    1.2548466483620540E+00 
    1.1519615315116871E+00 
    1.1196350053979969E+00 
    1.1870811274910240E+00 
    1.2093523791837573E+00 
    1.2633530120038639E+00 
    1.2505619663869267E+00 
    1.3079999315424726E+00 
    1.3125209333108918E+00 
    1.2909756176580096E+00 
    1.2766878135388253E+00 
    1.3177799877148710E+00 
    1.3240018380414187E+00 
    1.4316876113888952E+00 
    1.4099627059110713E+00 
    1.4142314710275519E+00 
    1.4347371407959901E+00 
    1.3840633603222541E+00 
    1.3546220232555872E+00 
    1.3544436257288655E+00 
    1.3872809559969090E+00 
    1.3915095191688525E+00 
    1.3553169167433030E+00 
    1.3571912418825871E+00 
    1.3967597428359884E+00 
    1.4378508338465399E+00 
    1.4192135171279823E+00 
    1.4248361240928720E+00 
    1.4409383421385744E+00 
    7.9654879376215870E-01 
    7.5127992827421741E-01 
    7.7074919655092344E-01 
    8.1489413365766161E-01 
    6.9104834560656436E-01 
    6.1388602526171276E-01 
    6.5117121583510107E-01 
    7.1688270568551349E-01 
    7.4929708447463161E-01 
    6.9205941234819746E-01 
    7.3473307939187438E-01 
    7.8608224691621087E-01 
    8.4221352082482059E-01 
    7.9869674738903074E-01 
    8.3243729433036084E-01 
    8.7530452947180359E-01 
    5.1717028310752255E-01 
    3.9514610806931072E-01 
    5.0547998404387084E-01 
    5.7926159912601127E-01 
    2.3255544411465232E-01 
    0.0000000000000000E+00 
    3.1728031003224372E-01 
    4.1970278618017537E-01 
    5.5770726516076985E-01 
    5.1535499876618429E-01 
    6.5384714919593612E-01 
    6.6632412744467717E-01 
    6.3944023874225109E-01 
    5.9925901948478311E-01 
    6.8098446314555150E-01 
    6.9708496879991699E-01 
    9.0947467947114458E-01 
    8.6166460848910720E-01 
    8.8509352063898650E-01 
    9.4314792888927446E-01 
    8.1078445401414534E-01 
    7.5530048644211767E-01 
    7.5520858066492713E-01 
    8.2319252581029512E-01 
    8.3773654883176674E-01 
    7.5740158185296969E-01 
    7.6187679848974643E-01 
    8.5386876030363679E-01 
    9.7786593047031267E-01 
    9.1017344619911289E-01 
    9.3608009224151900E-01 
    1.0125348310451996E+00 
    1.4306953664002755E+00 
    1.5036168795583984E+00 
    1.4966849041729591E+00 
    1.4295498963989677E+00 
    1.5736346543051181E+00 
    1.6399244515653186E+00 
    1.6226858273858018E+00 
    1.5612577708396285E+00 
    1.5507536629275880E+00 
    1.6069222113988169E+00 
    1.5923533587984016E+00 
    1.5418796252714864E+00 
    1.4301946559597227E+00 
    1.4917582836152883E+00 
    1.4886298363953936E+00 
    1.4325224569392137E+00 
    1.7004340024087494E+00 
    1.7549544909188537E+00 
    1.7250672662361271E+00 
    1.6769651768708043E+00 
    1.8040145758569990E+00 
    1.8475845790904577E+00 
    1.8131274484886435E+00 
    1.7702417853954693E+00 
    1.7352476559671677E+00 
    1.7748265979131208E+00 
    1.7330332850907553E+00 
    1.6988687464498460E+00 
    1.6545077147606477E+00 
    1.6954639755020413E+00 
    1.6658007711706828E+00 
    1.6327480508806176E+00 
    1.4400282804946429E+00 
    1.4969306690551154E+00 
    1.5180075563998157E+00 
    1.4539868909181095E+00 
    1.5496601170321913E+00 
    1.5989437528454060E+00 
    1.6267355874157181E+00 
    1.5748507512296404E+00 
    1.6024978942488302E+00 
    1.6555945146282374E+00 
    1.6867551344977363E+00 
    1.6345327607991722E+00 
    1.4724899512266123E+00 
    1.5430638183554271E+00 
    1.5754357142027127E+00 
    1.5012637994176978E+00 
    1.3555620485376771E+00 
    1.2795287578890384E+00 
    1.2895795582554244E+00 
    1.3597905940835360E+00 
    1.2032892484983007E+00 
    1.1274387089960516E+00 
    1.1498251252531755E+00 
    1.2194676099460382E+00 
    1.2357472218941712E+00 
    1.1721924013207103E+00 
    1.1946656967532436E+00 
    1.2522303508806345E+00 
    1.3651209525007866E+00 
    1.3000962541312302E+00 
    1.3110511277527919E+00 
    1.3714020553813910E+00 
    1.0540507459762201E+00 
    9.8336706896696635E-01 
    1.0268586798253627E+00 
    1.0857175422838674E+00 
    9.1426603080605173E-01 
    8.4725064738821598E-01 
    9.1103575025389516E-01 
    9.6864879019028383E-01 
    1.0242984912337916E+00 
    9.7798335313518081E-01 
    1.0464696903971891E+00 
    1.0808103769369666E+00 
    1.1174355656429795E+00 
    1.0707849485399228E+00 
    1.1151011705555018E+00 
    1.1493482251884743E+00 
    1.3744038685574165E+00 
    1.3115035210602748E+00 
    1.2996086608645769E+00 
    1.3722152964713208E+00 
    1.2515739654301825E+00 
    1.1936647932474207E+00 
    1.1685601662658152E+00 
    1.2325513883354107E+00 
    1.2121332125941386E+00 
    1.1429829466884871E+00 
    1.1168560618126731E+00 
    1.1898338438672762E+00 
    1.3663460666957834E+00 
    1.2849577219008015E+00 
    1.2658889733033838E+00 
    1.3532659375506704E+00 
    1.5020950762070506E+00 
    1.5756808474508872E+00 
    1.5430186530449774E+00 
    1.4729130502204397E+00 
    1.6338146359113255E+00 
    1.6852284597033278E+00 
    1.6544044664694169E+00 
    1.6018372837094923E+00 
    1.5742409842493741E+00 
    1.6257995741295339E+00 
    1.5982160513397936E+00 
    1.5491276019256726E+00 
    1.4540304885124984E+00 
    1.5177736517018985E+00 
    1.4965881722932703E+00 
    1.4398082740264482E+00 
    1.7314281299169769E+00 
    1.7738520166973137E+00 
    1.7343839208828877E+00 
    1.6976243549380767E+00 
    1.8128551178679961E+00 
    1.8477552371621149E+00 
    1.8039937473344791E+00 
    1.7698638438395136E+00 
    1.7246669438366924E+00 
    1.7548493600998329E+00 
    1.7003148297316730E+00 
    1.6766134984753280E+00 
    1.6648280528107253E+00 
    1.6947385188870896E+00 
    1.6539301656406395E+00 
    1.6319993141411850E+00 
    1.4321324973825351E+00 
    1.4882197317992301E+00 
    1.4913775685441468E+00 
    1.4297913667641677E+00 
    1.5413813233909359E+00 
    1.5917415004700388E+00 
    1.6064367610310335E+00 