# vtk DataFile Version 2.0
Pressure Field Data 
ASCII 
DATASET UNSTRUCTURED_GRID 

POINTS 801 double 

    0.0000000000000000E+00     0.0000000000000000E+00     0.0000000000000000E+00 
    1.0000000000000000E+00     0.0000000000000000E+00     0.0000000000000000E+00 
    1.0000000000000000E+00     1.0000000000000000E+00     0.0000000000000000E+00 
    0.0000000000000000E+00     1.0000000000000000E+00     0.0000000000000000E+00 
    2.5000000000000000E-01     2.5000000000000000E-01     0.0000000000000000E+00 
    7.5000000000000000E-01     2.5000000000000000E-01     0.0000000000000000E+00 
    7.5000000000000000E-01     7.5000000000000000E-01     0.0000000000000000E+00 
    2.5000000000000000E-01     7.5000000000000000E-01     0.0000000000000000E+00 
    2.4999999999941941E-01     0.0000000000000000E+00     0.0000000000000000E+00 
    4.9999999999869399E-01     0.0000000000000000E+00     0.0000000000000000E+00 
    7.4999999999934697E-01     0.0000000000000000E+00     0.0000000000000000E+00 
    1.2499999999977940E-01     0.0000000000000000E+00     0.0000000000000000E+00 
    3.7499999999905670E-01     0.0000000000000000E+00     0.0000000000000000E+00 
    6.2499999999902045E-01     0.0000000000000000E+00     0.0000000000000000E+00 
    8.7499999999967348E-01     0.0000000000000000E+00     0.0000000000000000E+00 
    6.2499999999889699E-02     0.0000000000000000E+00     0.0000000000000000E+00 
    1.8749999999959940E-01     0.0000000000000000E+00     0.0000000000000000E+00 
    3.1249999999923811E-01     0.0000000000000000E+00     0.0000000000000000E+00 
    4.3749999999887529E-01     0.0000000000000000E+00     0.0000000000000000E+00 
    5.6249999999885725E-01     0.0000000000000000E+00     0.0000000000000000E+00 
    6.8749999999918376E-01     0.0000000000000000E+00     0.0000000000000000E+00 
    8.1249999999951017E-01     0.0000000000000000E+00     0.0000000000000000E+00 
    9.3749999999983680E-01     0.0000000000000000E+00     0.0000000000000000E+00 
    1.0000000000000000E+00     2.4999999999941941E-01     0.0000000000000000E+00 
    1.0000000000000000E+00     4.9999999999869399E-01     0.0000000000000000E+00 
    1.0000000000000000E+00     7.4999999999934697E-01     0.0000000000000000E+00 
    1.0000000000000000E+00     1.2499999999977940E-01     0.0000000000000000E+00 
    1.0000000000000000E+00     3.7499999999905670E-01     0.0000000000000000E+00 
    1.0000000000000000E+00     6.2499999999902045E-01     0.0000000000000000E+00 
    1.0000000000000000E+00     8.7499999999967348E-01     0.0000000000000000E+00 
    1.0000000000000000E+00     6.2499999999889699E-02     0.0000000000000000E+00 
    1.0000000000000000E+00     1.8749999999959940E-01     0.0000000000000000E+00 
    1.0000000000000000E+00     3.1249999999923811E-01     0.0000000000000000E+00 
    1.0000000000000000E+00     4.3749999999887529E-01     0.0000000000000000E+00 
    1.0000000000000000E+00     5.6249999999885725E-01     0.0000000000000000E+00 
    1.0000000000000000E+00     6.8749999999918376E-01     0.0000000000000000E+00 
    1.0000000000000000E+00     8.1249999999951017E-01     0.0000000000000000E+00 
    1.0000000000000000E+00     9.3749999999983680E-01     0.0000000000000000E+00 
    7.5000000000112044E-01     1.0000000000000000E+00     0.0000000000000000E+00 
    5.0000000000205913E-01     1.0000000000000000E+00     0.0000000000000000E+00 
    2.5000000000102962E-01     1.0000000000000000E+00     0.0000000000000000E+00 
    8.7499999999991362E-01     1.0000000000000000E+00     0.0000000000000000E+00 
    6.2499999999988309E-01     1.0000000000000000E+00     0.0000000000000000E+00 
    3.7499999999869987E-01     1.0000000000000000E+00     0.0000000000000000E+00 
    1.2499999999880820E-01     1.0000000000000000E+00     0.0000000000000000E+00 
    9.3749999999995681E-01     1.0000000000000000E+00     0.0000000000000000E+00 
    8.1250000000051703E-01     1.0000000000000000E+00     0.0000000000000000E+00 
    6.8750000000050182E-01     1.0000000000000000E+00     0.0000000000000000E+00 
    5.6250000000097111E-01     1.0000000000000000E+00     0.0000000000000000E+00 
    4.3750000000037947E-01     1.0000000000000000E+00     0.0000000000000000E+00 
    3.1249999999986477E-01     1.0000000000000000E+00     0.0000000000000000E+00 
    1.8749999999991890E-01     1.0000000000000000E+00     0.0000000000000000E+00 
    6.2499999999404102E-02     1.0000000000000000E+00     0.0000000000000000E+00 
    0.0000000000000000E+00     7.5000000000112044E-01     0.0000000000000000E+00 
    0.0000000000000000E+00     5.0000000000205913E-01     0.0000000000000000E+00 
    0.0000000000000000E+00     2.5000000000102962E-01     0.0000000000000000E+00 
    0.0000000000000000E+00     8.7499999999991362E-01     0.0000000000000000E+00 
    0.0000000000000000E+00     6.2499999999988309E-01     0.0000000000000000E+00 
    0.0000000000000000E+00     3.7499999999869987E-01     0.0000000000000000E+00 
    0.0000000000000000E+00     1.2499999999880820E-01     0.0000000000000000E+00 
    0.0000000000000000E+00     9.3749999999995681E-01     0.0000000000000000E+00 
    0.0000000000000000E+00     8.1250000000051703E-01     0.0000000000000000E+00 
    0.0000000000000000E+00     6.8750000000050182E-01     0.0000000000000000E+00 
    0.0000000000000000E+00     5.6250000000097111E-01     0.0000000000000000E+00 
    0.0000000000000000E+00     4.3750000000037947E-01     0.0000000000000000E+00 
    0.0000000000000000E+00     3.1249999999986477E-01     0.0000000000000000E+00 
    0.0000000000000000E+00     1.8749999999991890E-01     0.0000000000000000E+00 
    0.0000000000000000E+00     6.2499999999404102E-02     0.0000000000000000E+00 
    4.9999999999972200E-01     2.5000000000000000E-01     0.0000000000000000E+00 
    3.7500000000067490E-01     2.5000000000000000E-01     0.0000000000000000E+00 
    6.2500000000042988E-01     2.5000000000000000E-01     0.0000000000000000E+00 
    3.1250000000033751E-01     2.5000000000000000E-01     0.0000000000000000E+00 
    4.3750000000019851E-01     2.5000000000000000E-01     0.0000000000000000E+00 
    5.6250000000007594E-01     2.5000000000000000E-01     0.0000000000000000E+00 
    6.8750000000021494E-01     2.5000000000000000E-01     0.0000000000000000E+00 
    7.5000000000000000E-01     4.9999999999972200E-01     0.0000000000000000E+00 
    7.5000000000000000E-01     3.7500000000067490E-01     0.0000000000000000E+00 
    7.5000000000000000E-01     6.2500000000042988E-01     0.0000000000000000E+00 
    7.5000000000000000E-01     3.1250000000033751E-01     0.0000000000000000E+00 
    7.5000000000000000E-01     4.3750000000019851E-01     0.0000000000000000E+00 
    7.5000000000000000E-01     5.6250000000007594E-01     0.0000000000000000E+00 
    7.5000000000000000E-01     6.8750000000021494E-01     0.0000000000000000E+00 
    5.0000000000118039E-01     7.5000000000000000E-01     0.0000000000000000E+00 
    6.2500000000161415E-01     7.5000000000000000E-01     0.0000000000000000E+00 
    3.7500000000140910E-01     7.5000000000000000E-01     0.0000000000000000E+00 
    6.8750000000080713E-01     7.5000000000000000E-01     0.0000000000000000E+00 
    5.6250000000139733E-01     7.5000000000000000E-01     0.0000000000000000E+00 
    4.3750000000129469E-01     7.5000000000000000E-01     0.0000000000000000E+00 
    3.1250000000070460E-01     7.5000000000000000E-01     0.0000000000000000E+00 
    2.5000000000000000E-01     5.0000000000118039E-01     0.0000000000000000E+00 
    2.5000000000000000E-01     6.2500000000161415E-01     0.0000000000000000E+00 
    2.5000000000000000E-01     3.7500000000140910E-01     0.0000000000000000E+00 
    2.5000000000000000E-01     6.8750000000080713E-01     0.0000000000000000E+00 
    2.5000000000000000E-01     5.6250000000139733E-01     0.0000000000000000E+00 
    2.5000000000000000E-01     4.3750000000129469E-01     0.0000000000000000E+00 
    2.5000000000000000E-01     3.1250000000070460E-01     0.0000000000000000E+00 
    3.7499999999934702E-01     1.2500000000000000E-01     0.0000000000000000E+00 
    1.2500000000000000E-01     1.2500000000000000E-01     0.0000000000000000E+00 
    1.2500000000000000E-01     3.7500000000102962E-01     0.0000000000000000E+00 
    8.7500000000000000E-01     1.2500000000000000E-01     0.0000000000000000E+00 
    6.2499999999934697E-01     1.2500000000000000E-01     0.0000000000000000E+00 
    8.7500000000000000E-01     3.7499999999934702E-01     0.0000000000000000E+00 
    8.7500000000000000E-01     6.2499999999934697E-01     0.0000000000000000E+00 
    1.2500000000000000E-01     6.2500000000102962E-01     0.0000000000000000E+00 
    1.2500000000000000E-01     8.7500000000000000E-01     0.0000000000000000E+00 
    8.7500000000000000E-01     8.7500000000000000E-01     0.0000000000000000E+00 
    6.2500000000102962E-01     8.7500000000000000E-01     0.0000000000000000E+00 
    3.7500000000102962E-01     8.7500000000000000E-01     0.0000000000000000E+00 
    2.4999999999957681E-01     8.3333333333333329E-02     0.0000000000000000E+00 
    8.3333333333333329E-02     2.5000000000068640E-01     0.0000000000000000E+00 
    7.4999999999956468E-01     8.3333333333333329E-02     0.0000000000000000E+00 
    4.9999999999951827E-01     1.6666666666666671E-01     0.0000000000000000E+00 
    9.1666666666666674E-01     2.4999999999957681E-01     0.0000000000000000E+00 
    8.3333333333333337E-01     4.9999999999951827E-01     0.0000000000000000E+00 
    1.6666666666666671E-01     5.0000000000088307E-01     0.0000000000000000E+00 
    8.3333333333333329E-02     7.5000000000070155E-01     0.0000000000000000E+00 
    9.1666666666666674E-01     7.4999999999956468E-01     0.0000000000000000E+00 
    5.0000000000088307E-01     8.3333333333333348E-01     0.0000000000000000E+00 
    2.5000000000068640E-01     9.1666666666666674E-01     0.0000000000000000E+00 
    7.5000000000070155E-01     9.1666666666666674E-01     0.0000000000000000E+00 
[...]
CELL_DATA 768 
SCALARS Pressure double 1 
LOOKUP_TABLE default 

    2.3136283231237651E+00 
    2.2196879067278865E+00 
    2.1892813529341852E+00 
    2.2469680061886983E+00 
    2.1575979277704112E+00 
    2.1094265868617539E+00 
    2.1051221359201491E+00 
    2.1441410684368067E+00 
    2.1301915092457970E+00 
    2.0998923524186455E+00 
    2.0939030422676579E+00 
    2.1161032791452024E+00 
    2.1971996106575484E+00 
    2.1621183145400198E+00 
    2.1375757443396770E+00 
    2.1582995639805924E+00 
    2.0661277388081216E+00 
    2.0240093750523527E+00 
    2.0319249228400751E+00 
    2.0681890067134767E+00 
    1.9811590136771471E+00 
    1.9366663037926997E+00 
    1.9573385106366814E+00 
    1.9952345230797872E+00 
    2.0085089913423855E+00 
    1.9771792541212754E+00 
    1.9958594867003012E+00 
    2.0207410525196918E+00 
    2.0694073176414860E+00 
    2.0390499077860711E+00 
    2.0452302503244875E+00 
    2.0697829241546555E+00 
    2.1255072389315472E+00 
    2.1121706001408445E+00 
    2.0872246483473722E+00 
    2.0973515512183196E+00 
    2.0965455044265986E+00 
    2.0790395856499337E+00 
    2.0570735488029981E+00 
    2.0735621484812929E+00 
    2.0521185651258347E+00 
    2.0356552344078334E+00 
    2.0142956320839831E+00 
    2.0316145210074756E+00 
    2.0736705954087378E+00 
    2.0651519113061787E+00 
    2.0455320305145759E+00 
    2.0545746152186268E+00 
    2.3136734229147100E+00 
    2.2470276418407780E+00 
    2.1894867874897419E+00 
    2.2198839519161742E+00 
    2.1972704840749260E+00 
    2.1583693170618559E+00 
    2.1377618980180584E+00 
    2.1623154275752161E+00 
    2.1304849439404721E+00 
    2.1163484190326307E+00 
    2.0941703891125778E+00 
    2.1002100688968479E+00 
    2.1579178034741928E+00 
    2.1444518045851186E+00 
    2.1054811680737684E+00 
    2.1097964527147091E+00 
    2.1255768702181177E+00 
    2.0974047088345005E+00 
    2.0873459129146883E+00 
    2.1123396382810053E+00 
    2.0736816643866103E+00 
    2.0545840412029106E+00 
    2.0454929465809668E+00 
    2.0651853560698781E+00 
    2.0521073415645277E+00 
    2.0314211904983761E+00 
    2.0139346884742735E+00 
    2.0355338640930891E+00 
    2.0967520089877665E+00 
    2.0736795836120083E+00 
    2.0571405711264430E+00 
    2.0792306005869357E+00 
    2.0664061546732886E+00 
    2.0684541033396555E+00 
    2.0319313294944612E+00 
    2.0239696368630433E+00 
    2.0696383369683362E+00 
    2.0699624603395286E+00 
    2.0452410754937556E+00 
    2.0390563468096077E+00 
    2.0082357176367278E+00 
    2.0205129085106379E+00 
    1.9953472129092911E+00 
    1.9766025324195493E+00 
    1.9807700642694979E+00 
    1.9949088776535246E+00 
    1.9567312594012316E+00 
    1.9360306059077816E+00 
    1.8644318660115402E+00 
    1.8154244563199957E+00 
    1.7983996470303238E+00 
    1.8411979384810278E+00 
    1.7664640041924138E+00 
    1.7195390677267908E+00 
    1.7154409069228962E+00 
    1.7559521990969542E+00 
    1.7442985118563441E+00 
    1.7101384283186454E+00 
    1.7035368099222574E+00 
    1.7312000670439001E+00 
    1.8169540431607065E+00 
    1.7803168706711292E+00 
    1.7607181123669202E+00 
    1.7911883236687429E+00 
    1.6772308526088893E+00 
    1.6421792943020448E+00 
    1.6462159002487191E+00 
    1.6783610998435379E+00 
    1.6167178958080830E+00 
    1.6018724866796246E+00 
    1.6038331386493916E+00 
    1.6210335225023824E+00 
    1.6238419515210223E+00 
    1.6045449144089918E+00 
    1.6043294293028336E+00 
    1.6253100718885916E+00 
    1.6781581448585507E+00 
    1.6486485474454458E+00 
    1.6496856924262429E+00 
    1.6766562007385257E+00 
    1.7613855425947915E+00 
    1.7339361719897752E+00 
    1.6987628645810524E+00 
    1.7259138112320220E+00 
    1.7083722439428306E+00 
    1.6853922867944446E+00 
    1.6572852375336491E+00 
    1.6759780541138636E+00 
    1.6419092310093211E+00 
    1.6300078150885264E+00 
    1.6045582030631711E+00 
    1.6070902975907304E+00 
    1.6831613247496979E+00 
    1.6586222992926314E+00 
    1.6123931037241295E+00 
    1.6253084528552402E+00 
    1.9010041169209591E+00 
    1.8750824597670399E+00 
    1.9000640402874729E+00 
    1.9254156435587724E+00 
    1.8481659858681156E+00 
    1.8199387941197867E+00 
    1.8465876158156975E+00 
    1.8738445778986030E+00 
    1.8990513990159457E+00 
    1.8727906346805674E+00 
    1.8982859039851214E+00 
    1.9235563347707620E+00 
    1.9490201424370990E+00 
    1.9244361942801171E+00 
    1.9479783637572992E+00 
    1.9716019431545515E+00 
    1.7916963919473694E+00 
    1.7633076838213044E+00 
    1.8039878908593352E+00 
    1.8231314470316475E+00 
    1.7326488467814765E+00 
    1.6989839411674401E+00 
    1.7634407741856699E+00 
    1.7841064806559990E+00 
    1.8316091594009192E+00 
    1.8204381962496652E+00 
    1.8724805711400019E+00 
    1.8759939621173645E+00 
    1.8537448835846577E+00 
    1.8427470735734475E+00 
    1.8796420552407174E+00 
    1.8833482602135481E+00 
    1.9913726677509549E+00 
    1.9660549256833237E+00 
    1.9790991018082642E+00 
    2.0082588918011002E+00 
    1.9395737282968317E+00 
    1.9119098186533672E+00 
    1.9145500884573803E+00 
    1.9478115333293355E+00 
    1.9559324490234111E+00 
    1.9172609682827437E+00 
    1.9200537874061825E+00 
    1.9639621369280058E+00 
    2.0235598692737629E+00 
    1.9915374729770348E+00 
    2.0034079719628139E+00 
    2.0371359812910965E+00 
    1.5982121966023211E+00 
    1.5802468277615704E+00 
    1.5737849615405481E+00 
    1.5945641831772801E+00 
    1.5488621151419095E+00 
    1.5047119744245949E+00 
    1.5026404041904500E+00 
    1.5429074926782875E+00 
    1.5379457702767219E+00 
    1.5016388873350883E+00 
    1.5017650460671264E+00 
    1.5341427149565610E+00 
    1.5905806405991021E+00 
    1.5678483531091281E+00 
    1.5626737574953027E+00 
    1.5866135513767483E+00 
    1.4507397310087140E+00 
    1.3884012027825210E+00 
    1.4023524989078755E+00 
    1.4557754313957687E+00 
    1.3201961162938958E+00 
    1.2474017931256223E+00 
    1.2824715864915242E+00 
    1.3442535439570971E+00 
    1.3684081898873728E+00 
    1.3171240828758013E+00 
    1.3520874107614826E+00 
    1.3934214344917244E+00 
    1.4615329816178895E+00 
    1.4168844542955432E+00 
    1.4324251577336005E+00 
    1.4683017358331933E+00 
    1.5813571299450790E+00 
    1.5533286814068279E+00 
    1.5358518662793137E+00 
    1.5733232740844385E+00 
    1.5223450632385356E+00 
    1.4893827241473598E+00 
    1.4597408590703826E+00 
    1.4976741410142533E+00 
    1.4682538589945953E+00 
    1.4265986359090408E+00 
    1.3905118180841780E+00 
    1.4336483815392513E+00 
    1.5625121433857625E+00 
    1.5133034817187843E+00 
    1.4824511568078040E+00 
    1.5444351238515253E+00 
    1.4634187669371088E+00 
    1.4238792596709859E+00 
    1.3582215693708826E+00 
    1.3845167596399510E+00 
    1.3863005311191081E+00 
    1.3499460790544822E+00 
    1.3063438997245551E+00 
    1.3322002552889294E+00 
    1.2776944038277920E+00 
    1.2619452900760537E+00 
    1.2167252076759922E+00 
    1.2223226122214579E+00 
    1.3086168460573782E+00 
    1.2932115288895640E+00 
    1.2276968412307281E+00 
    1.2328411514342636E+00 
    1.3119041432212699E+00 
    1.2717744922898755E+00 
    1.2324639753578392E+00 
    1.2732079464564019E+00 
    1.2316814788067805E+00 
    1.1900512144776996E+00 
    1.1480797743778621E+00 
    1.1910248580876699E+00 
    1.1495917941411860E+00 
    1.1056253501967117E+00 
    1.0632992353377133E+00 
    1.1078207673586875E+00 
    1.2335851517379393E+00 
    1.1920875838493372E+00 
    1.1510452782614498E+00 
    1.1931344090625018E+00 
    1.1564308363825715E+00 
    1.1613101268005146E+00 
    1.0933929292383322E+00 
    1.0783648335426363E+00 
    1.1659589375265114E+00 
    1.1704201179290623E+00 
    1.1229129807018206E+00 
    1.1081406136742060E+00 
    1.0495867062090092E+00 
    1.0743167254973909E+00 
    1.0246490220613900E+00 
    9.9069250128970654E-01 
    1.0016596606396464E+00 
    1.0253746477693924E+00 
    9.5915405855692060E-01 
    9.3043428336436229E-01 
    2.0372365032727910E+00 
    2.0029516406492265E+00 
    1.9908530660064985E+00 
    2.0233540565465278E+00 
    1.9627217343117500E+00 
    1.9180990477244699E+00 
    1.9154558122927834E+00 
    1.9546364648082395E+00 
    1.9465037467901463E+00 
    1.9128869851910921E+00 
    1.9103845977202301E+00 
    1.9382873953279682E+00 
    2.0078084043675228E+00 
    1.9782421441903804E+00 
    1.9650874708651302E+00 
    1.9907277903709766E+00 
    1.8705442542977138E+00 
    1.8192871674162006E+00 
    1.8304012871837865E+00 
    1.8742118586736725E+00 
    1.7632464140554565E+00 
    1.6992755685644085E+00 
    1.7326538007548660E+00 
    1.7836159864129040E+00 
    1.8032988217227377E+00 
    1.7630468350508028E+00 
    1.7912363299281893E+00 
    1.8223423938349024E+00 
    1.8779896372162266E+00 
    1.8415183476026857E+00 
    1.8525542158368797E+00 
    1.8818387147014277E+00 
    1.9708073852234640E+00 
    1.9469044193253213E+00 
    1.9234002751558748E+00 
    1.9482210382578373E+00 
    1.9222589137754640E+00 
    1.8968650039314785E+00 
    1.8716085142595300E+00 
    1.8978991851444322E+00 
    1.8729038355061791E+00 
    1.8457236115961373E+00 
    1.8193170317604959E+00 
    1.8474188881672426E+00 
    1.9246545050138817E+00 
    1.8991853649633321E+00 
    1.8743165592032234E+00 
    1.9003023861122790E+00 
    1.8637811849493044E+00 
    1.8405532920787930E+00 
    1.7979218731359563E+00 
    1.8149104979526594E+00 
    1.8163801399022734E+00 
    1.7907648190577377E+00 
    1.7604538933178495E+00 
    1.7799182526422037E+00 
    1.7440222381218826E+00 
    1.7310084358257105E+00 
    1.7033476461429005E+00 
    1.7098404425121503E+00 
    1.7660663800267260E+00 
    1.7555854284959462E+00 
    1.7150478544555328E+00 
    1.7190734926915052E+00 
    1.7611510390987559E+00 
    1.7258980623169891E+00 
    1.6988199541480413E+00 
    1.7338095794310533E+00 
    1.6833194311245130E+00 
    1.6255148994397974E+00 
    1.6126390028877968E+00 
    1.6587944522608702E+00 
    1.6420293015479157E+00 
    1.6072735803042579E+00 
    1.6045544354040646E+00 
    1.6299643534871948E+00 
    1.7082825986361982E+00 
    1.6760110126232577E+00 
    1.6572136571754850E+00 
    1.6852633496839931E+00 
    1.6766660220853591E+00 
    1.6778719771305910E+00 
    1.6455079885163024E+00 
    1.6413145552547699E+00 
    1.6777681302780330E+00 
    1.6763864950367848E+00 
    1.6493847896682523E+00 
    1.6481277898984219E+00 
    1.6231970386586889E+00 
    1.6249517538109450E+00 
    1.6039649970609029E+00 
    1.6038746160953707E+00 
    1.6156795160370601E+00 
    1.6201640154629808E+00 
    1.6028955153985451E+00 
    1.6008070832201160E+00 
    1.1297501044469902E+00 
    1.0438878751355265E+00 
    1.0148270753598327E+00 
    1.0910695532917771E+00 
    9.5095552240186154E-01 
    8.4751033678438370E-01 
    8.4270655133165018E-01 
    9.3297020494504779E-01 
    9.1689280138267670E-01 
    8.4063024743441317E-01 
    8.4114827979659901E-01 
    9.0333705947674425E-01 
    1.0522050074089893E+00 
    9.8674903084435273E-01 
    9.6066434064615747E-01 
    1.0145800460496486E+00 
    7.2789749690848204E-01 
    5.7546627513636606E-01 
    6.2245926334838719E-01 
    7.4196605557166118E-01 
    3.5550701958812297E-01 
    0.0000000000000000E+00 
    2.6218366871787968E-01 
    4.7016273617779081E-01 
    5.6518683126681801E-01 
    4.4310043669949795E-01 
    5.7879695344996429E-01 
    6.4709935372179828E-01 
    7.5851649540301480E-01 
    6.6855066060713242E-01 
    7.1321306786677607E-01 
    7.7667652261274622E-01 
    9.7643840725740749E-01 
    9.2812760319304599E-01 
    8.9075628539329121E-01 
    9.3966810206613971E-01 
    8.7603889244351540E-01 
    8.1864164047179011E-01 
    7.7172654754483339E-01 
    8.3550375155363599E-01 
    8.0007845012478429E-01 
    7.2701731750657328E-01 
    6.8633237455724871E-01 
    7.7210831250055889E-01 
    9.0949195220042656E-01 
    8.6015545168081209E-01 
    8.3912341134146928E-01 
    8.8957741000580715E-01 
    1.4637599315883412E+00 
    1.3837236167546498E+00 
    1.3570254895285447E+00 
    1.4237063654542297E+00 
    1.3063178212465949E+00 
    1.2292863589483636E+00 
    1.2242161081372238E+00 
    1.2907627685800678E+00 
    1.2750802730892428E+00 
    1.2189381566926489E+00 
    1.2134689566756180E+00 
    1.2592825433707637E+00 
    1.3856608808027178E+00 
    1.3306241434811070E+00 
    1.3044499193445722E+00 
    1.3488640380551988E+00 
    1.1525682212168875E+00 
    1.0756512878482494E+00 
    1.0905018231718129E+00 
    1.1576399029960400E+00 
    1.0003647976605490E+00 
    9.3012342082984734E-01 
    9.5851260025599394E-01 
    1.0236916035158852E+00 
    1.0475529898802121E+00 
    9.8965500787235872E-01 
    1.0232058008878879E+00 
    1.0720797878598767E+00 
    1.1624889774826537E+00 
    1.1052581998098867E+00 
    1.1200150570270471E+00 
    1.1671657221983727E+00 
    1.3103910598931789E+00 
    1.2709813671630750E+00 
    1.2299490622938765E+00 
    1.2698378278445688E+00 
    1.2307699098567655E+00 
    1.1899771238942098E+00 
    1.1480686852948885E+00 
    1.1892376723366085E+00 
    1.1469607293910757E+00 
    1.1052988165010929E+00 
    1.0614121074652674E+00 
    1.1034410958599787E+00 
    1.2294920891775585E+00 
    1.1885423926626995E+00 
    1.1457651829103177E+00 
    1.1877716928727351E+00 
    1.5446500109770571E+00 
    1.4825945296897425E+00 
    1.5136364377910720E+00 
    1.5628185333721587E+00 
    1.4335677132948190E+00 
    1.3901172611654673E+00 
    1.4267446659678511E+00 
    1.4685604246549728E+00 
    1.4981901717873953E+00 
    1.4603033245847914E+00 
    1.4901401589515244E+00 
    1.5229537119247569E+00 
    1.5736083658346718E+00 
    1.5363135514684503E+00 
    1.5537314395247481E+00 
    1.5815087838772568E+00 
    1.3513573372900649E+00 
    1.3159648150004124E+00 
    1.3682443545641048E+00 
    1.3934189879488914E+00 
    1.2808010166293373E+00 
    1.2452578515571591E+00 
    1.3192271660510932E+00 
    1.3437458591747644E+00 
    1.4029975492755704E+00 
    1.3889266351911471E+00 
    1.4520915139152344E+00 
    1.4570085757624176E+00 
    1.4329840138957739E+00 
    1.4175163733620086E+00 
    1.4626023249384634E+00 
    1.4691828694459275E+00 
    1.5864492014337175E+00 
    1.5628672538227451E+00 
    1.5678530822604329E+00 
    1.5901273701263461E+00 
    1.5347033472011653E+00 
    1.5026307444263383E+00 
    1.5026424406781060E+00 
    1.5384973409926908E+00 
    1.5433656636884892E+00 
    1.5037811032269219E+00 
    1.5059392103224694E+00 
    1.5492210577088530E+00 
    1.5938196862416345E+00 
    1.5735741828338947E+00 
    1.5798226843096859E+00 
    1.5972654143807616E+00 
    8.8953650952967234E-01 
    8.3924311852736111E-01 
    8.6052079592926922E-01 
    9.0945507576942530E-01 
    7.7235550799734831E-01 
    6.8666961955876882E-01 
    7.2794158509633078E-01 
    8.0079433278673084E-01 
    8.3648097403008415E-01 
    7.7310775626114003E-01 
    8.2014856478799070E-01 
    8.7697710486062530E-01 
    9.3942807118914029E-01 
    8.9120898671929172E-01 
    9.2833004959001764E-01 
    9.7583115800111986E-01 
    5.7916221592099126E-01 
    4.4336779910366547E-01 
    5.6628226714529339E-01 
    6.4817899170801618E-01 
    2.6221764858541730E-01 
    0.0000000000000000E+00 
    3.5600737341930494E-01 
    4.7095303097201074E-01 
    6.2421977467486045E-01 
    5.7696447372201576E-01 
    7.3024820446326277E-01 
    7.4423642253949551E-01 
    7.1484647273753110E-01 
    6.7032682812572297E-01 
    7.6061671860911562E-01 
    7.7850071907399887E-01 
    1.0134792468730027E+00 
    9.6047323765976866E-01 
    9.8624142667028758E-01 
    1.0506804445474898E+00 
    9.0409326275711777E-01 
    8.4268084846586289E-01 
    8.4234754314073235E-01 
    9.1760758182662394E-01 
    9.3353067386272381E-01 
    8.4455803252361705E-01 
    8.4937887584373140E-01 
    9.5127796615993421E-01 
    1.0891251480900319E+00 
    1.0139146997021560E+00 
    1.0425565584225462E+00 
    1.1275075159542065E+00 
    1.5822652691007737E+00 
    1.6611635139144789E+00 
    1.6537925541193759E+00 
    1.5811851874997944E+00 
    1.7368334966205186E+00 
    1.8083830645310721E+00 
    1.7898749989484730E+00 
    1.7235668761048388E+00 
    1.7123786218486357E+00 
    1.7729993722725446E+00 
    1.7574469062081017E+00 
    1.7029981189344094E+00 
    1.5821315434997154E+00 
    1.6486600760584347E+00 
    1.6455321640790281E+00 
    1.5849755011808648E+00 
    1.8735944141424759E+00 
    1.9322440699325087E+00 
    1.9002424281886203E+00 
    1.8484112328855595E+00 
    1.9848932855410062E+00 
    2.0313673762303872E+00 
    1.9947661057112760E+00 
    1.9488483826529155E+00 
    1.9114932861388712E+00 
    1.9539962383515033E+00 
    1.9093839089739846E+00 
    1.8726099094310005E+00 
    1.8243488487300390E+00 
    1.8685663396953149E+00 
    1.8368252065404502E+00 
    1.8010598161475304E+00 
    1.5934665740831302E+00 
    1.6547804837180864E+00 
    1.6778139643709427E+00 
    1.6089410192983302E+00 
    1.7116166718288952E+00 
    1.7647300546656874E+00 
    1.7948778319769296E+00 
    1.7390198218535582E+00 
    1.7690749390679790E+00 
    1.8261864509063963E+00 
    1.8597649904326974E+00 
    1.8035444345618477E+00 
    1.6293123903267697E+00 
    1.7051222084919688E+00 
    1.7398248786756474E+00 
    1.6600426622468791E+00 
    1.5007962811897837E+00 
    1.4183073693558410E+00 
    1.4292427618309114E+00 
    1.5054143608415638E+00 
    1.3354676588245393E+00 
    1.2529031776585520E+00 
    1.2772910638238755E+00 
    1.3530730025269826E+00 
    1.3708783960333633E+00 
    1.3017331732964528E+00 
    1.3263539651386931E+00 
    1.3889860996081198E+00 
    1.5113345382582621E+00 
    1.4407853635748475E+00 
    1.4528970666345569E+00 
    1.5183870059920346E+00 
    1.1728495130813144E+00 
    1.0955620155318493E+00 
    1.1431442922836019E+00 
    1.2074108739761884E+00 
    1.0197958910652867E+00 
    9.4613364951696255E-01 
    1.0163101803555059E+00 
    1.0794546118047068E+00 
    1.1405662834371633E+00 
    1.0900208981384063E+00 
    1.1653485380361956E+00 
    1.2026133347962673E+00 
    1.2420959339968345E+00 
    1.1912706023615154E+00 
    1.2398553135754515E+00 
    1.2770422226688651E+00 
    1.5219777967357861E+00 
    1.4536892596235260E+00 
    1.4411665589592437E+00 
    1.5200429922891878E+00 
    1.3885253632945842E+00 
    1.3254643166042375E+00 
    1.2983547744959014E+00 
    1.3681556486635762E+00 
    1.3463383446976513E+00 
    1.2707614686523243E+00 
    1.2426433425897050E+00 
    1.3226050525139135E+00 
    1.5142389548002404E+00 
    1.4257611294918975E+00 
    1.4057526638331672E+00 
    1.5007851015905780E+00 
    1.6603007660536357E+00 
    1.7396037179049735E+00 
    1.7045962588624999E+00 
    1.6291400216611986E+00 
    1.8024160575452957E+00 
    1.8578554865735402E+00 
    1.8246357747956157E+00 
    1.7680065547887018E+00 
    1.7380154530406464E+00 
    1.7936035227560667E+00 
    1.7636890513452999E+00 
    1.7107159909408072E+00 
    1.6084016552845626E+00 
    1.6771079788739025E+00 
    1.6539967332196375E+00 
    1.5927080122368562E+00 
    1.9074440879751327E+00 
    1.9527671715256278E+00 
    1.9104010390764417E+00 
    1.8710605252948471E+00 
    1.9943312699779818E+00 
    2.0314679626982013E+00 
    1.9848177056332983E+00 
    1.9483278184927710E+00 
    1.8997147219374169E+00 
    1.9320931596210844E+00 
    1.8734358821063608E+00 
    1.8479455489021799E+00 
    1.8355720070932626E+00 
    1.8676343071402863E+00 
    1.8235836485311556E+00 
    1.8000530116579505E+00 
    1.5841253488823184E+00 
    1.6447463754064133E+00 
    1.6480001078313060E+00 
    1.5813796656984700E+00 
    1.7021876058743826E+00 
    1.7565696856871742E+00 
    1.7723213926733739E+00 