# vtk DataFile Version 2.0
Pressure Field Data 
ASCII 
DATASET UNSTRUCTURED_GRID 

POINTS 801 double 

    0.0000000000000000E+00     0.0000000000000000E+00     0.0000000000000000E+00 
    1.0000000000000000E+00     0.0000000000000000E+00     0.0000000000000000E+00 
    1.0000000000000000E+00     1.0000000000000000E+00     0.0000000000000000E+00 
    0.0000000000000000E+00     1.0000000000000000E+00     0.0000000000000000E+00 
    2.5000000000000000E-01     2.5000000000000000E-01     0.0000000000000000E+00 
    7.5000000000000000E-01     2.5000000000000000E-01     0.0000000000000000E+00 
    7.5000000000000000E-01     7.5000000000000000E-01     0.0000000000000000E+00 
    2.5000000000000000E-01     7.5000000000000000E-01     0.0000000000000000E+00 
    2.4999999999941941E-01     0.0000000000000000E+00     0.0000000000000000E+00 
    4.9999999999869399E-01     0.0000000000000000E+00     0.0000000000000000E+00 
    7.4999999999934697E-01     0.0000000000000000E+00     0.0000000000000000E+00 
    1.2499999999977940E-01     0.0000000000000000E+00     0.0000000000000000E+00 
    3.7499999999905670E-01     0.0000000000000000E+00     0.0000000000000000E+00 
    6.2499999999902045E-01     0.0000000000000000E+00     0.0000000000000000E+00 
    8.7499999999967348E-01     0.0000000000000000E+00     0.0000000000000000E+00 
    6.2499999999889699E-02     0.0000000000000000E+00     0.0000000000000000E+00 
    1.8749999999959940E-01     0.0000000000000000E+00     0.0000000000000000E+00 
    3.1249999999923811E-01     0.0000000000000000E+00     0.0000000000000000E+00 
    4.3749999999887529E-01     0.0000000000000000E+00     0.0000000000000000E+00 
    5.6249999999885725E-01     0.0000000000000000E+00     0.0000000000000000E+00 
    6.8749999999918376E-01     0.0000000000000000E+00     0.0000000000000000E+00 
    8.1249999999951017E-01     0.0000000000000000E+00     0.0000000000000000E+00 
    9.3749999999983680E-01     0.0000000000000000E+00     0.0000000000000000E+00 
    1.0000000000000000E+00     2.4999999999941941E-01     0.0000000000000000E+00 
    1.0000000000000000E+00     4.9999999999869399E-01     0.0000000000000000E+00 
    1.0000000000000000E+00     7.4999999999934697E-01     0.0000000000000000E+00 
    1.0000000000000000E+00     1.2499999999977940E-01     0.0000000000000000E+00 
    1.0000000000000000E+00     3.7499999999905670E-01     0.0000000000000000E+00 
    1.0000000000000000E+00     6.2499999999902045E-01     0.0000000000000000E+00 
    1.0000000000000000E+00     8.7499999999967348E-01     0.0000000000000000E+00 
    1.0000000000000000E+00     6.2499999999889699E-02     0.0000000000000000E+00 
    1.0000000000000000E+00     1.8749999999959940E-01     0.0000000000000000E+00 
    1.0000000000000000E+00     3.1249999999923811E-01     0.0000000000000000E+00 
    1.0000000000000000E+00     4.3749999999887529E-01     0.0000000000000000E+00 
    1.0000000000000000E+00     5.6249999999885725E-01     0.0000000000000000E+00 
    1.0000000000000000E+00     6.8749999999918376E-01     0.0000000000000000E+00 
    1.0000000000000000E+00     8.1249999999951017E-01     0.0000000000000000E+00 
    1.0000000000000000E+00     9.3749999999983680E-01     0.0000000000000000E+00 
    7.5000000000112044E-01     1.0000000000000000E+00     0.0000000000000000E+00 
    5.0000000000205913E-01     1.0000000000000000E+00     0.0000000000000000E+00 
    2.5000000000102962E-01     1.0000000000000000E+00     0.0000000000000000E+00 
    8.7499999999991362E-01     1.0000000000000000E+00     0.0000000000000000E+00 
    6.2499999999988309E-01     1.0000000000000000E+00     0.0000000000000000E+00 
    3.7499999999869987E-01     1.0000000000000000E+00     0.0000000000000000E+00 
    1.2499999999880820E-01     1.0000000000000000E+00     0.0000000000000000E+00 
    9.3749999999995681E-01     1.0000000000000000E+00     0.0000000000000000E+00 
    8.1250000000051703E-01     1.0000000000000000E+00     0.0000000000000000E+00 
    6.8750000000050182E-01     1.0000000000000000E+00     0.0000000000000000E+00 
    5.6250000000097111E-01     1.0000000000000000E+00     0.0000000000000000E+00 
    4.3750000000037947E-01     1.0000000000000000E+00     0.0000000000000000E+00 
    3.1249999999986477E-01     1.0000000000000000E+00     0.0000000000000000E+00 
    1.8749999999991890E-01     1.0000000000000000E+00     0.0000000000000000E+00 
    6.2499999999404102E-02     1.0000000000000000E+00     0.0000000000000000E+00 
    0.0000000000000000E+00     7.5000000000112044E-01     0.0000000000000000E+00 
    0.0000000000000000E+00     5.0000000000205913E-01     0.0000000000000000E+00 
    0.0000000000000000E+00     2.5000000000102962E-01     0.0000000000000000E+00 
    0.0000000000000000E+00     8.7499999999991362E-01     0.0000000000000000E+00 
    0.0000000000000000E+00     6.2499999999988309E-01     0.0000000000000000E+00 
    0.0000000000000000E+00     3.7499999999869987E-01     0.0000000000000000E+00 
    0.0000000000000000E+00     1.2499999999880820E-01     0.0000000000000000E+00 
    0.0000000000000000E+00     9.3749999999995681E-01     0.0000000000000000E+00 
    0.0000000000000000E+00     8.1250000000051703E-01     0.0000000000000000E+00 
    0.0000000000000000E+00     6.8750000000050182E-01     0.0000000000000000E+00 
    0.0000000000000000E+00     5.6250000000097111E-01     0.0000000000000000E+00 
    0.0000000000000000E+00     4.3750000000037947E-01     0.0000000000000000E+00 
    0.0000000000000000E+00     3.1249999999986477E-01     0.0000000000000000E+00 
    0.0000000000000000E+00     1.8749999999991890E-01     0.0000000000000000E+00 
    0.0000000000000000E+00     6.2499999999404102E-02     0.0000000000000000E+00 
    4.9999999999972200E-01     2.5000000000000000E-01     0.0000000000000000E+00 
    3.7500000000067490E-01     2.5000000000000000E-01     0.0000000000000000E+00 
    6.2500000000042988E-01     2.5000000000000000E-01     0.0000000000000000E+00 
    3.1250000000033751E-01     2.5000000000000000E-01     0.0000000000000000E+00 
    4.3750000000019851E-01     2.5000000000000000E-01     0.0000000000000000E+00 
    5.6250000000007594E-01     2.5000000000000000E-01     0.0000000000000000E+00 
    6.8750000000021494E-01     2.5000000000000000E-01     0.0000000000000000E+00 
    7.5000000000000000E-01     4.9999999999972200E-01     0.0000000000000000E+00 
    7.5000000000000000E-01     3.7500000000067490E-01     0.0000000000000000E+00 
    7.5000000000000000E-01     6.2500000000042988E-01     0.0000000000000000E+00 
    7.5000000000000000E-01     3.1250000000033751E-01     0.0000000000000000E+00 
    7.5000000000000000E-01     4.3750000000019851E-01     0.0000000000000000E+00 
    7.5000000000000000E-01     5.6250000000007594E-01     0.0000000000000000E+00 
    7.5000000000000000E-01     6.8750000000021494E-01     0.0000000000000000E+00 
    5.0000000000118039E-01     7.5000000000000000E-01     0.0000000000000000E+00 
    6.2500000000161415E-01     7.5000000000000000E-01     0.0000000000000000E+00 
    3.7500000000140910E-01     7.5000000000000000E-01     0.0000000000000000E+00 
    6.8750000000080713E-01     7.5000000000000000E-01     0.0000000000000000E+00 
    5.6250000000139733E-01     7.5000000000000000E-01     0.0000000000000000E+00 
    4.3750000000129469E-01     7.5000000000000000E-01     0.0000000000000000E+00 
    3.1250000000070460E-01     7.5000000000000000E-01     0.0000000000000000E+00 
    2.5000000000000000E-01     5.0000000000118039E-01     0.0000000000000000E+00 
    2.5000000000000000E-01     6.2500000000161415E-01     0.0000000000000000E+00 
    2.5000000000000000E-01     3.7500000000140910E-01     0.0000000000000000E+00 
    2.5000000000000000E-01     6.8750000000080713E-01     0.0000000000000000E+00 
    2.5000000000000000E-01     5.6250000000139733E-01     0.0000000000000000E+00 
    2.5000000000000000E-01     4.3750000000129469E-01     0.0000000000000000E+00 
    2.5000000000000000E-01     3.1250000000070460E-01     0.0000000000000000E+00 
    3.7499999999934702E-01     1.2500000000000000E-01     0.0000000000000000E+00 
    1.2500000000000000E-01     1.2500000000000000E-01     0.0000000000000000E+00 
    1.2500000000000000E-01     3.7500000000102962E-01     0.0000000000000000E+00 
    8.7500000000000000E-01     1.2500000000000000E-01     0.0000000000000000E+00 
    6.2499999999934697E-01     1.2500000000000000E-01     0.0000000000000000E+00 
    8.7500000000000000E-01     3.7499999999934702E-01     0.0000000000000000E+00 
    8.7500000000000000E-01     6.2499999999934697E-01     0.0000000000000000E+00 
    1.2500000000000000E-01     6.2500000000102962E-01     0.0000000000000000E+00 
    1.2500000000000000E-01     8.7500000000000000E-01     0.0000000000000000E+00 
    8.7500000000000000E-01     8.7500000000000000E-01     0.0000000000000000E+00 
    6.2500000000102962E-01     8.7500000000000000E-01     0.0000000000000000E+00 
    3.7500000000102962E-01     8.7500000000000000E-01     0.0000000000000000E+00 
    2.4999999999957681E-01     8.3333333333333329E-02     0.0000000000000000E+00 
    8.3333333333333329E-02     2.5000000000068640E-01     0.0000000000000000E+00 
    7.4999999999956468E-01     8.3333333333333329E-02     0.0000000000000000E+00 
    4.9999999999951827E-01     1.6666666666666671E-01     0.0000000000000000E+00 
    9.1666666666666674E-01     2.4999999999957681E-01     0.0000000000000000E+00 
    8.3333333333333337E-01     4.9999999999951827E-01     0.0000000000000000E+00 
    1.6666666666666671E-01     5.0000000000088307E-01     0.0000000000000000E+00 
    8.3333333333333329E-02     7.5000000000070155E-01     0.0000000000000000E+00 
    9.1666666666666674E-01     7.4999999999956468E-01     0.0000000000000000E+00 
    5.0000000000088307E-01     8.3333333333333348E-01     0.0000000000000000E+00 
    2.5000000000068640E-01     9.1666666666666674E-01     0.0000000000000000E+00 
    7.5000000000070155E-01     9.1666666666666674E-01     0.0000000000000000E+00 
[...]
CELL_DATA 768 
SCALARS Pressure double 1 
LOOKUP_TABLE default 

    2.9770815641295134E+00 
    2.8814173624915935E+00 
    2.8499371674126408E+00 
    2.9095064619196158E+00 
    2.8163578609922979E+00 
    2.7635356075579898E+00 
    2.7587026717192882E+00 
    2.8019104666075996E+00 
    2.7867003121545473E+00 
    2.7527871293671233E+00 
    2.7459510198017214E+00 
    2.7710755522197932E+00 
    2.8582820826971602E+00 
    2.8213010517146691E+00 
    2.7948063695398244E+00 
    2.8172262636727865E+00 
    2.7137679238651993E+00 
    2.6637923211373695E+00 
    2.6732653185465938E+00 
    2.7161851877450212E+00 
    2.6118451647785017E+00 
    2.5571500282631248E+00 
    2.5825600311994990E+00 
    2.6289622719841783E+00 
    2.6450144811900169E+00 
    2.6068089234874057E+00 
    2.6295201922101561E+00 
    2.6597331874154557E+00 
    2.7176126353877610E+00 
    2.6817552403636680E+00 
    2.6890921178442464E+00 
    2.7180469218885008E+00 
    2.7814849699444593E+00 
    2.7666599560252880E+00 
    2.7382660729398949E+00 
    2.7498267615454508E+00 
    2.7490008417662275E+00 
    2.7288603969441834E+00 
    2.7031314973156642E+00 
    2.7224615984019014E+00 
    2.6972049436316907E+00 
    2.6776190392779795E+00 
    2.6518301292450985E+00 
    2.6726552437290740E+00 
    2.7224910348968741E+00 
    2.7125586429199045E+00 
    2.6892579621738815E+00 
    2.6999127440097697E+00 
    2.9771275137293811E+00 
    2.9095654406479237E+00 
    2.8501308934602236E+00 
    2.8816073154819906E+00 
    2.8583517269074652E+00 
    2.8172952343450386E+00 
    2.7949781594304675E+00 
    2.8214827686402510E+00 
    2.7869490512105766E+00 
    2.7712712047795609E+00 
    2.7461356413668350E+00 
    2.7530279125995798E+00 
    2.8166409006246789E+00 
    2.8021790027899032E+00 
    2.7589904618248018E+00 
    2.7638352041061385E+00 
    2.7815533397325862E+00 
    2.7498676525364592E+00 
    2.7383380524782757E+00 
    2.7668093934656293E+00 
    2.7224651346883264E+00 
    2.6998548271368379E+00 
    2.6890584182694717E+00 
    2.7124931991159440E+00 
    2.6970345115162884E+00 
    2.6722217728746971E+00 
    2.6511674925751247E+00 
    2.6772824854125479E+00 
    2.7491484679141918E+00 
    2.7224797045192748E+00 
    2.7030534551231691E+00 
    2.7289528359004818E+00 
    2.7139360210251668E+00 
    2.7163400846940520E+00 
    2.6730691543453280E+00 
    2.6635272988301497E+00 
    2.7177303523975094E+00 
    2.7181089252316575E+00 
    2.6889262312556848E+00 
    2.6815716769290425E+00 
    2.6444471392119984E+00 
    2.6592450427617815E+00 
    2.6286466575534804E+00 
    2.6058141033871220E+00 
    2.6110761263922129E+00 
    2.6283024005694404E+00 
    2.5814733182968079E+00 
    2.5559685516958632E+00 
    2.4673410468144610E+00 
    2.4059619272312807E+00 
    2.3845804277272920E+00 
    2.4382283603334636E+00 
    2.3444713418538488E+00 
    2.2855195041680760E+00 
    2.2803778128100309E+00 
    2.3312608054738462E+00 
    2.3166260997383752E+00 
    2.2737237897525802E+00 
    2.2654360316255371E+00 
    2.3001949874276879E+00 
    2.4078277310382248E+00 
    2.3618721604085957E+00 
    2.3372969897187068E+00 
    2.3755623564633659E+00 
    2.2325899380620209E+00 
    2.1892039138878499E+00 
    2.1940707608539403E+00 
    2.2339760009850504E+00 
    2.1577930933938001E+00 
    2.1369330875059966E+00 
    2.1401894540948536E+00 
    2.1630139675619753E+00 
    2.1660490034100524E+00 
    2.1413700945320508E+00 
    2.1407547817653194E+00 
    2.1673508716457301E+00 
    2.2336784557620075E+00 
    2.1968674704968594E+00 
    2.1979239652266269E+00 
    2.2317361328117644E+00 
    2.3382561223080733E+00 
    2.3037062817530316E+00 
    2.2594059100478687E+00 
    2.2936474645779796E+00 
    2.2715260994100670E+00 
    2.2426376168299198E+00 
    2.2072784916462882E+00 
    2.2307279725957074E+00 
    2.1876411978705961E+00 
    2.1728642078737441E+00 
    2.1405426357614274E+00 
    2.1433463590610833E+00 
    2.2394097506528814E+00 
    2.2085348745809363E+00 
    2.1496165127044828E+00 
    2.1653925752310323E+00 
    2.5128973696431620E+00 
    2.4805137069562333E+00 
    2.5115274394683311E+00 
    2.5430880496046249E+00 
    2.4468499122031160E+00 
    2.4115920630568057E+00 
    2.4448864163766837E+00 
    2.4788413839535921E+00 
    2.5101136572611691E+00 
    2.4774876889389339E+00 
    2.5090739276447365E+00 
    2.5403945117126909E+00 
    2.5721249009010063E+00 
    2.5416477875615717E+00 
    2.5706283209737184E+00 
    2.5997788861771900E+00 
    2.3763215576160381E+00 
    2.3407635614043203E+00 
    2.3917393566776912E+00 
    2.4156547369612547E+00 
    2.3021658131835454E+00 
    2.2596185873896224E+00 
    2.3407345969542108E+00 
    2.3667846993049131E+00 
    2.4260874011456997E+00 
    2.4120391630829463E+00 
    2.4767403629442826E+00 
    2.4812049636491831E+00 
    2.4537955288119511E+00 
    2.4400593801769652E+00 
    2.4858413584262196E+00 
    2.4905196443443050E+00 
    2.6238799260198369E+00 
    2.5927788627433972E+00 
    2.6086982417065885E+00 
    2.6443677192077346E+00 
    2.5600925916394668E+00 
    2.5258648657822729E+00 
    2.5290440326699151E+00 
    2.5701592380250537E+00 
    2.5800811792772729E+00 
    2.5323140694706607E+00 
    2.5357162504754056E+00 
    2.5899082126678197E+00 
    2.6628336928729803E+00 
    2.6238452669461201E+00 
    2.6382692791126372E+00 
    2.6791053076340647E+00 
    2.1310894988162006E+00 
    2.1067271451315062E+00 
    2.0989369977577530E+00 
    2.1267200213214972E+00 
    2.0652119203234220E+00 
    2.0074141386397186E+00 
    2.0053305989080958E+00 
    2.0581994998633668E+00 
    2.0533249300671179E+00 
    2.0053329094806989E+00 
    2.0065617260561952E+00 
    2.0492667582051998E+00 
    2.1228934434377336E+00 
    2.0926876556065070E+00 
    2.0865936232151041E+00 
    2.1179171217547874E+00 
    1.9356767607286933E+00 
    1.8522568360485763E+00 
    1.8715520098588494E+00 
    1.9427422907604477E+00 
    1.7597760939241092E+00 
    1.6595551460541842E+00 
    1.7096003393595360E+00 
    1.7933314369943154E+00 
    1.8280646116310575E+00 
    1.7591104827146282E+00 
    1.8083492847436502E+00 
    1.8636668823418507E+00 
    1.9520732645372552E+00 
    1.8928783239658451E+00 
    1.9155072995878621E+00 
    1.9628005477308257E+00 
    2.1107204257383900E+00 
    2.0743711819633193E+00 
    2.0516016147061262E+00 
    2.0999995065011459E+00 
    2.0340183936913432E+00 
    1.9908058537438602E+00 
    1.9521156005106997E+00 
    2.0019407844380037E+00 
    1.9636750280561561E+00 
    1.9085526006444555E+00 
    1.8609393478527814E+00 
    1.9188329149632120E+00 
    2.0858227907381699E+00 
    2.0223870957766339E+00 
    1.9828827210350417E+00 
    2.0628891232957987E+00 
    1.9592178882023508E+00 
    1.9077501775573813E+00 
    1.8214209481009376E+00 
    1.8571756662826235E+00 
    1.8571833243713416E+00 
    1.8069825375429509E+00 
    1.7477972556771750E+00 
    1.7847200019268052E+00 
    1.7091750882854673E+00 
    1.6861736576814945E+00 
    1.6226175150314375E+00 
    1.6308266503028992E+00 
    1.7541471157174102E+00 
    1.7320716266384468E+00 
    1.6391264787849926E+00 
    1.6469983893796438E+00 
    1.7541748727714390E+00 
    1.6976528328350862E+00 
    1.6436755104142138E+00 
    1.7012184249512095E+00 
    1.6379493368469831E+00 
    1.5760454120639187E+00 
    1.5188384490585325E+00 
    1.5826795954257393E+00 
    1.5265984912570731E+00 
    1.4623080502112356E+00 
    1.4065521085779575E+00 
    1.4701146721392229E+00 
    1.6460905536812955E+00 
    1.5874528015470093E+00 
    1.5305551148424810E+00 
    1.5894889226244602E+00 
    1.5383362041739590E+00 
    1.5452746734017229E+00 
    1.4501924847883791E+00 
    1.4283079940177501E+00 
    1.5518023833610168E+00 
    1.5579937669437722E+00 
    1.4919187702310330E+00 
    1.4713170438739887E+00 
    1.3902579555504622E+00 
    1.4247239414439161E+00 
    1.3549365611400912E+00 
    1.3061560607512810E+00 
    1.3190865946674062E+00 
    1.3545013628065790E+00 
    1.2578691708369207E+00 
    1.2161246002173909E+00 
    2.6790014973123659E+00 
    2.6374440434607829E+00 
    2.6227452798287101E+00 
    2.6623485755783163E+00 
    2.5881337617802078E+00 
    2.5330740689641527E+00 
    2.5297980367652966E+00 
    2.5782238334693641E+00 
    2.5682604508631561E+00 
    2.5266429965512383E+00 
    2.5235806295510077E+00 
    2.5581819789545879E+00 
    2.6435752971642503E+00 
    2.6073830692742628E+00 
    2.5913089781493257E+00 
    2.6228381830431768E+00 
    2.4739707487352018E+00 
    2.4099033550894160E+00 
    2.4238846782651962E+00 
    2.4785690337018114E+00 
    2.3393867517679681E+00 
    2.2586360246205852E+00 
    2.3009313471896711E+00 
    2.3651620224584122E+00 
    2.3899327596776376E+00 
    2.3393020864431580E+00 
    2.3747474486763429E+00 
    2.4138066935452618E+00 
    2.4833049246623600E+00 
    2.4378170723636399E+00 
    2.4516120647817936E+00 
    2.4881188764440338E+00 
    2.5985188508483827E+00 
    2.5689788617159026E+00 
    2.5399601807893997E+00 
    2.5707962357399112E+00 
    2.5384035011473571E+00 
    2.5068370570765617E+00 
    2.4754050820984150E+00 
    2.5081885856946973E+00 
    2.4770611231197481E+00 
    2.4430684287939051E+00 
    2.4099693133780091E+00 
    2.4452094459220666E+00 
    2.5417246691651814E+00 
    2.5099342996564351E+00 
    2.4789638963458209E+00 
    2.5115221189317434E+00 
    2.4659025857142405E+00 
    2.4367090741888742E+00 
    2.3831193914316633E+00 
    2.4045180469674126E+00 
    2.4062965787893957E+00 
    2.3740945199364281E+00 
    2.3359423823006713E+00 
    2.3604382382052571E+00 
    2.3152257489768564E+00 
    2.2988450159154019E+00 
    2.2639989221097352E+00 
    2.2721802718627284E+00 
    2.3429985402340310E+00 
    2.3297906465685498E+00 
    2.2787360168417381E+00 
    2.2838014812345513E+00 
    2.3368819175447157E+00 
    2.2924500362753943E+00 
    2.2582649869027858E+00 
    2.3024159124113850E+00 
    2.2384754972634293E+00 
    2.1647338951523283E+00 
    2.1487356628488747E+00 
    2.2075197519320100E+00 
    2.1863942786163197E+00 
    2.1420855243539925E+00 
    2.1389073302494510E+00 
    2.1713115109912087E+00 
    2.2702183539544092E+00 
    2.2294759538045392E+00 
    2.2058111552663036E+00 
    2.2412057632501110E+00 
    2.2306114936591470E+00 
    2.2320913805947806E+00 
    2.1918150793353508E+00 
    2.1867537028508490E+00 
    2.2319090013540048E+00 
    2.2301026426718145E+00 
    2.1961471752689410E+00 
    2.1948340750682611E+00 
    2.1637746844206220E+00 
    2.1654014973750106E+00 
    2.1386711336745612E+00 
    2.1389182692504938E+00 
    2.1550045622921461E+00 
    2.1604700589395107E+00 
    2.1373611777247929E+00 
    2.1338811276463829E+00 
    1.4883852766903871E+00 
    1.3684387552778017E+00 
    1.3286825724505311E+00 
    1.4351407025082172E+00 
    1.2407865955803514E+00 
    1.1013275800321318E+00 
    1.0947046878820637E+00 
    1.2164004406365214E+00 
    1.1946289220174593E+00 
    1.0915165549205594E+00 
    1.0916906878653045E+00 
    1.1761084272591984E+00 
    1.3837824030791552E+00 
    1.2907065331787340E+00 
    1.2556110821240880E+00 
    1.3347453080666061E+00 
    9.4074842404549752E-01 
    7.3948182763395187E-01 
    7.9906944911024380E-01 
    9.5838208154262383E-01 
    4.5468459232999692E-01 
    0.0000000000000000E+00 
    3.2570924912351701E-01 
    5.9805573297759418E-01 
    7.2294166673459748E-01 
    5.6362656012983459E-01 
    7.4251244071952838E-01 
    8.3146271171568908E-01 
    9.7981956643290435E-01 
    8.5961570726766379E-01 
    9.1898928925410261E-01 
    1.0040791005058121E+00 
    1.2827722580519616E+00 
    1.2106907432315741E+00 
    1.1582906423842136E+00 
    1.2291091362100954E+00 
    1.1385289414604560E+00 
    1.0606872522096480E+00 
    9.9734215316324870E-01 
    1.0831394262312204E+00 
    1.0356686548769249E+00 
    9.3796197763312361E-01 
    8.8480677137604979E-01 
    9.9907736363458122E-01 
    1.1852999054060307E+00 
    1.1167562879102697E+00 
    1.0894838909281628E+00 
    1.1590545520027447E+00 
    1.9596352871262825E+00 
    1.8562922672157056E+00 
    1.8201871839565438E+00 
    1.9076951810018321E+00 
    1.7517549490126743E+00 
    1.6443689271897610E+00 
    1.6366104242494075E+00 
    1.7296515311704941E+00 
    1.7068511600066825E+00 
    1.6286405292877129E+00 
    1.6208857656051276E+00 
    1.6842901102360710E+00 
    1.8566630969126234E+00 
    1.7832213486705910E+00 
    1.7463609544290559E+00 
    1.8062828298046592E+00 
    1.5365964584553033E+00 
    1.4279659738159505E+00 
    1.4498668389511222E+00 
    1.5437535346556908E+00 
    1.3193024255630912E+00 
    1.2167313380186522E+00 
    1.2586480918268406E+00 
    1.3549367442745881E+00 
    1.3911428681090139E+00 
    1.3074994769076143E+00 
    1.3573272416924234E+00 
    1.4260843900864564E+00 
    1.5506415851729274E+00 
    1.4713643587910206E+00 
    1.4921911016507572E+00 
    1.5572224272770470E+00 
    1.7536558866644731E+00 
    1.7000747258449806E+00 
    1.6433945380848509E+00 
    1.6980081038949733E+00 
    1.6447783557931648E+00 
    1.5885688042108785E+00 
    1.5307628898349501E+00 
    1.5872992381447362E+00 
    1.5277780870538213E+00 
    1.4714707008161718E+00 
    1.4094218437830071E+00 
    1.4649049433375239E+00 
    1.6392469547422255E+00 
    1.5838077694914665E+00 
    1.5208726477343555E+00 
    1.5775722387637559E+00 
    2.0626895901475719E+00 
    1.9827962274749147E+00 
    2.0218840970079563E+00 
    2.0851413663318326E+00 
    1.9185874135661674E+00 
    1.8606697054731387E+00 
    1.9083428796385258E+00 
    1.9632856811539861E+00 
    2.0011954773902301E+00 
    1.9517623196116913E+00 
    1.9901735753147560E+00 
    2.0329742349136333E+00 
    2.0988315711799888E+00 
    2.0506820109209061E+00 
    2.0730359872507989E+00 
    2.1091534942532024E+00 
    1.8084164275607901E+00 
    1.7599853571711088E+00 
    1.8292765428321767E+00 
    1.8639565544413490E+00 
    1.7109288052730551E+00 
    1.6608484812479700E+00 
    1.7614331048631391E+00 
    1.7949614890350982E+00 
    1.8731104122073170E+00 
    1.8539504396421143E+00 
    1.9367689253927531E+00 
    1.9436390805341104E+00 
    1.9156654779942164E+00 
    1.8938964100337914E+00 
    1.9525361965592285E+00 
    1.9626338950560196E+00 
    2.1159492297963021E+00 
    2.0849283795511337E+00 
    2.0908374058022221E+00 
    2.1205736646306916E+00 
    2.0480419300649770E+00 
    2.0058943148190780E+00 
    2.0049524249853876E+00 
    2.0521636509563286E+00 
    2.0570437452910824E+00 
    2.0052594566516078E+00 
    2.0074607233385668E+00 
    2.0639925066192260E+00 
    2.1240203877090718E+00 
    2.0968898799912639E+00 
    2.1044650311645521E+00 
    2.1281588512557876E+00 
    1.1595664680293811E+00 
    1.0902312153918152E+00 
    1.1188150968931330E+00 
    1.1866765806565873E+00 
    9.9994725248982808E-01 
    8.8566596914019102E-01 
    9.4042951583158652E-01 
    1.0381126066460924E+00 
    1.0868094148973872E+00 
    1.0012261758549705E+00 
    1.0655578544377915E+00 
    1.1429954423164914E+00 
    1.2310724275220777E+00 
    1.1613874834574796E+00 
    1.2143945143185306E+00 
    1.2857515882822490E+00 
    7.4332308976274053E-01 
    5.6430265552307168E-01 
    7.2543803977548316E-01 
    8.3393429582611134E-01 
    3.2610308385973352E-01 
    0.0000000000000000E+00 
    4.5643998656196366E-01 
    6.0025351646363345E-01 
    8.0339840483946012E-01 
    7.4349226506449428E-01 
    9.4678124258664775E-01 
    9.6428588029470386E-01 
    9.2297751427753161E-01 
    8.6382554696188585E-01 
    9.8540428879587527E-01 
    1.0091549296488087E+00 
    1.3385145207818920E+00 
    1.2596897554778543E+00 
    1.2947409372408769E+00 
    1.3874882959686321E+00 
    1.1809553106026471E+00 
    1.0971378599185899E+00 
    1.0974420128139124E+00 
    1.1997568002425445E+00 
    1.2215365866875711E+00 
    1.1009051265879013E+00 
    1.1075794670076420E+00 
    1.2457349518841916E+00 
    1.4380073563950360E+00 
    1.3323221773371181E+00 
    1.3716821443154315E+00 
    1.4904592734405109E+00 
    2.0989677194320704E+00 
    2.2007645245631515E+00 
    2.1916540895180994E+00 
    2.0981057491014763E+00 
    2.2979330536938378E+00 
    2.3894047838214605E+00 
    2.3660070672602482E+00 
    2.2812098129207765E+00 
    2.2674354738098486E+00 
    2.3448857756219650E+00 
    2.3256548740840612E+00 
    2.2562678032801693E+00 
    2.1004319224320609E+00 
    2.1858274591707358E+00 
    2.1829699309648229E+00 
    2.1057336406455596E+00 
    2.4724005579114783E+00 
    2.5466902387462369E+00 
    2.5065373353344231E+00 
    2.4406358651024056E+00 
    2.6130055508190391E+00 
    2.6707258280329653E+00 
    2.6255390388684616E+00 
    2.5681000084457746E+00 
    2.5216447216192348E+00 
    2.5751119424813695E+00 
    2.5198506279005950E+00 
    2.4733213392599911E+00 
    2.4104447931335384E+00 
    2.4669296262020399E+00 
    2.4273585678527647E+00 
    2.3813930776155892E+00 
    2.1186445354527170E+00 
    2.1962015118773772E+00 
    2.2269894678662836E+00 
    2.1405398874478614E+00 
    2.2682707722155970E+00 
    2.3356534756872795E+00 
    2.3747236702418166E+00 
    2.3041936787115720E+00 
    2.3434824753155974E+00 
    2.4152840319639206E+00 
    2.4579890523314876E+00 
    2.3872907997560575E+00 
    2.1684418938052050E+00 
    2.2630890572461242E+00 
    2.3067620266081152E+00 
    2.2065903038755099E+00 
    1.9933188784639286E+00 
    1.8855296080336550E+00 
    1.9006924677159669E+00 
    2.0001031690085380E+00 
    1.7763428980516729E+00 
    1.6663861669962448E+00 
    1.6998606336993172E+00 
    1.8004842513996777E+00 
    1.8254321283598678E+00 
    1.7337924557880917E+00 
    1.7682721763345439E+00 
    1.8512516879755923E+00 
    2.0092357791655400E+00 
    1.9172746408944172E+00 
    1.9351671411112783E+00 
    2.0204196958317291E+00 
    1.5584793614103567E+00 
    1.4529172681035816E+00 
    1.5196914799105514E+00 
    1.6062849563417390E+00 
    1.3477775970359522E+00 
    1.2436907601788463E+00 
    1.3461938054750680E+00 
    1.4330377975237225E+00 
    1.5197980203537722E+00 
    1.4525848032442576E+00 
    1.5586872152765594E+00 
    1.6067668721561852E+00 
    1.6544761811895559E+00 
    1.5871754670190319E+00 
    1.6549571757363706E+00 
    1.7031222222882083E+00 
    2.0276084545589459E+00 
    1.9387533869085707E+00 
    1.9256591266156160E+00 
    2.0281561208538479E+00 
    1.8529780684740842E+00 
    1.7690507340525086E+00 
    1.7352062012779363E+00 
    1.8290321878259719E+00 
    1.8038559556167317E+00 
    1.7010161822588188E+00 
    1.6665131617533142E+00 
    1.7770848073884127E+00 
    2.0241474636184607E+00 
    1.9096224412943033E+00 
    1.8886485661526669E+00 
    2.0105161407907488E+00 
    2.2055495186074801E+00 
    2.3052463979164579E+00 
    2.2616886893445542E+00 
    2.1674342246714238E+00 
    2.3851250952417975E+00 
    2.4552649096498946E+00 
    2.4130759617480200E+00 
    2.3416469634392367E+00 
    2.3026386241188086E+00 
    2.3729379572098641E+00 
    2.3342328260765770E+00 
    2.2669963481047750E+00 
    2.1394891969699779E+00 
    2.2257166075768708E+00 
    2.1950677127266172E+00 
    2.1175955988185047E+00 
    2.5172709790757199E+00 
    2.5733958836571653E+00 
    2.5201461303211850E+00 
    2.4712400024283183E+00 
    2.6247824815121619E+00 
    2.6706847821053885E+00 
    2.6128192199824274E+00 
    2.5673123657474242E+00 
    2.5057965088419296E+00 
    2.5464536395857271E+00 
    2.4721804981552271E+00 
    2.4400112463566872E+00 
    2.4256771954477649E+00 
    2.4656718508151392E+00 
    2.4094340288533025E+00 
    2.3800558753399517E+00 
    2.1047170166966720E+00 
    2.1819681028819127E+00 
    2.1850332492057944E+00 
    2.0995826887632352E+00 
    2.2552073624271896E+00 
    2.3245042949871420E+00 
    2.3440120145058398E+00 