# vtk DataFile Version 2.0
Pressure Field Data 
ASCII 
DATASET UNSTRUCTURED_GRID 

POINTS 801 double 

    0.0000000000000000E+00     0.0000000000000000E+00     0.0000000000000000E+00 
    1.0000000000000000E+00     0.0000000000000000E+00     0.0000000000000000E+00 
    1.0000000000000000E+00     1.0000000000000000E+00     0.0000000000000000E+00 
    0.0000000000000000E+00     1.0000000000000000E+00     0.0000000000000000E+00 
    2.5000000000000000E-01     2.5000000000000000E-01     0.0000000000000000E+00 
    7.5000000000000000E-01     2.5000000000000000E-01     0.0000000000000000E+00 
    7.5000000000000000E-01     7.5000000000000000E-01     0.0000000000000000E+00 
    2.5000000000000000E-01     7.5000000000000000E-01     0.0000000000000000E+00 
    2.4999999999941941E-01     0.0000000000000000E+00     0.0000000000000000E+00 
    4.9999999999869399E-01     0.0000000000000000E+00     0.0000000000000000E+00 
    7.4999999999934697E-01     0.0000000000000000E+00     0.0000000000000000E+00 
    1.2499999999977940E-01     0.0000000000000000E+00     0.0000000000000000E+00 
    3.7499999999905670E-01     0.0000000000000000E+00     0.0000000000000000E+00 
    6.2499999999902045E-01     0.0000000000000000E+00     0.0000000000000000E+00 
    8.7499999999967348E-01     0.0000000000000000E+00     0.0000000000000000E+00 
    6.2499999999889699E-02     0.0000000000000000E+00     0.0000000000000000E+00 
    1.8749999999959940E-01     0.0000000000000000E+00     0.0000000000000000E+00 
    3.1249999999923811E-01     0.0000000000000000E+00     0.0000000000000000E+00 
    4.3749999999887529E-01     0.0000000000000000E+00     0.0000000000000000E+00 
    5.6249999999885725E-01     0.0000000000000000E+00     0.0000000000000000E+00 
    6.8749999999918376E-01     0.0000000000000000E+00     0.0000000000000000E+00 
    8.1249999999951017E-01     0.0000000000000000E+00     0.0000000000000000E+00 
    9.3749999999983680E-01     0.0000000000000000E+00     0.0000000000000000E+00 
    1.0000000000000000E+00     2.4999999999941941E-01     0.0000000000000000E+00 
    1.0000000000000000E+00     4.9999999999869399E-01     0.0000000000000000E+00 
    1.0000000000000000E+00     7.4999999999934697E-01     0.0000000000000000E+00 
    1.0000000000000000E+00     1.2499999999977940E-01     0.0000000000000000E+00 
    1.0000000000000000E+00     3.7499999999905670E-01     0.0000000000000000E+00 
    1.0000000000000000E+00     6.2499999999902045E-01     0.0000000000000000E+00 
    1.0000000000000000E+00     8.7499999999967348E-01     0.0000000000000000E+00 
    1.0000000000000000E+00     6.2499999999889699E-02     0.0000000000000000E+00 
    1.0000000000000000E+00     1.8749999999959940E-01     0.0000000000000000E+00 
    1.0000000000000000E+00     3.1249999999923811E-01     0.0000000000000000E+00 
    1.0000000000000000E+00     4.3749999999887529E-01     0.0000000000000000E+00 
    1.0000000000000000E+00     5.6249999999885725E-01     0.0000000000000000E+00 
    1.0000000000000000E+00     6.8749999999918376E-01     0.0000000000000000E+00 
    1.0000000000000000E+00     8.1249999999951017E-01     0.0000000000000000E+00 
    1.0000000000000000E+00     9.3749999999983680E-01     0.0000000000000000E+00 
    7.5000000000112044E-01     1.0000000000000000E+00     0.0000000000000000E+00 
    5.0000000000205913E-01     1.0000000000000000E+00     0.0000000000000000E+00 
    2.5000000000102962E-01     1.0000000000000000E+00     0.0000000000000000E+00 
    8.7499999999991362E-01     1.0000000000000000E+00     0.0000000000000000E+00 
    6.2499999999988309E-01     1.0000000000000000E+00     0.0000000000000000E+00 
    3.7499999999869987E-01     1.0000000000000000E+00     0.0000000000000000E+00 
    1.2499999999880820E-01     1.0000000000000000E+00     0.0000000000000000E+00 
    9.3749999999995681E-01     1.0000000000000000E+00     0.0000000000000000E+00 
    8.1250000000051703E-01     1.0000000000000000E+00     0.0000000000000000E+00 
    6.8750000000050182E-01     1.0000000000000000E+00     0.0000000000000000E+00 
    5.6250000000097111E-01     1.0000000000000000E+00     0.0000000000000000E+00 
    4.3750000000037947E-01     1.0000000000000000E+00     0.0000000000000000E+00 
    3.1249999999986477E-01     1.0000000000000000E+00     0.0000000000000000E+00 
    1.8749999999991890E-01     1.0000000000000000E+00     0.0000000000000000E+00 
    6.2499999999404102E-02     1.0000000000000000E+00     0.0000000000000000E+00 
    0.0000000000000000E+00     7.5000000000112044E-01     0.0000000000000000E+00 
    0.0000000000000000E+00     5.0000000000205913E-01     0.0000000000000000E+00 
    0.0000000000000000E+00     2.5000000000102962E-01     0.0000000000000000E+00 
    0.0000000000000000E+00     8.7499999999991362E-01     0.0000000000000000E+00 
    0.0000000000000000E+00     6.2499999999988309E-01     0.0000000000000000E+00 
    0.0000000000000000E+00     3.7499999999869987E-01     0.0000000000000000E+00 
    0.0000000000000000E+00     1.2499999999880820E-01     0.0000000000000000E+00 
    0.0000000000000000E+00     9.3749999999995681E-01     0.0000000000000000E+00 
    0.0000000000000000E+00     8.1250000000051703E-01     0.0000000000000000E+00 
    0.0000000000000000E+00     6.8750000000050182E-01     0.0000000000000000E+00 
    0.0000000000000000E+00     5.6250000000097111E-01     0.0000000000000000E+00 
    0.0000000000000000E+00     4.3750000000037947E-01     0.0000000000000000E+00 
    0.0000000000000000E+00     3.1249999999986477E-01     0.0000000000000000E+00 
    0.0000000000000000E+00     1.8749999999991890E-01     0.0000000000000000E+00 
    0.0000000000000000E+00     6.2499999999404102E-02     0.0000000000000000E+00 
    4.9999999999972200E-01     2.5000000000000000E-01     0.0000000000000000E+00 
    3.7500000000067490E-01     2.5000000000000000E-01     0.0000000000000000E+00 
    6.2500000000042988E-01     2.5000000000000000E-01     0.0000000000000000E+00 
    3.1250000000033751E-01     2.5000000000000000E-01     0.0000000000000000E+00 
    4.3750000000019851E-01     2.5000000000000000E-01     0.0000000000000000E+00 
    5.6250000000007594E-01     2.5000000000000000E-01     0.0000000000000000E+00 
    6.8750000000021494E-01     2.5000000000000000E-01     0.0000000000000000E+00 
    7.5000000000000000E-01     4.9999999999972200E-01     0.0000000000000000E+00 
    7.5000000000000000E-01     3.7500000000067490E-01     0.0000000000000000E+00 
    7.5000000000000000E-01     6.2500000000042988E-01     0.0000000000000000E+00 
    7.5000000000000000E-01     3.1250000000033751E-01     0.0000000000000000E+00 
    7.5000000000000000E-01     4.3750000000019851E-01     0.0000000000000000E+00 
    7.5000000000000000E-01     5.6250000000007594E-01     0.0000000000000000E+00 
    7.5000000000000000E-01     6.8750000000021494E-01     0.0000000000000000E+00 
    5.0000000000118039E-01     7.5000000000000000E-01     0.0000000000000000E+00 
    6.2500000000161415E-01     7.5000000000000000E-01     0.0000000000000000E+00 
    3.7500000000140910E-01     7.5000000000000000E-01     0.0000000000000000E+00 
    6.8750000000080713E-01     7.5000000000000000E-01     0.0000000000000000E+00 
    5.6250000000139733E-01     7.5000000000000000E-01     0.0000000000000000E+00 
    4.3750000000129469E-01     7.5000000000000000E-01     0.0000000000000000E+00 
    3.1250000000070460E-01     7.5000000000000000E-01     0.0000000000000000E+00 
    2.5000000000000000E-01     5.0000000000118039E-01     0.0000000000000000E+00 
    2.5000000000000000E-01     6.2500000000161415E-01     0.0000000000000000E+00 
    2.5000000000000000E-01     3.7500000000140910E-01     0.0000000000000000E+00 
    2.5000000000000000E-01     6.8750000000080713E-01     0.0000000000000000E+00 
    2.5000000000000000E-01     5.6250000000139733E-01     0.0000000000000000E+00 
    2.5000000000000000E-01     4.3750000000129469E-01     0.0000000000000000E+00 
    2.5000000000000000E-01     3.1250000000070460E-01     0.0000000000000000E+00 
    3.7499999999934702E-01     1.2500000000000000E-01     0.0000000000000000E+00 
    1.2500000000000000E-01     1.2500000000000000E-01     0.0000000000000000E+00 
    1.2500000000000000E-01     3.7500000000102962E-01     0.0000000000000000E+00 
    8.7500000000000000E-01     1.2500000000000000E-01     0.0000000000000000E+00 
    6.2499999999934697E-01     1.2500000000000000E-01     0.0000000000000000E+00 
    8.7500000000000000E-01     3.7499999999934702E-01     0.0000000000000000E+00 
    8.7500000000000000E-01     6.2499999999934697E-01     0.0000000000000000E+00 
    1.2500000000000000E-01     6.2500000000102962E-01     0.0000000000000000E+00 
    1.2500000000000000E-01     8.7500000000000000E-01     0.0000000000000000E+00 
    8.7500000000000000E-01     8.7500000000000000E-01     0.0000000000000000E+00 
    6.2500000000102962E-01     8.7500000000000000E-01     0.0000000000000000E+00 
    3.7500000000102962E-01     8.7500000000000000E-01     0.0000000000000000E+00 
    2.4999999999957681E-01     8.3333333333333329E-02     0.0000000000000000E+00 
    8.3333333333333329E-02     2.5000000000068640E-01     0.0000000000000000E+00 
    7.4999999999956468E-01     8.3333333333333329E-02     0.0000000000000000E+00 
    4.9999999999951827E-01     1.6666666666666671E-01     0.0000000000000000E+00 
    9.1666666666666674E-01     2.4999999999957681E-01     0.0000000000000000E+00 
    8.3333333333333337E-01     4.9999999999951827E-01     0.0000000000000000E+00 
    1.6666666666666671E-01     5.0000000000088307E-01     0.0000000000000000E+00 
    8.3333333333333329E-02     7.5000000000070155E-01     0.0000000000000000E+00 
    9.1666666666666674E-01     7.4999999999956468E-01     0.0000000000000000E+00 
    5.0000000000088307E-01     8.3333333333333348E-01     0.0000000000000000E+00 
    2.5000000000068640E-01     9.1666666666666674E-01     0.0000000000000000E+00 
    7.5000000000070155E-01     9.1666666666666674E-01     0.0000000000000000E+00 
[...]
CELL_DATA 768 
SCALARS Pressure double 1 
LOOKUP_TABLE default 

    1.8042055349442920E+00 
    1.7114037463858232E+00 
    1.6816896970105171E+00 
    1.7381511955750231E+00 
    1.6512637222506199E+00 
    1.6061458165982501E+00 
    1.6021854039987200E+00 
    1.6384388317328302E+00 
    1.6252901836844702E+00 
    1.5973998774727034E+00 
    1.5919542603163843E+00 
    1.6121850422492630E+00 
    1.6892997609992877E+00 
    1.6554541350885750E+00 
    1.6321503044862014E+00 
    1.6517556495881140E+00 
    1.5672093981059687E+00 
    1.5305291328877220E+00 
    1.5373444820849156E+00 
    1.5690221515285321E+00 
    1.4940510743071846E+00 
    1.4568107790666946E+00 
    1.4740714411893756E+00 
    1.5059604061547227E+00 
    1.5172465346030120E+00 
    1.4907322859605971E+00 
    1.5065090617076287E+00 
    1.5276934505561057E+00 
    1.5700831460866373E+00 
    1.5434937522124972E+00 
    1.5488358418307553E+00 
    1.5703911808961808E+00 
    1.6208502447986901E+00 
    1.6085113910029116E+00 
    1.5858255469799671E+00 
    1.5949669898355658E+00 
    1.5942661062046075E+00 
    1.5785595200989624E+00 
    1.5591303218934778E+00 
    1.5736462667454030E+00 
    1.5547687455170720E+00 
    1.5404986895697912E+00 
    1.5221792143822170E+00 
    1.5370154479479603E+00 
    1.5736946447935907E+00 
    1.5661716044310152E+00 
    1.5490327220372304E+00 
    1.5569208671864387E+00 
    1.8042491982129059E+00 
    1.7382090701309925E+00 
    1.6818925923582850E+00 
    1.7115962132003597E+00 
    1.6893684141001646E+00 
    1.6518221748289663E+00 
    1.6323341429050870E+00 
    1.6556507156458857E+00 
    1.6255942277695548E+00 
    1.6124430142154900E+00 
    1.5922472263776639E+00 
    1.5977409325885397E+00 
    1.6515874429116959E+00 
    1.6387575488704371E+00 
    1.6025646049148992E+00 
    1.6065349554298669E+00 
    1.6209157155269875E+00 
    1.5950212419766103E+00 
    1.5859581250306285E+00 
    1.6086783509546259E+00 
    1.5737191551302210E+00 
    1.5569540309260659E+00 
    1.5490512095337188E+00 
    1.5662386711096212E+00 
    1.5548166298285546E+00 
    1.5369196886652829E+00 
    1.5219503578860416E+00 
    1.5404638993279323E+00 
    1.5944873012340834E+00 
    1.5737960061334881E+00 
    1.5592494405783937E+00 
    1.5787823341186082E+00 
    1.5675217473925778E+00 
    1.5693212264186527E+00 
    1.5374214234214911E+00 
    1.5305676784388740E+00 
    1.5703499679860791E+00 
    1.5706098733997145E+00 
    1.5489123021626188E+00 
    1.5435691328422034E+00 
    1.5170899466132712E+00 
    1.5275721747259261E+00 
    1.5061566341837282E+00 
    1.4903280901857709E+00 
    1.4938016964182956E+00 
    1.5057614141932012E+00 
    1.4736453749509606E+00 
    1.4563679621692742E+00 
    1.3973475032832205E+00 
    1.3574708510056652E+00 
    1.3437127696164981E+00 
    1.3784533470921383E+00 
    1.3178529664285896E+00 
    1.2800219616312074E+00 
    1.2767656078993777E+00 
    1.3094109386003503E+00 
    1.3001063147047411E+00 
    1.2725862128317307E+00 
    1.2674075430211704E+00 
    1.2896992150704514E+00 
    1.3588493822997467E+00 
    1.3291791072206873E+00 
    1.3135080776638806E+00 
    1.3381342809188741E+00 
    1.2459623653042542E+00 
    1.2177027285021516E+00 
    1.2210418772697527E+00 
    1.2469246209013030E+00 
    1.1970164917346311E+00 
    1.1846748704146053E+00 
    1.1865076607651626E+00 
    1.2006580195352146E+00 
    1.2031610860731801E+00 
    1.1874796073720781E+00 
    1.1877673596729696E+00 
    1.2046457621246394E+00 
    1.2468626810247112E+00 
    1.2231517624936352E+00 
    1.2241930989397043E+00 
    1.2458020615531873E+00 
    1.3142867709592005E+00 
    1.2921365332136696E+00 
    1.2641198453075313E+00 
    1.2860120835042523E+00 
    1.2715171710362083E+00 
    1.2529672145123913E+00 
    1.2305210623310703E+00 
    1.2456991267649717E+00 
    1.2186043031084195E+00 
    1.2087549193437439E+00 
    1.1884442971082070E+00 
    1.1909540863498354E+00 
    1.2520944791815480E+00 
    1.2322516656655693E+00 
    1.1956478259507675E+00 
    1.2064613430153253E+00 
    1.4273534284515030E+00 
    1.4061350045588497E+00 
    1.4266814762393278E+00 
    1.4475498995997813E+00 
    1.3842498758086714E+00 
    1.3614439532533140E+00 
    1.3831209686070791E+00 
    1.4052547893049312E+00 
    1.4259549271375720E+00 
    1.4045056816269721E+00 
    1.4254063732909077E+00 
    1.4461742240056803E+00 
    1.4671926919885605E+00 
    1.4468261089308585E+00 
    1.4663846499532884E+00 
    1.4860906154781908E+00 
    1.3387629356559902E+00 
    1.3160654705448198E+00 
    1.3488545366516815E+00 
    1.3642075542511460E+00 
    1.2916236176648699E+00 
    1.2648309754351423E+00 
    1.3164547019013346E+00 
    1.3329511911234191E+00 
    1.3712884973391901E+00 
    1.3623363701913813E+00 
    1.4045294609773638E+00 
    1.4073366400731675E+00 
    1.3890714939998561E+00 
    1.3802269377144940E+00 
    1.4102542508078166E+00 
    1.4132271371915976E+00 
    1.5027433293291408E+00 
    1.4814953723929547E+00 
    1.4924534606206414E+00 
    1.5170590623903222E+00 
    1.4594734725503631E+00 
    1.4366543357512556E+00 
    1.4388709751997029E+00 
    1.4663481792369992E+00 
    1.4731311429615883E+00 
    1.4411357950698498E+00 
    1.4434547925959653E+00 
    1.4798443892931283E+00 
    1.5301147118031135E+00 
    1.5029410179592344E+00 
    1.5129931950598923E+00 
    1.5417901492789927E+00 
    1.1816094631749816E+00 
    1.1674704932802673E+00 
    1.1626416647880280E+00 
    1.1788892403600559E+00 
    1.1430920882630318E+00 
    1.1090762620120238E+00 
    1.1076195735532721E+00 
    1.1386828881207716E+00 
    1.1352182711273706E+00 
    1.1071052281471792E+00 
    1.1075021843775295E+00 
    1.1326761494934428E+00 
    1.1762162965522902E+00 
    1.1584629528398827E+00 
    1.1549180325141168E+00 
    1.1736338947571219E+00 
    1.0674300267816024E+00 
    1.0195327634419327E+00 
    1.0303111659844117E+00 
    1.0713524753652699E+00 
    9.6719967675951013E-01 
    9.1156400573183416E-01 
    9.3844283698187547E-01 
    9.8571493949350630E-01 
    1.0045247721144306E+00 
    9.6524396329611417E-01 
    9.9234495957522417E-01 
    1.0240614575705815E+00 
    1.0760414276883152E+00 
    1.0417384136446719E+00 
    1.0540297916765560E+00 
    1.0816043332231382E+00 
    1.1700421751744254E+00 
    1.1480804437801457E+00 
    1.1348502973412580E+00 
    1.1642561978344521E+00 
    1.1238605188654838E+00 
    1.0981511028667705E+00 
    1.0753781086482879E+00 
    1.1049753356002543E+00 
    1.0823616886443403E+00 
    1.0498966244724959E+00 
    1.0221571960019908E+00 
    1.0557030076756284E+00 
    1.1562313735074294E+00 
    1.1175963610825481E+00 
    1.0937909262893013E+00 
    1.1423131693104112E+00 
    1.0790887230953894E+00 
    1.0483292114955114E+00 
    9.9766470868357904E-01 
    1.0179734927558544E+00 
    1.0191586464759503E+00 
    9.9098865388038349E-01 
    9.5758070569380871E-01 
    9.7755863699757395E-01 
    9.3586120530965922E-01 
    9.2370623149095321E-01 
    8.8937116390352000E-01 
    8.9373864334319286E-01 
    9.5964946709548093E-01 
    9.4781314336488753E-01 
    8.9790041629420247E-01 
    9.0184667584238953E-01 
    9.6156182165864068E-01 
    9.3052384856847725E-01 
    9.0072897292049314E-01 
    9.3203931887491431E-01 
    8.9936780551821038E-01 
    8.6754782444705048E-01 
    8.3632626081958650E-01 
    8.6892361423480913E-01 
    8.3800790778709711E-01 
    8.0480418302911028E-01 
    7.7345769793850561E-01 
    8.0686190147237569E-01 
    9.0194502241203622E-01 
    8.7029338653796462E-01 
    8.3946296280940524E-01 
    8.7135694769837613E-01 
    8.4405387395326892E-01 
    8.4766886825915355E-01 
    7.9651129173090895E-01 
    7.8527793821116065E-01 
    8.5106986212298896E-01 
    8.5431118134051076E-01 
    8.1845019919138828E-01 
    8.0748465050525253E-01 
    7.6357324516884617E-01 
    7.8194733340868128E-01 
    7.4483405465001085E-01 
    7.1962427693613862E-01 
    7.2780960796204808E-01 
    7.4553675611535308E-01 
    6.9611306454083910E-01 
    6.7454858265743733E-01 
    1.5419581329530094E+00 
    1.5126970697300810E+00 
    1.5024489829611909E+00 
    1.5300194596834300E+00 
    1.4788830925019381E+00 
    1.4418787859572355E+00 
    1.4397030330924603E+00 
    1.4721271034101211E+00 
    1.4653398170991339E+00 
    1.4375697956464102E+00 
    1.4354774686053637E+00 
    1.4584910910510127E+00 
    1.5167583383165517E+00 
    1.4918166776000215E+00 
    1.4807720153773727E+00 
    1.5022829538578126E+00 
    1.4029703390715769E+00 
    1.3614552612724218E+00 
    1.3703662741456362E+00 
    1.4059273201067159E+00 
    1.3164257083346178E+00 
    1.2652556966516442E+00 
    1.2917669574926272E+00 
    1.3326512203896037E+00 
    1.3483769875845464E+00 
    1.3159618137961921E+00 
    1.3384794672320153E+00 
    1.3636405853927793E+00 
    1.4089694546306970E+00 
    1.3792951009083709E+00 
    1.3881750440961309E+00 
    1.4120698612775013E+00 
    1.4855104537954387E+00 
    1.4655807080442882E+00 
    1.4460549027522909E+00 
    1.4666092660417307E+00 
    1.4451912511304987E+00 
    1.4243222016955981E+00 
    1.4036158913553674E+00 
    1.4250916875626831E+00 
    1.4045671995550324E+00 
    1.3824927587921811E+00 
    1.3610270748326745E+00 
    1.3837355472711885E+00 
    1.4470038577683870E+00 
    1.4260446990074376E+00 
    1.4056050726350950E+00 
    1.4268683282744747E+00 
    1.3969185764619965E+00 
    1.3780374878037747E+00 
    1.3434469339827795E+00 
    1.3571703853388755E+00 
    1.3584927184156621E+00 
    1.3378967320852064E+00 
    1.3134141492443097E+00 
    1.3289780457515439E+00 
    1.3000144612800721E+00 
    1.2896742707284616E+00 
    1.2673906631480754E+00 
    1.2724844684951888E+00 
    1.3176613491028599E+00 
    1.3092459181294178E+00 
    1.2765890424406905E+00 
    1.2797870046898578E+00 
    1.3142050179026334E+00 
    1.2861244960893015E+00 
    1.2643002675674890E+00 
    1.2921565968249007E+00 
    1.2523812236192018E+00 
    1.2068461984503955E+00 
    1.1960413142272182E+00 
    1.2325489936977527E+00 
    1.2188495199900049E+00 
    1.1912648358992601E+00 
    1.1885841647043118E+00 
    1.2088607841896657E+00 
    1.2715757445894775E+00 
    1.2458625713162104E+00 
    1.2306000361992995E+00 
    1.2529978158940773E+00 
    1.2456584306188079E+00 
    1.2466781089888030E+00 
    1.2206282158265862E+00 
    1.2171678765951102E+00 
    1.2466910755418656E+00 
    1.2457225313005567E+00 
    1.2240913168615173E+00 
    1.2228800635374111E+00 
    1.2027952579378405E+00 
    1.2045004919865159E+00 
    1.1876178164531808E+00 
    1.1870945189287172E+00 
    1.1963492917783622E+00 
    1.2001195134819034E+00 
    1.1859180869948285E+00 
    1.1839897657430065E+00 
    8.2179331609762163E-01 
    7.5822138433398512E-01 
    7.3690528154531898E-01 
    7.9319792052575278E-01 
    6.9000636926213488E-01 
    6.1439164092604048E-01 
    6.1079587056959428E-01 
    6.7682399887147027E-01 
    6.6503412486754609E-01 
    6.0910980281382654E-01 
    6.0930798630621807E-01 
    6.5503229568427712E-01 
    7.6474224141037628E-01 
    7.1639317892139309E-01 
    6.9726319098053102E-01 
    7.3713881376076063E-01 
    5.2632724634622774E-01 
    4.1449384287659896E-01 
    4.4826486059260218E-01 
    5.3632328699849341E-01 
    2.5510272341269985E-01 
    0.0000000000000000E+00 
    1.8518055278027890E-01 
    3.3669634068970372E-01 
    4.0627154048721070E-01 
    3.1724984992505245E-01 
    4.1648998016059363E-01 
    4.6638124667330821E-01 
    5.4829562068581794E-01 
    4.8205358188234859E-01 
    5.1490108243392141E-01 
    5.6163866774240723E-01 
    7.0899137073177243E-01 
    6.7325666998950806E-01 
    6.4561354055285292E-01 
    6.8174961950605772E-01 
    6.3485355605690674E-01 
    5.9258109971163142E-01 
    5.5794912922676942E-01 
    6.0489479390973000E-01 
    5.7871261014715469E-01 
    5.2503718742684613E-01 
    4.9523568284557073E-01 
    5.5813469474919775E-01 
    6.5929215976474009E-01 
    6.2292051258577774E-01 
    6.0731494446986656E-01 
    6.4428093416106724E-01 
    1.0798289852303424E+00 
    1.0178263706660571E+00 
    9.9721740062851760E-01 
    1.0486541792577779E+00 
    9.5829880010296142E-01 
    8.9945639300553470E-01 
    8.9564383405284320E-01 
    9.4639066177890929E-01 
    9.3437816693218156E-01 
    8.9164356834755976E-01 
    8.8746486901868094E-01 
    9.2226846007512586E-01 
    1.0191447552568451E+00 
    9.7686583309383856E-01 
    9.5671441679302349E-01 
    9.9069290338078242E-01 
    8.4143671463082537E-01 
    7.8366052619756787E-01 
    7.9479025692568339E-01 
    8.4527022652862494E-01 
    7.2736759163001474E-01 
    6.7480122135275611E-01 
    6.9615524095853121E-01 
    7.4480854259376461E-01 
    7.6264207715449117E-01 
    7.1946837458849222E-01 
    7.4451266327787757E-01 
    7.8097590511016723E-01 
    8.4891199969821607E-01 
    8.0584811502569587E-01 
    8.1690671225762956E-01 
    8.5242154583439811E-01 
    9.6104191228916058E-01 
    9.3102151942709233E-01 
    8.9963446770250122E-01 
    9.2983794589950974E-01 
    9.0048452185426431E-01 
    8.6961153084521503E-01 
    8.3794543078884631E-01 
    8.6892067424919939E-01 
    8.3691503330443995E-01 
    8.0578327242593561E-01 
    7.7294686948185087E-01 
    8.0419696748026825E-01 
    8.9869200897869861E-01 
    8.6798786872472056E-01 
    8.3568448620773383E-01 
    8.6699305301294294E-01 
    1.1427994574967661E+00 
    1.0942787565193008E+00 
    1.1181495218986710E+00 
    1.1567186686872788E+00 
    1.0560513787009063E+00 
    1.0223124439139750E+00 
    1.0503769142734547E+00 
    1.0829267071753153E+00 
    1.1056165370909821E+00 
    1.0760834411478051E+00 
    1.0989263622096863E+00 
    1.1245044198190435E+00 
    1.1646652174738650E+00 
    1.1354238075481535E+00 
    1.1485509448296289E+00 
    1.1703057138787285E+00 
    9.9233194044416861E-01 
    9.6503387273188246E-01 
    1.0048666864361553E+00 
    1.0244782510163637E+00 
    9.3806304957472053E-01 
    9.1104708759332631E-01 
    9.6722925941413462E-01 
    9.8591073331208845E-01 
    1.0310809696492380E+00 
    1.0202611574247109E+00 
    1.0684999125807300E+00 
    1.0723762536347021E+00 
    1.0547504169669906E+00 
    1.0424943641056050E+00 
    1.0769996865890725E+00 
    1.0824704524839919E+00 
    1.1736396820139923E+00 
    1.1552038422507727E+00 
    1.1585998208176762E+00 
    1.1760002391357303E+00 
    1.1332494038471228E+00 
    1.1083175273929047E+00 
    1.1079858905231383E+00 
    1.1357675498750783E+00 
    1.1391593415875341E+00 
    1.1085638424683442E+00 
    1.1100565302061705E+00 
    1.1435053325859241E+00 
    1.1784530487338793E+00 
    1.1626234253198913E+00 
    1.1673011478196673E+00 
    1.1810220263440072E+00 
    6.4443515186442057E-01 
    6.0756597713874017E-01 
    6.2355665486328404E-01 
    6.5964226700325723E-01 
    5.5847377955028610E-01 
    4.9560423526479686E-01 
    5.2603197767318166E-01 
    5.7960930404533917E-01 
    6.0615642789283741E-01 
    5.5944499155870608E-01 
    5.9436394735308817E-01 
    6.3628396108385132E-01 
    6.8214271907465296E-01 
    6.4650809669172971E-01 
    6.7417688757091465E-01 
    7.0931435443958202E-01 
    4.1685460046523681E-01 
    3.1755200372910425E-01 
    4.0734714170112885E-01 
    4.6742785340824816E-01 
    1.8535211929398249E-01 
    0.0000000000000000E+00 
    2.5582439477060043E-01 
    3.3763068058176193E-01 
    4.5009518569733814E-01 
    4.1616202639093913E-01 
    5.2881380461623462E-01 
    5.3873462221779123E-01 
    5.1652252028055268E-01 
    4.8381088153832280E-01 
    5.5053016095621365E-01 
    5.6360980673358529E-01 
    7.3727886739151294E-01 
    6.9807976053425647E-01 
    7.1713276831271799E-01 
    7.6472649501167733E-01 
    6.5649434290039144E-01 
    6.1125857089031788E-01 
    6.1127100617938079E-01 
    6.6657842299708769E-01 
    6.7833428819811525E-01 
    6.1308448436220475E-01 
    6.1670056046550437E-01 
    6.9139474611844420E-01 
    7.9301658928878571E-01 
    7.3748285824291449E-01 
    7.5858093165276597E-01 
    8.2144589710629878E-01 
    1.1777080083297335E+00 
    1.2400261819921761E+00 
    1.2339952329708588E+00 
    1.1766112466786329E+00 
    1.3000102453391884E+00 
    1.3569653061726472E+00 
    1.3420479729635706E+00 
    1.2893036880028479E+00 
    1.2801107398703075E+00 
    1.3283292171441827E+00 
    1.3155815698239350E+00 
    1.2722372492371483E+00 
    1.1769010695210051E+00 
    1.2295655560148160E+00 
    1.2265737755683805E+00 
    1.1785009151116348E+00 
    1.4091438833812351E+00 
    1.4563663582971129E+00 
    1.4302781428687412E+00 
    1.3887742730286610E+00 
    1.4991061077534642E+00 
    1.5376227606677564E+00 
    1.5069670761019602E+00 
    1.4693937536485531E+00 
    1.4386212823020692E+00 
    1.4730462138525127E+00 
    1.4362711429971866E+00 
    1.4067308020689218E+00 
    1.3692239823940275E+00 
    1.4044025734921008E+00 
    1.3784840961708431E+00 
    1.3502426979923410E+00 
    1.1844321181971549E+00 
    1.2333043620528510E+00 
    1.2509614561299329E+00 
    1.1958360743769956E+00 
    1.2786022423848171E+00 
    1.3209896851843714E+00 
    1.3446030872151737E+00 
    1.2998819066303950E+00 
    1.3232425867357398E+00 
    1.3691049142229583E+00 
    1.3959538731985228E+00 
    1.3509078781731847E+00 
    1.2111165138810716E+00 
    1.2720291220018654E+00 
    1.3002032411482645E+00 
    1.2364028437450423E+00 
    1.1136160559325567E+00 
    1.0489484586614226E+00 
    1.0573037928264606E+00 
    1.1170233892913186E+00 
    9.8427832868942711E-01 
    9.2013213989961506E-01 
    9.3887866412512666E-01 
    9.9781102762127327E-01 
    1.0113234867326375E+00 
    9.5752984219206316E-01 
    9.7620489246932640E-01 
    1.0249132784038038E+00 
    1.1212217613570821E+00 
    1.0659245722906012E+00 
    1.0748002421597593E+00 
    1.1260944493339957E+00 
    8.5827492371144187E-01 
    7.9890890875489051E-01 
    8.3516205277062061E-01 
    8.8475857733940444E-01 
    7.4111916284369628E-01 
    6.8523559735426620E-01 
    7.3792975358675772E-01 
    7.8626024665369043E-01 
    8.3246118667354951E-01 
    7.9330556113430850E-01 
    8.5012023545777116E-01 
    8.7944777234420257E-01 
    9.1122773693102721E-01 
    8.7174513761315975E-01 
    9.0865063016770253E-01 
    9.3782227834530252E-01 
    1.1280562634064331E+00 
    1.0746551052411077E+00 
    1.0639121563586669E+00 
    1.1254733394723531E+00 
    1.0239078357126801E+00 
    9.7499451440911633E-01 
    9.5338538964408925E-01 
    1.0072715475370797E+00 
    9.8936763336668643E-01 
    9.3133946228742115E-01 
    9.0869882507879263E-01 
    9.6965868585924209E-01 
    1.1196078424003342E+00 
    1.0506903537360563E+00 
    1.0333969462309232E+00 
    1.1073046400050952E+00 
    1.2368406297364358E+00 
    1.3001638122970962E+00 
    1.2717411572647801E+00 
    1.2112047190290878E+00 
    1.3500342428139438E+00 
    1.3943985334141666E+00 
    1.3678681612889656E+00 
    1.3224395848537052E+00 
    1.2991483334436935E+00 
    1.3436110497166800E+00 
    1.3202012315076663E+00 
    1.2779623690799082E+00 
    1.1956119357383985E+00 
    1.2505290582619304E+00 
    1.2328054040806184E+00 
    1.1840084326757863E+00 
    1.4346938543714549E+00 
    1.4720873499296723E+00 
    1.4377646934286885E+00 
    1.4054879939202483E+00 
    1.5066811406489635E+00 
    1.5377719261167302E+00 
    1.4990776917285986E+00 
    1.4690114753870063E+00 
    1.4298764006100493E+00 
    1.4562602680165517E+00 
    1.4090249376991830E+00 
    1.3884179370875607E+00 
    1.3774953069865243E+00 
    1.4036742006185368E+00 
    1.3686338409447685E+00 
    1.3494650346030648E+00 
    1.1779712617086708E+00 
    1.2260531127725323E+00 
    1.2291164516068409E+00 
    1.1764101102115820E+00 
    1.2716601803049621E+00 
    1.3149227577069125E+00 
    1.3278181075774991E+00 