# vtk DataFile Version 2.0
Pressure Field Data 
ASCII 
DATASET UNSTRUCTURED_GRID 

POINTS 801 double 

    0.0000000000000000E+00     0.0000000000000000E+00     0.0000000000000000E+00 
    1.0000000000000000E+00     0.0000000000000000E+00     0.0000000000000000E+00 
    1.0000000000000000E+00     1.0000000000000000E+00     0.0000000000000000E+00 
    0.0000000000000000E+00     1.0000000000000000E+00     0.0000000000000000E+00 
    2.5000000000000000E-01     2.5000000000000000E-01     0.0000000000000000E+00 
    7.5000000000000000E-01     2.5000000000000000E-01     0.0000000000000000E+00 
    7.5000000000000000E-01     7.5000000000000000E-01     0.0000000000000000E+00 
    2.5000000000000000E-01     7.5000000000000000E-01     0.0000000000000000E+00 
    2.4999999999941941E-01     0.0000000000000000E+00     0.0000000000000000E+00 
    4.9999999999869399E-01     0.0000000000000000E+00     0.0000000000000000E+00 
    7.4999999999934697E-01     0.0000000000000000E+00     0.0000000000000000E+00 
    1.2499999999977940E-01     0.0000000000000000E+00     0.0000000000000000E+00 
    3.7499999999905670E-01     0.0000000000000000E+00     0.0000000000000000E+00 
    6.2499999999902045E-01     0.0000000000000000E+00     0.0000000000000000E+00 
    8.7499999999967348E-01     0.0000000000000000E+00     0.0000000000000000E+00 
    6.2499999999889699E-02     0.0000000000000000E+00     0.0000000000000000E+00 
    1.8749999999959940E-01     0.0000000000000000E+00     0.0000000000000000E+00 
    3.1249999999923811E-01     0.0000000000000000E+00     0.0000000000000000E+00 
    4.3749999999887529E-01     0.0000000000000000E+00     0.0000000000000000E+00 
    5.6249999999885725E-01     0.0000000000000000E+00     0.0000000000000000E+00 
    6.8749999999918376E-01     0.0000000000000000E+00     0.0000000000000000E+00 
    8.1249999999951017E-01     0.0000000000000000E+00     0.0000000000000000E+00 
    9.3749999999983680E-01     0.0000000000000000E+00     0.0000000000000000E+00 
    1.0000000000000000E+00     2.4999999999941941E-01     0.0000000000000000E+00 
    1.0000000000000000E+00     4.9999999999869399E-01     0.0000000000000000E+00 
    1.0000000000000000E+00     7.4999999999934697E-01     0.0000000000000000E+00 
    1.0000000000000000E+00     1.2499999999977940E-01     0.0000000000000000E+00 
    1.0000000000000000E+00     3.7499999999905670E-01     0.0000000000000000E+00 
    1.0000000000000000E+00     6.2499999999902045E-01     0.0000000000000000E+00 
    1.0000000000000000E+00     8.7499999999967348E-01     0.0000000000000000E+00 
    1.0000000000000000E+00     6.2499999999889699E-02     0.0000000000000000E+00 
    1.0000000000000000E+00     1.8749999999959940E-01     0.0000000000000000E+00 
    1.0000000000000000E+00     3.1249999999923811E-01     0.0000000000000000E+00 
    1.0000000000000000E+00     4.3749999999887529E-01     0.0000000000000000E+00 
    1.0000000000000000E+00     5.6249999999885725E-01     0.0000000000000000E+00 
    1.0000000000000000E+00     6.8749999999918376E-01     0.0000000000000000E+00 
    1.0000000000000000E+00     8.1249999999951017E-01     0.0000000000000000E+00 
    1.0000000000000000E+00     9.3749999999983680E-01     0.0000000000000000E+00 
    7.5000000000112044E-01     1.0000000000000000E+00     0.0000000000000000E+00 
    5.0000000000205913E-01     1.0000000000000000E+00     0.0000000000000000E+00 
    2.5000000000102962E-01     1.0000000000000000E+00     0.0000000000000000E+00 
    8.7499999999991362E-01     1.0000000000000000E+00     0.0000000000000000E+00 
    6.2499999999988309E-01     1.0000000000000000E+00     0.0000000000000000E+00 
    3.7499999999869987E-01     1.0000000000000000E+00     0.0000000000000000E+00 
    1.2499999999880820E-01     1.0000000000000000E+00     0.0000000000000000E+00 
    9.3749999999995681E-01     1.0000000000000000E+00     0.0000000000000000E+00 
    8.1250000000051703E-01     1.0000000000000000E+00     0.0000000000000000E+00 
    6.8750000000050182E-01     1.0000000000000000E+00     0.0000000000000000E+00 
    5.6250000000097111E-01     1.0000000000000000E+00     0.0000000000000000E+00 
    4.3750000000037947E-01     1.0000000000000000E+00     0.0000000000000000E+00 
    3.1249999999986477E-01     1.0000000000000000E+00     0.0000000000000000E+00 
    1.8749999999991890E-01     1.0000000000000000E+00     0.0000000000000000E+00 
    6.2499999999404102E-02     1.0000000000000000E+00     0.0000000000000000E+00 
    0.0000000000000000E+00     7.5000000000112044E-01     0.0000000000000000E+00 
    0.0000000000000000E+00     5.0000000000205913E-01     0.0000000000000000E+00 
    0.0000000000000000E+00     2.5000000000102962E-01     0.0000000000000000E+00 
    0.0000000000000000E+00     8.7499999999991362E-01     0.0000000000000000E+00 
    0.0000000000000000E+00     6.2499999999988309E-01     0.0000000000000000E+00 
    0.0000000000000000E+00     3.7499999999869987E-01     0.0000000000000000E+00 
    0.0000000000000000E+00     1.2499999999880820E-01     0.0000000000000000E+00 
    0.0000000000000000E+00     9.3749999999995681E-01     0.0000000000000000E+00 
    0.0000000000000000E+00     8.1250000000051703E-01     0.0000000000000000E+00 
    0.0000000000000000E+00     6.8750000000050182E-01     0.0000000000000000E+00 
    0.0000000000000000E+00     5.6250000000097111E-01     0.0000000000000000E+00 
    0.0000000000000000E+00     4.3750000000037947E-01     0.0000000000000000E+00 
    0.0000000000000000E+00     3.1249999999986477E-01     0.0000000000000000E+00 
    0.0000000000000000E+00     1.8749999999991890E-01     0.0000000000000000E+00 
    0.0000000000000000E+00     6.2499999999404102E-02     0.0000000000000000E+00 
    4.9999999999972200E-01     2.5000000000000000E-01     0.0000000000000000E+00 
    3.7500000000067490E-01     2.5000000000000000E-01     0.0000000000000000E+00 
    6.2500000000042988E-01     2.5000000000000000E-01     0.0000000000000000E+00 
    3.1250000000033751E-01     2.5000000000000000E-01     0.0000000000000000E+00 
    4.3750000000019851E-01     2.5000000000000000E-01     0.0000000000000000E+00 
    5.6250000000007594E-01     2.5000000000000000E-01     0.0000000000000000E+00 
    6.8750000000021494E-01     2.5000000000000000E-01     0.0000000000000000E+00 
    7.5000000000000000E-01     4.9999999999972200E-01     0.0000000000000000E+00 
    7.5000000000000000E-01     3.7500000000067490E-01     0.0000000000000000E+00 
    7.5000000000000000E-01     6.2500000000042988E-01     0.0000000000000000E+00 
    7.5000000000000000E-01     3.1250000000033751E-01     0.0000000000000000E+00 
    7.5000000000000000E-01     4.3750000000019851E-01     0.0000000000000000E+00 
    7.5000000000000000E-01     5.6250000000007594E-01     0.0000000000000000E+00 
    7.5000000000000000E-01     6.8750000000021494E-01     0.0000000000000000E+00 
    5.0000000000118039E-01     7.5000000000000000E-01     0.0000000000000000E+00 
    6.2500000000161415E-01     7.5000000000000000E-01     0.0000000000000000E+00 
    3.7500000000140910E-01     7.5000000000000000E-01     0.0000000000000000E+00 
    6.8750000000080713E-01     7.5000000000000000E-01     0.0000000000000000E+00 
    5.6250000000139733E-01     7.5000000000000000E-01     0.0000000000000000E+00 
    4.3750000000129469E-01     7.5000000000000000E-01     0.0000000000000000E+00 
    3.1250000000070460E-01     7.5000000000000000E-01     0.0000000000000000E+00 
    2.5000000000000000E-01     5.0000000000118039E-01     0.0000000000000000E+00 
    2.5000000000000000E-01     6.2500000000161415E-01     0.0000000000000000E+00 
    2.5000000000000000E-01     3.7500000000140910E-01     0.0000000000000000E+00 
    2.5000000000000000E-01     6.8750000000080713E-01     0.0000000000000000E+00 
    2.5000000000000000E-01     5.6250000000139733E-01     0.0000000000000000E+00 
    2.5000000000000000E-01     4.3750000000129469E-01     0.0000000000000000E+00 
    2.5000000000000000E-01     3.1250000000070460E-01     0.0000000000000000E+00 
    3.7499999999934702E-01     1.2500000000000000E-01     0.0000000000000000E+00 
    1.2500000000000000E-01     1.2500000000000000E-01     0.0000000000000000E+00 
    1.2500000000000000E-01     3.7500000000102962E-01     0.0000000000000000E+00 
    8.7500000000000000E-01     1.2500000000000000E-01     0.0000000000000000E+00 
    6.2499999999934697E-01     1.2500000000000000E-01     0.0000000000000000E+00 
    8.7500000000000000E-01     3.7499999999934702E-01     0.0000000000000000E+00 
    8.7500000000000000E-01     6.2499999999934697E-01     0.0000000000000000E+00 
    1.2500000000000000E-01     6.2500000000102962E-01     0.0000000000000000E+00 
    1.2500000000000000E-01     8.7500000000000000E-01     0.0000000000000000E+00 
    8.7500000000000000E-01     8.7500000000000000E-01     0.0000000000000000E+00 
    6.2500000000102962E-01     8.7500000000000000E-01     0.0000000000000000E+00 
    3.7500000000102962E-01     8.7500000000000000E-01     0.0000000000000000E+00 
    2.4999999999957681E-01     8.3333333333333329E-02     0.0000000000000000E+00 
    8.3333333333333329E-02     2.5000000000068640E-01     0.0000000000000000E+00 
    7.4999999999956468E-01     8.3333333333333329E-02     0.0000000000000000E+00 
    4.9999999999951827E-01     1.6666666666666671E-01     0.0000000000000000E+00 
    9.1666666666666674E-01     2.4999999999957681E-01     0.0000000000000000E+00 
    8.3333333333333337E-01     4.9999999999951827E-01     0.0000000000000000E+00 
    1.6666666666666671E-01     5.0000000000088307E-01     0.0000000000000000E+00 
    8.3333333333333329E-02     7.5000000000070155E-01     0.0000000000000000E+00 
    9.1666666666666674E-01     7.4999999999956468E-01     0.0000000000000000E+00 
    5.0000000000088307E-01     8.3333333333333348E-01     0.0000000000000000E+00 
    2.5000000000068640E-01     9.1666666666666674E-01     0.0000000000000000E+00 
    7.5000000000070155E-01     9.1666666666666674E-01     0.0000000000000000E+00 
[...]
CELL_DATA 768 
SCALARS Pressure double 1 
LOOKUP_TABLE default 

    2.0562418110075549E+00 
    1.9628687976132186E+00 
    1.9328095284826003E+00 
    1.9898842535974690E+00 
    1.9017499795441803E+00 
    1.8551027547658956E+00 
    1.8509715906236612E+00 
    1.8886120010328511E+00 
    1.8750677632668236E+00 
    1.8459654845914377E+00 
    1.8402497288125670E+00 
    1.8614751253597313E+00 
    1.9405794647479662E+00 
    1.9061159927790969E+00 
    1.8822001044304353E+00 
    1.9023674920668940E+00 
    1.8139686727355397E+00 
    1.7745259109470908E+00 
    1.7819021226254568E+00 
    1.8159074274417988E+00 
    1.7348012701008997E+00 
    1.6938612733454173E+00 
    1.7128664787906482E+00 
    1.7478171785871970E+00 
    1.7601201819307626E+00 
    1.7311542016291022E+00 
    1.7484167382769449E+00 
    1.7714810442079869E+00 
    1.8170493893523600E+00 
    1.7885499027388838E+00 
    1.7943222208688407E+00 
    1.8173950651610009E+00 
    1.8705276233495265E+00 
    1.8576829347401245E+00 
    1.8338668750341773E+00 
    1.8435130595906382E+00 
    1.8427379268033393E+00 
    1.8261185678670631E+00 
    1.8054083461393964E+00 
    1.8209300563503195E+00 
    1.8007571224324332E+00 
    1.7853651157400598E+00 
    1.7655020843019147E+00 
    1.7816097081987639E+00 
    1.8210367082462713E+00 
    1.8129973788936480E+00 
    1.7946042281123975E+00 
    1.8030948750690414E+00 
    2.0562871266758518E+00 
    1.9899453430052330E+00 
    1.9330252393889908E+00 
    1.9630719114334669E+00 
    1.9406527151531343E+00 
    1.9024400218583406E+00 
    1.8824002650410325E+00 
    1.9063264492320346E+00 
    1.8753931076892567E+00 
    1.8617544998958766E+00 
    1.8405722751060170E+00 
    1.8463373076899885E+00 
    1.9020945008137460E+00 
    1.8889517969452521E+00 
    1.8513830289453157E+00 
    1.8555239788859594E+00 
    1.8706009597531146E+00 
    1.8435752429209336E+00 
    1.8340202552586531E+00 
    1.8578697748600939E+00 
    1.8210671725902845E+00 
    1.8031374998085397E+00 
    1.7946464695510664E+00 
    1.8130846459785739E+00 
    1.8008341220631767E+00 
    1.7815412455812929E+00 
    1.7653035466566860E+00 
    1.7853653706418158E+00 
    1.8429847926451286E+00 
    1.8211080962352706E+00 
    1.8055635836503034E+00 
    1.8263736051660666E+00 
    1.8143291856527621E+00 
    1.8162525784559667E+00 
    1.7820322566493110E+00 
    1.7746201863363389E+00 
    1.8173589803479411E+00 
    1.8176519504850281E+00 
    1.7944406807374245E+00 
    1.7886726833220050E+00 
    1.7600112407139863E+00 
    1.7714002388253398E+00 
    1.7480989148943962E+00 
    1.7307957728312255E+00 
    1.7346126447088708E+00 
    1.7476730051349865E+00 
    1.7124999448082767E+00 
    1.6934905205097941E+00 
    1.6278621314284829E+00 
    1.5832975161164999E+00 
    1.5678635779429979E+00 
    1.6067456508053057E+00 
    1.5388687824252505E+00 
    1.4963325927851663E+00 
    1.4926441249927511E+00 
    1.5293629300148999E+00 
    1.5188540669220483E+00 
    1.4878909904854460E+00 
    1.4819860271872596E+00 
    1.5070683196276597E+00 
    1.5847678838621144E+00 
    1.5515119896906462E+00 
    1.5338296687291686E+00 
    1.5614692320354906E+00 
    1.4579665901085037E+00 
    1.4260998183705982E+00 
    1.4298293818873233E+00 
    1.4590246056001603E+00 
    1.4027735721415646E+00 
    1.3889026766110664E+00 
    1.3908999767117074E+00 
    1.4068325978627012E+00 
    1.4095634589408508E+00 
    1.3918642803597370E+00 
    1.3920125407563524E+00 
    1.4111040540016844E+00 
    1.4589020855457688E+00 
    1.4321377715182799E+00 
    1.4332091797974662E+00 
    1.4576281438290652E+00 
    1.5345689203732829E+00 
    1.5096792174121121E+00 
    1.4779703300210709E+00 
    1.5025910440814683E+00 
    1.4864942419164804E+00 
    1.4656317179020635E+00 
    1.4402372239613974E+00 
    1.4572704581689619E+00 
    1.4265499953455254E+00 
    1.4155838288873648E+00 
    1.3925603939765305E+00 
    1.3951595170784683E+00 
    1.4641159932063039E+00 
    1.4418211318288849E+00 
    1.4002264322917417E+00 
    1.4121780202361973E+00 
    1.6612319225086676E+00 
    1.6376105594419164E+00 
    1.6604332710887035E+00 
    1.6835883620976113E+00 
    1.6131555440502163E+00 
    1.5875797915483045E+00 
    1.6118124093028074E+00 
    1.6365613790100226E+00 
    1.6595729526436704E+00 
    1.6356690103614984E+00 
    1.6589225516228563E+00 
    1.6819866780326340E+00 
    1.7052605753303827E+00 
    1.6827452935583074E+00 
    1.7043433743439989E+00 
    1.7260442731878722E+00 
    1.5620533404569343E+00 
    1.5364361169482692E+00 
    1.5732899926498349E+00 
    1.5905795181712754E+00 
    1.5087935454121388E+00 
    1.4784505147516211E+00 
    1.5367111840695034E+00 
    1.5553492932133921E+00 
    1.5983945891854103E+00 
    1.5883088719004637E+00 
    1.6355451777870071E+00 
    1.6387100529530212E+00 
    1.6183936279942008E+00 
    1.6084540044541740E+00 
    1.6419963061419067E+00 
    1.6453384867976375E+00 
    1.7442923920196680E+00 
    1.7209719886434671E+00 
    1.7329981322713632E+00 
    1.7599236628883932E+00 
    1.6966777185164692E+00 
    1.6713880041365756E+00 
    1.6738252116572365E+00 
    1.7042518804610194E+00 
    1.7117204415582574E+00 
    1.6763210422481101E+00 
    1.6788839418444317E+00 
    1.7191071990083326E+00 
    1.7741293546660573E+00 
    1.7444839960888270E+00 
    1.7554662556432545E+00 
    1.7867796579682977E+00 
    1.3854615324676884E+00 
    1.3693386516282997E+00 
    1.3637353645313994E+00 
    1.3823089211653012E+00 
    1.3414194637219259E+00 
    1.3023715268569531E+00 
    1.3006359466582302E+00 
    1.3362820934742632E+00 
    1.3321623075760287E+00 
    1.2999310158833024E+00 
    1.3002556309946125E+00 
    1.3290920937713249E+00 
    1.3791020403458341E+00 
    1.3587891952869346E+00 
    1.3545531115928755E+00 
    1.3759623859498242E+00 
    1.2545754431761784E+00 
    1.1994368247797322E+00 
    1.2117968020269194E+00 
    1.2590474334021391E+00 
    1.1390782066632077E+00 
    1.0747862313864980E+00 
    1.1057655317138462E+00 
    1.1603668818154924E+00 
    1.1818918311715703E+00 
    1.1365391219796559E+00 
    1.1676458094713460E+00 
    1.2042352494254871E+00 
    1.2643030349656614E+00 
    1.2248054907887365E+00 
    1.2387785063822816E+00 
    1.2705335129565574E+00 
    1.3716353946383242E+00 
    1.3465385028697014E+00 
    1.3312045536207757E+00 
    1.3647799611168072E+00 
    1.3188402510379018E+00 
    1.2894182552650666E+00 
    1.2631854541218919E+00 
    1.2970547837503643E+00 
    1.2709957563195791E+00 
    1.2338233150573419E+00 
    1.2018481991911467E+00 
    1.2402992001059743E+00 
    1.3553815664398732E+00 
    1.3112819693848536E+00 
    1.2838953151073447E+00 
    1.3393635565020905E+00 
    1.2669995096835163E+00 
    1.2317318537752635E+00 
    1.1734347988598897E+00 
    1.1967981246551664E+00 
    1.1982554949300579E+00 
    1.1659129777432051E+00 
    1.1273547265683601E+00 
    1.1503144315816622E+00 
    1.1021630626908834E+00 
    1.0881964219310962E+00 
    1.0484362184496976E+00 
    1.0534192148742387E+00 
    1.1295698199688342E+00 
    1.1159225659515641E+00 
    1.0581954397704931E+00 
    1.0627491337881863E+00 
    1.1321119213665733E+00 
    1.0964569562864050E+00 
    1.0619332824570167E+00 
    1.0979810819623470E+00 
    1.0607620225955567E+00 
    1.0240968532831847E+00 
    9.8767939739942301E-01 
    1.0253406290301679E+00 
    9.8927362351963621E-01 
    9.5080358604628390E-01 
    9.1409546025783806E-01 
    9.5291769752004984E-01 
    1.0631332185129787E+00 
    1.0265903544052219E+00 
    9.9072893063274958E-01 
    1.0276539765759947E+00 
    9.9572250348646618E-01 
    9.9995832595224909E-01 
    9.4054829572198262E-01 
    9.2744980833723301E-01 
    1.0039705241243453E+00 
    1.0078103894131176E+00 
    9.6621638131756460E-01 
    9.5337868446568852E-01 
    9.0230064516600006E-01 
    9.2379443781094361E-01 
    8.8056386662353914E-01 
    8.5106077226433086E-01 
    8.6056306700491092E-01 
    8.8122849440811146E-01 
    8.2359881837859539E-01 
    7.9852558412876529E-01 
    1.7869773112596841E+00 
    1.7551925300288840E+00 
    1.7440105856357968E+00 
    1.7740611859571191E+00 
    1.7181450821464543E+00 
    1.6772925595584673E+00 
    1.6748798400243103E+00 
    1.7107167341955294E+00 
    1.7032476922704314E+00 
    1.6725241899977035E+00 
    1.6702210878423462E+00 
    1.6957046456166920E+00 
    1.7596480448689145E+00 
    1.7323782157416157E+00 
    1.7202654760384657E+00 
    1.7438566110097544E+00 
    1.6340108897887409E+00 
    1.5875551013344573E+00 
    1.5975819435110961E+00 
    1.6373264077938257E+00 
    1.5369234304573216E+00 
    1.4792056083896041E+00 
    1.5092240088967799E+00 
    1.5552544381044080E+00 
    1.5729869079254706E+00 
    1.5365760225308975E+00 
    1.5619762102653183E+00 
    1.5901649808348914E+00 
    1.6407378154523151E+00 
    1.6076165801052984E+00 
    1.6175844979584051E+00 
    1.6442130222945552E+00 
    1.7254918725963733E+00 
    1.7035590983125333E+00 
    1.6820176083898326E+00 
    1.7047249344685689E+00 
    1.6810214999005200E+00 
    1.6578661515955615E+00 
    1.6348522905514846E+00 
    1.6587623903707200E+00 
    1.6359681047688230E+00 
    1.6113103679046255E+00 
    1.5873300704873701E+00 
    1.6127699641029196E+00 
    1.6831120080618596E+00 
    1.6598742450486279E+00 
    1.6371844152998865E+00 
    1.6608377816945814E+00 
    1.6275540919572684E+00 
    1.6064678383216222E+00 
    1.5677835634271295E+00 
    1.5831667216092329E+00 
    1.5845766627200235E+00 
    1.5614360170387416E+00 
    1.5339770331784426E+00 
    1.5515203277195107E+00 
    1.5190118801437562E+00 
    1.5073140880308045E+00 
    1.4822636243389089E+00 
    1.4880654206747601E+00 
    1.5388958217845345E+00 
    1.5294282551348302E+00 
    1.4927288091829229E+00 
    1.4963478898175542E+00 
    1.5347364272245156E+00 
    1.5030022821281512E+00 
    1.4784794255697438E+00 
    1.5099786883854216E+00 
    1.4647508913086842E+00 
    1.4129509127770052E+00 
    1.4010386424455379E+00 
    1.4424933522063872E+00 
    1.4271830261698868E+00 
    1.3958969864750814E+00 
    1.3931131811849757E+00 
    1.4160732554050606E+00 
    1.4868555679810656E+00 
    1.4577801519307680E+00 
    1.4406696422914447E+00 
    1.4659815156384053E+00 
    1.4579399856463462E+00 
    1.4590631208697502E+00 
    1.4297067268887638E+00 
    1.4258416703490888E+00 
    1.4590271820257179E+00 
    1.4578605855840729E+00 
    1.4334424753563537E+00 
    1.4321768399656152E+00 
    1.4095176212226435E+00 
    1.4113114575752268E+00 
    1.3922350476431578E+00 
    1.3918139754103469E+00 
    1.4023855656538047E+00 
    1.4065897065901989E+00 
    1.3906139201428249E+00 
    1.3885077909430745E+00 
    9.7120031471212287E-01 
    8.9698002085835704E-01 
    8.7189666699082780E-01 
    9.3773367804647390E-01 
    8.1694624745730893E-01 
    7.2770246839109909E-01 
    7.2343025194825072E-01 
    8.0134816186819136E-01 
    7.8736038206914616E-01 
    7.2143797686017963E-01 
    7.2170952803803623E-01 
    7.7552281786474753E-01 
    9.0425433240888575E-01 
    8.4767191535170494E-01 
    8.2509218221182912E-01 
    8.7176176962930618E-01 
    6.2373723414386117E-01 
    4.9170507303469235E-01 
    5.3199469636898078E-01 
    6.3571661594221007E-01 
    3.0295133709624361E-01 
    0.0000000000000000E+00 
    2.2180488556917818E-01 
    4.0051078368572546E-01 
    4.8266271496217417E-01 
    3.7769690313034698E-01 
    4.9475562242817406E-01 
    5.5354083609796589E-01 
    6.4993844420759483E-01 
    5.7192968272166134E-01 
    6.1067326144563350E-01 
    6.6568640620242214E-01 
    8.3871403705339576E-01 
    7.9687655405318425E-01 
    7.6444969839785659E-01 
    8.0679458594476494E-01 
    7.5179888229778769E-01 
    7.0208911603466806E-01 
    6.6138549042896533E-01 
    7.1662170248264778E-01 
    6.8589675777789627E-01 
    6.2268111769317602E-01 
    5.8760387731172892E-01 
    6.6173289238800403E-01 
    7.8055713374889957E-01 
    7.3787984768295545E-01 
    7.1965195782833513E-01 
    7.6319144260234284E-01 
    1.2681946053293962E+00 
    1.1970584796645012E+00 
    1.1733749314963087E+00 
    1.2325115044754149E+00 
    1.1285297410505282E+00 
    1.0605844720065400E+00 
    1.0561442660012075E+00 
    1.1147895420443052E+00 
    1.1009398913239654E+00 
    1.0515114891660560E+00 
    1.0467077290929383E+00 
    1.0869989120363397E+00 
    1.1986796348094440E+00 
    1.1499766198734764E+00 
    1.1268089727369544E+00 
    1.1660244979926857E+00 
    9.9327055283136845E-01 
    9.2602392436151737E-01 
    9.3900309217367994E-01 
    9.9771981475639304E-01 
    8.6034439262241091E-01 
    7.9900044164639716E-01 
    8.2390261807025866E-01 
    8.8072063395264633E-01 
    9.0157354978304016E-01 
    8.5115925756979116E-01 
    8.8048447217089643E-01 
    9.2302004162405205E-01 
    1.0019692803763927E+00 
    9.5191221849804564E-01 
    9.6483745308665902E-01 
    1.0060816451088075E+00 
    1.1319606336527241E+00 
    1.0972440170378364E+00 
    1.0610703628162812E+00 
    1.0960903361069876E+00 
    1.0618840062139121E+00 
    1.0260791388747312E+00 
    9.8937450161861251E-01 
    1.0254009106703861E+00 
    9.8835726987086869E-01 
    9.5202344233904801E-01 
    9.1381493383891232E-01 
    9.5041897224137095E-01 
    1.0603464102767510E+00 
    1.0245990468023805E+00 
    9.8725490017406925E-01 
    1.0237936823189022E+00 
    1.3402844073252982E+00 
    1.2848569939171985E+00 
    1.3123331635135824E+00 
    1.3563294174178422E+00 
    1.2411352788471215E+00 
    1.2024862137496801E+00 
    1.2348479474165628E+00 
    1.2720907063394880E+00 
    1.2982473154229373E+00 
    1.2644795181955282E+00 
    1.2907942491541220E+00 
    1.3200392231252966E+00 
    1.3656549330179180E+00 
    1.3322932832016334E+00 
    1.3475146310698296E+00 
    1.3723518206021137E+00 
    1.1680979132560161E+00 
    1.1367549566923734E+00 
    1.1827939206585782E+00 
    1.2052066173079474E+00 
    1.1057350659791636E+00 
    1.0745391589584750E+00 
    1.1395803190882303E+00 
    1.1610983297438218E+00 
    1.2132471548862866E+00 
    1.2008547767116196E+00 
    1.2563828434783177E+00 
    1.2607831849647437E+00 
    1.2401152052914965E+00 
    1.2262130732032590E+00 
    1.2659385323093701E+00 
    1.2720382180788052E+00 
    1.3763805567171621E+00 
    1.3553146277052743E+00 
    1.3593721744302043E+00 
    1.3792581597766143E+00 
    1.3302096981856057E+00 
    1.3016815017375565E+00 
    1.3014451936091527E+00 
    1.3332519094664419E+00 
    1.3372810419447618E+00 
    1.3022343254092350E+00 
    1.3040168554340044E+00 
    1.3423341978364129E+00 
    1.3822065552366101E+00 
    1.3641289355396791E+00 
    1.3695477359678634E+00 
    1.3851806191914540E+00 
    7.6343621591724820E-01 
    7.1996618231475706E-01 
    7.3873176631722159E-01 
    7.8115493669009484E-01 
    6.6213552124694997E-01 
    5.8805361594672512E-01 
    6.2390350637126435E-01 
    6.8700105127704325E-01 
    7.1820167221083353E-01 
    6.6322571830937116E-01 
    7.0428226510925029E-01 
    7.5360504290071650E-01 
    8.0747568262973912E-01 
    7.6565418640299421E-01 
    7.9813315526513451E-01 
    8.3932671583418839E-01 
    4.9521466824781613E-01 
    3.7810879536254205E-01 
    4.8403825472604683E-01 
    5.5485845505249187E-01 
    2.2209420592692791E-01 
    0.0000000000000000E+00 
    3.0386498104414850E-01 
    4.0173443327465636E-01 
    5.3426199343032876E-01 
    4.9375560705895849E-01 
    6.2679158730578588E-01 
    6.3868791278931025E-01 
    6.1269029092414151E-01 
    5.7412710750113727E-01 
    6.5270084072292311E-01 
    6.6812114621712126E-01 
    8.7218959891586767E-01 
    8.2625451579461806E-01 
    8.4877397704443391E-01 
    9.0453181709243835E-01 
    7.7738895544407438E-01 
    7.2411009853684194E-01 
    7.2409893479363219E-01 
    7.8934680556386283E-01 
    8.0332422583813723E-01 
    7.2626987686660704E-01 
    7.3059807510694563E-01 
    8.1880457771043735E-01 
    9.3785423242592403E-01 
    8.7284583716972153E-01 
    8.9770658594672781E-01 
    9.7115730742390693E-01 
    1.3765807844424380E+00 
    1.4473365068150663E+00 
    1.4405837486336253E+00 
    1.3754378414966324E+00 
    1.5153065096721583E+00 
    1.5796919858558836E+00 
    1.5629250213240227E+00 
    1.5032674591198207E+00 
    1.4930268028797860E+00 
    1.5475760540141710E+00 
    1.5333754599494605E+00 
    1.4843518254544987E+00 
    1.3759997718741204E+00 
    1.4357520319044998E+00 
    1.4326434871618994E+00 
    1.3781665289242877E+00 
    1.6385020481799284E+00 
    1.6915334101016830E+00 
    1.6624203644625883E+00 
    1.6156640690000328E+00 
    1.7393029649411242E+00 
    1.7818353412645791E+00 
    1.7481571416981065E+00 
    1.7063588901630629E+00 
    1.6722252932414272E+00 
    1.7107514176343319E+00 
    1.6699812987135767E+00 
    1.6367599189274096E+00 
    1.5937977655842930E+00 
    1.6335760683164500E+00 
    1.6046743122405920E+00 
    1.5726022463544509E+00 
    1.3853385096994377E+00 
    1.4406169342579731E+00 
    1.4609932691363923E+00 
    1.3987658802077940E+00 
    1.4918397412518822E+00 
    1.5397226679874216E+00 
    1.5666629020472043E+00 
    1.5162324801478744E+00 
    1.5430072933863046E+00 
    1.5946346411363701E+00 
    1.6249177841754689E+00 
    1.5741555942614602E+00 
    1.4166045990340603E+00 
    1.4852365913002883E+00 
    1.5167593787451523E+00 
    1.4446716883302926E+00 
    1.3037113449928266E+00 
    1.2300094244333819E+00 
    1.2397118127435194E+00 
    1.3077714248674235E+00 
    1.1561504532902060E+00 
    1.0827180731690678E+00 
    1.1043523888274056E+00 
    1.1717838077176406E+00 
    1.1874875545469996E+00 
    1.1259460295498223E+00 
    1.1476247994416062E+00 
    1.2033643996933794E+00 
    1.3128644884709615E+00 
    1.2498332030634911E+00 
    1.2603506091493193E+00 
    1.3188471726351843E+00 
    1.0117250319855045E+00 
    9.4340690825725071E-01 
    9.8538751834481297E-01 
    1.0423160956226540E+00 
    8.7668764348290928E-01 
    8.1203896932160957E-01 
    8.7347960789343371E-01 
    9.2912928971544428E-01 
    9.8278311802015439E-01 
    9.3796508932672085E-01 
    1.0039727457427352E+00 
    1.0372839484324492E+00 
    1.0729385091810968E+00 
    1.0277727143447695E+00 
    1.0705317639851084E+00 
    1.1037379227677357E+00 
    1.3216221629386136E+00 
    1.2606659168635630E+00 
    1.2489880541318932E+00 
    1.3193346136219768E+00 
    1.2026222423531772E+00 
    1.1465682355388926E+00 
    1.1221699174009785E+00 
    1.1840721882481016E+00 
    1.1641483268265176E+00 
    1.0973031217238522E+00 
    1.0718761138570045E+00 
    1.1423575140487028E+00 
    1.3134429922076027E+00 
    1.2346063526518836E+00 
    1.2158780836718626E+00 
    1.3005025171896754E+00 
    1.4454462866972291E+00 
    1.5169637539454679E+00 
    1.4851623272093528E+00 
    1.4169871583996605E+00 
    1.5734186913924870E+00 
    1.6233954810332121E+00 
    1.5934466072494979E+00 
    1.5423328405055532E+00 
    1.5156138311463159E+00 
    1.5657278307164064E+00 
    1.5389953306201714E+00 
    1.4913019594367953E+00 
    1.3987837791544453E+00 
    1.4607406566860150E+00 
    1.4402641721877791E+00 
    1.3851049637808481E+00 
    1.6683906221260372E+00 
    1.7097879291982372E+00 
    1.6713703264935256E+00 
    1.6355251041974213E+00 
    1.7478884204405876E+00 
    1.7820052152955277E+00 
    1.7392829307055984E+00 
    1.7059851950888250E+00 
    1.6620242665166280E+00 
    1.6914297979649524E+00 
    1.6383843696663682E+00 
    1.6153157202990718E+00 
    1.6037079476000395E+00 
    1.6328571118361961E+00 
    1.5932247650238054E+00 
    1.5718575220275790E+00 
    1.3777726897917282E+00 
    1.4322298681762506E+00 
    1.4353716801311682E+00 
    1.3755975739780775E+00 
    1.4838521037903674E+00 
    1.5327653063994306E+00 
    1.5470934848897555E+00 