# vtk DataFile Version 2.0
Pressure Field Data 
ASCII 
DATASET UNSTRUCTURED_GRID 

POINTS 801 double 

    0.0000000000000000E+00     0.0000000000000000E+00     0.0000000000000000E+00 
    1.0000000000000000E+00     0.0000000000000000E+00     0.0000000000000000E+00 
    1.0000000000000000E+00     1.0000000000000000E+00     0.0000000000000000E+00 
    0.0000000000000000E+00     1.0000000000000000E+00     0.0000000000000000E+00 
    2.5000000000000000E-01     2.5000000000000000E-01     0.0000000000000000E+00 
    7.5000000000000000E-01     2.5000000000000000E-01     0.0000000000000000E+00 
    7.5000000000000000E-01     7.5000000000000000E-01     0.0000000000000000E+00 
    2.5000000000000000E-01     7.5000000000000000E-01     0.0000000000000000E+00 
    2.4999999999941941E-01     0.0000000000000000E+00     0.0000000000000000E+00 
    4.9999999999869399E-01     0.0000000000000000E+00     0.0000000000000000E+00 
    7.4999999999934697E-01     0.0000000000000000E+00     0.0000000000000000E+00 
    1.2499999999977940E-01     0.0000000000000000E+00     0.0000000000000000E+00 
    3.7499999999905670E-01     0.0000000000000000E+00     0.0000000000000000E+00 
    6.2499999999902045E-01     0.0000000000000000E+00     0.0000000000000000E+00 
    8.7499999999967348E-01     0.0000000000000000E+00     0.0000000000000000E+00 
    6.2499999999889699E-02     0.0000000000000000E+00     0.0000000000000000E+00 
    1.8749999999959940E-01     0.0000000000000000E+00     0.0000000000000000E+00 
    3.1249999999923811E-01     0.0000000000000000E+00     0.0000000000000000E+00 
    4.3749999999887529E-01     0.0000000000000000E+00     0.0000000000000000E+00 
    5.6249999999885725E-01     0.0000000000000000E+00     0.0000000000000000E+00 
    6.8749999999918376E-01     0.0000000000000000E+00     0.0000000000000000E+00 
    8.1249999999951017E-01     0.0000000000000000E+00     0.0000000000000000E+00 
    9.3749999999983680E-01     0.0000000000000000E+00     0.0000000000000000E+00 
    1.0000000000000000E+00     2.4999999999941941E-01     0.0000000000000000E+00 
    1.0000000000000000E+00     4.9999999999869399E-01     0.0000000000000000E+00 
    1.0000000000000000E+00     7.4999999999934697E-01     0.0000000000000000E+00 
    1.0000000000000000E+00     1.2499999999977940E-01     0.0000000000000000E+00 
    1.0000000000000000E+00     3.7499999999905670E-01     0.0000000000000000E+00 
    1.0000000000000000E+00     6.2499999999902045E-01     0.0000000000000000E+00 
    1.0000000000000000E+00     8.7499999999967348E-01     0.0000000000000000E+00 
    1.0000000000000000E+00     6.2499999999889699E-02     0.0000000000000000E+00 
    1.0000000000000000E+00     1.8749999999959940E-01     0.0000000000000000E+00 
    1.0000000000000000E+00     3.1249999999923811E-01     0.0000000000000000E+00 
    1.0000000000000000E+00     4.3749999999887529E-01     0.0000000000000000E+00 
    1.0000000000000000E+00     5.6249999999885725E-01     0.0000000000000000E+00 
    1.0000000000000000E+00     6.8749999999918376E-01     0.0000000000000000E+00 
    1.0000000000000000E+00     8.1249999999951017E-01     0.0000000000000000E+00 
    1.0000000000000000E+00     9.3749999999983680E-01     0.0000000000000000E+00 
    7.5000000000112044E-01     1.0000000000000000E+00     0.0000000000000000E+00 
    5.0000000000205913E-01     1.0000000000000000E+00     0.0000000000000000E+00 
    2.5000000000102962E-01     1.0000000000000000E+00     0.0000000000000000E+00 
    8.7499999999991362E-01     1.0000000000000000E+00     0.0000000000000000E+00 
    6.2499999999988309E-01     1.0000000000000000E+00     0.0000000000000000E+00 
    3.7499999999869987E-01     1.0000000000000000E+00     0.0000000000000000E+00 
    1.2499999999880820E-01     1.0000000000000000E+00     0.0000000000000000E+00 
    9.3749999999995681E-01     1.0000000000000000E+00     0.0000000000000000E+00 
    8.1250000000051703E-01     1.0000000000000000E+00     0.0000000000000000E+00 
    6.8750000000050182E-01     1.0000000000000000E+00     0.0000000000000000E+00 
    5.6250000000097111E-01     1.0000000000000000E+00     0.0000000000000000E+00 
    4.3750000000037947E-01     1.0000000000000000E+00     0.0000000000000000E+00 
    3.1249999999986477E-01     1.0000000000000000E+00     0.0000000000000000E+00 
    1.8749999999991890E-01     1.0000000000000000E+00     0.0000000000000000E+00 
    6.2499999999404102E-02     1.0000000000000000E+00     0.0000000000000000E+00 
    0.0000000000000000E+00     7.5000000000112044E-01     0.0000000000000000E+00 
    0.0000000000000000E+00     5.0000000000205913E-01     0.0000000000000000E+00 
    0.0000000000000000E+00     2.5000000000102962E-01     0.0000000000000000E+00 
    0.0000000000000000E+00     8.7499999999991362E-01     0.0000000000000000E+00 
    0.0000000000000000E+00     6.2499999999988309E-01     0.0000000000000000E+00 
    0.0000000000000000E+00     3.7499999999869987E-01     0.0000000000000000E+00 
    0.0000000000000000E+00     1.2499999999880820E-01     0.0000000000000000E+00 
    0.0000000000000000E+00     9.3749999999995681E-01     0.0000000000000000E+00 
    0.0000000000000000E+00     8.1250000000051703E-01     0.0000000000000000E+00 
    0.0000000000000000E+00     6.8750000000050182E-01     0.0000000000000000E+00 
    0.0000000000000000E+00     5.6250000000097111E-01     0.0000000000000000E+00 
    0.0000000000000000E+00     4.3750000000037947E-01     0.0000000000000000E+00 
    0.0000000000000000E+00     3.1249999999986477E-01     0.0000000000000000E+00 
    0.0000000000000000E+00     1.8749999999991890E-01     0.0000000000000000E+00 
    0.0000000000000000E+00     6.2499999999404102E-02     0.0000000000000000E+00 
    4.9999999999972200E-01     2.5000000000000000E-01     0.0000000000000000E+00 
    3.7500000000067490E-01     2.5000000000000000E-01     0.0000000000000000E+00 
    6.2500000000042988E-01     2.5000000000000000E-01     0.0000000000000000E+00 
    3.1250000000033751E-01     2.5000000000000000E-01     0.0000000000000000E+00 
    4.3750000000019851E-01     2.5000000000000000E-01     0.0000000000000000E+00 
    5.6250000000007594E-01     2.5000000000000000E-01     0.0000000000000000E+00 
    6.8750000000021494E-01     2.5000000000000000E-01     0.0000000000000000E+00 
    7.5000000000000000E-01     4.9999999999972200E-01     0.0000000000000000E+00 
    7.5000000000000000E-01     3.7500000000067490E-01     0.0000000000000000E+00 
    7.5000000000000000E-01     6.2500000000042988E-01     0.0000000000000000E+00 
    7.5000000000000000E-01     3.1250000000033751E-01     0.0000000000000000E+00 
    7.5000000000000000E-01     4.3750000000019851E-01     0.0000000000000000E+00 
    7.5000000000000000E-01     5.6250000000007594E-01     0.0000000000000000E+00 
    7.5000000000000000E-01     6.8750000000021494E-01     0.0000000000000000E+00 
    5.0000000000118039E-01     7.5000000000000000E-01     0.0000000000000000E+00 
    6.2500000000161415E-01     7.5000000000000000E-01     0.0000000000000000E+00 
    3.7500000000140910E-01     7.5000000000000000E-01     0.0000000000000000E+00 
    6.8750000000080713E-01     7.5000000000000000E-01     0.0000000000000000E+00 
    5.6250000000139733E-01     7.5000000000000000E-01     0.0000000000000000E+00 
    4.3750000000129469E-01     7.5000000000000000E-01     0.0000000000000000E+00 
    3.1250000000070460E-01     7.5000000000000000E-01     0.0000000000000000E+00 
    2.5000000000000000E-01     5.0000000000118039E-01     0.0000000000000000E+00 
    2.5000000000000000E-01     6.2500000000161415E-01     0.0000000000000000E+00 
    2.5000000000000000E-01     3.7500000000140910E-01     0.0000000000000000E+00 
    2.5000000000000000E-01     6.8750000000080713E-01     0.0000000000000000E+00 
    2.5000000000000000E-01     5.6250000000139733E-01     0.0000000000000000E+00 
    2.5000000000000000E-01     4.3750000000129469E-01     0.0000000000000000E+00 
    2.5000000000000000E-01     3.1250000000070460E-01     0.0000000000000000E+00 
    3.7499999999934702E-01     1.2500000000000000E-01     0.0000000000000000E+00 
    1.2500000000000000E-01     1.2500000000000000E-01     0.0000000000000000E+00 
    1.2500000000000000E-01     3.7500000000102962E-01     0.0000000000000000E+00 
    8.7500000000000000E-01     1.2500000000000000E-01     0.0000000000000000E+00 
    6.2499999999934697E-01     1.2500000000000000E-01     0.0000000000000000E+00 
    8.7500000000000000E-01     3.7499999999934702E-01     0.0000000000000000E+00 
    8.7500000000000000E-01     6.2499999999934697E-01     0.0000000000000000E+00 
    1.2500000000000000E-01     6.2500000000102962E-01     0.0000000000000000E+00 
    1.2500000000000000E-01     8.7500000000000000E-01     0.0000000000000000E+00 
    8.7500000000000000E-01     8.7500000000000000E-01     0.0000000000000000E+00 
    6.2500000000102962E-01     8.7500000000000000E-01     0.0000000000000000E+00 
    3.7500000000102962E-01     8.7500000000000000E-01     0.0000000000000000E+00 
    2.4999999999957681E-01     8.3333333333333329E-02     0.0000000000000000E+00 
    8.3333333333333329E-02     2.5000000000068640E-01     0.0000000000000000E+00 
    7.4999999999956468E-01     8.3333333333333329E-02     0.0000000000000000E+00 
    4.9999999999951827E-01     1.6666666666666671E-01     0.0000000000000000E+00 
    9.1666666666666674E-01     2.4999999999957681E-01     0.0000000000000000E+00 
    8.3333333333333337E-01     4.9999999999951827E-01     0.0000000000000000E+00 
    1.6666666666666671E-01     5.0000000000088307E-01     0.0000000000000000E+00 
    8.3333333333333329E-02     7.5000000000070155E-01     0.0000000000000000E+00 
    9.1666666666666674E-01     7.4999999999956468E-01     0.0000000000000000E+00 
    5.0000000000088307E-01     8.3333333333333348E-01     0.0000000000000000E+00 
    2.5000000000068640E-01     9.1666666666666674E-01     0.0000000000000000E+00 
    7.5000000000070155E-01     9.1666666666666674E-01     0.0000000000000000E+00 
[...]
CELL_DATA 768 
SCALARS Pressure double 1 
LOOKUP_TABLE default 

    2.0964859041207600E+00 
    2.0030237109198046E+00 
    1.9729103807045212E+00 
    2.0300811425005523E+00 
    1.9417522704526959E+00 
    1.8948660249089111E+00 
    1.8907079349873139E+00 
    1.9285648657163525E+00 
    1.9149579866927646E+00 
    1.8856671409929453E+00 
    1.8799090840452684E+00 
    1.9012886335766586E+00 
    1.9807048944290293E+00 
    1.9461444131371786E+00 
    1.9221317805002667E+00 
    1.9423870650956145E+00 
    1.8533907910868295E+00 
    1.8135238625901529E+00 
    1.8209859321291930E+00 
    1.8553490343370072E+00 
    1.7733029868383283E+00 
    1.7317982382429691E+00 
    1.7510690737565451E+00 
    1.7864876012044508E+00 
    1.7989455594165542E+00 
    1.7696044343978503E+00 
    1.7870931998015671E+00 
    1.8104456617558644E+00 
    1.8565034478615079E+00 
    1.8277099573892890E+00 
    1.8335478445965065E+00 
    1.8568546146032350E+00 
    1.9104001019139665E+00 
    1.8974768732318241E+00 
    1.8734844916375217E+00 
    1.8832086018741612E+00 
    1.8824235890526420E+00 
    1.8656633281572832E+00 
    1.8447550515672346E+00 
    1.8604311741679620E+00 
    1.8400579195110078E+00 
    1.8244943765298745E+00 
    1.8043942441637444E+00 
    1.8206957961192245E+00 
    1.8605446633714791E+00 
    1.8524262392664201E+00 
    1.8338393542533187E+00 
    1.8424218515986093E+00 
    2.0965314732087625E+00 
    2.0301427322584411E+00 
    1.9731280819386507E+00 
    2.0032284854333566E+00 
    1.9807788546210858E+00 
    1.9424605336772462E+00 
    1.9223345337962341E+00 
    1.9463570180185978E+00 
    1.9152867274405136E+00 
    1.9015715190123887E+00 
    1.8802366270234723E+00 
    1.8860441261205956E+00 
    1.9420999895209239E+00 
    1.9289079197901229E+00 
    1.8911246626597629E+00 
    1.8952924271843818E+00 
    1.9104746754182853E+00 
    1.8832720601785000E+00 
    1.8736412642536631E+00 
    1.8976668824841554E+00 
    1.8605761383425141E+00 
    1.8424660331909144E+00 
    1.8338856169839239E+00 
    1.8525169008284059E+00 
    1.8401400110640844E+00 
    1.8206323714843393E+00 
    1.8042018328386138E+00 
    1.8245011122535717E+00 
    1.8826746746317922E+00 
    1.8606139908755222E+00 
    1.8449166298841098E+00 
    1.8659238582478908E+00 
    1.8537597845610991E+00 
    1.8557022760525455E+00 
    1.8211259091218652E+00 
    1.8136286162014961E+00 
    1.8568205185584465E+00 
    1.8571181519854654E+00 
    1.8336738992548249E+00 
    1.8278414202064359E+00 
    1.7988458822390809E+00 
    1.8103726493405978E+00 
    1.7867827933234388E+00 
    1.7692556383628362E+00 
    1.7731262344960919E+00 
    1.7863541186841978E+00 
    1.7507147105914143E+00 
    1.7314420130535109E+00 
    1.6648049420658597E+00 
    1.6195300307806813E+00 
    1.6038419629889267E+00 
    1.6433508218182173E+00 
    1.5743747567057411E+00 
    1.5311313742941131E+00 
    1.5273772875676934E+00 
    1.5647078293342933E+00 
    1.5540159909831848E+00 
    1.5225364771416239E+00 
    1.5165202814951575E+00 
    1.5420203532732299E+00 
    1.6210119920444346E+00 
    1.5872141287194970E+00 
    1.5692257907661153E+00 
    1.5973200254844093E+00 
    1.4921235332886458E+00 
    1.4597272629268263E+00 
    1.4635112443933738E+00 
    1.4931944696217123E+00 
    1.4360260699538452E+00 
    1.4219600544008126E+00 
    1.4239675175248263E+00 
    1.4401387319081180E+00 
    1.4428943323802479E+00 
    1.4249125295081690E+00 
    1.4250227911018634E+00 
    1.4444337782979413E+00 
    1.4930606369967927E+00 
    1.4658445731980219E+00 
    1.4669151183968168E+00 
    1.4917517903403266E+00 
    1.5699553754317002E+00 
    1.5446534191588310E+00 
    1.5123860855241611E+00 
    1.5374157268705320E+00 
    1.5210839372786966E+00 
    1.4998770515619348E+00 
    1.4740413257921587E+00 
    1.4913472303365929E+00 
    1.4600828619949722E+00 
    1.4489585126423892E+00 
    1.4255353126898829E+00 
    1.4281341708675732E+00 
    1.4982508894239148E+00 
    1.4755913040637427E+00 
    1.4332463200730408E+00 
    1.4453594584936826E+00 
    1.6986857875150263E+00 
    1.6746983958636616E+00 
    1.6978663198352415E+00 
    1.7213703778729497E+00 
    1.6498518400405007E+00 
    1.6238539976007920E+00 
    1.6484736372514777E+00 
    1.6736214210272455E+00 
    1.6969838158306978E+00 
    1.6727053705465387E+00 
    1.6963166094509556E+00 
    1.7197311787156280E+00 
    1.7433510590681351E+00 
    1.7205074586572975E+00 
    1.7424157111578631E+00 
    1.7644216645990065E+00 
    1.5978940713699175E+00 
    1.5718327310963309E+00 
    1.6093017221371679E+00 
    1.6268868375403240E+00 
    1.5437047779185860E+00 
    1.5128253897593511E+00 
    1.5720871572163648E+00 
    1.5910506442529819E+00 
    1.6348105205918824E+00 
    1.6245517686630344E+00 
    1.6725555046980320E+00 
    1.6757754294172678E+00 
    1.6551487703978580E+00 
    1.6450413895344125E+00 
    1.6791185810669664E+00 
    1.6825178344825289E+00 
    1.7829127229955046E+00 
    1.7592752999309083E+00 
    1.7714639583987064E+00 
    1.7987444243044781E+00 
    1.7346338507271764E+00 
    1.7089670425158627E+00 
    1.7114372624835368E+00 
    1.7423141665353210E+00 
    1.7498869239894730E+00 
    1.7139678345663589E+00 
    1.7165676077943024E+00 
    1.7573761957575553E+00 
    1.8131254109927715E+00 
    1.7831018610746399E+00 
    1.7942259216868128E+00 
    1.8259244363970788E+00 
    1.4184738407334851E+00 
    1.4020602721621975E+00 
    1.3963302856637165E+00 
    1.4152497002297275E+00 
    1.3736062039357113E+00 
    1.3337843814127979E+00 
    1.3319980403165850E+00 
    1.3683484773862480E+00 
    1.3641094390326749E+00 
    1.3312497776624168E+00 
    1.3315475971369539E+00 
    1.3609377092078072E+00 
    1.4119403344536741E+00 
    1.3912461042429143E+00 
    1.3868826108256693E+00 
    1.4086946872717625E+00 
    1.2850502108717163E+00 
    1.2287980048800948E+00 
    1.2413955567428481E+00 
    1.2896005293461821E+00 
    1.1671901413733923E+00 
    1.1015198215757473E+00 
    1.1331520444306116E+00 
    1.1889090020415107E+00 
    1.2108369845616282E+00 
    1.1645366104112056E+00 
    1.1962484526232195E+00 
    1.2335931327946092E+00 
    1.2949276091342254E+00 
    1.2546302103355196E+00 
    1.2688423718559643E+00 
    1.3012422864142947E+00 
    1.4042381783282265E+00 
    1.3786718128066686E+00 
    1.3630050266576899E+00 
    1.3972056263029990E+00 
    1.3504518286037788E+00 
    1.3204720501528968E+00 
    1.2937039809415838E+00 
    1.3282143505311059E+00 
    1.3016224225728692E+00 
    1.2637428388256469E+00 
    1.2311136197429806E+00 
    1.2703037166501014E+00 
    1.3875874390788785E+00 
    1.3426671268130683E+00 
    1.3147288297972790E+00 
    1.3712431844506132E+00 
    1.2974939791611870E+00 
    1.2615437991729388E+00 
    1.2020777882873017E+00 
    1.2259067137289024E+00 
    1.2274164552948195E+00 
    1.1944425422977702E+00 
    1.1550865867457032E+00 
    1.1784995083660950E+00 
    1.1293485976422797E+00 
    1.1151054226095465E+00 
    1.0744946538215294E+00 
    1.0795713585074220E+00 
    1.1573089188892360E+00 
    1.1433839509051105E+00 
    1.0844405811051812E+00 
    1.0890871419021675E+00 
    1.1599756468252953E+00 
    1.1236145638644688E+00 
    1.0883423361323474E+00 
    1.1251248811039332E+00 
    1.0872261566805785E+00 
    1.0497872111960147E+00 
    1.0125278840785459E+00 
    1.0510043682539885E+00 
    1.0141054801101343E+00 
    9.7478381108323853E-01 
    9.3720540337639557E-01 
    9.7690736561698133E-01 
    1.0895306049057025E+00 
    1.0522193898000840E+00 
    1.0155545830000092E+00 
    1.0532783944331210E+00 
    1.0206062979856783E+00 
    1.0249424719663316E+00 
    9.6421779971528254E-01 
    9.5081914408713919E-01 
    1.0290538199613277E+00 
    1.0329899456812435E+00 
    9.9048245227159903E-01 
    9.7734618659819128E-01 
    9.2511449795016998E-01 
    9.4710728514338816E-01 
    9.0288207284543498E-01 
    8.7269135902742434E-01 
    8.8241586067239097E-01 
    9.0355464427082177E-01 
    8.4459675463681927E-01 
    8.1895952923521564E-01 
    1.8261268427239299E+00 
    1.7939567263159713E+00 
    1.7826328995780250E+00 
    1.8130620807944107E+00 
    1.7564165988483291E+00 
    1.7149785742852317E+00 
    1.7125298961143265E+00 
    1.7488861867047998E+00 
    1.7413138180084358E+00 
    1.7101407507964503E+00 
    1.7078061510150868E+00 
    1.7336657274811966E+00 
    1.7984739526345881E+00 
    1.7708487485109594E+00 
    1.7585740506967893E+00 
    1.7824826983060815E+00 
    1.6710315654940613E+00 
    1.6238253381778220E+00 
    1.6340220632349207E+00 
    1.6744018240038392E+00 
    1.5723448518079162E+00 
    1.5136404316901595E+00 
    1.5441886776982410E+00 
    1.5909956487912218E+00 
    1.6090334225829288E+00 
    1.5720189924172345E+00 
    1.5978566883951637E+00 
    1.6265029983966592E+00 
    1.6778698986618692E+00 
    1.6442254042431088E+00 
    1.6543594913749715E+00 
    1.6814027809132164E+00 
    1.7638762290744938E+00 
    1.7416378290967238E+00 
    1.7197905111042782E+00 
    1.7428260808270353E+00 
    1.7187728615766915E+00 
    1.6952694217065023E+00 
    1.6719055456867757E+00 
    1.6961861665712397E+00 
    1.6730480526483855E+00 
    1.6479973054804402E+00 
    1.6236369421237968E+00 
    1.6494920610582600E+00 
    1.7209085985417301E+00 
    1.6973238421479424E+00 
    1.6742934039397697E+00 
    1.6983100806216496E+00 
    1.6645209450526655E+00 
    1.6431003317127024E+00 
    1.6037977150482616E+00 
    1.6194320680868901E+00 
    1.6208530044338194E+00 
    1.5973258536645205E+00 
    1.5694186040148141E+00 
    1.5872623922009181E+00 
    1.5542208705768685E+00 
    1.5423169237749257E+00 
    1.5168530627015024E+00 
    1.5227629475627444E+00 
    1.5744433947614971E+00 
    1.5648168655231380E+00 
    1.5275114556547074E+00 
    1.5311943256032245E+00 
    1.5701697800982077E+00 
    1.5378822469433402E+00 
    1.5129555608480931E+00 
    1.5450049892653268E+00 
    1.4989487634199048E+00 
    1.4462008725694755E+00 
    1.4341324000222573E+00 
    1.4763311575159817E+00 
    1.4607865176529851E+00 
    1.4289482904297435E+00 
    1.4261635611346881E+00 
    1.4495185038377372E+00 
    1.5215016831339310E+00 
    1.4919207514513200E+00 
    1.4745392188812856E+00 
    1.5002864152835882E+00 
    1.4921494925759653E+00 
    1.4932868616181183E+00 
    1.4634438639071654E+00 
    1.4595220946262357E+00 
    1.4932416630000165E+00 
    1.4920428064255091E+00 
    1.4672111319828693E+00 
    1.4659423071588091E+00 
    1.4429088858264432E+00 
    1.4447070410921812E+00 
    1.4253144344712143E+00 
    1.4249251084526535E+00 
    1.4356917213744729E+00 
    1.4399521942005229E+00 
    1.4237391148503062E+00 
    1.4216204655322759E+00 
    9.9574366898826883E-01 
    9.1975984037416081E-01 
    8.9405265350375396E-01 
    9.6147832825419421E-01 
    8.3774718778618296E-01 
    7.4626348132074349E-01 
    7.4187873702321494E-01 
    8.2174352769308112E-01 
    8.0739875909144787E-01 
    7.3985758695089454E-01 
    7.4017911968974581E-01 
    7.9529235428565959E-01 
    9.2717461331579176E-01 
    8.6921511281474273E-01 
    8.4608058683919340E-01 
    8.9388277574641095E-01 
    6.3987262144000945E-01 
    5.0473598739226033E-01 
    5.4606448871326374E-01 
    6.5217129149053088E-01 
    3.1117184701030692E-01 
    0.0000000000000000E+00 
    2.2811322585811394E-01 
    4.1137751260886718E-01 
    4.9548634762747840E-01 
    3.8787021973348956E-01 
    5.0781165108877002E-01 
    5.6806111794678060E-01 
    6.6673699844568324E-01 
    5.8691621838928065E-01 
    6.2656769475661434E-01 
    6.8286761393929107E-01 
    8.6004630671595983E-01 
    8.1719949386885471E-01 
    7.8401479786142281E-01 
    8.2738004598733084E-01 
    7.7102933203603885E-01 
    7.2013153468510427E-01 
    6.7848315800321179E-01 
    7.3503530681234175E-01 
    7.0359200368600627E-01 
    6.3886267053651002E-01 
    6.0292991242013338E-01 
    6.7885620944154124E-01 
    8.0053887208965868E-01 
    7.5683054796192017E-01 
    7.3819269690988298E-01 
    7.8280178152142132E-01 
    1.2987605488580205E+00 
    1.2262267349864477E+00 
    1.2020714943806758E+00 
    1.2623916333826146E+00 
    1.1563104172503178E+00 
    1.0869464608425690E+00 
    1.0824072611598430E+00 
    1.1422861443524706E+00 
    1.1281524017881779E+00 
    1.0776757473292875E+00 
    1.0727765399763611E+00 
    1.1139309765643861E+00 
    1.2279018896273821E+00 
    1.1782061312934611E+00 
    1.1545775610271485E+00 
    1.1946068962709528E+00 
    1.0181615037269023E+00 
    9.4939566069003667E-01 
    9.6267371405307178E-01 
    1.0227099699723596E+00 
    8.8220267271538644E-01 
    8.1944346028979198E-01 
    8.4491377088090969E-01 
    9.0305193883454993E-01 
    9.2438866751960480E-01 
    8.7279878169230640E-01 
    9.0280428643561716E-01 
    9.4632873788249905E-01 
    1.0270568441603156E+00 
    9.7587970197982665E-01 
    9.8909960148137810E-01 
    1.0312642306539805E+00 
    1.1598685971445821E+00 
    1.1244169217990652E+00 
    1.0874965870881390E+00 
    1.1232809806641795E+00 
    1.0882986279359117E+00 
    1.0517102261100568E+00 
    1.0141972118490039E+00 
    1.0510362859922340E+00 
    1.0131862195825860E+00 
    9.7600572794070439E-01 
    9.3691992278522029E-01 
    9.7439481340340317E-01 
    1.0868326474171150E+00 
    1.0502695319975113E+00 
    1.0121062255707580E+00 
    1.0495026589137422E+00 
    1.3722369285810525E+00 
    1.3157658585906771E+00 
    1.3438011743081972E+00 
    1.3886143197693592E+00 
    1.2712136278020887E+00 
    1.2318212685472893E+00 
    1.2648528609356215E+00 
    1.3028029564708745E+00 
    1.3295005045346999E+00 
    1.2950960976147790E+00 
    1.3219523219436120E+00 
    1.3517483788378135E+00 
    1.3981630963646914E+00 
    1.3641829621547128E+00 
    1.3797380093444207E+00 
    1.4050365132419032E+00 
    1.1967645441501231E+00 
    1.1648067769602863E+00 
    1.2118256452999272E+00 
    1.2346500327990722E+00 
    1.1331589456361224E+00 
    1.1012963989251991E+00 
    1.1677580947728174E+00 
    1.1897204485997612E+00 
    1.2429633623370095E+00 
    1.2303350599046228E+00 
    1.2869924937917867E+00 
    1.2914650222846142E+00 
    1.2702813946241918E+00 
    1.2561488069611257E+00 
    1.2966835311429914E+00 
    1.3028579671261278E+00 
    1.4091884277100202E+00 
    1.3877300991084374E+00 
    1.3919103479348762E+00 
    1.4121653070972056E+00 
    1.3621526526018364E+00 
    1.3330815559732798E+00 
    1.3328780025989067E+00 
    1.3652967876335114E+00 
    1.3694424037911122E+00 
    1.3337156350001502E+00 
    1.3355516987064875E+00 
    1.3746116763814447E+00 
    1.4152095648095120E+00 
    1.3967987168952007E+00 
    1.4023378016797903E+00 
    1.4182504125609763E+00 
    7.8305255738435697E-01 
    7.3851353901632177E-01 
    7.5770575621784642E-01 
    8.0115709702546212E-01 
    6.7925764560227730E-01 
    6.0336182124391002E-01 
    6.4006616749556366E-01 
    7.0470953909275647E-01 
    7.3663775629284056E-01 
    6.8032076140302467E-01 
    7.2233931710612254E-01 
    7.7286681803103874E-01 
    8.2807994307965538E-01 
    7.8524580487542228E-01 
    8.1848191450846119E-01 
    8.6067125569421643E-01 
    5.0823830634821354E-01 
    3.8823292006596904E-01 
    4.9676484894225520E-01 
    5.6933035795271680E-01 
    2.2833508409739534E-01 
    0.0000000000000000E+00 
    3.1184915481338626E-01 
    4.1241592083233086E-01 
    5.4817721316926904E-01 
    5.0658306410113363E-01 
    6.4283774885994138E-01 
    6.5507593420112509E-01 
    6.2855265206842426E-01 
    5.8903376719214207E-01 
    6.6947233890212232E-01 
    6.8529663262264395E-01 
    8.9431486736440424E-01 
    8.4726697198285206E-01 
    8.7033401448682923E-01 
    9.2745152982662127E-01 
    7.9720238888404837E-01 
    7.4260930856272522E-01 
    7.4255233266956555E-01 
    8.0943553648110900E-01 
    8.2375939519592589E-01 
    7.4473870889126603E-01 
    7.4915618751176338E-01 
    8.3963486658360886E-01 
    9.6160425017799489E-01 
    8.9501052433558792E-01 
    9.2049447104537707E-01 
    9.9571663757322615E-01 
    1.4086743070689418E+00 
    1.4807199489625753E+00 
    1.4738579679818489E+00 
    1.4075265957752749E+00 
    1.5499096177981311E+00 
    1.6154293097097889E+00 
    1.5983799421004568E+00 
    1.5376674481836552E+00 
    1.5272678902040226E+00 
    1.5827824561959820E+00 
    1.5683609120355171E+00 
    1.5184723340503645E+00 
    1.4081345769507632E+00 
    1.4689671776214048E+00 
    1.4658442592340395E+00 
    1.4103941091044039E+00 
    1.6752514493538515E+00 
    1.7291694363903687E+00 
    1.6995939702409597E+00 
    1.6520364083274934E+00 
    1.7777071748858568E+00 
    1.8208568144141017E+00 
    1.7867135101909917E+00 
    1.7442682667516403E+00 
    1.7096208571231037E+00 
    1.7487735591703928E+00 
    1.7073927959983193E+00 
    1.6736099691659196E+00 
    1.6298166206399674E+00 
    1.6702962487868409E+00 
    1.6409395000660238E+00 
    1.6082836246890673E+00 
    1.4177622396211447E+00 
    1.4740107115806351E+00 
    1.4948031576056529E+00 
    1.4315040316851095E+00 
    1.5261330357668244E+00 
    1.5748518749267382E+00 
    1.6022989354465487E+00 
    1.5510003384155731E+00 
    1.5782943804098104E+00 
    1.6307988351224569E+00 
    1.6616044494382085E+00 
    1.6099707410834567E+00 
    1.4497371465631419E+00 
    1.5195300941956387E+00 
    1.5515587561761939E+00 
    1.4782250331911750E+00 
    1.3344606128207364E+00 
    1.2593713981737393E+00 
    1.2692848153331688E+00 
    1.3386243234654405E+00 
    1.1840963568758660E+00 
    1.1092261091489353E+00 
    1.1313122856143796E+00 
    1.2000580432320997E+00 
    1.2161074529385116E+00 
    1.1533693219633501E+00 
    1.1755227609719781E+00 
    1.2323470438841311E+00 
    1.3438613193786972E+00 
    1.2796443146608327E+00 
    1.2904240269866756E+00 
    1.3500235430258019E+00 
    1.0368100697187392E+00 
    9.6708797739430075E-01 
    1.0099737401017159E+00 
    1.0680461802512378E+00 
    8.9895680207382112E-01 
    8.3290709474788482E-01 
    8.9575163040032468E-01 
    9.5256070144411953E-01 
    1.0074036613449235E+00 
    9.6170160048532194E-01 
    1.0291802272292228E+00 
    1.0630997859515334E+00 
    1.0993235419885776E+00 
    1.0532785425091831E+00 
    1.0969645794053324E+00 
    1.1307868918984958E+00 
    1.3529346884990696E+00 
    1.2908221584312067E+00 
    1.2790159141886586E+00 
    1.3507065179342219E+00 
    1.2316572963910457E+00 
    1.1745008425087158E+00 
    1.1496843148348652E+00 
    1.2128273312469733E+00 
    1.1926100489971787E+00 
    1.1243967080445310E+00 
    1.0985550608442793E+00 
    1.1705168630933225E+00 
    1.3448280073422823E+00 
    1.2644740800571117E+00 
    1.2455429187585736E+00 
    1.3318040913795148E+00 
    1.4790606089762670E+00 
    1.5518092678074027E+00 
    1.5194950707322645E+00 
    1.4501713093180493E+00 
    1.6092628294482512E+00 
    1.6600939944467488E+00 
    1.6296236239527551E+00 
    1.5776457274244000E+00 
    1.5504038030027216E+00 
    1.6013767455519725E+00 
    1.5741370055708257E+00 
    1.5256140356207364E+00 
    1.4315634300435753E+00 
    1.4945826928115076E+00 
    1.4736833518876995E+00 
    1.4175604988738655E+00 
    1.7058050028730112E+00 
    1.7478121808655129E+00 
    1.7087686980547596E+00 
    1.6723804443433630E+00 
    1.7864485787905324E+00 
    1.8210299848421152E+00 
    1.7776887165809574E+00 
    1.7438971607989244E+00 
    1.6991999388937200E+00 
    1.7290665539519448E+00 
    1.6751342904298279E+00 
    1.6516902973773502E+00 
    1.6399798601169744E+00 
    1.6695809321759316E+00 
    1.6292479946225720E+00 
    1.6075465157536259E+00 
    1.4100225067897580E+00 
    1.4654488848436400E+00 
    1.4685984315820777E+00 
    1.4077466561365630E+00 
    1.5179865711152218E+00 
    1.5677604372868279E+00 
    1.5823057600116666E+00 