# vtk DataFile Version 2.0
Pressure Field Data 
ASCII 
DATASET UNSTRUCTURED_GRID 

POINTS 801 double 

    0.0000000000000000E+00     0.0000000000000000E+00     0.0000000000000000E+00 
    1.0000000000000000E+00     0.0000000000000000E+00     0.0000000000000000E+00 
    1.0000000000000000E+00     1.0000000000000000E+00     0.0000000000000000E+00 
    0.0000000000000000E+00     1.0000000000000000E+00     0.0000000000000000E+00 
    2.5000000000000000E-01     2.5000000000000000E-01     0.0000000000000000E+00 
    7.5000000000000000E-01     2.5000000000000000E-01     0.0000000000000000E+00 
    7.5000000000000000E-01     7.5000000000000000E-01     0.0000000000000000E+00 
    2.5000000000000000E-01     7.5000000000000000E-01     0.0000000000000000E+00 
    2.4999999999941941E-01     0.0000000000000000E+00     0.0000000000000000E+00 
    4.9999999999869399E-01     0.0000000000000000E+00     0.0000000000000000E+00 
    7.4999999999934697E-01     0.0000000000000000E+00     0.0000000000000000E+00 
    1.2499999999977940E-01     0.0000000000000000E+00     0.0000000000000000E+00 
    3.7499999999905670E-01     0.0000000000000000E+00     0.0000000000000000E+00 
    6.2499999999902045E-01     0.0000000000000000E+00     0.0000000000000000E+00 
    8.7499999999967348E-01     0.0000000000000000E+00     0.0000000000000000E+00 
    6.2499999999889699E-02     0.0000000000000000E+00     0.0000000000000000E+00 
    1.8749999999959940E-01     0.0000000000000000E+00     0.0000000000000000E+00 
    3.1249999999923811E-01     0.0000000000000000E+00     0.0000000000000000E+00 
    4.3749999999887529E-01     0.0000000000000000E+00     0.0000000000000000E+00 
    5.6249999999885725E-01     0.0000000000000000E+00     0.0000000000000000E+00 
    6.8749999999918376E-01     0.0000000000000000E+00     0.0000000000000000E+00 
    8.1249999999951017E-01     0.0000000000000000E+00     0.0000000000000000E+00 
    9.3749999999983680E-01     0.0000000000000000E+00     0.0000000000000000E+00 
    1.0000000000000000E+00     2.4999999999941941E-01     0.0000000000000000E+00 
    1.0000000000000000E+00     4.9999999999869399E-01     0.0000000000000000E+00 
    1.0000000000000000E+00     7.4999999999934697E-01     0.0000000000000000E+00 
    1.0000000000000000E+00     1.2499999999977940E-01     0.0000000000000000E+00 
    1.0000000000000000E+00     3.7499999999905670E-01     0.0000000000000000E+00 
    1.0000000000000000E+00     6.2499999999902045E-01     0.0000000000000000E+00 
    1.0000000000000000E+00     8.7499999999967348E-01     0.0000000000000000E+00 
    1.0000000000000000E+00     6.2499999999889699E-02     0.0000000000000000E+00 
    1.0000000000000000E+00     1.8749999999959940E-01     0.0000000000000000E+00 
    1.0000000000000000E+00     3.1249999999923811E-01     0.0000000000000000E+00 
    1.0000000000000000E+00     4.3749999999887529E-01     0.0000000000000000E+00 
    1.0000000000000000E+00     5.6249999999885725E-01     0.0000000000000000E+00 
    1.0000000000000000E+00     6.8749999999918376E-01     0.0000000000000000E+00 
    1.0000000000000000E+00     8.1249999999951017E-01     0.0000000000000000E+00 
    1.0000000000000000E+00     9.3749999999983680E-01     0.0000000000000000E+00 
    7.5000000000112044E-01     1.0000000000000000E+00     0.0000000000000000E+00 
    5.0000000000205913E-01     1.0000000000000000E+00     0.0000000000000000E+00 
    2.5000000000102962E-01     1.0000000000000000E+00     0.0000000000000000E+00 
    8.7499999999991362E-01     1.0000000000000000E+00     0.0000000000000000E+00 
    6.2499999999988309E-01     1.0000000000000000E+00     0.0000000000000000E+00 
    3.7499999999869987E-01     1.0000000000000000E+00     0.0000000000000000E+00 
    1.2499999999880820E-01     1.0000000000000000E+00     0.0000000000000000E+00 
    9.3749999999995681E-01     1.0000000000000000E+00     0.0000000000000000E+00 
    8.1250000000051703E-01     1.0000000000000000E+00     0.0000000000000000E+00 
    6.8750000000050182E-01     1.0000000000000000E+00     0.0000000000000000E+00 
    5.6250000000097111E-01     1.0000000000000000E+00     0.0000000000000000E+00 
    4.3750000000037947E-01     1.0000000000000000E+00     0.0000000000000000E+00 
    3.1249999999986477E-01     1.0000000000000000E+00     0.0000000000000000E+00 
    1.8749999999991890E-01     1.0000000000000000E+00     0.0000000000000000E+00 
    6.2499999999404102E-02     1.0000000000000000E+00     0.0000000000000000E+00 
    0.0000000000000000E+00     7.5000000000112044E-01     0.0000000000000000E+00 
    0.0000000000000000E+00     5.0000000000205913E-01     0.0000000000000000E+00 
    0.0000000000000000E+00     2.5000000000102962E-01     0.0000000000000000E+00 
    0.0000000000000000E+00     8.7499999999991362E-01     0.0000000000000000E+00 
    0.0000000000000000E+00     6.2499999999988309E-01     0.0000000000000000E+00 
    0.0000000000000000E+00     3.7499999999869987E-01     0.0000000000000000E+00 
    0.0000000000000000E+00     1.2499999999880820E-01     0.0000000000000000E+00 
    0.0000000000000000E+00     9.3749999999995681E-01     0.0000000000000000E+00 
    0.0000000000000000E+00     8.1250000000051703E-01     0.0000000000000000E+00 
    0.0000000000000000E+00     6.8750000000050182E-01     0.0000000000000000E+00 
    0.0000000000000000E+00     5.6250000000097111E-01     0.0000000000000000E+00 
    0.0000000000000000E+00     4.3750000000037947E-01     0.0000000000000000E+00 
    0.0000000000000000E+00     3.1249999999986477E-01     0.0000000000000000E+00 
    0.0000000000000000E+00     1.8749999999991890E-01     0.0000000000000000E+00 
    0.0000000000000000E+00     6.2499999999404102E-02     0.0000000000000000E+00 
    4.9999999999972200E-01     2.5000000000000000E-01     0.0000000000000000E+00 
    3.7500000000067490E-01     2.5000000000000000E-01     0.0000000000000000E+00 
    6.2500000000042988E-01     2.5000000000000000E-01     0.0000000000000000E+00 
    3.1250000000033751E-01     2.5000000000000000E-01     0.0000000000000000E+00 
    4.3750000000019851E-01     2.5000000000000000E-01     0.0000000000000000E+00 
    5.6250000000007594E-01     2.5000000000000000E-01     0.0000000000000000E+00 
    6.8750000000021494E-01     2.5000000000000000E-01     0.0000000000000000E+00 
    7.5000000000000000E-01     4.9999999999972200E-01     0.0000000000000000E+00 
    7.5000000000000000E-01     3.7500000000067490E-01     0.0000000000000000E+00 
    7.5000000000000000E-01     6.2500000000042988E-01     0.0000000000000000E+00 
    7.5000000000000000E-01     3.1250000000033751E-01     0.0000000000000000E+00 
    7.5000000000000000E-01     4.3750000000019851E-01     0.0000000000000000E+00 
    7.5000000000000000E-01     5.6250000000007594E-01     0.0000000000000000E+00 
    7.5000000000000000E-01     6.8750000000021494E-01     0.0000000000000000E+00 
    5.0000000000118039E-01     7.5000000000000000E-01     0.0000000000000000E+00 
    6.2500000000161415E-01     7.5000000000000000E-01     0.0000000000000000E+00 
    3.7500000000140910E-01     7.5000000000000000E-01     0.0000000000000000E+00 
    6.8750000000080713E-01     7.5000000000000000E-01     0.0000000000000000E+00 
    5.6250000000139733E-01     7.5000000000000000E-01     0.0000000000000000E+00 
    4.3750000000129469E-01     7.5000000000000000E-01     0.0000000000000000E+00 
    3.1250000000070460E-01     7.5000000000000000E-01     0.0000000000000000E+00 
    2.5000000000000000E-01     5.0000000000118039E-01     0.0000000000000000E+00 
    2.5000000000000000E-01     6.2500000000161415E-01     0.0000000000000000E+00 
    2.5000000000000000E-01     3.7500000000140910E-01     0.0000000000000000E+00 
    2.5000000000000000E-01     6.8750000000080713E-01     0.0000000000000000E+00 
    2.5000000000000000E-01     5.6250000000139733E-01     0.0000000000000000E+00 
    2.5000000000000000E-01     4.3750000000129469E-01     0.0000000000000000E+00 
    2.5000000000000000E-01     3.1250000000070460E-01     0.0000000000000000E+00 
    3.7499999999934702E-01     1.2500000000000000E-01     0.0000000000000000E+00 
    1.2500000000000000E-01     1.2500000000000000E-01     0.0000000000000000E+00 
    1.2500000000000000E-01     3.7500000000102962E-01     0.0000000000000000E+00 
    8.7500000000000000E-01     1.2500000000000000E-01     0.0000000000000000E+00 
    6.2499999999934697E-01     1.2500000000000000E-01     0.0000000000000000E+00 
    8.7500000000000000E-01     3.7499999999934702E-01     0.0000000000000000E+00 
    8.7500000000000000E-01     6.2499999999934697E-01     0.0000000000000000E+00 
    1.2500000000000000E-01     6.2500000000102962E-01     0.0000000000000000E+00 
    1.2500000000000000E-01     8.7500000000000000E-01     0.0000000000000000E+00 
    8.7500000000000000E-01     8.7500000000000000E-01     0.0000000000000000E+00 
    6.2500000000102962E-01     8.7500000000000000E-01     0.0000000000000000E+00 
    3.7500000000102962E-01     8.7500000000000000E-01     0.0000000000000000E+00 
    2.4999999999957681E-01     8.3333333333333329E-02     0.0000000000000000E+00 
    8.3333333333333329E-02     2.5000000000068640E-01     0.0000000000000000E+00 
    7.4999999999956468E-01     8.3333333333333329E-02     0.0000000000000000E+00 
    4.9999999999951827E-01     1.6666666666666671E-01     0.0000000000000000E+00 
    9.1666666666666674E-01     2.4999999999957681E-01     0.0000000000000000E+00 
    8.3333333333333337E-01     4.9999999999951827E-01     0.0000000000000000E+00 
    1.6666666666666671E-01     5.0000000000088307E-01     0.0000000000000000E+00 
    8.3333333333333329E-02     7.5000000000070155E-01     0.0000000000000000E+00 
    9.1666666666666674E-01     7.4999999999956468E-01     0.0000000000000000E+00 
    5.0000000000088307E-01     8.3333333333333348E-01     0.0000000000000000E+00 
    2.5000000000068640E-01     9.1666666666666674E-01     0.0000000000000000E+00 
    7.5000000000070155E-01     9.1666666666666674E-01     0.0000000000000000E+00 
[...]
CELL_DATA 768 
SCALARS Pressure double 1 
LOOKUP_TABLE default 

    1.7975324143141980E+00 
    1.7047459154602216E+00 
    1.6750411033380703E+00 
    1.7314862326475275E+00 
    1.6446321527635752E+00 
    1.5995551927104434E+00 
    1.5955992992149761E+00 
    1.6318155760360618E+00 
    1.6186773779173027E+00 
    1.5908196217906356E+00 
    1.5853812241898448E+00 
    1.6055851881138778E+00 
    1.6826468670677683E+00 
    1.6488176829329988E+00 
    1.6255300524202339E+00 
    1.6451204017117764E+00 
    1.5606779462804408E+00 
    1.5240728814068516E+00 
    1.5308729278020512E+00 
    1.5624872870906725E+00 
    1.4876837340947224E+00 
    1.4505449296605870E+00 
    1.4677576431868760E+00 
    1.4995627035613261E+00 
    1.5108209366930205E+00 
    1.4843737709584091E+00 
    1.5001097301456756E+00 
    1.5212427807007423E+00 
    1.5635460826231296E+00 
    1.5370085949907748E+00 
    1.5423389054619931E+00 
    1.5638530617156663E+00 
    1.6142398419825501E+00 
    1.6019145800321253E+00 
    1.5792590712212276E+00 
    1.5883868973266859E+00 
    1.5876881799901892E+00 
    1.5720062979909022E+00 
    1.5526117610743626E+00 
    1.5671003427508208E+00 
    1.5482578627301193E+00 
    1.5340184689083400E+00 
    1.5157410469605939E+00 
    1.5305424322415409E+00 
    1.5671469110682250E+00 
    1.5596378781059930E+00 
    1.5425329519555557E+00 
    1.5504046732577483E+00 
    1.7975760406469876E+00 
    1.7315440418168120E+00 
    1.6752437566142426E+00 
    1.7049381759376900E+00 
    1.6827154267534634E+00 
    1.6451868048968059E+00 
    1.6257135955289634E+00 
    1.6490140098502122E+00 
    1.6189810983499240E+00 
    1.6058428629408270E+00 
    1.5856738375084327E+00 
    1.5911602885964633E+00 
    1.6449555113143306E+00 
    1.6321339455200048E+00 
    1.5959780513153679E+00 
    1.5999438661866763E+00 
    1.6143051542373654E+00 
    1.5884410165760383E+00 
    1.5793913446496848E+00 
    1.6020811844259586E+00 
    1.5671713847801449E+00 
    1.5504377773651141E+00 
    1.5425512946774196E+00 
    1.5597047590657163E+00 
    1.5483055559181604E+00 
    1.5304467079565698E+00 
    1.5155124221381036E+00 
    1.5339835742896932E+00 
    1.5879090131185352E+00 
    1.5672497663005660E+00 
    1.5527305638757172E+00 
    1.5722287463047910E+00 
    1.5609897274379112E+00 
    1.5627858248521451E+00 
    1.5309494697691204E+00 
    1.5241110577306705E+00 
    1.5638124233545403E+00 
    1.5640713509953890E+00 
    1.5424150584552250E+00 
    1.5370836282962477E+00 
    1.5106642858630415E+00 
    1.5211214686049781E+00 
    1.4997576801446788E+00 
    1.4839698781334161E+00 
    1.4874342486743573E+00 
    1.4993636155298677E+00 
    1.4673317192550694E+00 
    1.4501021215858536E+00 
    1.3912613606290665E+00 
    1.3515139998991497E+00 
    1.3378021319701903E+00 
    1.3724283824627495E+00 
    1.3120291263368971E+00 
    1.2743285780866400E+00 
    1.2710841258236669E+00 
    1.3036164648676416E+00 
    1.2943450070540008E+00 
    1.2669204690899429E+00 
    1.2617616897188524E+00 
    1.2839758197592543E+00 
    1.3528897404524771E+00 
    1.3233185396534084E+00 
    1.3077028514071518E+00 
    1.3322456979827373E+00 
    1.2403888658950106E+00 
    1.2122303153656704E+00 
    1.2155582588958400E+00 
    1.2413483163992156E+00 
    1.1916190300543097E+00 
    1.1793228155788358E+00 
    1.1811497915576832E+00 
    1.1952482416637884E+00 
    1.1977441750159599E+00 
    1.1821203869251371E+00 
    1.1824105180778541E+00 
    1.1992264086596405E+00 
    1.2412878188110621E+00 
    1.2176621707470912E+00 
    1.2187021251125287E+00 
    1.2402327964205959E+00 
    1.3084821817334977E+00 
    1.2864078478581618E+00 
    1.2584930609746936E+00 
    1.2803095100985353E+00 
    1.2658597478407994E+00 
    1.2473742477206426E+00 
    1.2250099556035092E+00 
    1.2401359336873863E+00 
    1.2131416255115639E+00 
    1.2033242239782949E+00 
    1.1830895169025955E+00 
    1.1855954110829121E+00 
    1.2465175830017861E+00 
    1.2267432119375667E+00 
    1.1902775986394822E+00 
    1.2010583581390681E+00 
    1.4211747114119335E+00 
    1.4000222958893855E+00 
    1.4205060330250856E+00 
    1.4413117246293896E+00 
    1.3782077891086477E+00 
    1.3554779919287869E+00 
    1.3770844898245518E+00 
    1.3991464768955237E+00 
    1.4197829305936678E+00 
    1.3984010867561845E+00 
    1.4192370143947157E+00 
    1.4399418349335980E+00 
    1.4608986695410695E+00 
    1.4405909775650534E+00 
    1.4600934082000872E+00 
    1.4797447384684617E+00 
    1.3328751900079023E+00 
    1.3102580377368347E+00 
    1.3429349100646026E+00 
    1.3582347726120065E+00 
    1.2859043687043490E+00 
    1.2592097769997517E+00 
    1.3106499548976296E+00 
    1.3270875344809818E+00 
    1.3652951455415800E+00 
    1.3563741123158353E+00 
    1.3984284733584713E+00 
    1.4012259008299941E+00 
    1.3830174290900685E+00 
    1.3742028650319134E+00 
    1.4041334754666326E+00 
    1.4070963107467220E+00 
    1.4963536139972728E+00 
    1.4751623851924238E+00 
    1.4860910944599024E+00 
    1.5106332196810002E+00 
    1.4532027778986578E+00 
    1.4304514475768748E+00 
    1.4326619451421057E+00 
    1.4600582001008500E+00 
    1.4668222811881211E+00 
    1.4349203525291609E+00 
    1.4372326024227273E+00 
    1.4735170004981961E+00 
    1.5236573128947521E+00 
    1.4965512150705289E+00 
    1.5065778639441703E+00 
    1.5353060493480977E+00 
    1.1762689856081379E+00 
    1.1621863577243945E+00 
    1.1573778658067160E+00 
    1.1735602116621391E+00 
    1.1379065290490133E+00 
    1.1040298039642713E+00 
    1.1025799156981360E+00 
    1.1335162440893538E+00 
    1.1300675568566705E+00 
    1.1020690331508949E+00 
    1.1024659418641518E+00 
    1.1275379440762845E+00 
    1.1708999852185780E+00 
    1.1532180821616991E+00 
    1.1496902330381975E+00 
    1.1683311280212676E+00 
    1.0625538009711475E+00 
    1.0148550130329625E+00 
    1.0255887928730543E+00 
    1.0664605372957792E+00 
    9.6274355201784012E-01 
    9.0734562298575572E-01 
    9.3411045231838608E-01 
    9.8118058153209908E-01 
    9.9991287508214644E-01 
    9.6079899531397062E-01 
    9.8778738715346082E-01 
    1.0193702418540869E+00 
    1.0711317600191257E+00 
    1.0369704996279765E+00 
    1.0492133824851158E+00 
    1.0766737245572870E+00 
    1.1647580264588444E+00 
    1.1428834807526067E+00 
    1.1297099655743190E+00 
    1.1590000309809101E+00 
    1.1187603855445547E+00 
    1.0931544480439142E+00 
    1.0704758060447424E+00 
    1.0999539682378507E+00 
    1.0774342723850210E+00 
    1.0451003513142938E+00 
    1.0174768909481435E+00 
    1.0508861038889081E+00 
    1.1510118592266512E+00 
    1.1125285066182091E+00 
    1.0888210505477769E+00 
    1.1371508248507733E+00 
    1.0741787367159481E+00 
    1.0435439818762065E+00 
    9.9308935525968345E-01 
    1.0133138266332382E+00 
    1.0144928787031053E+00 
    9.8643906907786105E-01 
    9.5317216803985216E-01 
    9.7306690409915331E-01 
    9.3154601340189003E-01 
    9.1944186114237525E-01 
    8.8525415194310586E-01 
    8.8960380226257363E-01 
    9.5523416187439736E-01 
    9.4344771790337190E-01 
    8.9374816336125518E-01 
    8.9767761110112532E-01 
    9.5713445163859634E-01 
    9.2622607773420018E-01 
    8.9655915608444381E-01 
    9.2773765971757138E-01 
    8.9519984672492592E-01 
    8.6351417852357837E-01 
    8.3242909488642447E-01 
    8.6488777866783506E-01 
    8.3410776522697494E-01 
    8.0104673182969444E-01 
    7.6983984821356677E-01 
    8.0309894249405511E-01 
    8.9777237797363985E-01 
    8.6625534979504393E-01 
    8.3555926968147809E-01 
    8.6731633456480239E-01 
    8.4013490215599251E-01 
    8.4373356079122752E-01 
    7.9279778405109946E-01 
    7.8161384878844797E-01 
    8.4711881584121496E-01 
    8.5034507168095619E-01 
    8.1463901626416191E-01 
    8.0372238020582776E-01 
    7.6000205776894991E-01 
    7.7829472021469071E-01 
    7.4134380347715900E-01 
    7.1624508708677836E-01 
    7.2439600870027043E-01 
    7.4204511203012380E-01 
    6.9283725856209155E-01 
    6.7136946563447752E-01 
    1.5354737754750485E+00 
    1.5062821397763646E+00 
    1.4960598765927557E+00 
    1.5235621122262151E+00 
    1.4725573161161019E+00 
    1.4356592671179269E+00 
    1.4334900662452075E+00 
    1.4658199331218909E+00 
    1.4590515359673291E+00 
    1.4313630121156424E+00 
    1.4292765796449229E+00 
    1.4522220694036645E+00 
    1.5103328549713981E+00 
    1.4854552539179633E+00 
    1.4744401713640940E+00 
    1.4958938751529864E+00 
    1.3968715212492944E+00 
    1.3554928848485621E+00 
    1.3643731476583527E+00 
    1.3998186321446668E+00 
    1.3106182192331197E+00 
    1.2596300383319832E+00 
    1.2860441331305736E+00 
    1.3267856490085101E+00 
    1.3424560990131864E+00 
    1.3101516994728706E+00 
    1.3325897378826927E+00 
    1.3576669293741950E+00 
    1.4028506356331611E+00 
    1.3732715317985116E+00 
    1.3821215406284211E+00 
    1.4059407809407307E+00 
    1.4791654030487225E+00 
    1.4592907820876408E+00 
    1.4398207155834295E+00 
    1.4603157926854269E+00 
    1.4389605151494387E+00 
    1.4181545193369931E+00 
    1.3975120210182890E+00 
    1.4189206737299096E+00 
    1.3984590095210641E+00 
    1.3764558439467041E+00 
    1.3550598654952566E+00 
    1.3776929327191032E+00 
    1.4407658904115430E+00 
    1.4198695307706386E+00 
    1.3994922061091224E+00 
    1.4206894993693051E+00 
    1.3908319284146355E+00 
    1.3720118250982272E+00 
    1.3375348022414715E+00 
    1.3512122843337115E+00 
    1.3525319108679601E+00 
    1.3320062204652030E+00 
    1.3076063442942847E+00 
    1.3231155456128199E+00 
    1.2942505600925953E+00 
    1.2839478641246966E+00 
    1.2617415104446343E+00 
    1.2668158414842987E+00 
    1.3118355077864456E+00 
    1.3034492458290243E+00 
    1.2709050191787588E+00 
    1.2740913320368956E+00 
    1.3083976193446412E+00 
    1.2804181522626301E+00 
    1.2586692372581796E+00 
    1.2864246062751514E+00 
    1.2467996382314110E+00 
    1.2014379626704299E+00 
    1.1906652576999426E+00 
    1.2270354628867646E+00 
    1.2133817269848290E+00 
    1.1859003806193027E+00 
    1.1832241292144994E+00 
    1.2034253125845136E+00 
    1.2659147152247070E+00 
    1.2402949856263334E+00 
    1.2250846238071138E+00 
    1.2474011106138827E+00 
    1.2400824247685969E+00 
    1.2410990814000600E+00 
    1.2151421119670351E+00 
    1.2116934052358430E+00 
    1.2411131854445847E+00 
    1.2401498489226934E+00 
    1.2185966495000022E+00 
    1.2173874396384690E+00 
    1.1973753599406267E+00 
    1.1990772754100210E+00 
    1.1822568325867038E+00 
    1.1817321242752448E+00 
    1.1909499959716192E+00 
    1.1947074175363579E+00 
    1.1805578853832541E+00 
    1.1786357599936919E+00 
    8.1795336665104079E-01 
    7.5466062235089226E-01 
    7.3344163115560268E-01 
    7.8948481972190110E-01 
    6.8675225160350406E-01 
    6.1148414130461393E-01 
    6.0790634976813895E-01 
    6.7363144725902857E-01 
    6.6189761710881212E-01 
    6.0622940795111790E-01 
    6.0642729293189834E-01 
    6.5194321833438762E-01 
    7.6115827409195824E-01 
    7.1302457786133100E-01 
    6.9398311796673640E-01 
    7.3368045753415179E-01 
    5.2383140409078832E-01 
    4.1250126740006482E-01 
    4.4611608846580364E-01 
    5.3377737075305798E-01 
    2.5387152828106385E-01 
    0.0000000000000000E+00 
    1.8425695961955896E-01 
    3.3506247626166347E-01 
    4.0431833274613777E-01 
    3.1571232342407302E-01 
    4.1449378398706255E-01 
    4.6415287960777285E-01 
    5.4569240535041652E-01 
    4.7975143039253548E-01 
    5.1244999324007945E-01 
    5.5897458411057166E-01 
    7.0565989026053455E-01 
    6.7008623179846660E-01 
    6.4257012928045820E-01 
    6.7853923392809068E-01 
    6.3185736255721647E-01 
    5.8977673044026413E-01 
    5.5530229712684187E-01 
    6.0203623381966442E-01 
    5.7597566202448802E-01 
    5.2254025409040972E-01 
    4.9287516257606406E-01 
    5.5549355125251754E-01 
    6.5618415348222925E-01 
    6.1998090157490215E-01 
    6.0444147759049593E-01 
    6.4123621586066870E-01 
    1.0749123810025745E+00 
    1.0131613879335555E+00 
    9.9263713869326620E-01 
    1.0438623217849587E+00 
    9.5388078957064260E-01 
    8.9528689781127557E-01 
    8.9149147279263941E-01 
    9.4202291320735498E-01 
    9.3006111187404905E-01 
    8.8750872439994455E-01 
    8.8334771680844337E-01 
    9.1800232593314579E-01 
    1.0144726877191765E+00 
    9.7236979149750002E-01 
    9.5230213628630822E-01 
    9.8613761106848741E-01 
    8.3751891738280693E-01 
    7.7999691741208421E-01 
    7.9107729667090543E-01 
    8.4133594838875936E-01 
    7.2395408570074804E-01 
    6.7162333420347120E-01 
    6.9287969569784880E-01 
    7.4131667493207054E-01 
    7.5907018508491797E-01 
    7.1608774445703216E-01 
    7.4101964713157165E-01 
    7.7732190524693934E-01 
    8.4496165523016098E-01 
    8.0208594696144908E-01 
    8.1309525669412941E-01 
    8.4845557998846921E-01 
    9.5660953226330880E-01 
    9.2671680058675954E-01 
    8.9546237236936699E-01 
    9.2553607726354215E-01 
    8.9631047614472981E-01 
    8.6557058462675118E-01 
    8.3404117339853989E-01 
    8.6488141684173081E-01 
    8.3301314893242828E-01 
    8.0201874096189141E-01 
    7.6932581950285372E-01 
    8.0043620396462201E-01 
    8.9452056742623487E-01 
    8.6394983059070740E-01 
    8.3178429197983905E-01 
    8.6295582288151640E-01 
    1.1376310366011513E+00 
    1.0893019537854878E+00 
    1.1130743619389825E+00 
    1.1514925768277153E+00 
    1.0512272178579833E+00 
    1.0176249040106751E+00 
    1.0455722989769303E+00 
    1.0779912983071829E+00 
    1.1005868784881432E+00 
    1.0711720238108986E+00 
    1.0939204607471769E+00 
    1.1193959974500556E+00 
    1.1594025448606511E+00 
    1.1302759187953026E+00 
    1.1433467483436097E+00 
    1.1650154908360992E+00 
    9.8776736112899466E-01 
    9.6058252393948607E-01 
    1.0002462019195313E+00 
    1.0197784378672976E+00 
    9.3372536979735454E-01 
    9.0682483404159386E-01 
    9.6276549571212133E-01 
    9.8136790428321174E-01 
    1.0263481125348459E+00 
    1.0155725009374756E+00 
    1.0636121687189206E+00 
    1.0674732413952106E+00 
    1.0499243930078035E+00 
    1.0377164597000947E+00 
    1.0720794538453975E+00 
    1.0775298634530577E+00 
    1.1683318557764963E+00 
    1.1499695302396220E+00 
    1.1533491153399371E+00 
    1.1706798602713810E+00 
    1.1281031616915711E+00 
    1.1032718559928647E+00 
    1.1029398569569360E+00 
    1.1306088844359086E+00 
    1.1339851409666295E+00 
    1.1035139838420129E+00 
    1.1049996909385158E+00 
    1.1383126231106311E+00 
    1.1731209347560119E+00 
    1.1573545600830790E+00 
    1.1620126952483483E+00 
    1.1756791560301652E+00 
    6.4138914344605980E-01 
    6.0468889915869195E-01 
    6.2061013944798782E-01 
    6.5653257526425968E-01 
    5.5583120194479940E-01 
    4.9324575175250734E-01 
    5.2353614671987092E-01 
    5.7686713029784276E-01 
    6.0329038406938440E-01 
    5.5679501014053689E-01 
    5.9155169289559806E-01 
    6.3327897185498938E-01 
    6.7892946032619650E-01 
    6.4345809353994099E-01 
    6.7099936796616455E-01 
    7.0597825191551511E-01 
    4.1485997293103533E-01 
    3.1601582102989972E-01 
    4.0540125626100260E-01 
    4.6520322065199643E-01 
    1.8442789748093155E-01 
    0.0000000000000000E+00 
    2.5460274737478533E-01 
    3.3601291384347692E-01 
    4.4796040665484554E-01 
    4.1420063050716732E-01 
    5.2630124726569927E-01 
    5.3617555089757851E-01 
    5.1407152209620244E-01 
    4.8151310584708007E-01 
    5.4791769161215009E-01 
    5.6093871304885567E-01 
    7.3381508902737802E-01 
    6.9479162829793040E-01 
    7.1375535351045771E-01 
    7.6113691824217911E-01 
    6.5339500759136437E-01 
    6.0836765620821454E-01 
    6.0837841926012015E-01 
    6.6343002496829806E-01 
    6.7512920868914150E-01 
    6.1018140182205816E-01 
    6.1377923511310806E-01 
    6.8812821570108618E-01 
    7.8929825906413176E-01 
    7.3401056675969700E-01 
    7.5501225136455363E-01 
    8.1760122377773514E-01 
    1.1724921713281815E+00 
    1.2345780523089660E+00 
    1.2285667416818360E+00 
    1.1713964769741148E+00 
    1.2943421672846753E+00 
    1.3510925566895111E+00 
    1.3362259313745983E+00 
    1.2836720676533826E+00 
    1.2745077787508652E+00 
    1.3225518557175264E+00 
    1.3098440364812680E+00 
    1.2666562152810190E+00 
    1.1716788205670250E+00 
    1.2241480061158310E+00 
    1.2211594104117440E+00 
    1.1732632537718313E+00 
    1.4030884775075403E+00 
    1.4501509945179061E+00 
    1.4241457168108314E+00 
    1.3827865844116221E+00 
    1.4927523435645091E+00 
    1.5311593068031872E+00 
    1.5005858260508629E+00 
    1.4631284408921028E+00 
    1.4324481090320482E+00 
    1.4667601803893471E+00 
    1.4300946100377598E+00 
    1.4006557740487442E+00 
    1.3632998334803552E+00 
    1.3983515860278146E+00 
    1.3725150120472336E+00 
    1.3443793171131893E+00 
    1.1791605737241990E+00 
    1.2278557334819122E+00 
    1.2454376792475612E+00 
    1.1905090143763577E+00 
    1.2729901170823086E+00 
    1.3152260940697618E+00 
    1.3387475990671678E+00 
    1.2941837078758960E+00 
    1.3174498745731380E+00 
    1.3631535419902565E+00 
    1.3899075204247637E+00 
    1.3450184018969771E+00 
    1.2057191081667766E+00 
    1.2664173627488351E+00 
    1.2944978543324051E+00 
    1.2309272612596829E+00 
    1.1086421970575897E+00 
    1.0442228896019234E+00 
    1.0525421566265714E+00 
    1.1120324114526559E+00 
    9.7980484336059692E-01 
    9.1591279893666155E-01 
    9.3458141886190249E-01 
    9.9328097514955382E-01 
    1.0067345952230544E+00 
    9.5315335850710436E-01 
    9.7174751966075557E-01 
    1.0202630277356570E+00 
    1.1162072594076324E+00 
    1.0611229108835845E+00 
    1.0699548288418304E+00 
    1.1210506870229855E+00 
    8.5430495963089292E-01 
    7.9518276472381744E-01 
    8.3128154864623294E-01 
    8.8067779176474970E-01 
    7.3763581155470936E-01 
    6.8199028415680607E-01 
    7.3444802613978566E-01 
    7.8258013148575223E-01 
    8.2858102926874266E-01 
    7.8958013775578462E-01 
    8.4614761778808112E-01 
    8.7536510640217746E-01 
    9.0703499124778286E-01 
    8.6770844430606886E-01 
    9.0445599828276957E-01 
    9.3351604879748495E-01 
    1.1229915752948907E+00 
    1.0697985441002753E+00 
    1.0590830954382997E+00 
    1.1204022622940464E+00 
    1.0192518260187715E+00 
    9.7053427460676611E-01 
    9.4900309263370419E-01 
    1.0026697925574042E+00 
    9.8482328472170899E-01 
    9.2703614239017429E-01 
    9.0447340094950901E-01 
    9.6517326606835485E-01 
    1.1145396608936242E+00 
    1.0458952712357810E+00 
    1.0286431063347454E+00 
    1.1022553739343131E+00 
    1.2313607415771215E+00 
    1.2944557697717574E+00 
    1.2661272755772195E+00 
    1.2058037684984093E+00 
    1.3441444469261503E+00 
    1.3883541475972339E+00 
    1.3619180453566135E+00 
    1.3166464736573644E+00 
    1.2934497900952957E+00 
    1.3377563338931013E+00 
    1.3144380439547592E+00 
    1.2723499071733029E+00 
    1.1902822886687616E+00 
    1.2450037152562015E+00 
    1.2273556904988872E+00 
    1.1787351586283550E+00 
    1.4285199374040729E+00 
    1.4658030038224350E+00 
    1.4315928981212960E+00 
    1.3994147778350643E+00 
    1.5003003587790340E+00 
    1.5313082976683794E+00 
    1.4927240076076964E+00 
    1.4627467779220713E+00 
    1.4237445877564623E+00 
    1.4500450986970275E+00 
    1.4029697247621935E+00 
    1.3824307198217547E+00 
    1.3715274496370711E+00 
    1.3976242496995182E+00 
    1.3627103884780423E+00 
    1.3436024133401037E+00 
    1.1727326934789206E+00 
    1.2206381716491825E+00 
    1.2236987065603069E+00 
    1.1711874942093135E+00 
    1.2660790186125486E+00 
    1.3091855871105318E+00 
    1.3220411552244493E+00 