# vtk DataFile Version 2.0
Pressure Field Data 
ASCII 
DATASET UNSTRUCTURED_GRID 

POINTS 801 double 

    0.0000000000000000E+00     0.0000000000000000E+00     0.0000000000000000E+00 
    1.0000000000000000E+00     0.0000000000000000E+00     0.0000000000000000E+00 
    1.0000000000000000E+00     1.0000000000000000E+00     0.0000000000000000E+00 
    0.0000000000000000E+00     1.0000000000000000E+00     0.0000000000000000E+00 
    2.5000000000000000E-01     2.5000000000000000E-01     0.0000000000000000E+00 
    7.5000000000000000E-01     2.5000000000000000E-01     0.0000000000000000E+00 
    7.5000000000000000E-01     7.5000000000000000E-01     0.0000000000000000E+00 
    2.5000000000000000E-01     7.5000000000000000E-01     0.0000000000000000E+00 
    2.4999999999941941E-01     0.0000000000000000E+00     0.0000000000000000E+00 
    4.9999999999869399E-01     0.0000000000000000E+00     0.0000000000000000E+00 
    7.4999999999934697E-01     0.0000000000000000E+00     0.0000000000000000E+00 
    1.2499999999977940E-01     0.0000000000000000E+00     0.0000000000000000E+00 
    3.7499999999905670E-01     0.0000000000000000E+00     0.0000000000000000E+00 
    6.2499999999902045E-01     0.0000000000000000E+00     0.0000000000000000E+00 
    8.7499999999967348E-01     0.0000000000000000E+00     0.0000000000000000E+00 
    6.2499999999889699E-02     0.0000000000000000E+00     0.0000000000000000E+00 
    1.8749999999959940E-01     0.0000000000000000E+00     0.0000000000000000E+00 
    3.1249999999923811E-01     0.0000000000000000E+00     0.0000000000000000E+00 
    4.3749999999887529E-01     0.0000000000000000E+00     0.0000000000000000E+00 
    5.6249999999885725E-01     0.0000000000000000E+00     0.0000000000000000E+00 
    6.8749999999918376E-01     0.0000000000000000E+00     0.0000000000000000E+00 
    8.1249999999951017E-01     0.0000000000000000E+00     0.0000000000000000E+00 
    9.3749999999983680E-01     0.0000000000000000E+00     0.0000000000000000E+00 
    1.0000000000000000E+00     2.4999999999941941E-01     0.0000000000000000E+00 
    1.0000000000000000E+00     4.9999999999869399E-01     0.0000000000000000E+00 
    1.0000000000000000E+00     7.4999999999934697E-01     0.0000000000000000E+00 
    1.0000000000000000E+00     1.2499999999977940E-01     0.0000000000000000E+00 
    1.0000000000000000E+00     3.7499999999905670E-01     0.0000000000000000E+00 
    1.0000000000000000E+00     6.2499999999902045E-01     0.0000000000000000E+00 
    1.0000000000000000E+00     8.7499999999967348E-01     0.0000000000000000E+00 
    1.0000000000000000E+00     6.2499999999889699E-02     0.0000000000000000E+00 
    1.0000000000000000E+00     1.8749999999959940E-01     0.0000000000000000E+00 
    1.0000000000000000E+00     3.1249999999923811E-01     0.0000000000000000E+00 
    1.0000000000000000E+00     4.3749999999887529E-01     0.0000000000000000E+00 
    1.0000000000000000E+00     5.6249999999885725E-01     0.0000000000000000E+00 
    1.0000000000000000E+00     6.8749999999918376E-01     0.0000000000000000E+00 
    1.0000000000000000E+00     8.1249999999951017E-01     0.0000000000000000E+00 
    1.0000000000000000E+00     9.3749999999983680E-01     0.0000000000000000E+00 
    7.5000000000112044E-01     1.0000000000000000E+00     0.0000000000000000E+00 
    5.0000000000205913E-01     1.0000000000000000E+00     0.0000000000000000E+00 
    2.5000000000102962E-01     1.0000000000000000E+00     0.0000000000000000E+00 
    8.7499999999991362E-01     1.0000000000000000E+00     0.0000000000000000E+00 
    6.2499999999988309E-01     1.0000000000000000E+00     0.0000000000000000E+00 
    3.7499999999869987E-01     1.0000000000000000E+00     0.0000000000000000E+00 
    1.2499999999880820E-01     1.0000000000000000E+00     0.0000000000000000E+00 
    9.3749999999995681E-01     1.0000000000000000E+00     0.0000000000000000E+00 
    8.1250000000051703E-01     1.0000000000000000E+00     0.0000000000000000E+00 
    6.8750000000050182E-01     1.0000000000000000E+00     0.0000000000000000E+00 
    5.6250000000097111E-01     1.0000000000000000E+00     0.0000000000000000E+00 
    4.3750000000037947E-01     1.0000000000000000E+00     0.0000000000000000E+00 
    3.1249999999986477E-01     1.0000000000000000E+00     0.0000000000000000E+00 
    1.8749999999991890E-01     1.0000000000000000E+00     0.0000000000000000E+00 
    6.2499999999404102E-02     1.0000000000000000E+00     0.0000000000000000E+00 
    0.0000000000000000E+00     7.5000000000112044E-01     0.0000000000000000E+00 
    0.0000000000000000E+00     5.0000000000205913E-01     0.0000000000000000E+00 
    0.0000000000000000E+00     2.5000000000102962E-01     0.0000000000000000E+00 
    0.0000000000000000E+00     8.7499999999991362E-01     0.0000000000000000E+00 
    0.0000000000000000E+00     6.2499999999988309E-01     0.0000000000000000E+00 
    0.0000000000000000E+00     3.7499999999869987E-01     0.0000000000000000E+00 
    0.0000000000000000E+00     1.2499999999880820E-01     0.0000000000000000E+00 
    0.0000000000000000E+00     9.3749999999995681E-01     0.0000000000000000E+00 
    0.0000000000000000E+00     8.1250000000051703E-01     0.0000000000000000E+00 
    0.0000000000000000E+00     6.8750000000050182E-01     0.0000000000000000E+00 
    0.0000000000000000E+00     5.6250000000097111E-01     0.0000000000000000E+00 
    0.0000000000000000E+00     4.3750000000037947E-01     0.0000000000000000E+00 
    0.0000000000000000E+00     3.1249999999986477E-01     0.0000000000000000E+00 
    0.0000000000000000E+00     1.8749999999991890E-01     0.0000000000000000E+00 
    0.0000000000000000E+00     6.2499999999404102E-02     0.0000000000000000E+00 
    4.9999999999972200E-01     2.5000000000000000E-01     0.0000000000000000E+00 
    3.7500000000067490E-01     2.5000000000000000E-01     0.0000000000000000E+00 
    6.2500000000042988E-01     2.5000000000000000E-01     0.0000000000000000E+00 
    3.1250000000033751E-01     2.5000000000000000E-01     0.0000000000000000E+00 
    4.3750000000019851E-01     2.5000000000000000E-01     0.0000000000000000E+00 
    5.6250000000007594E-01     2.5000000000000000E-01     0.0000000000000000E+00 
    6.8750000000021494E-01     2.5000000000000000E-01     0.0000000000000000E+00 
    7.5000000000000000E-01     4.9999999999972200E-01     0.0000000000000000E+00 
    7.5000000000000000E-01     3.7500000000067490E-01     0.0000000000000000E+00 
    7.5000000000000000E-01     6.2500000000042988E-01     0.0000000000000000E+00 
    7.5000000000000000E-01     3.1250000000033751E-01     0.0000000000000000E+00 
    7.5000000000000000E-01     4.3750000000019851E-01     0.0000000000000000E+00 
    7.5000000000000000E-01     5.6250000000007594E-01     0.0000000000000000E+00 
    7.5000000000000000E-01     6.8750000000021494E-01     0.0000000000000000E+00 
    5.0000000000118039E-01     7.5000000000000000E-01     0.0000000000000000E+00 
    6.2500000000161415E-01     7.5000000000000000E-01     0.0000000000000000E+00 
    3.7500000000140910E-01     7.5000000000000000E-01     0.0000000000000000E+00 
    6.8750000000080713E-01     7.5000000000000000E-01     0.0000000000000000E+00 
    5.6250000000139733E-01     7.5000000000000000E-01     0.0000000000000000E+00 
    4.3750000000129469E-01     7.5000000000000000E-01     0.0000000000000000E+00 
    3.1250000000070460E-01     7.5000000000000000E-01     0.0000000000000000E+00 
    2.5000000000000000E-01     5.0000000000118039E-01     0.0000000000000000E+00 
    2.5000000000000000E-01     6.2500000000161415E-01     0.0000000000000000E+00 
    2.5000000000000000E-01     3.7500000000140910E-01     0.0000000000000000E+00 
    2.5000000000000000E-01     6.8750000000080713E-01     0.0000000000000000E+00 
    2.5000000000000000E-01     5.6250000000139733E-01     0.0000000000000000E+00 
    2.5000000000000000E-01     4.3750000000129469E-01     0.0000000000000000E+00 
    2.5000000000000000E-01     3.1250000000070460E-01     0.0000000000000000E+00 
    3.7499999999934702E-01     1.2500000000000000E-01     0.0000000000000000E+00 
    1.2500000000000000E-01     1.2500000000000000E-01     0.0000000000000000E+00 
    1.2500000000000000E-01     3.7500000000102962E-01     0.0000000000000000E+00 
    8.7500000000000000E-01     1.2500000000000000E-01     0.0000000000000000E+00 
    6.2499999999934697E-01     1.2500000000000000E-01     0.0000000000000000E+00 
    8.7500000000000000E-01     3.7499999999934702E-01     0.0000000000000000E+00 
    8.7500000000000000E-01     6.2499999999934697E-01     0.0000000000000000E+00 
    1.2500000000000000E-01     6.2500000000102962E-01     0.0000000000000000E+00 
    1.2500000000000000E-01     8.7500000000000000E-01     0.0000000000000000E+00 
    8.7500000000000000E-01     8.7500000000000000E-01     0.0000000000000000E+00 
    6.2500000000102962E-01     8.7500000000000000E-01     0.0000000000000000E+00 
    3.7500000000102962E-01     8.7500000000000000E-01     0.0000000000000000E+00 
    2.4999999999957681E-01     8.3333333333333329E-02     0.0000000000000000E+00 
    8.3333333333333329E-02     2.5000000000068640E-01     0.0000000000000000E+00 
    7.4999999999956468E-01     8.3333333333333329E-02     0.0000000000000000E+00 
    4.9999999999951827E-01     1.6666666666666671E-01     0.0000000000000000E+00 
    9.1666666666666674E-01     2.4999999999957681E-01     0.0000000000000000E+00 
    8.3333333333333337E-01     4.9999999999951827E-01     0.0000000000000000E+00 
    1.6666666666666671E-01     5.0000000000088307E-01     0.0000000000000000E+00 
    8.3333333333333329E-02     7.5000000000070155E-01     0.0000000000000000E+00 
    9.1666666666666674E-01     7.4999999999956468E-01     0.0000000000000000E+00 
    5.0000000000088307E-01     8.3333333333333348E-01     0.0000000000000000E+00 
    2.5000000000068640E-01     9.1666666666666674E-01     0.0000000000000000E+00 
    7.5000000000070155E-01     9.1666666666666674E-01     0.0000000000000000E+00 
[...]
CELL_DATA 768 
SCALARS Pressure double 1 
LOOKUP_TABLE default 

    2.2203347832863862E+00 
    2.1266010796227732E+00 
    2.0963218183472137E+00 
    2.1537852490294176E+00 
    2.0648649270112767E+00 
    2.0172496379074185E+00 
    2.0130087317620462E+00 
    2.0515252812254077E+00 
    2.0377249599015106E+00 
    2.0078610670727226E+00 
    2.0019723921769841E+00 
    2.0238189929385921E+00 
    2.1041878794926245E+00 
    2.0693318700254517E+00 
    2.0450201638108334E+00 
    2.0655418640974692E+00 
    1.9747375174236768E+00 
    1.9335872683434583E+00 
    1.9413082669456330E+00 
    1.9767545403756175E+00 
    1.8918667399136608E+00 
    1.8486565216809681E+00 
    1.8687280928806629E+00 
    1.9055601079837436E+00 
    1.9184846463648657E+00 
    1.8880094690253721E+00 
    1.9061792383180556E+00 
    1.9304032808332297E+00 
    1.9779457399683948E+00 
    1.9482615493790247E+00 
    1.9542956328470160E+00 
    1.9783116436243002E+00 
    2.0331002871718655E+00 
    2.0199411642766165E+00 
    1.9954085585615506E+00 
    2.0053637387678775E+00 
    2.0045617505785187E+00 
    1.9873763353633811E+00 
    1.9658664811436712E+00 
    1.9820067257972074E+00 
    1.9610248312997305E+00 
    1.9449467450015705E+00 
    1.9241290502986419E+00 
    1.9410124304135408E+00 
    1.9821238757665998E+00 
    1.9737744285093244E+00 
    1.9545997827632215E+00 
    1.9634486680312129E+00 
    2.2203803476982462E+00 
    2.1538463898692979E+00 
    2.0965358108251810E+00 
    2.1268034040985504E+00 
    2.1042610634236736E+00 
    2.0656144648225028E+00 
    2.0452178110436714E+00 
    2.0695394870563684E+00 
    2.0380412006968811E+00 
    2.0240884695325674E+00 
    2.0022781431158450E+00 
    2.0082167316706476E+00 
    2.0652031990825406E+00 
    2.0518570038527502E+00 
    2.0134048674578344E+00 
    2.0176558468425210E+00 
    2.0331737036437172E+00 
    2.0054237993908481E+00 
    1.9955528545025178E+00 
    2.0201246705295066E+00 
    1.9821474766838214E+00 
    1.9634793483570967E+00 
    1.9546130819189569E+00 
    1.9738434630000219E+00 
    1.9610713381491720E+00 
    1.9408980101367794E+00 
    1.9238701814251478E+00 
    1.9449042786861059E+00 
    2.0047971020837636E+00 
    1.9821654655810459E+00 
    1.9659928535787490E+00 
    1.9876115433465353E+00 
    1.9750745269139449E+00 
    1.9770765384766049E+00 
    1.9413993267996676E+00 
    1.9336390287251080E+00 
    1.9782320002964200E+00 
    1.9785446204426207E+00 
    1.9543787271994366E+00 
    1.9483467700363635E+00 
    1.9183187982034984E+00 
    1.9302706931577915E+00 
    1.9057893391490344E+00 
    1.8875720322932208E+00 
    1.8916097707201074E+00 
    1.9053538249135757E+00 
    1.8682767287969526E+00 
    1.8481941628701835E+00 
    1.7786672855189676E+00 
    1.7312560237204988E+00 
    1.7148029875104347E+00 
    1.7561956288327982E+00 
    1.6839199640967093E+00 
    1.6385618894464236E+00 
    1.6346104803359220E+00 
    1.6737689182271662E+00 
    1.6625261069980082E+00 
    1.6295051117190720E+00 
    1.6231531336199723E+00 
    1.6498982292784667E+00 
    1.7327677682278537E+00 
    1.6973426615251788E+00 
    1.6784320707048799E+00 
    1.7078894381662391E+00 
    1.5976495286434520E+00 
    1.5637059394881365E+00 
    1.5676415652911604E+00 
    1.5987559892839605E+00 
    1.5389500147714146E+00 
    1.5243885747188721E+00 
    1.5263900247643463E+00 
    1.5431965898360340E+00 
    1.5459995546120502E+00 
    1.5272298258247023E+00 
    1.5271804822705974E+00 
    1.5475115782759161E+00 
    1.5985840755605825E+00 
    1.5700379954043591E+00 
    1.5710944561731452E+00 
    1.5971658208098272E+00 
    1.6791268117740243E+00 
    1.6525913972526560E+00 
    1.6186516647507230E+00 
    1.6449013013694225E+00 
    1.6278748159785852E+00 
    1.6056457553060375E+00 
    1.5784989228455943E+00 
    1.5966068206264759E+00 
    1.5637240136284452E+00 
    1.5521465904247338E+00 
    1.5275492107782436E+00 
    1.5301189615023931E+00 
    1.6036708610741564E+00 
    1.5799285574976076E+00 
    1.5353453954042691E+00 
    1.5479241644311312E+00 
    1.8140872317787493E+00 
    1.7889951435970002E+00 
    1.8132011926123792E+00 
    1.8377596172566266E+00 
    1.7629663634861854E+00 
    1.7356942479410824E+00 
    1.7614766802069621E+00 
    1.7878292110795242E+00 
    1.8122471746039108E+00 
    1.7868370655365955E+00 
    1.8115258991195287E+00 
    1.8359995197763959E+00 
    1.8606689255018407E+00 
    1.8368326945059368E+00 
    1.8596750806628937E+00 
    1.8826034195194974E+00 
    1.7084272617184439E+00 
    1.6810299481268771E+00 
    1.7203436567311945E+00 
    1.7388209816163995E+00 
    1.6514461719220475E+00 
    1.6189623091419596E+00 
    1.6812166385553013E+00 
    1.7011577288238111E+00 
    1.7470651931548953E+00 
    1.7362842920600945E+00 
    1.7866003053179813E+00 
    1.7899874321875584E+00 
    1.7684301019008506E+00 
    1.7578144997598781E+00 
    1.7935039394580019E+00 
    1.7970774249489734E+00 
    1.9018257913559957E+00 
    1.8772302163875132E+00 
    1.8899078767880675E+00 
    1.9182601878683347E+00 
    1.8515394946646060E+00 
    1.8247331911564710E+00 
    1.8273014794637250E+00 
    1.8595388466506451E+00 
    1.8674250617294486E+00 
    1.8299357297889574E+00 
    1.8326461221413706E+00 
    1.8752230867548643E+00 
    1.9331672596486611E+00 
    1.9020032026296378E+00 
    1.9135537496931347E+00 
    1.9464111378622959E+00 
    1.5207919745100982E+00 
    1.5035068067314639E+00 
    1.4973730411846751E+00 
    1.5173370696617616E+00 
    1.4734160983065143E+00 
    1.4312084029183960E+00 
    1.4292524931372286E+00 
    1.4677714991577895E+00 
    1.4631335830448549E+00 
    1.4283506483766348E+00 
    1.4285432994974332E+00 
    1.4596151287218533E+00 
    1.5136700793529085E+00 
    1.4918253778561199E+00 
    1.4870240109754793E+00 
    1.5100458868447868E+00 
    1.3795695953238742E+00 
    1.3198213987215566E+00 
    1.3331763520202335E+00 
    1.3843676426983018E+00 
    1.2543531916676853E+00 
    1.1845188538968050E+00 
    1.2181457288811222E+00 
    1.2774181112836536E+00 
    1.3006115503980251E+00 
    1.2514164405876844E+00 
    1.2849967884625264E+00 
    1.3246466495884786E+00 
    1.3899053604577496E+00 
    1.3471211155043665E+00 
    1.3620639859626229E+00 
    1.3964546596512464E+00 
    1.5051546492650618E+00 
    1.4781821728449016E+00 
    1.4614851946678356E+00 
    1.4975579664876244E+00 
    1.4483913692842278E+00 
    1.4167238928955410E+00 
    1.3883108766099979E+00 
    1.4247647260448801E+00 
    1.3965470228994943E+00 
    1.3565179113314765E+00 
    1.3218964955879307E+00 
    1.3633374253647692E+00 
    1.4872572026068758E+00 
    1.4398778146213072E+00 
    1.4102642877854235E+00 
    1.4699175158258031E+00 
    1.3919980506032323E+00 
    1.3539891023771036E+00 
    1.2909750258878587E+00 
    1.3162160973534356E+00 
    1.3178888115855241E+00 
    1.2829864224684842E+00 
    1.2411976351835041E+00 
    1.2660019625448189E+00 
    1.2137978348938723E+00 
    1.1986993724042312E+00 
    1.1554770747568988E+00 
    1.1608485320219064E+00 
    1.2434476004186734E+00 
    1.2286773039457746E+00 
    1.1660031347496096E+00 
    1.1709317915191955E+00 
    1.2464745589734756E+00 
    1.2079469453719747E+00 
    1.1703840278288005E+00 
    1.2094260508573884E+00 
    1.1694446922290300E+00 
    1.1296175485671285E+00 
    1.0897112374388911E+00 
    1.1307377130680230E+00 
    1.0912723543166667E+00 
    1.0493085062867127E+00 
    1.0090707863982067E+00 
    1.0514879359726390E+00 
    1.1715438118520436E+00 
    1.1318600640093059E+00 
    1.0927224857915849E+00 
    1.1329166982449150E+00 
    1.0979567183872241E+00 
    1.1026050408900421E+00 
    1.0377963186525283E+00 
    1.0234646456153054E+00 
    1.1070253064619389E+00 
    1.1112588422960981E+00 
    1.0659205475349756E+00 
    1.0518531978140711E+00 
    9.9603189568003125E-01 
    1.0195904767008588E+00 
    9.7229046547715325E-01 
    9.3993094749102024E-01 
    9.5032671989144091E-01 
    9.7294619622972733E-01 
    9.0983855050973439E-01 
    8.8241191901444604E-01 
    1.9465742529789731E+00 
    1.9132092371835299E+00 
    1.9014469184966143E+00 
    1.9330475736798649E+00 
    1.8741471417928812E+00 
    1.8309047643364771E+00 
    1.8283455998297256E+00 
    1.8663022446658508E+00 
    1.8584119488498674E+00 
    1.8258540491016944E+00 
    1.8234235685341471E+00 
    1.8504411432331820E+00 
    1.9179177640464167E+00 
    1.8891944373534328E+00 
    1.8764208350926417E+00 
    1.9013095781182947E+00 
    1.7849109482596175E+00 
    1.7354020628020947E+00 
    1.7461203021575431E+00 
    1.7884498119986723E+00 
    1.6813242021472614E+00 
    1.6196122333423901E+00 
    1.6517768800646451E+00 
    1.7009540681031210E+00 
    1.7199280280046834E+00 
    1.6810690464876590E+00 
    1.7082463647242345E+00 
    1.7382925213562890E+00 
    1.7920930768737371E+00 
    1.7568424816830461E+00 
    1.7674882028631709E+00 
    1.7958046012559636E+00 
    1.8819583224624823E+00 
    1.8587774015508036E+00 
    1.8359899621669555E+00 
    1.8600368416180701E+00 
    1.8349037394911163E+00 
    1.8103286736881476E+00 
    1.7858901081366525E+00 
    1.8113106626390156E+00 
    1.7871176537553799E+00 
    1.7608586344763189E+00 
    1.7353346312710884E+00 
    1.7624652731042219E+00 
    1.8371834812521488E+00 
    1.8125306870931301E+00 
    1.7884558315518551E+00 
    1.8135893559179990E+00 
    1.7782490494015750E+00 
    1.7558023629712702E+00 
    1.7146070919234371E+00 
    1.7310110878040719E+00 
    1.7324616820274770E+00 
    1.7077482727185607E+00 
    1.6784722464915995E+00 
    1.6972374544210587E+00 
    1.6625698940399563E+00 
    1.6500342712625451E+00 
    1.6233157205489319E+00 
    1.6295574590287050E+00 
    1.6838287469068796E+00 
    1.6737160656842274E+00 
    1.6345671082298643E+00 
    1.6384451440381884E+00 
    1.6791934976825829E+00 
    1.6452144904427457E+00 
    1.6190600553431960E+00 
    1.6527879519860560E+00 
    1.6041989462695128E+00 
    1.5485593789312520E+00 
    1.5360298861729702E+00 
    1.5804916080173943E+00 
    1.5642473010641762E+00 
    1.5307387159846386E+00 
    1.5279812840421714E+00 
    1.5525178418842944E+00 
    1.6281295531981641E+00 
    1.5970109480065571E+00 
    1.5788171590370421E+00 
    1.6058824776639433E+00 
    1.5974750428733768E+00 
    1.5986528961387494E+00 
    1.5673558059327581E+00 
    1.5632724241343814E+00 
    1.5985757539944987E+00 
    1.5972741415699792E+00 
    1.5711969332461553E+00 
    1.5699295338296975E+00 
    1.5457923958016611E+00 
    1.5475798914161021E+00 
    1.5272596551980775E+00 
    1.5270125887534203E+00 
    1.5383689896646588E+00 
    1.5427746742116479E+00 
    1.5259158778786210E+00 
    1.5237941633870613E+00 
    1.0720832980485877E+00 
    9.9074283794310614E-01 
    9.6310752332936811E-01 
    1.0353328616046951E+00 
    9.0263429198062073E-01 
    8.0420389181108642E-01 
    7.9954117285894521E-01 
    8.8544106802384581E-01 
    8.7002406582085945E-01 
    7.9743111921418064E-01 
    7.9780278883391231E-01 
    8.5700304566761476E-01 
    9.9847706058050589E-01 
    9.3638020655682541E-01 
    9.1150589189218556E-01 
    9.6273217217551788E-01 
    6.8994928724148019E-01 
    5.4464733087942907E-01 
    5.8931599168139626E-01 
    7.0331242095480184E-01 
    3.3602844996942655E-01 
    0.0000000000000000E+00 
    2.4721299658531323E-01 
    4.4448573375993466E-01 
    5.3485886455101028E-01 
    4.1896323956097437E-01 
    5.4790305790859506E-01 
    6.1280233005357510E-01 
    7.1901521395949342E-01 
    6.3321308748372962E-01 
    6.7575689259668470E-01 
    7.3629167000272744E-01 
    9.2642114369780360E-01 
    8.8048169112068742E-01 
    8.4483675745415598E-01 
    8.9136792501288109E-01 
    8.3092642428857655E-01 
    7.7626925074234077E-01 
    7.3149634718640111E-01 
    7.9224174722758711E-01 
    7.5842709166708289E-01 
    6.8886607412631529E-01 
    6.5015162746771171E-01 
    7.3177591896845762E-01 
    8.6256715940138462E-01 
    8.1562695659521189E-01 
    7.9557076437250307E-01 
    8.4354926692947152E-01 
    1.3929314477800068E+00 
    1.3161053981228372E+00 
    1.2904934822201310E+00 
    1.3544578954129662E+00 
    1.2419003934339603E+00 
    1.1681347076318296E+00 
    1.1632929861088359E+00 
    1.2269967365071630E+00 
    1.2119789748862753E+00 
    1.1582540654486331E+00 
    1.1530372064066992E+00 
    1.1968662459478105E+00 
    1.3179422715582079E+00 
    1.2651818895114149E+00 
    1.2401115617469838E+00 
    1.2826624637364661E+00 
    1.0947966748934908E+00 
    1.0213554271402951E+00 
    1.0355421035016474E+00 
    1.0996504944238750E+00 
    9.4952006158213398E-01 
    8.8245778758934146E-01 
    9.0961970002620540E-01 
    9.7179972620329724E-01 
    9.9459762054907075E-01 
    9.3939045888880324E-01 
    9.7144702441795838E-01 
    1.0180329546772515E+00 
    1.1042931579491158E+00 
    1.0496474633717672E+00 
    1.0637575308902918E+00 
    1.1087767236889312E+00 
    1.2458005753207897E+00 
    1.2080670536046110E+00 
    1.1687959264813186E+00 
    1.2069477176616246E+00 
    1.1695925185995297E+00 
    1.1305862612304447E+00 
    1.0905583217926376E+00 
    1.1298886179756618E+00 
    1.0895145426827268E+00 
    1.0497528204617397E+00 
    1.0079279514350739E+00 
    1.0480305916451864E+00 
    1.1682734121626148E+00 
    1.1291864541463057E+00 
    1.0883976139727545E+00 
    1.1284367275831262E+00 
    1.4706450483228832E+00 
    1.4109863202030719E+00 
    1.4407465633086731E+00 
    1.4880517113784306E+00 
    1.3638886576766058E+00 
    1.3221985024598937E+00 
    1.3572996154436707E+00 
    1.3974332119256920E+00 
    1.4258119646967378E+00 
    1.3894464998499327E+00 
    1.4179986725217968E+00 
    1.4494884088125832E+00 
    1.4983083753443120E+00 
    1.4624425980671250E+00 
    1.4790517043897837E+00 
    1.5057562217580598E+00 
    1.2850446721311695E+00 
    1.2511373969819271E+00 
    1.3012145410855089E+00 
    1.3253423922686187E+00 
    1.2174808891334388E+00 
    1.1834843229729699E+00 
    1.2543874288879202E+00 
    1.2777888510706632E+00 
    1.3345054768896190E+00 
    1.3211105254812501E+00 
    1.3814008686332453E+00 
    1.3860952561906659E+00 
    1.3632363911670868E+00 
    1.3483897716214956E+00 
    1.3914927447399708E+00 
    1.3978705849328175E+00 
    1.5103317247170731E+00 
    1.4876748815978513E+00 
    1.4922858822267846E+00 
    1.5136719456967194E+00 
    1.4606447750575648E+00 
    1.4298985504746606E+00 
    1.4298237626843087E+00 
    1.4641439190344383E+00 
    1.4686848967921531E+00 
    1.4308364056928418E+00 
    1.4328552724187462E+00 
    1.4742314338245466E+00 
    1.5170567247297659E+00 
    1.4976230899574181E+00 
    1.5035504900787207E+00 
    1.5203163612918922E+00 
    8.4363192479031290E-01 
    7.9576024062926254E-01 
    8.1616414537665460E-01 
    8.6280018355738519E-01 
    7.3206301647934668E-01 
    6.5048159956688789E-01 
    6.8980434837743987E-01 
    7.5924259037314035E-01 
    7.9336424344203504E-01 
    7.3291239637490480E-01 
    7.7787102283810272E-01 
    8.3209220068099943E-01 
    8.9149892543718023E-01 
    8.4554287095943348E-01 
    8.8104762117776203E-01 
    9.2630440172334327E-01 
    5.4820350099345017E-01 
    4.1913680445449464E-01 
    5.3577566561059453E-01 
    6.1379839374587364E-01 
    2.4714896614697887E-01 
    0.0000000000000000E+00 
    3.3610430540721326E-01 
    4.4500998389373581E-01 
    5.9088506473624858E-01 
    5.4592700242527670E-01 
    6.9219467106009935E-01 
    7.0548997586636641E-01 
    6.7732976652089427E-01 
    6.3485268622980917E-01 
    7.2106594856560502E-01 
    7.3811680708147109E-01 
    9.6227610920156337E-01 
    9.1179925064994549E-01 
    9.3645097606303984E-01 
    9.9777079835160332E-01 
    8.5806634295331463E-01 
    7.9947252751683584E-01 
    7.9926041497183664E-01 
    8.7106813869065580E-01 
    8.8634297151965791E-01 
    8.0147171962557484E-01 
    8.0613314908495459E-01 
    9.0332423584019561E-01 
    1.0344076140656546E+00 
    9.6287579195323925E-01 
    9.9019948674896552E-01 
    1.0709895618827763E+00 
    1.5076680866869880E+00 
    1.5836369797071235E+00 
    1.5764753835957643E+00 
    1.5065487078973052E+00 
    1.6565358110002597E+00 
    1.7255053332172980E+00 
    1.7076163370953992E+00 
    1.6437008354336684E+00 
    1.6328439452893146E+00 
    1.6912830439798074E+00 
    1.6762103010254019E+00 
    1.6237080779066657E+00 
    1.5073403044088414E+00 
    1.5714384681602609E+00 
    1.5683053002505598E+00 
    1.5099244766331683E+00 
    1.7884083391545751E+00 
    1.8450284920130917E+00 
    1.8140627330726944E+00 
    1.7640634508992674E+00 
    1.8959110435335313E+00 
    1.9409517952831434E+00 
    1.9054056481720867E+00 
    1.8609813802950679E+00 
    1.8247857182204632E+00 
    1.8658513912791093E+00 
    1.8226260392650746E+00 
    1.7871320445716814E+00 
    1.7407861396969795E+00 
    1.7834025782440324E+00 
    1.7526800244494602E+00 
    1.7182453533667972E+00 
    1.5179263628772208E+00 
    1.5770853808622887E+00 
    1.5991583105677167E+00 
    1.5326527148805305E+00 
    1.6319134908869615E+00 
    1.6831523611237664E+00 
    1.7121451823103286E+00 
    1.6582320046941101E+00 
    1.6871081373216628E+00 
    1.7422535990217078E+00 
    1.7746486931720591E+00 
    1.7203878938929258E+00 
    1.5521044805611606E+00 
    1.6253630247858259E+00 
    1.6589266761468553E+00 
    1.5818755813925267E+00 
    1.4293126843493309E+00 
    1.3499878194019470E+00 
    1.3604980491020673E+00 
    1.4337487075347757E+00 
    1.2703827607803118E+00 
    1.1911081525807097E+00 
    1.2145220307986522E+00 
    1.2872964967361278E+00 
    1.3043623242171818E+00 
    1.2379548217473781E+00 
    1.2615310508326298E+00 
    1.3216823269483560E+00 
    1.4393890986685196E+00 
    1.3715466595831276E+00 
    1.3831003967512210E+00 
    1.4460730691210817E+00 
    1.1143200200325087E+00 
    1.0402662545801156E+00 
    1.0858524189378207E+00 
    1.1474697710301671E+00 
    9.6776089930295062E-01 
    8.9734738171394046E-01 
    9.6440837505778132E-01 
    1.0248456014314109E+00 
    1.0832924937718236E+00 
    1.0348192546147885E+00 
    1.1068097416626255E+00 
    1.1426393434227458E+00 
    1.1807085577116263E+00 
    1.1319298045530963E+00 
    1.1784328172611811E+00 
    1.2141763011863362E+00 
    1.4493842960364964E+00 
    1.3837346115454465E+00 
    1.3715274427724791E+00 
    1.4473326334275265E+00 
    1.3211334923517843E+00 
    1.2605933777856004E+00 
    1.2344714786057360E+00 
    1.3014312864443691E+00 
    1.2803075209674133E+00 
    1.2078713024443128E+00 
    1.1807348959892643E+00 
    1.2572865207562607E+00 
    1.4415010219868665E+00 
    1.3564986727528248E+00 
    1.3369574817285468E+00 
    1.4282322432001755E+00 
    1.5825216336994445E+00 
    1.6590183649043415E+00 
    1.6251502587390310E+00 
    1.5523218417933324E+00 
    1.7195265235812964E+00 
    1.7729790317306979E+00 
    1.7409285244280934E+00 
    1.6863009518244059E+00 
    1.6574767298428643E+00 
    1.7110817443857813E+00 
    1.6823057744785292E+00 
    1.6312424554628360E+00 
    1.5324848534152846E+00 
    1.5987528213293900E+00 
    1.5765772869803081E+00 
    1.5175035020465169E+00 
    1.8208916522739702E+00 
    1.8647785859364507E+00 
    1.8238338439305126E+00 
    1.7857705909768746E+00 
    1.9050719273942873E+00 
    1.9410968006840241E+00 
    1.8958696758917166E+00 
    1.8605490269124596E+00 
    1.8136133507118626E+00 
    1.8449057964120810E+00 
    1.7882738664209170E+00 
    1.7636676548156927E+00 
    1.7515998205346717E+00 
    1.7825974549317007E+00 
    1.7401361076915272E+00 
    1.7173976136585118E+00 
    1.5093557951180636E+00 
    1.5677506854630274E+00 
    1.5709485871944580E+00 
    1.5067988373356285E+00 
    1.6230902339009263E+00 
    1.6754966924451318E+00 
    1.6907231641140923E+00 