# vtk DataFile Version 2.0
Pressure Field Data 
ASCII 
DATASET UNSTRUCTURED_GRID 

POINTS 801 double 

    0.0000000000000000E+00     0.0000000000000000E+00     0.0000000000000000E+00 
    1.0000000000000000E+00     0.0000000000000000E+00     0.0000000000000000E+00 
    1.0000000000000000E+00     1.0000000000000000E+00     0.0000000000000000E+00 
    0.0000000000000000E+00     1.0000000000000000E+00     0.0000000000000000E+00 
    2.5000000000000000E-01     2.5000000000000000E-01     0.0000000000000000E+00 
    7.5000000000000000E-01     2.5000000000000000E-01     0.0000000000000000E+00 
    7.5000000000000000E-01     7.5000000000000000E-01     0.0000000000000000E+00 
    2.5000000000000000E-01     7.5000000000000000E-01     0.0000000000000000E+00 
    2.4999999999941941E-01     0.0000000000000000E+00     0.0000000000000000E+00 
    4.9999999999869399E-01     0.0000000000000000E+00     0.0000000000000000E+00 
    7.4999999999934697E-01     0.0000000000000000E+00     0.0000000000000000E+00 
    1.2499999999977940E-01     0.0000000000000000E+00     0.0000000000000000E+00 
    3.7499999999905670E-01     0.0000000000000000E+00     0.0000000000000000E+00 
    6.2499999999902045E-01     0.0000000000000000E+00     0.0000000000000000E+00 
    8.7499999999967348E-01     0.0000000000000000E+00     0.0000000000000000E+00 
    6.2499999999889699E-02     0.0000000000000000E+00     0.0000000000000000E+00 
    1.8749999999959940E-01     0.0000000000000000E+00     0.0000000000000000E+00 
    3.1249999999923811E-01     0.0000000000000000E+00     0.0000000000000000E+00 
    4.3749999999887529E-01     0.0000000000000000E+00     0.0000000000000000E+00 
    5.6249999999885725E-01     0.0000000000000000E+00     0.0000000000000000E+00 
    6.8749999999918376E-01     0.0000000000000000E+00     0.0000000000000000E+00 
    8.1249999999951017E-01     0.0000000000000000E+00     0.0000000000000000E+00 
    9.3749999999983680E-01     0.0000000000000000E+00     0.0000000000000000E+00 
    1.0000000000000000E+00     2.4999999999941941E-01     0.0000000000000000E+00 
    1.0000000000000000E+00     4.9999999999869399E-01     0.0000000000000000E+00 
    1.0000000000000000E+00     7.4999999999934697E-01     0.0000000000000000E+00 
    1.0000000000000000E+00     1.2499999999977940E-01     0.0000000000000000E+00 
    1.0000000000000000E+00     3.7499999999905670E-01     0.0000000000000000E+00 
    1.0000000000000000E+00     6.2499999999902045E-01     0.0000000000000000E+00 
    1.0000000000000000E+00     8.7499999999967348E-01     0.0000000000000000E+00 
    1.0000000000000000E+00     6.2499999999889699E-02     0.0000000000000000E+00 
    1.0000000000000000E+00     1.8749999999959940E-01     0.0000000000000000E+00 
    1.0000000000000000E+00     3.1249999999923811E-01     0.0000000000000000E+00 
    1.0000000000000000E+00     4.3749999999887529E-01     0.0000000000000000E+00 
    1.0000000000000000E+00     5.6249999999885725E-01     0.0000000000000000E+00 
    1.0000000000000000E+00     6.8749999999918376E-01     0.0000000000000000E+00 
    1.0000000000000000E+00     8.1249999999951017E-01     0.0000000000000000E+00 
    1.0000000000000000E+00     9.3749999999983680E-01     0.0000000000000000E+00 
    7.5000000000112044E-01     1.0000000000000000E+00     0.0000000000000000E+00 
    5.0000000000205913E-01     1.0000000000000000E+00     0.0000000000000000E+00 
    2.5000000000102962E-01     1.0000000000000000E+00     0.0000000000000000E+00 
    8.7499999999991362E-01     1.0000000000000000E+00     0.0000000000000000E+00 
    6.2499999999988309E-01     1.0000000000000000E+00     0.0000000000000000E+00 
    3.7499999999869987E-01     1.0000000000000000E+00     0.0000000000000000E+00 
    1.2499999999880820E-01     1.0000000000000000E+00     0.0000000000000000E+00 
    9.3749999999995681E-01     1.0000000000000000E+00     0.0000000000000000E+00 
    8.1250000000051703E-01     1.0000000000000000E+00     0.0000000000000000E+00 
    6.8750000000050182E-01     1.0000000000000000E+00     0.0000000000000000E+00 
    5.6250000000097111E-01     1.0000000000000000E+00     0.0000000000000000E+00 
    4.3750000000037947E-01     1.0000000000000000E+00     0.0000000000000000E+00 
    3.1249999999986477E-01     1.0000000000000000E+00     0.0000000000000000E+00 
    1.8749999999991890E-01     1.0000000000000000E+00     0.0000000000000000E+00 
    6.2499999999404102E-02     1.0000000000000000E+00     0.0000000000000000E+00 
    0.0000000000000000E+00     7.5000000000112044E-01     0.0000000000000000E+00 
    0.0000000000000000E+00     5.0000000000205913E-01     0.0000000000000000E+00 
    0.0000000000000000E+00     2.5000000000102962E-01     0.0000000000000000E+00 
    0.0000000000000000E+00     8.7499999999991362E-01     0.0000000000000000E+00 
    0.0000000000000000E+00     6.2499999999988309E-01     0.0000000000000000E+00 
    0.0000000000000000E+00     3.7499999999869987E-01     0.0000000000000000E+00 
    0.0000000000000000E+00     1.2499999999880820E-01     0.0000000000000000E+00 
    0.0000000000000000E+00     9.3749999999995681E-01     0.0000000000000000E+00 
    0.0000000000000000E+00     8.1250000000051703E-01     0.0000000000000000E+00 
    0.0000000000000000E+00     6.8750000000050182E-01     0.0000000000000000E+00 
    0.0000000000000000E+00     5.6250000000097111E-01     0.0000000000000000E+00 
    0.0000000000000000E+00     4.3750000000037947E-01     0.0000000000000000E+00 
    0.0000000000000000E+00     3.1249999999986477E-01     0.0000000000000000E+00 
    0.0000000000000000E+00     1.8749999999991890E-01     0.0000000000000000E+00 
    0.0000000000000000E+00     6.2499999999404102E-02     0.0000000000000000E+00 
    4.9999999999972200E-01     2.5000000000000000E-01     0.0000000000000000E+00 
    3.7500000000067490E-01     2.5000000000000000E-01     0.0000000000000000E+00 
    6.2500000000042988E-01     2.5000000000000000E-01     0.0000000000000000E+00 
    3.1250000000033751E-01     2.5000000000000000E-01     0.0000000000000000E+00 
    4.3750000000019851E-01     2.5000000000000000E-01     0.0000000000000000E+00 
    5.6250000000007594E-01     2.5000000000000000E-01     0.0000000000000000E+00 
    6.8750000000021494E-01     2.5000000000000000E-01     0.0000000000000000E+00 
    7.5000000000000000E-01     4.9999999999972200E-01     0.0000000000000000E+00 
    7.5000000000000000E-01     3.7500000000067490E-01     0.0000000000000000E+00 
    7.5000000000000000E-01     6.2500000000042988E-01     0.0000000000000000E+00 
    7.5000000000000000E-01     3.1250000000033751E-01     0.0000000000000000E+00 
    7.5000000000000000E-01     4.3750000000019851E-01     0.0000000000000000E+00 
    7.5000000000000000E-01     5.6250000000007594E-01     0.0000000000000000E+00 
    7.5000000000000000E-01     6.8750000000021494E-01     0.0000000000000000E+00 
    5.0000000000118039E-01     7.5000000000000000E-01     0.0000000000000000E+00 
    6.2500000000161415E-01     7.5000000000000000E-01     0.0000000000000000E+00 
    3.7500000000140910E-01     7.5000000000000000E-01     0.0000000000000000E+00 
    6.8750000000080713E-01     7.5000000000000000E-01     0.0000000000000000E+00 
    5.6250000000139733E-01     7.5000000000000000E-01     0.0000000000000000E+00 
    4.3750000000129469E-01     7.5000000000000000E-01     0.0000000000000000E+00 
    3.1250000000070460E-01     7.5000000000000000E-01     0.0000000000000000E+00 
    2.5000000000000000E-01     5.0000000000118039E-01     0.0000000000000000E+00 
    2.5000000000000000E-01     6.2500000000161415E-01     0.0000000000000000E+00 
    2.5000000000000000E-01     3.7500000000140910E-01     0.0000000000000000E+00 
    2.5000000000000000E-01     6.8750000000080713E-01     0.0000000000000000E+00 
    2.5000000000000000E-01     5.6250000000139733E-01     0.0000000000000000E+00 
    2.5000000000000000E-01     4.3750000000129469E-01     0.0000000000000000E+00 
    2.5000000000000000E-01     3.1250000000070460E-01     0.0000000000000000E+00 
    3.7499999999934702E-01     1.2500000000000000E-01     0.0000000000000000E+00 
    1.2500000000000000E-01     1.2500000000000000E-01     0.0000000000000000E+00 
    1.2500000000000000E-01     3.7500000000102962E-01     0.0000000000000000E+00 
    8.7500000000000000E-01     1.2500000000000000E-01     0.0000000000000000E+00 
    6.2499999999934697E-01     1.2500000000000000E-01     0.0000000000000000E+00 
    8.7500000000000000E-01     3.7499999999934702E-01     0.0000000000000000E+00 
    8.7500000000000000E-01     6.2499999999934697E-01     0.0000000000000000E+00 
    1.2500000000000000E-01     6.2500000000102962E-01     0.0000000000000000E+00 
    1.2500000000000000E-01     8.7500000000000000E-01     0.0000000000000000E+00 
    8.7500000000000000E-01     8.7500000000000000E-01     0.0000000000000000E+00 
    6.2500000000102962E-01     8.7500000000000000E-01     0.0000000000000000E+00 
    3.7500000000102962E-01     8.7500000000000000E-01     0.0000000000000000E+00 
    2.4999999999957681E-01     8.3333333333333329E-02     0.0000000000000000E+00 
    8.3333333333333329E-02     2.5000000000068640E-01     0.0000000000000000E+00 
    7.4999999999956468E-01     8.3333333333333329E-02     0.0000000000000000E+00 
    4.9999999999951827E-01     1.6666666666666671E-01     0.0000000000000000E+00 
    9.1666666666666674E-01     2.4999999999957681E-01     0.0000000000000000E+00 
    8.3333333333333337E-01     4.9999999999951827E-01     0.0000000000000000E+00 
    1.6666666666666671E-01     5.0000000000088307E-01     0.0000000000000000E+00 
    8.3333333333333329E-02     7.5000000000070155E-01     0.0000000000000000E+00 
    9.1666666666666674E-01     7.4999999999956468E-01     0.0000000000000000E+00 
    5.0000000000088307E-01     8.3333333333333348E-01     0.0000000000000000E+00 
    2.5000000000068640E-01     9.1666666666666674E-01     0.0000000000000000E+00 
    7.5000000000070155E-01     9.1666666666666674E-01     0.0000000000000000E+00 
[...]
CELL_DATA 768 
SCALARS Pressure double 1 
LOOKUP_TABLE default 

    1.7909317116831651E+00 
    1.6981604153147334E+00 
    1.6684647796128700E+00 
    1.7248936326377851E+00 
    1.6380727692647485E+00 
    1.5930365161870339E+00 
    1.5890851063555036E+00 
    1.6252644484933960E+00 
    1.6121366181654220E+00 
    1.5843112286778063E+00 
    1.5788799913453651E+00 
    1.5990572769044700E+00 
    1.6760662442945800E+00 
    1.6422534091109073E+00 
    1.6189818479882769E+00 
    1.6385572784737463E+00 
    1.5542180969669426E+00 
    1.5176878311102227E+00 
    1.5244726518370770E+00 
    1.5560240395342138E+00 
    1.4813871511679635E+00 
    1.4443493392237450E+00 
    1.4615143343030301E+00 
    1.4932359055624802E+00 
    1.5044663754002765E+00 
    1.4780859562844559E+00 
    1.4937812870077607E+00 
    1.5148632595661951E+00 
    1.5570806393941052E+00 
    1.5305947801608224E+00 
    1.5359133586980718E+00 
    1.5573865547050860E+00 
    1.6077013643136491E+00 
    1.5953896428975993E+00 
    1.5727642670153410E+00 
    1.5818785055892719E+00 
    1.5811820462671755E+00 
    1.5655247522780980E+00 
    1.5461646816232997E+00 
    1.5606260170035815E+00 
    1.5418183790574072E+00 
    1.5276095243273893E+00 
    1.5093739396477019E+00 
    1.5241406168378739E+00 
    1.5606706487614217E+00 
    1.5531756188657007E+00 
    1.5361044619016986E+00 
    1.5439597504687959E+00 
    1.7909752947347832E+00 
    1.7249513597244057E+00 
    1.6686671068083323E+00 
    1.6983524052888275E+00 
    1.6761346854250578E+00 
    1.6386235278047070E+00 
    1.6191649841087976E+00 
    1.6424493824692985E+00 
    1.6124398160945894E+00 
    1.5993144471917158E+00 
    1.5791719357418035E+00 
    1.5846511885692043E+00 
    1.6383955994529200E+00 
    1.6255822852729767E+00 
    1.5894630925899085E+00 
    1.5934244133866919E+00 
    1.6077664764913404E+00 
    1.5819324306410218E+00 
    1.5728960433629997E+00 
    1.5955557546285810E+00 
    1.5606949937962382E+00 
    1.5439926431685389E+00 
    1.5361222842497602E+00 
    1.5532420462939387E+00 
    1.5418654530534568E+00 
    1.5240443751105632E+00 
    1.5091448379902128E+00 
    1.5275739487423454E+00 
    1.5814022742144880E+00 
    1.5607747986281428E+00 
    1.5462827096358043E+00 
    1.5657464780852126E+00 
    1.5545288181203916E+00 
    1.5563215653886135E+00 
    1.5245481343834402E+00 
    1.5177249297820405E+00 
    1.5573460447310676E+00 
    1.5576040106172580E+00 
    1.5359886494015447E+00 
    1.5306688566281494E+00 
    1.5043088775437297E+00 
    1.5147412161859923E+00 
    1.4934287667317838E+00 
    1.4776813918884704E+00 
    1.4811366014602878E+00 
    1.4930358508458685E+00 
    1.4610874519302006E+00 
    1.4439053111470270E+00 
    1.3852445954743196E+00 
    1.3456259004233251E+00 
    1.3319600209304323E+00 
    1.3664724937274775E+00 
    1.3062734049462534E+00 
    1.2687027037487666E+00 
    1.2654700934502197E+00 
    1.2978899674853175E+00 
    1.2886515111982841E+00 
    1.2613220933041847E+00 
    1.2561830992257017E+00 
    1.2783200446318443E+00 
    1.3469988509659234E+00 
    1.3175262517442423E+00 
    1.3019656283591285E+00 
    1.3264255130250255E+00 
    1.2348823265361262E+00 
    1.2068244122771414E+00 
    1.2101411919348342E+00 
    1.2358389792330136E+00 
    1.1862877615122080E+00 
    1.1740367979771129E+00 
    1.1758579613769833E+00 
    1.1899046976052690E+00 
    1.1923935078908685E+00 
    1.1768271750467068E+00 
    1.1771196312896137E+00 
    1.1938732802363146E+00 
    1.2357799070670381E+00 
    1.2122391419558998E+00 
    1.2132776995139001E+00 
    1.2347304413281524E+00 
    1.3027455706754310E+00 
    1.2807467848244036E+00 
    1.2529333967992791E+00 
    1.2746744061738802E+00 
    1.2602696185681528E+00 
    1.2418482847329431E+00 
    1.2195654652151251E+00 
    1.2346395779327044E+00 
    1.2077453020227504E+00 
    1.1979597695463979E+00 
    1.1778006307335505E+00 
    1.1803025960726690E+00 
    1.2410075285968338E+00 
    1.2213012976327013E+00 
    1.1849732375763964E+00 
    1.1957213386476657E+00 
    1.4150658240810863E+00 
    1.3939790867674513E+00 
    1.4144003882428950E+00 
    1.4351436634482548E+00 
    1.3722348493239405E+00 
    1.3495807970982705E+00 
    1.3711171144801513E+00 
    1.3931076267381568E+00 
    1.4136806998680214E+00 
    1.3923659222787723E+00 
    1.4131373969789838E+00 
    1.4337794994208546E+00 
    1.4546750248779197E+00 
    1.4344259278420723E+00 
    1.4538725129477656E+00 
    1.4734694815398881E+00 
    1.3270558188578336E+00 
    1.3045185767429988E+00 
    1.3370837968844769E+00 
    1.3523307742032886E+00 
    1.2802526524852735E+00 
    1.2536556302892767E+00 
    1.3049131396329672E+00 
    1.3212921074092550E+00 
    1.3593706570759223E+00 
    1.3504805582201023E+00 
    1.3923968690022372E+00 
    1.3951845980906181E+00 
    1.3770325404696195E+00 
    1.3682478139096068E+00 
    1.3980821921656070E+00 
    1.4010350321338698E+00 
    1.4900347177338211E+00 
    1.4688999367787854E+00 
    1.4797993971535279E+00 
    1.5042783519769534E+00 
    1.4470023151448781E+00 
    1.4243184581775101E+00 
    1.4265228371971141E+00 
    1.4538385379287495E+00 
    1.4605838202563970E+00 
    1.4287748580959891E+00 
    1.4310803895909892E+00 
    1.4672600961148938E+00 
    1.5172710160479510E+00 
    1.4902322004914617E+00 
    1.5002334308121565E+00 
    1.5288931477770222E+00 
    1.1709945186338426E+00 
    1.1569680188369926E+00 
    1.1521797302602106E+00 
    1.1682971283667700E+00 
    1.1327863164735310E+00 
    1.0990479996735083E+00 
    1.0976048420458442E+00 
    1.1284148041574074E+00 
    1.1249818949795900E+00 
    1.0970973519276266E+00 
    1.0974941582016644E+00 
    1.1224646716363647E+00 
    1.1656495079103806E+00 
    1.1480387134892429E+00 
    1.1445277937145004E+00 
    1.1630940794016440E+00 
    1.0577414727425498E+00 
    1.0102399903908283E+00 
    1.0209294553280608E+00 
    1.0616325738639727E+00 
    9.5834864473967862E-01 
    9.0318760140992449E-01 
    9.2983877486949185E-01 
    9.7670787602482034E-01 
    9.9536315733756553E-01 
    9.5641523700647257E-01 
    9.8329168050740479E-01 
    1.0147416352025740E+00 
    1.0662860668736613E+00 
    1.0322658185702094E+00 
    1.0444603255775806E+00 
    1.0718070826009571E+00 
    1.1595394497000264E+00 
    1.1377516733169231E+00 
    1.1246344574946323E+00 
    1.1538092420427959E+00 
    1.1137249509253213E+00 
    1.0882220173096453E+00 
    1.0656372174849154E+00 
    1.0949968645064021E+00 
    1.0725706042572847E+00 
    1.0403672001153739E+00 
    1.0128590840599758E+00 
    1.0461323644898672E+00 
    1.1458574918365103E+00 
    1.1075250702727824E+00 
    1.0839150763997527E+00 
    1.1320533191578623E+00 
    1.0693323384716014E+00 
    1.0388217406608542E+00 
    9.8857599211704072E-01 
    1.0087165485978538E+00 
    1.0098895270656281E+00 
    9.8195133448524807E-01 
    9.4882482611503138E-01 
    9.6863676957735156E-01 
    9.2729163351917121E-01 
    9.1523804676792098E-01 
    8.8119707053047436E-01 
    8.8552902559644597E-01 
    9.5088012820971513E-01 
    9.3914334037587099E-01 
    8.8965608611893454E-01 
    8.9356880785537329E-01 
    9.5276832895080521E-01 
    9.2198893678359606E-01 
    8.9244938561912168E-01 
    9.2349668327957191E-01 
    8.9109205484058007E-01 
    8.5953999815940318E-01 
    8.2859028878534369E-01 
    8.6091130291878792E-01 
    8.3026617980014616E-01 
    7.9734666889454764E-01 
    7.6627881685160548E-01 
    7.9939396509067229E-01 
    8.9365983933272886E-01 
    8.6227672498002905E-01 
    8.3171442122375094E-01 
    8.6333526125210058E-01 
    8.3627539954878904E-01 
    8.3985772406572301E-01 
    7.8914337099292475E-01 
    7.7800874591769809E-01 
    8.4322718832001997E-01 
    8.4643830427808697E-01 
    8.1088654289679940E-01 
    8.0001902748159881E-01 
    7.5648971412774180E-01 
    7.7470013213359357E-01 
    7.3791078036994440E-01 
    7.1292573473286813E-01 
    7.2104050169283374E-01 
    7.3861284426786822E-01 
    6.8962174462993198E-01 
    6.6824196839832373E-01 
    1.5290601729177362E+00 
    1.4999373709439643E+00 
    1.4897407242833562E+00 
    1.5171752780512737E+00 
    1.4663009985417754E+00 
    1.4295084084565204E+00 
    1.4273457108372516E+00 
    1.4595820807479865E+00 
    1.4528324313386483E+00 
    1.4252247949572030E+00 
    1.4231442152833151E+00 
    1.4460220816774518E+00 
    1.5039776199626957E+00 
    1.4791635684955751E+00 
    1.4681778398735927E+00 
    1.4895747554139269E+00 
    1.3908404724944752E+00 
    1.3495972847705118E+00 
    1.3584470223041236E+00 
    1.3937777858628799E+00 
    1.3048763944101180E+00 
    1.2540687855581214E+00 
    1.2803863953516061E+00 
    1.3209861629780020E+00 
    1.3366016981465185E+00 
    1.3044072925756551E+00 
    1.3267662866072869E+00 
    1.3517601453503114E+00 
    1.3967997341826004E+00 
    1.3673151875312997E+00 
    1.3761354827814871E+00 
    1.3998796958815469E+00 
    1.4728899720071571E+00 
    1.4530700530005796E+00 
    1.4336553105688843E+00 
    1.4540915496965368E+00 
    1.4327985294509993E+00 
    1.4120551180666669E+00 
    1.3914759658794502E+00 
    1.4128179705807045E+00 
    1.3924186733843023E+00 
    1.3704862614166804E+00 
    1.3491594926539108E+00 
    1.3717177014925594E+00 
    1.4345967408352804E+00 
    1.4137627111549493E+00 
    1.3934472358927328E+00 
    1.4145790531718661E+00 
    1.3848129894695125E+00 
    1.3660534310853325E+00 
    1.3316891359269145E+00 
    1.3453209746343953E+00 
    1.3466379053545938E+00 
    1.3261820060895086E+00 
    1.3018642619273293E+00 
    1.3173191580404300E+00 
    1.2885520917812949E+00 
    1.2782866232352308E+00 
    1.2561570037694747E+00 
    1.2612120017365518E+00 
    1.3060755354883995E+00 
    1.2977182382960417E+00 
    1.2652858939592140E+00 
    1.2684606394782967E+00 
    1.3026559240591060E+00 
    1.2747767950245259E+00 
    1.2531026858453582E+00 
    1.2807578013557270E+00 
    1.2412821590463923E+00 
    1.1960926095363333E+00 
    1.1853519205577521E+00 
    1.2215855952636412E+00 
    1.2079773187670815E+00 
    1.1805986188141651E+00 
    1.1779268081723409E+00 
    1.1980530442777337E+00 
    1.2603183931745168E+00 
    1.2347914638420143E+00 
    1.2196329455511838E+00 
    1.2418686880223140E+00 
    1.2345705992467484E+00 
    1.2355842502112340E+00 
    1.2097195962693092E+00 
    1.2062824521835795E+00 
    1.2355994764914147E+00 
    1.2346413017193190E+00 
    1.2131655992504600E+00 
    1.2119584353396238E+00 
    1.1920186160985287E+00 
    1.1937172119504658E+00 
    1.1769586122201727E+00 
    1.1764325360212209E+00 
    1.1856137474314443E+00 
    1.1893584409504092E+00 
    1.1752605057710470E+00 
    1.1733445577247956E+00 
    8.1417139365600755E-01 
    7.5115464545500765E-01 
    7.3003156044312834E-01 
    7.8582844928089235E-01 
    6.8354821330699833E-01 
    6.0862243751905243E-01 
    6.0506185691941849E-01 
    6.7048819128978077E-01 
    6.5880958594263894E-01 
    6.0339352632905019E-01 
    6.0359077870572031E-01 
    6.4890162622181691E-01 
    7.5762989733319697E-01 
    7.0970847545954430E-01 
    6.9075454615347143E-01 
    7.3027696077665860E-01 
    5.2136890278851045E-01 
    4.1057068270169950E-01 
    4.4401773263174404E-01 
    5.3126850628755284E-01 
    2.5267275019971708E-01 
    0.0000000000000000E+00 
    1.8335193991155374E-01 
    3.3347314723964505E-01 
    4.0240597852201326E-01 
    3.1420322872916967E-01 
    4.1253133019762384E-01 
    4.6196447707775501E-01 
    5.4312961556190775E-01 
    4.7749369751548754E-01 
    5.1004095476219202E-01 
    5.5635226445043928E-01 
    7.0238316816655399E-01 
    6.6696526929599775E-01 
    6.3956998722807668E-01 
    6.7538488847159250E-01 
    6.2890598360810690E-01 
    5.8701486777480372E-01 
    5.5269700296074020E-01 
    5.9921755744002114E-01 
    5.7327161806081828E-01 
    5.2008488451201329E-01 
    4.9055595653908518E-01 
    5.5288004262459378E-01 
    6.5312506939269599E-01 
    6.1707945512848150E-01 
    6.0161202476782283E-01 
    6.3823921023597963E-01 
    1.0700552420390428E+00 
    1.0085540892246314E+00 
    9.8811396355254755E-01 
    1.0391290577701098E+00 
    9.4951874866157238E-01 
    8.9117171769799286E-01 
    8.8739330818427875E-01 
    9.3771078472752989E-01 
    9.2579932552776889E-01 
    8.8342795813363950E-01 
    8.7928452403228574E-01 
    9.1379110957990561E-01 
    1.0098583689945024E+00 
    9.6793023987709270E-01 
    9.4794574397073117E-01 
    9.8163921531455878E-01 
    8.3365381584497089E-01 
    7.7638431466402025E-01 
    7.8741581848336750E-01 
    8.3745448166172010E-01 
    7.2058903470397828E-01 
    6.6848407335015902E-01 
    6.8965179627720419E-01 
    7.3787503674747634E-01 
    7.5554915272374812E-01 
    7.1275737163374187E-01 
    7.3757660926574331E-01 
    7.7371896844310317E-01 
    8.4106422331091912E-01 
    7.9837557223935596E-01 
    8.0933584805597447E-01 
    8.4454261974041556E-01 
    9.5223309341562912E-01 
    9.2246720523963288E-01 
    8.9134455416633562E-01 
    9.2128911430636595E-01 
    8.9219074381735775E-01 
    8.6158311453461800E-01 
    8.3018954248014254E-01 
    8.6089565690028858E-01 
    8.2916397708593681E-01 
    7.9830593477171863E-01 
    7.6575545244894272E-01 
    7.9672727737092464E-01 
    8.9040336003344644E-01 
    8.5996544772890937E-01 
    8.2793721243509422E-01 
    8.5897288739496691E-01 
    1.1325238709287799E+00 
    1.0843850823696288E+00 
    1.1080598839763471E+00 
    1.1463281907855161E+00 
    1.0464619329814713E+00 
    1.0129952647827141E+00 
    1.0408265406559174E+00 
    1.0731156307338832E+00 
    1.0956176969623475E+00 
    1.0663203280026654E+00 
    1.0889749827993116E+00 
    1.1143486486723653E+00 
    1.1542018921063208E+00 
    1.1251892829650101E+00 
    1.1382042487932256E+00 
    1.1597875334906405E+00 
    9.8325969947461811E-01 
    9.5618694339614674E-01 
    9.9568324930025598E-01 
    1.0151367525240671E+00 
    9.2944196795194467E-01 
    9.0265614649974679E-01 
    9.5835688795074314E-01 
    9.7688167888548760E-01 
    1.0216744114681797E+00 
    1.0109428745787021E+00 
    1.0587844888820679E+00 
    1.0626303216023214E+00 
    1.0451576100211184E+00 
    1.0329977085704940E+00 
    1.0672192856778284E+00 
    1.0726493439188913E+00 
    1.1630864616420018E+00 
    1.1447971693215018E+00 
    1.1481605227748779E+00 
    1.1654220386534941E+00 
    1.1230182991298727E+00 
    1.0982869280552974E+00 
    1.0979546400214273E+00 
    1.1255117401579200E+00 
    1.1288726328524792E+00 
    1.0985250363560495E+00 
    1.1000038541680397E+00 
    1.1331817706144955E+00 
    1.1678515005076939E+00 
    1.1521479899411617E+00 
    1.1567866966977061E+00 
    1.1703990439553673E+00 
    6.3838949381570198E-01 
    6.0186056084686401E-01 
    6.1770688573227783E-01 
    6.5346519725041108E-01 
    5.5321549224069833E-01 
    4.9092263612367715E-01 
    5.2107161370265265E-01 
    5.7415861632558496E-01 
    6.0046371186323366E-01 
    5.5417839160882243E-01 
    5.8877727183403772E-01 
    6.3031602417223975E-01 
    6.7576445981176902E-01 
    6.4045032535811242E-01 
    6.6786711473734428E-01 
    7.0269044178360807E-01 
    4.1289522507489002E-01 
    3.1450425076770128E-01 
    4.0347970808917977E-01 
    4.6300682341002458E-01 
    1.8352213095023384E-01 
    0.0000000000000000E+00 
    2.5340328221250347E-01 
    3.3441347262121479E-01 
    4.4584334524224439E-01 
    4.1224486198570626E-01 
    5.2382534717412965E-01 
    5.3365250341419679E-01 
    5.1165045400436393E-01 
    4.7924091810599451E-01 
    5.4534041171785297E-01 
    5.5830297791773975E-01 
    7.3040052963945679E-01 
    6.9155039242914473E-01 
    7.1042609241045029E-01 
    7.5759784416507192E-01 
    6.5033945760119527E-01 
    6.0551651417651897E-01 
    6.0552622025012204E-01 
    6.6032649631064622E-01 
    6.7197015297355223E-01 
    6.0731967275657317E-01 
    6.1090013195690984E-01 
    6.8490871964679734E-01 
    7.8563189685883439E-01 
    7.3058771412562573E-01 
    7.5149422786120801E-01 
    8.1380995611261941E-01 
    1.1673397537721835E+00 
    1.2291946904682878E+00 
    1.2232031742523775E+00 
    1.1662454767112944E+00 
    1.2887401400119511E+00 
    1.3452870602548461E+00 
    1.3304710075403929E+00 
    1.2781064931128638E+00 
    1.2689709055438683E+00 
    1.3168415155186950E+00 
    1.3041734563999754E+00 
    1.2611413422805311E+00 
    1.1665207205825725E+00 
    1.2187955808095632E+00 
    1.2158103946998415E+00 
    1.1680901220395070E+00 
    1.3971014184216433E+00 
    1.4440049596956048E+00 
    1.4180822715100529E+00 
    1.3768669884776175E+00 
    1.4864687847636984E+00 
    1.5247668157995782E+00 
    1.4942751634075322E+00 
    1.4569329404142495E+00 
    1.4263443364911472E+00 
    1.4605442736305163E+00 
    1.4239876725589711E+00 
    1.3946497106586329E+00 
    1.3574435513883021E+00 
    1.3923692432561774E+00 
    1.3666142405905115E+00 
    1.3385835972301181E+00 
    1.1739539708710804E+00 
    1.2224728249400667E+00 
    1.2399801409742561E+00 
    1.1852473484597177E+00 
    1.2674444695357776E+00 
    1.3095297140867188E+00 
    1.3329598996650989E+00 
    1.2885525455874407E+00 
    1.3117247752596564E+00 
    1.3572705481368661E+00 
    1.3839301136843156E+00 
    1.3391970734946579E+00 
    1.2003875671679114E+00 
    1.2608723772707924E+00 
    1.2888596879972871E+00 
    1.2255178425629389E+00 
    1.1037298988599431E+00 
    1.0395573131940283E+00 
    1.0478403216074912E+00 
    1.1071027096052910E+00 
    9.7538968184422103E-01 
    9.1174992926673759E-01 
    9.3034078892072836E-01 
    9.8880918182884447E-01 
    1.0022040100315670E+00 
    9.4883372352564088E-01 
    9.6734729656899909E-01 
    1.0156712157849292E+00 
    1.1112538482377761E+00 
    1.0563809637384491E+00 
    1.0651691335785101E+00 
    1.1160679262228397E+00 
    8.5038920005817409E-01 
    7.9150763128316914E-01 
    8.2745399035819700E-01 
    8.7665185299916593E-01 
    7.3419835923830223E-01 
    6.7878215269200348E-01 
    7.3101468206058051E-01 
    7.7895082202914656E-01 
    8.2475359868954612E-01 
    7.8590611200237148E-01 
    8.4222816261856404E-01 
    8.7133654704227848E-01 
    9.0289766945955519E-01 
    8.6372583340420006E-01 
    9.0031642388929023E-01 
    9.2926583204874824E-01 
    1.1179878070702078E+00 
    1.0650015510388913E+00 
    1.0543132349490125E+00 
    1.1153919876658076E+00 
    1.0146540743112977E+00 
    9.6613100237530347E-01 
    9.4467704721201029E-01 
    9.9812573674816507E-01 
    9.8033607046916271E-01 
    9.2278835664909198E-01 
    9.0030278151167054E-01 
    9.6074438953897145E-01 
    1.1095321741809809E+00 
    1.0411590148042740E+00 
    1.0239476627014474E+00 
    1.0972665673893713E+00 
    1.2259441569885319E+00 
    1.2888125972716087E+00 
    1.2605777888579237E+00 
    1.2004657426930059E+00 
    1.3383208474212878E+00 
    1.3823771004831173E+00 
    1.3560347483773865E+00 
    1.3109190448085728E+00 
    1.2878164254614464E+00 
    1.3319679102958684E+00 
    1.3087406530516916E+00 
    1.2668021879915989E+00 
    1.1850151934241149E+00 
    1.2395423118636029E+00 
    1.2219695690184920E+00 
    1.1735242194107542E+00 
    1.4224143243679119E+00 
    1.4595878013813894E+00 
    1.4254896000020396E+00 
    1.3934092942049801E+00 
    1.4939894923350829E+00 
    1.5249153112593383E+00 
    1.4864402977358546E+00 
    1.4565513158627528E+00 
    1.4176812390783335E+00 
    1.4438990738334829E+00 
    1.3969826994122219E+00 
    1.3765111194512361E+00 
    1.3656267273557576E+00 
    1.3916420987160538E+00 
    1.3568540061377916E+00 
    1.3378063318872977E+00 
    1.1675564422065294E+00 
    1.2152867834871512E+00 
    1.2183447620976302E+00 
    1.1660273539991226E+00 
    1.2605625551263140E+00 
    1.3035141725814381E+00 
    1.3163303711824093E+00 