# vtk DataFile Version 2.0
Pressure Field Data 
ASCII 
DATASET UNSTRUCTURED_GRID 

POINTS 801 double 

    0.0000000000000000E+00     0.0000000000000000E+00     0.0000000000000000E+00 
    1.0000000000000000E+00     0.0000000000000000E+00     0.0000000000000000E+00 
    1.0000000000000000E+00     1.0000000000000000E+00     0.0000000000000000E+00 
    0.0000000000000000E+00     1.0000000000000000E+00     0.0000000000000000E+00 
    2.5000000000000000E-01     2.5000000000000000E-01     0.0000000000000000E+00 
    7.5000000000000000E-01     2.5000000000000000E-01     0.0000000000000000E+00 
    7.5000000000000000E-01     7.5000000000000000E-01     0.0000000000000000E+00 
    2.5000000000000000E-01     7.5000000000000000E-01     0.0000000000000000E+00 
    2.4999999999941941E-01     0.0000000000000000E+00     0.0000000000000000E+00 
    4.9999999999869399E-01     0.0000000000000000E+00     0.0000000000000000E+00 
    7.4999999999934697E-01     0.0000000000000000E+00     0.0000000000000000E+00 
    1.2499999999977940E-01     0.0000000000000000E+00     0.0000000000000000E+00 
    3.7499999999905670E-01     0.0000000000000000E+00     0.0000000000000000E+00 
    6.2499999999902045E-01     0.0000000000000000E+00     0.0000000000000000E+00 
    8.7499999999967348E-01     0.0000000000000000E+00     0.0000000000000000E+00 
    6.2499999999889699E-02     0.0000000000000000E+00     0.0000000000000000E+00 
    1.8749999999959940E-01     0.0000000000000000E+00     0.0000000000000000E+00 
    3.1249999999923811E-01     0.0000000000000000E+00     0.0000000000000000E+00 
    4.3749999999887529E-01     0.0000000000000000E+00     0.0000000000000000E+00 
    5.6249999999885725E-01     0.0000000000000000E+00     0.0000000000000000E+00 
    6.8749999999918376E-01     0.0000000000000000E+00     0.0000000000000000E+00 
    8.1249999999951017E-01     0.0000000000000000E+00     0.0000000000000000E+00 
    9.3749999999983680E-01     0.0000000000000000E+00     0.0000000000000000E+00 
    1.0000000000000000E+00     2.4999999999941941E-01     0.0000000000000000E+00 
    1.0000000000000000E+00     4.9999999999869399E-01     0.0000000000000000E+00 
    1.0000000000000000E+00     7.4999999999934697E-01     0.0000000000000000E+00 
    1.0000000000000000E+00     1.2499999999977940E-01     0.0000000000000000E+00 
    1.0000000000000000E+00     3.7499999999905670E-01     0.0000000000000000E+00 
    1.0000000000000000E+00     6.2499999999902045E-01     0.0000000000000000E+00 
    1.0000000000000000E+00     8.7499999999967348E-01     0.0000000000000000E+00 
    1.0000000000000000E+00     6.2499999999889699E-02     0.0000000000000000E+00 
    1.0000000000000000E+00     1.8749999999959940E-01     0.0000000000000000E+00 
    1.0000000000000000E+00     3.1249999999923811E-01     0.0000000000000000E+00 
    1.0000000000000000E+00     4.3749999999887529E-01     0.0000000000000000E+00 
    1.0000000000000000E+00     5.6249999999885725E-01     0.0000000000000000E+00 
    1.0000000000000000E+00     6.8749999999918376E-01     0.0000000000000000E+00 
    1.0000000000000000E+00     8.1249999999951017E-01     0.0000000000000000E+00 
    1.0000000000000000E+00     9.3749999999983680E-01     0.0000000000000000E+00 
    7.5000000000112044E-01     1.0000000000000000E+00     0.0000000000000000E+00 
    5.0000000000205913E-01     1.0000000000000000E+00     0.0000000000000000E+00 
    2.5000000000102962E-01     1.0000000000000000E+00     0.0000000000000000E+00 
    8.7499999999991362E-01     1.0000000000000000E+00     0.0000000000000000E+00 
    6.2499999999988309E-01     1.0000000000000000E+00     0.0000000000000000E+00 
    3.7499999999869987E-01     1.0000000000000000E+00     0.0000000000000000E+00 
    1.2499999999880820E-01     1.0000000000000000E+00     0.0000000000000000E+00 
    9.3749999999995681E-01     1.0000000000000000E+00     0.0000000000000000E+00 
    8.1250000000051703E-01     1.0000000000000000E+00     0.0000000000000000E+00 
    6.8750000000050182E-01     1.0000000000000000E+00     0.0000000000000000E+00 
    5.6250000000097111E-01     1.0000000000000000E+00     0.0000000000000000E+00 
    4.3750000000037947E-01     1.0000000000000000E+00     0.0000000000000000E+00 
    3.1249999999986477E-01     1.0000000000000000E+00     0.0000000000000000E+00 
    1.8749999999991890E-01     1.0000000000000000E+00     0.0000000000000000E+00 
    6.2499999999404102E-02     1.0000000000000000E+00     0.0000000000000000E+00 
    0.0000000000000000E+00     7.5000000000112044E-01     0.0000000000000000E+00 
    0.0000000000000000E+00     5.0000000000205913E-01     0.0000000000000000E+00 
    0.0000000000000000E+00     2.5000000000102962E-01     0.0000000000000000E+00 
    0.0000000000000000E+00     8.7499999999991362E-01     0.0000000000000000E+00 
    0.0000000000000000E+00     6.2499999999988309E-01     0.0000000000000000E+00 
    0.0000000000000000E+00     3.7499999999869987E-01     0.0000000000000000E+00 
    0.0000000000000000E+00     1.2499999999880820E-01     0.0000000000000000E+00 
    0.0000000000000000E+00     9.3749999999995681E-01     0.0000000000000000E+00 
    0.0000000000000000E+00     8.1250000000051703E-01     0.0000000000000000E+00 
    0.0000000000000000E+00     6.8750000000050182E-01     0.0000000000000000E+00 
    0.0000000000000000E+00     5.6250000000097111E-01     0.0000000000000000E+00 
    0.0000000000000000E+00     4.3750000000037947E-01     0.0000000000000000E+00 
    0.0000000000000000E+00     3.1249999999986477E-01     0.0000000000000000E+00 
    0.0000000000000000E+00     1.8749999999991890E-01     0.0000000000000000E+00 
    0.0000000000000000E+00     6.2499999999404102E-02     0.0000000000000000E+00 
    4.9999999999972200E-01     2.5000000000000000E-01     0.0000000000000000E+00 
    3.7500000000067490E-01     2.5000000000000000E-01     0.0000000000000000E+00 
    6.2500000000042988E-01     2.5000000000000000E-01     0.0000000000000000E+00 
    3.1250000000033751E-01     2.5000000000000000E-01     0.0000000000000000E+00 
    4.3750000000019851E-01     2.5000000000000000E-01     0.0000000000000000E+00 
    5.6250000000007594E-01     2.5000000000000000E-01     0.0000000000000000E+00 
    6.8750000000021494E-01     2.5000000000000000E-01     0.0000000000000000E+00 
    7.5000000000000000E-01     4.9999999999972200E-01     0.0000000000000000E+00 
    7.5000000000000000E-01     3.7500000000067490E-01     0.0000000000000000E+00 
    7.5000000000000000E-01     6.2500000000042988E-01     0.0000000000000000E+00 
    7.5000000000000000E-01     3.1250000000033751E-01     0.0000000000000000E+00 
    7.5000000000000000E-01     4.3750000000019851E-01     0.0000000000000000E+00 
    7.5000000000000000E-01     5.6250000000007594E-01     0.0000000000000000E+00 
    7.5000000000000000E-01     6.8750000000021494E-01     0.0000000000000000E+00 
    5.0000000000118039E-01     7.5000000000000000E-01     0.0000000000000000E+00 
    6.2500000000161415E-01     7.5000000000000000E-01     0.0000000000000000E+00 
    3.7500000000140910E-01     7.5000000000000000E-01     0.0000000000000000E+00 
    6.8750000000080713E-01     7.5000000000000000E-01     0.0000000000000000E+00 
    5.6250000000139733E-01     7.5000000000000000E-01     0.0000000000000000E+00 
    4.3750000000129469E-01     7.5000000000000000E-01     0.0000000000000000E+00 
    3.1250000000070460E-01     7.5000000000000000E-01     0.0000000000000000E+00 
    2.5000000000000000E-01     5.0000000000118039E-01     0.0000000000000000E+00 
    2.5000000000000000E-01     6.2500000000161415E-01     0.0000000000000000E+00 
    2.5000000000000000E-01     3.7500000000140910E-01     0.0000000000000000E+00 
    2.5000000000000000E-01     6.8750000000080713E-01     0.0000000000000000E+00 
    2.5000000000000000E-01     5.6250000000139733E-01     0.0000000000000000E+00 
    2.5000000000000000E-01     4.3750000000129469E-01     0.0000000000000000E+00 
    2.5000000000000000E-01     3.1250000000070460E-01     0.0000000000000000E+00 
    3.7499999999934702E-01     1.2500000000000000E-01     0.0000000000000000E+00 
    1.2500000000000000E-01     1.2500000000000000E-01     0.0000000000000000E+00 
    1.2500000000000000E-01     3.7500000000102962E-01     0.0000000000000000E+00 
    8.7500000000000000E-01     1.2500000000000000E-01     0.0000000000000000E+00 
    6.2499999999934697E-01     1.2500000000000000E-01     0.0000000000000000E+00 
    8.7500000000000000E-01     3.7499999999934702E-01     0.0000000000000000E+00 
    8.7500000000000000E-01     6.2499999999934697E-01     0.0000000000000000E+00 
    1.2500000000000000E-01     6.2500000000102962E-01     0.0000000000000000E+00 
    1.2500000000000000E-01     8.7500000000000000E-01     0.0000000000000000E+00 
    8.7500000000000000E-01     8.7500000000000000E-01     0.0000000000000000E+00 
    6.2500000000102962E-01     8.7500000000000000E-01     0.0000000000000000E+00 
    3.7500000000102962E-01     8.7500000000000000E-01     0.0000000000000000E+00 
    2.4999999999957681E-01     8.3333333333333329E-02     0.0000000000000000E+00 
    8.3333333333333329E-02     2.5000000000068640E-01     0.0000000000000000E+00 
    7.4999999999956468E-01     8.3333333333333329E-02     0.0000000000000000E+00 
    4.9999999999951827E-01     1.6666666666666671E-01     0.0000000000000000E+00 
    9.1666666666666674E-01     2.4999999999957681E-01     0.0000000000000000E+00 
    8.3333333333333337E-01     4.9999999999951827E-01     0.0000000000000000E+00 
    1.6666666666666671E-01     5.0000000000088307E-01     0.0000000000000000E+00 
    8.3333333333333329E-02     7.5000000000070155E-01     0.0000000000000000E+00 
    9.1666666666666674E-01     7.4999999999956468E-01     0.0000000000000000E+00 
    5.0000000000088307E-01     8.3333333333333348E-01     0.0000000000000000E+00 
    2.5000000000068640E-01     9.1666666666666674E-01     0.0000000000000000E+00 
    7.5000000000070155E-01     9.1666666666666674E-01     0.0000000000000000E+00 
[...]
CELL_DATA 768 
SCALARS Pressure double 1 
LOOKUP_TABLE default 

    2.9240073415400043E+00 
    2.8285916778938671E+00 
    2.7972672929014939E+00 
    2.8565627824405122E+00 
    2.7639643061952470E+00 
    2.7118135509151031E+00 
    2.7070562422944588E+00 
    2.7496600554696591E+00 
    2.7346319305493707E+00 
    2.7012392587643697E+00 
    2.6945255093729812E+00 
    2.7192293171656101E+00 
    2.8055491891303257E+00 
    2.7688451025476466E+00 
    2.7426333829397573E+00 
    2.7648060258333254E+00 
    2.6629699700468907E+00 
    2.6141103071216487E+00 
    2.6233641687145148E+00 
    2.6653372313569159E+00 
    2.5634450919265714E+00 
    2.5101760695198729E+00 
    2.5349259454229691E+00 
    2.5801364246429612E+00 
    2.5958006708541963E+00 
    2.5585617869145123E+00 
    2.5807128034623532E+00 
    2.6101722909065459E+00 
    2.6667361493766477E+00 
    2.6316628700450719E+00 
    2.6388382222332663E+00 
    2.6671637348987569E+00 
    2.7294906472468470E+00 
    2.7148830915483497E+00 
    2.6869857148215037E+00 
    2.6983358870636431E+00 
    2.6975179060333780E+00 
    2.6777556702686480E+00 
    2.6525666171318463E+00 
    2.6714903330643995E+00 
    2.6467813439911314E+00 
    2.6276398683289393E+00 
    2.6024815984922283E+00 
    2.6228118286955890E+00 
    2.6715239020918591E+00 
    2.6618007548720262E+00 
    2.6390304514713243E+00 
    2.6494468666738658E+00 
    2.9240520059512973E+00 
    2.8566191446211886E+00 
    2.7974497743454299E+00 
    2.8287723156143976E+00 
    2.8056150642055937E+00 
    2.7648702750750496E+00 
    2.7427907180056090E+00 
    2.7690140270858601E+00 
    2.7348578603476894E+00 
    2.7194018756898721E+00 
    2.6946762169452572E+00 
    2.7014446914832519E+00 
    2.7642280622963087E+00 
    2.7499074345700594E+00 
    2.7073079586271729E+00 
    2.7120779259474772E+00 
    2.7295530520367057E+00 
    2.6983698450745526E+00 
    2.6870377248654393E+00 
    2.7150155028968124E+00 
    2.6714907685751546E+00 
    2.6493782656816625E+00 
    2.6388026434342828E+00 
    2.6617127831661853E+00 
    2.6465742128395386E+00 
    2.6223357446680957E+00 
    2.6017618761147543E+00 
    2.6272528761194605E+00 
    2.6976390767709200E+00 
    2.6714767937642829E+00 
    2.6524443977537722E+00 
    2.6778112034198576E+00 
    2.6630828133382267E+00 
    2.6654394323690100E+00 
    2.6231035215049565E+00 
    2.6137776134744142E+00 
    2.6668047900713527E+00 
    2.6671810070057527E+00 
    2.6386189750006506E+00 
    2.6314201768560728E+00 
    2.5951653757709603E+00 
    2.6096234053549083E+00 
    2.5797717007052863E+00 
    2.5574914069510979E+00 
    2.5625969328798841E+00 
    2.5794027597993114E+00 
    2.5337559216399907E+00 
    2.5089029215668255E+00 
    2.4227943062601498E+00 
    2.3631153494080568E+00 
    2.3423185073887587E+00 
    2.3944770991686974E+00 
    2.3033366900734995E+00 
    2.2460085599336184E+00 
    2.2410022548773085E+00 
    2.2904834362980018E+00 
    2.2762382351291084E+00 
    2.2345254316002126E+00 
    2.2264659505562481E+00 
    2.2602488768334394E+00 
    2.3648908867216600E+00 
    2.3202190698668521E+00 
    2.2962999079509196E+00 
    2.3334790059517876E+00 
    2.1944946569433861E+00 
    2.1522387269662224E+00 
    2.1569923387230059E+00 
    2.1958501763697851E+00 
    2.1219502627273732E+00 
    2.1026202922769164E+00 
    2.1054596082878776E+00 
    2.1269254840456768E+00 
    2.1298815853404651E+00 
    2.1063409064429788E+00 
    2.1055742720436998E+00 
    2.1311999828281136E+00 
    2.1955733305109244E+00 
    2.1597654921545093E+00 
    2.1608496900571299E+00 
    2.1937026942278757E+00 
    2.2971887417153591E+00 
    2.2636389771520014E+00 
    2.2206278244311388E+00 
    2.2538662071783691E+00 
    2.2323834261520195E+00 
    2.2043132411299120E+00 
    2.1699765177488564E+00 
    2.1927722906842972E+00 
    2.1509789858020718E+00 
    2.1365977065885406E+00 
    2.1053341931936318E+00 
    2.1080728947182381E+00 
    2.2012538807379363E+00 
    2.1712869863135915E+00 
    2.1141764808066070E+00 
    2.1294568321664644E+00 
    2.4671125143932029E+00 
    2.4356064522163456E+00 
    2.4657812477359999E+00 
    2.4964999773048735E+00 
    2.4028326251822838E+00 
    2.3684907922153693E+00 
    2.4008570475031985E+00 
    2.4339445265485731E+00 
    2.4643814766530534E+00 
    2.4325774762268284E+00 
    2.4633437821066537E+00 
    2.4938795383279899E+00 
    2.5247839945526533E+00 
    2.4951069608790055E+00 
    2.5233423146188811E+00 
    2.5517373605993425E+00 
    2.3341605008426392E+00 
    2.2995976015400781E+00 
    2.3491044096398723E+00 
    2.3723820575554453E+00 
    2.2621289684850199E+00 
    2.2208455544009627E+00 
    2.2995533435726889E+00 
    2.3248469223300923E+00 
    2.3824958316543752E+00 
    2.3688388662125144E+00 
    2.4318364786959181E+00 
    2.4361752804709065E+00 
    2.4094813538472852E+00 
    2.3960934118866311E+00 
    2.4406857281311560E+00 
    2.4452484397141645E+00 
    2.5752393987573718E+00 
    2.5449358425500765E+00 
    2.5604623092365992E+00 
    2.5952259983948061E+00 
    2.5130799027022239E+00 
    2.4797082146143761E+00 
    2.4828093928672472E+00 
    2.5228998789398025E+00 
    2.5325827839661192E+00 
    2.4860051888617565E+00 
    2.4893290270877491E+00 
    2.5421707373039153E+00 
    2.6132482366947074E+00 
    2.5752391957717231E+00 
    2.5893108599050434E+00 
    2.6291371916099795E+00 
    2.0972556287867161E+00 
    2.0739011915132659E+00 
    2.0663519358077389E+00 
    2.0929959292826479E+00 
    2.0339549515530746E+00 
    1.9782164668865223E+00 
    1.9761395599362563E+00 
    2.0271072627590550E+00 
    2.0218985095848252E+00 
    1.9758027534329479E+00 
    1.9765227771858918E+00 
    2.0174833021114416E+00 
    2.0888684163021725E+00 
    2.0598292619731242E+00 
    2.0534111711566165E+00 
    2.0836093917810974E+00 
    1.9096958984702030E+00 
    1.8300536772070217E+00 
    1.8485691059866207E+00 
    1.9164913350160937E+00 
    1.7416362947162014E+00 
    1.6459252912058324E+00 
    1.6936188377839521E+00 
    1.7738044940889190E+00 
    1.8066728114558528E+00 
    1.7405765428321296E+00 
    1.7865916406588422E+00 
    1.8394875865953830E+00 
    1.9251001377012131E+00 
    1.8685253350600290E+00 
    1.8890405325967652E+00 
    1.9344639222404181E+00 
    2.0765542092894123E+00 
    2.0414800859680002E+00 
    2.0194014931143425E+00 
    2.0661592427559428E+00 
    2.0026129353290694E+00 
    1.9611076307310218E+00 
    1.9237480985235291E+00 
    1.9715388220829104E+00 
    1.9344673391022627E+00 
    1.8818686215038107E+00 
    1.8361717794742656E+00 
    1.8909624008602000E+00 
    2.0523753890632785E+00 
    1.9909977976024111E+00 
    1.9523362319608204E+00 
    2.0297785521196969E+00 
    1.9286599472410895E+00 
    1.8792452981284307E+00 
    1.7972255177990997E+00 
    1.8306271535985315E+00 
    1.8316040252680947E+00 
    1.7846870228153475E+00 
    1.7289336799335175E+00 
    1.7633597561252650E+00 
    1.6933343967309467E+00 
    1.6712573952173613E+00 
    1.6111685100169095E+00 
    1.6199094220940311E+00 
    1.7348942506206682E+00 
    1.7145958020780996E+00 
    1.6282334663911653E+00 
    1.6356420432852963E+00 
    1.7348422287165834E+00 
    1.6815661206407273E+00 
    1.6297450574203676E+00 
    1.6846140632125195E+00 
    1.6252431882776917E+00 
    1.5657833394149847E+00 
    1.5111170932958882E+00 
    1.5721196863270630E+00 
    1.5177554029940064E+00 
    1.4562001711810939E+00 
    1.4014789450890053E+00 
    1.4623228275244275E+00 
    1.6325005950536067E+00 
    1.5761084164094126E+00 
    1.5212364727068060E+00 
    1.5785972331128175E+00 
    1.5315463321157201E+00 
    1.5378170242743894E+00 
    1.4443669189317745E+00 
    1.4240086728840244E+00 
    1.5433157776250501E+00 
    1.5484593142074814E+00 
    1.4836111132479248E+00 
    1.4640223979889861E+00 
    1.3847667037441493E+00 
    1.4178041243660289E+00 
    1.3512032913065477E+00 
    1.3062887410574302E+00 
    1.3193957653086041E+00 
    1.3519210618374289E+00 
    1.2630976835196426E+00 
    1.2228707389969475E+00 
    2.6290026368426220E+00 
    2.5884330112277651E+00 
    2.5740785175542076E+00 
    2.6127212466282730E+00 
    2.5403226170357236E+00 
    2.4866003092316844E+00 
    2.4834083885200973E+00 
    2.5306498389217795E+00 
    2.5209266601253231E+00 
    2.4803365050579003E+00 
    2.4773585170957193E+00 
    2.5110972979233654E+00 
    2.5943795577171254E+00 
    2.5590794961346144E+00 
    2.5433934953911987E+00 
    2.5741321510292239E+00 
    2.4289694812871092E+00 
    2.3665750714930156E+00 
    2.3801860114935542E+00 
    2.4334536376183253E+00 
    2.2980243193300791E+00 
    2.2195907261282843E+00 
    2.2606672563336412E+00 
    2.3230696508795048E+00 
    2.3471741102721007E+00 
    2.2979551978965098E+00 
    2.3324412118331059E+00 
    2.3704309341034935E+00 
    2.4380793368969500E+00 
    2.3937680864068178E+00 
    2.4072272745179450E+00 
    2.4427870987393803E+00 
    2.5504041586959185E+00 
    2.5216186669914564E+00 
    2.4933405071264310E+00 
    2.5233740317808500E+00 
    2.4918192525389165E+00 
    2.4610446802202399E+00 
    2.4304271332706349E+00 
    2.4623838244485170E+00 
    2.4320771564900761E+00 
    2.3989481104831807E+00 
    2.3667462894173847E+00 
    2.4010812795056480E+00 
    2.4950457857911088E+00 
    2.4640968705140729E+00 
    2.4339491129283393E+00 
    2.4656336582984602E+00 
    2.4212352767448801E+00 
    2.3928290867933395E+00 
    2.3407000507364533E+00 
    2.3615234232745101E+00 
    2.3632207071351679E+00 
    2.3318555081068237E+00 
    2.2947572969900105E+00 
    2.3186155939534370E+00 
    2.2746445440864158E+00 
    2.2586907666273364E+00 
    2.2248134172214247E+00 
    2.2327783766658609E+00 
    2.3016891638055728E+00 
    2.2888314630773703E+00 
    2.2391656709946672E+00 
    2.2441017668817809E+00 
    2.2956260383475153E+00 
    2.2524203741439552E+00 
    2.2192141487280272E+00 
    2.2621291223090125E+00 
    2.1999731325724907E+00 
    2.1283083003825589E+00 
    2.1128740671724247E+00 
    2.1699310743113625E+00 
    2.1494495935000066E+00 
    2.1065181097539987E+00 
    2.1035028756046215E+00 
    2.1348222293838268E+00 
    2.2308431851689852E+00 
    2.1912579161063515E+00 
    2.1682752119571638E+00 
    2.2026524076216494E+00 
    2.1923228874722711E+00 
    2.1937678517056112E+00 
    2.1545494115107848E+00 
    2.1496106112532947E+00 
    2.1935997151055457E+00 
    2.1918546748266281E+00 
    2.1588646301187073E+00 
    2.1575363514849428E+00 
    2.1274283466869441E+00 
    2.1290600036564515E+00 
    2.1033379382137625E+00 
    2.1037609317236030E+00 
    2.1190294120105650E+00 
    2.1242217025414964E+00 
    2.1025320375756049E+00 
    2.0994815673609057E+00 
    1.4809907627369725E+00 
    1.3656403415802350E+00 
    1.3278529480631287E+00 
    1.4304649906145916E+00 
    1.2410311005974044E+00 
    1.1020198658693452E+00 
    1.0954915776591609E+00 
    1.2173915579825303E+00 
    1.1972786910218136E+00 
    1.0924413744009696E+00 
    1.0931818636444257E+00 
    1.1816990080226986E+00 
    1.3819801310765460E+00 
    1.2931047907829476E+00 
    1.2622253759260040E+00 
    1.3353863966945967E+00 
    9.4113792853631839E-01 
    7.3958186123563097E-01 
    7.9918500042122698E-01 
    9.5880101407852469E-01 
    4.5469608747306522E-01 
    0.0000000000000000E+00 
    3.2571777048124706E-01 
    5.9807902321679485E-01 
    7.2295024050962320E-01 
    5.6364781809720954E-01 
    7.4252780224773329E-01 
    8.3138559221925135E-01 
    9.8026834968742016E-01 
    8.5970846594575545E-01 
    9.1897829767427608E-01 
    1.0047004560530668E+00 
    1.2869584914173073E+00 
    1.2214040942810056E+00 
    1.1702776791805531E+00 
    1.2385137917917297E+00 
    1.1460457084290692E+00 
    1.0623638954685610E+00 
    9.9756158419013186E-01 
    1.0882196498643300E+00 
    1.0375269873960342E+00 
    9.3779205929237275E-01 
    8.8487188326281041E-01 
    1.0002781493357857E+00 
    1.1950597321969130E+00 
    1.1242108907280197E+00 
    1.0938138978816256E+00 
    1.1659897515828728E+00 
    1.9282951249819829E+00 
    1.8293182738186973E+00 
    1.7955556475288759E+00 
    1.8784771482452778E+00 
    1.7319192484979382E+00 
    1.6313431432001104E+00 
    1.6239308772365386E+00 
    1.7114389769046039E+00 
    1.6899411878888213E+00 
    1.6157205360344220E+00 
    1.6072957092552551E+00 
    1.6678544672927482E+00 
    1.8303852726515626E+00 
    1.7612691883885332E+00 
    1.7264313129487072E+00 
    1.7829457288848534E+00 
    1.5275648347132511E+00 
    1.4222767034588881E+00 
    1.4424524103640175E+00 
    1.5339691230252384E+00 
    1.3196710449046747E+00 
    1.2239387554413477E+00 
    1.2644439395575686E+00 
    1.3521521780199657E+00 
    1.3849787307001939E+00 
    1.3080538240573465E+00 
    1.3532132353481128E+00 
    1.4180279498621742E+00 
    1.5397686660004863E+00 
    1.4622708413115710E+00 
    1.4819295634186012E+00 
    1.5453347862211755E+00 
    1.7327412606056622E+00 
    1.6818587462780656E+00 
    1.6271899048471372E+00 
    1.6794855325959697E+00 
    1.6292589682697405E+00 
    1.5753721312650040E+00 
    1.5191699004467212E+00 
    1.5736278818952367E+00 
    1.5167908192884181E+00 
    1.4620304477906776E+00 
    1.4033393752709336E+00 
    1.4575509604600725E+00 
    1.6241205875531379E+00 
    1.5708972256520473E+00 
    1.5118600957619559E+00 
    1.5661478203751444E+00 
    2.0288291835365837E+00 
    1.9514218962930094E+00 
    1.9898162717680139E+00 
    2.0511280017101217E+00 
    1.8899000345404851E+00 
    1.8347749452005493E+00 
    1.8806122633419127E+00 
    1.9333325043188407E+00 
    1.9702298564084197E+00 
    1.9225669202348403E+00 
    1.9598524475560886E+00 
    2.0011517089242439E+00 
    2.0646472403383349E+00 
    2.0180297812312062E+00 
    2.0398604692377580E+00 
    2.0747870235333226E+00 
    1.7850284852310163E+00 
    1.7390801188625948E+00 
    1.8056645665870148E+00 
    1.8382363500747316E+00 
    1.6923689304487102E+00 
    1.6453394951342410E+00 
    1.7408757755253654E+00 
    1.7729324020130004E+00 
    1.8480351225072233E+00 
    1.8295829472013456E+00 
    1.9092817787857213E+00 
    1.9159645627112654E+00 
    1.8879790275269301E+00 
    1.8677604464013324E+00 
    1.9243480360325314E+00 
    1.9334212653706850E+00 
    2.0814945140919332E+00 
    2.0515273825103484E+00 
    2.0577391982820803E+00 
    2.0864275728134620E+00 
    2.0158774048566741E+00 
    1.9752507538362263E+00 
    1.9746673353208331E+00 
    2.0202798216661400E+00 
    2.0254259086969917E+00 
    1.9751925907974477E+00 
    1.9773632620342025E+00 
    2.0322179534572737E+00 
    2.0901743153471615E+00 
    2.0640323735203867E+00 
    2.0713944119568635E+00 
    2.0942118632071396E+00 
    1.1665464255530800E+00 
    1.0945213848810951E+00 
    1.1261680694398064E+00 
    1.1966234569276131E+00 
    1.0011955929436598E+00 
    8.8578753093259432E-01 
    9.4039920941873334E-01 
    1.0400145493221173E+00 
    1.0919014686985913E+00 
    1.0015494690505231E+00 
    1.0673582731279947E+00 
    1.1507508161992865E+00 
    1.2410575738806429E+00 
    1.1734353257569659E+00 
    1.2256668735678571E+00 
    1.2902705010580191E+00 
    7.4335810053485030E-01 
    5.6433560807461292E-01 
    7.2549777740396348E-01 
    8.3393145518635781E-01 
    3.2612345335790871E-01 
    0.0000000000000000E+00 
    4.5648903487009268E-01 
    6.0032051704427380E-01 
    8.0357131569491180E-01 
    7.4365258764590736E-01 
    9.4719260055918242E-01 
    9.6472371590933648E-01 
    9.2304536835447948E-01 
    8.6398020590520586E-01 
    9.8590001906433100E-01 
    1.0098677407261449E+00 
    1.3389690127514846E+00 
    1.2671112173641326E+00 
    1.2980793627788121E+00 
    1.3854907429578109E+00 
    1.1871261621667779E+00 
    1.0986090663077723E+00 
    1.0981169357878220E+00 
    1.2029832465427654E+00 
    1.2229331328136794E+00 
    1.1014722507640005E+00 
    1.1081570808594434E+00 
    1.2462822585109123E+00 
    1.4330993962761682E+00 
    1.3320868795513381E+00 
    1.3690585264639650E+00 
    1.4825652861087282E+00 
    2.0681408327228565E+00 
    2.1662827625327301E+00 
    2.1574395301711213E+00 
    2.0672310783465258E+00 
    2.2600778279695302E+00 
    2.3484744942715956E+00 
    2.3258269422800040E+00 
    2.2438897090663152E+00 
    2.2304742323070355E+00 
    2.3053284751435075E+00 
    2.2865992896279925E+00 
    2.2194918341285081E+00 
    2.0692438503729953E+00 
    2.1516572444504258E+00 
    2.1486241951523430E+00 
    2.0739580976369529E+00 
    2.4287713657982897E+00 
    2.5007285582558749E+00 
    2.4617842161430876E+00 
    2.3980004895162481E+00 
    2.5650415006459308E+00 
    2.6211356843769371E+00 
    2.5771821459272055E+00 
    2.5214276063406174E+00 
    2.4762615175341356E+00 
    2.5280892203488308E+00 
    2.4742433688203831E+00 
    2.4292319537644271E+00 
    2.3687100734554765E+00 
    2.4233231149522942E+00 
    2.3848478244218132E+00 
    2.3404729306746543E+00 
    2.0858643140036128E+00 
    2.1610382853039498E+00 
    2.1904177321063094E+00 
    2.1063901790110116E+00 
    2.2308410848185192E+00 
    2.2960941433102358E+00 
    2.3337240008639721E+00 
    2.2653244373176076E+00 
    2.3030661893027853E+00 
    2.3727925355303658E+00 
    2.4140088799558974E+00 
    2.3453033215901531E+00 
    2.1327967234562308E+00 
    2.2249701355913718E+00 
    2.2671226317685642E+00 
    2.1696475177163737E+00 
    1.9663546196383748E+00 
    1.8627341230938523E+00 
    1.8770856191912240E+00 
    1.9726577251662185E+00 
    1.7579384402160347E+00 
    1.6525736965182929E+00 
    1.6844327391364133E+00 
    1.7808933783549401E+00 
    1.8045359729489845E+00 
    1.7166963515672187E+00 
    1.7494559352290775E+00 
    1.8289072938072684E+00 
    1.9810624700611721E+00 
    1.8926703580791946E+00 
    1.9093530976498054E+00 
    1.9912584369806063E+00 
    1.5493605853550403E+00 
    1.4486395813589423E+00 
    1.5119223003890996E+00 
    1.5948087898022540E+00 
    1.3487095196766108E+00 
    1.2503541850478013E+00 
    1.3463697737790716E+00 
    1.4291140614550328E+00 
    1.5112206414709475E+00 
    1.4464396650966085E+00 
    1.5481491622581647E+00 
    1.5943480485524544E+00 
    1.6406427203857326E+00 
    1.5760012312248013E+00 
    1.6406636306209255E+00 
    1.6869737497078066E+00 
    1.9973896290345479E+00 
    1.9120937091829797E+00 
    1.8985425981299577E+00 
    1.9968590322187740E+00 
    1.8300455111398388E+00 
    1.7498834166430033E+00 
    1.7172232818974782E+00 
    1.8064876394055966E+00 
    1.7815847793447306E+00 
    1.6843010623676340E+00 
    1.6512025946854025E+00 
    1.7549094909416825E+00 
    1.9916515554521765E+00 
    1.8817480482910258E+00 
    1.8596177176679058E+00 
    1.9769602285850338E+00 
    2.1683506326497186E+00 
    2.2654841403056905E+00 
    2.2233780621198327E+00 
    2.1314981312594123E+00 
    2.3430448416817464E+00 
    2.4111994200185269E+00 
    2.3704701337998726E+00 
    2.3010862683029925E+00 
    2.2635897592389127E+00 
    2.3318004790612283E+00 
    2.2945196687455538E+00 
    2.2293673266061713E+00 
    2.1050181640362333E+00 
    2.1889065967787902E+00 
    2.1596471001777147E+00 
    2.0844832962930924E+00 
    2.4715792425916918E+00 
    2.5263012904354758E+00 
    2.4746888821185560E+00 
    2.4270529752309207E+00 
    2.5763768243936060E+00 
    2.6210730532030251E+00 
    2.5648392296321658E+00 
    2.5205943063731175E+00 
    2.4609966094749596E+00 
    2.5004778044799743E+00 
    2.4285362566253168E+00 
    2.3973252426590985E+00 
    2.3830559316703903E+00 
    2.4219858811200021E+00 
    2.3676121168091186E+00 
    2.3390145908818516E+00 
    2.0726384475706547E+00 
    2.1473846782369899E+00 
    2.1506798608981974E+00 
    2.0681566310324917E+00 
    2.2182456383920197E+00 
    2.2853047331545810E+00 
    2.3043493965084449E+00 