# vtk DataFile Version 2.0
Pressure Field Data 
ASCII 
DATASET UNSTRUCTURED_GRID 

POINTS 801 double 

    0.0000000000000000E+00     0.0000000000000000E+00     0.0000000000000000E+00 
    1.0000000000000000E+00     0.0000000000000000E+00     0.0000000000000000E+00 
    1.0000000000000000E+00     1.0000000000000000E+00     0.0000000000000000E+00 
    0.0000000000000000E+00     1.0000000000000000E+00     0.0000000000000000E+00 
    2.5000000000000000E-01     2.5000000000000000E-01     0.0000000000000000E+00 
    7.5000000000000000E-01     2.5000000000000000E-01     0.0000000000000000E+00 
    7.5000000000000000E-01     7.5000000000000000E-01     0.0000000000000000E+00 
    2.5000000000000000E-01     7.5000000000000000E-01     0.0000000000000000E+00 
    2.4999999999941941E-01     0.0000000000000000E+00     0.0000000000000000E+00 
    4.9999999999869399E-01     0.0000000000000000E+00     0.0000000000000000E+00 
    7.4999999999934697E-01     0.0000000000000000E+00     0.0000000000000000E+00 
    1.2499999999977940E-01     0.0000000000000000E+00     0.0000000000000000E+00 
    3.7499999999905670E-01     0.0000000000000000E+00     0.0000000000000000E+00 
    6.2499999999902045E-01     0.0000000000000000E+00     0.0000000000000000E+00 
    8.7499999999967348E-01     0.0000000000000000E+00     0.0000000000000000E+00 
    6.2499999999889699E-02     0.0000000000000000E+00     0.0000000000000000E+00 
    1.8749999999959940E-01     0.0000000000000000E+00     0.0000000000000000E+00 
    3.1249999999923811E-01     0.0000000000000000E+00     0.0000000000000000E+00 
    4.3749999999887529E-01     0.0000000000000000E+00     0.0000000000000000E+00 
    5.6249999999885725E-01     0.0000000000000000E+00     0.0000000000000000E+00 
    6.8749999999918376E-01     0.0000000000000000E+00     0.0000000000000000E+00 
    8.1249999999951017E-01     0.0000000000000000E+00     0.0000000000000000E+00 
    9.3749999999983680E-01     0.0000000000000000E+00     0.0000000000000000E+00 
    1.0000000000000000E+00     2.4999999999941941E-01     0.0000000000000000E+00 
    1.0000000000000000E+00     4.9999999999869399E-01     0.0000000000000000E+00 
    1.0000000000000000E+00     7.4999999999934697E-01     0.0000000000000000E+00 
    1.0000000000000000E+00     1.2499999999977940E-01     0.0000000000000000E+00 
    1.0000000000000000E+00     3.7499999999905670E-01     0.0000000000000000E+00 
    1.0000000000000000E+00     6.2499999999902045E-01     0.0000000000000000E+00 
    1.0000000000000000E+00     8.7499999999967348E-01     0.0000000000000000E+00 
    1.0000000000000000E+00     6.2499999999889699E-02     0.0000000000000000E+00 
    1.0000000000000000E+00     1.8749999999959940E-01     0.0000000000000000E+00 
    1.0000000000000000E+00     3.1249999999923811E-01     0.0000000000000000E+00 
    1.0000000000000000E+00     4.3749999999887529E-01     0.0000000000000000E+00 
    1.0000000000000000E+00     5.6249999999885725E-01     0.0000000000000000E+00 
    1.0000000000000000E+00     6.8749999999918376E-01     0.0000000000000000E+00 
    1.0000000000000000E+00     8.1249999999951017E-01     0.0000000000000000E+00 
    1.0000000000000000E+00     9.3749999999983680E-01     0.0000000000000000E+00 
    7.5000000000112044E-01     1.0000000000000000E+00     0.0000000000000000E+00 
    5.0000000000205913E-01     1.0000000000000000E+00     0.0000000000000000E+00 
    2.5000000000102962E-01     1.0000000000000000E+00     0.0000000000000000E+00 
    8.7499999999991362E-01     1.0000000000000000E+00     0.0000000000000000E+00 
    6.2499999999988309E-01     1.0000000000000000E+00     0.0000000000000000E+00 
    3.7499999999869987E-01     1.0000000000000000E+00     0.0000000000000000E+00 
    1.2499999999880820E-01     1.0000000000000000E+00     0.0000000000000000E+00 
    9.3749999999995681E-01     1.0000000000000000E+00     0.0000000000000000E+00 
    8.1250000000051703E-01     1.0000000000000000E+00     0.0000000000000000E+00 
    6.8750000000050182E-01     1.0000000000000000E+00     0.0000000000000000E+00 
    5.6250000000097111E-01     1.0000000000000000E+00     0.0000000000000000E+00 
    4.3750000000037947E-01     1.0000000000000000E+00     0.0000000000000000E+00 
    3.1249999999986477E-01     1.0000000000000000E+00     0.0000000000000000E+00 
    1.8749999999991890E-01     1.0000000000000000E+00     0.0000000000000000E+00 
    6.2499999999404102E-02     1.0000000000000000E+00     0.0000000000000000E+00 
    0.0000000000000000E+00     7.5000000000112044E-01     0.0000000000000000E+00 
    0.0000000000000000E+00     5.0000000000205913E-01     0.0000000000000000E+00 
    0.0000000000000000E+00     2.5000000000102962E-01     0.0000000000000000E+00 
    0.0000000000000000E+00     8.7499999999991362E-01     0.0000000000000000E+00 
    0.0000000000000000E+00     6.2499999999988309E-01     0.0000000000000000E+00 
    0.0000000000000000E+00     3.7499999999869987E-01     0.0000000000000000E+00 
    0.0000000000000000E+00     1.2499999999880820E-01     0.0000000000000000E+00 
    0.0000000000000000E+00     9.3749999999995681E-01     0.0000000000000000E+00 
    0.0000000000000000E+00     8.1250000000051703E-01     0.0000000000000000E+00 
    0.0000000000000000E+00     6.8750000000050182E-01     0.0000000000000000E+00 
    0.0000000000000000E+00     5.6250000000097111E-01     0.0000000000000000E+00 
    0.0000000000000000E+00     4.3750000000037947E-01     0.0000000000000000E+00 
    0.0000000000000000E+00     3.1249999999986477E-01     0.0000000000000000E+00 
    0.0000000000000000E+00     1.8749999999991890E-01     0.0000000000000000E+00 
    0.0000000000000000E+00     6.2499999999404102E-02     0.0000000000000000E+00 
    4.9999999999972200E-01     2.5000000000000000E-01     0.0000000000000000E+00 
    3.7500000000067490E-01     2.5000000000000000E-01     0.0000000000000000E+00 
    6.2500000000042988E-01     2.5000000000000000E-01     0.0000000000000000E+00 
    3.1250000000033751E-01     2.5000000000000000E-01     0.0000000000000000E+00 
    4.3750000000019851E-01     2.5000000000000000E-01     0.0000000000000000E+00 
    5.6250000000007594E-01     2.5000000000000000E-01     0.0000000000000000E+00 
    6.8750000000021494E-01     2.5000000000000000E-01     0.0000000000000000E+00 
    7.5000000000000000E-01     4.9999999999972200E-01     0.0000000000000000E+00 
    7.5000000000000000E-01     3.7500000000067490E-01     0.0000000000000000E+00 
    7.5000000000000000E-01     6.2500000000042988E-01     0.0000000000000000E+00 
    7.5000000000000000E-01     3.1250000000033751E-01     0.0000000000000000E+00 
    7.5000000000000000E-01     4.3750000000019851E-01     0.0000000000000000E+00 
    7.5000000000000000E-01     5.6250000000007594E-01     0.0000000000000000E+00 
    7.5000000000000000E-01     6.8750000000021494E-01     0.0000000000000000E+00 
    5.0000000000118039E-01     7.5000000000000000E-01     0.0000000000000000E+00 
    6.2500000000161415E-01     7.5000000000000000E-01     0.0000000000000000E+00 
    3.7500000000140910E-01     7.5000000000000000E-01     0.0000000000000000E+00 
    6.8750000000080713E-01     7.5000000000000000E-01     0.0000000000000000E+00 
    5.6250000000139733E-01     7.5000000000000000E-01     0.0000000000000000E+00 
    4.3750000000129469E-01     7.5000000000000000E-01     0.0000000000000000E+00 
    3.1250000000070460E-01     7.5000000000000000E-01     0.0000000000000000E+00 
    2.5000000000000000E-01     5.0000000000118039E-01     0.0000000000000000E+00 
    2.5000000000000000E-01     6.2500000000161415E-01     0.0000000000000000E+00 
    2.5000000000000000E-01     3.7500000000140910E-01     0.0000000000000000E+00 
    2.5000000000000000E-01     6.8750000000080713E-01     0.0000000000000000E+00 
    2.5000000000000000E-01     5.6250000000139733E-01     0.0000000000000000E+00 
    2.5000000000000000E-01     4.3750000000129469E-01     0.0000000000000000E+00 
    2.5000000000000000E-01     3.1250000000070460E-01     0.0000000000000000E+00 
    3.7499999999934702E-01     1.2500000000000000E-01     0.0000000000000000E+00 
    1.2500000000000000E-01     1.2500000000000000E-01     0.0000000000000000E+00 
    1.2500000000000000E-01     3.7500000000102962E-01     0.0000000000000000E+00 
    8.7500000000000000E-01     1.2500000000000000E-01     0.0000000000000000E+00 
    6.2499999999934697E-01     1.2500000000000000E-01     0.0000000000000000E+00 
    8.7500000000000000E-01     3.7499999999934702E-01     0.0000000000000000E+00 
    8.7500000000000000E-01     6.2499999999934697E-01     0.0000000000000000E+00 
    1.2500000000000000E-01     6.2500000000102962E-01     0.0000000000000000E+00 
    1.2500000000000000E-01     8.7500000000000000E-01     0.0000000000000000E+00 
    8.7500000000000000E-01     8.7500000000000000E-01     0.0000000000000000E+00 
    6.2500000000102962E-01     8.7500000000000000E-01     0.0000000000000000E+00 
    3.7500000000102962E-01     8.7500000000000000E-01     0.0000000000000000E+00 
    2.4999999999957681E-01     8.3333333333333329E-02     0.0000000000000000E+00 
    8.3333333333333329E-02     2.5000000000068640E-01     0.0000000000000000E+00 
    7.4999999999956468E-01     8.3333333333333329E-02     0.0000000000000000E+00 
    4.9999999999951827E-01     1.6666666666666671E-01     0.0000000000000000E+00 
    9.1666666666666674E-01     2.4999999999957681E-01     0.0000000000000000E+00 
    8.3333333333333337E-01     4.9999999999951827E-01     0.0000000000000000E+00 
    1.6666666666666671E-01     5.0000000000088307E-01     0.0000000000000000E+00 
    8.3333333333333329E-02     7.5000000000070155E-01     0.0000000000000000E+00 
    9.1666666666666674E-01     7.4999999999956468E-01     0.0000000000000000E+00 
    5.0000000000088307E-01     8.3333333333333348E-01     0.0000000000000000E+00 
    2.5000000000068640E-01     9.1666666666666674E-01     0.0000000000000000E+00 
    7.5000000000070155E-01     9.1666666666666674E-01     0.0000000000000000E+00 
[...]
CELL_DATA 768 
SCALARS Pressure double 1 
LOOKUP_TABLE default 

    2.5213958370171241E+00 
    2.4270339873302897E+00 
    2.3963680628116308E+00 
    2.4545118847518212E+00 
    2.3642218857139028E+00 
    2.3149152111017601E+00 
    2.3104818459772449E+00 
    2.3505254006696381E+00 
    2.3362714792896191E+00 
    2.3050858753324945E+00 
    2.2988928053177848E+00 
    2.3218127875359387E+00 
    2.4043943695934806E+00 
    2.3688514208116156E+00 
    2.3438392645428170E+00 
    2.3649773815420123E+00 
    2.2700208058678233E+00 
    2.2259498855323310E+00 
    2.2342565887362054E+00 
    2.2721718432862783E+00 
    2.1808246881795550E+00 
    2.1337602451557851E+00 
    2.1556331549445571E+00 
    2.1956669147616092E+00 
    2.2096435364309541E+00 
    2.1765929007361899E+00 
    2.1962963229441028E+00 
    2.2225053119087397E+00 
    2.2734453012056584E+00 
    2.2417266346114935E+00 
    2.2482012802874576E+00 
    2.2738405693058428E+00 
    2.3314737695097665E+00 
    2.3177715271809567E+00 
    2.2919865074244936E+00 
    2.3024689919347074E+00 
    2.3016443398971678E+00 
    2.2834865147183891E+00 
    2.2605954611564982E+00 
    2.2777913832064858E+00 
    2.2554115180710750E+00 
    2.2381672597220321E+00 
    2.2157110880874584E+00 
    2.2339107550099762E+00 
    2.2778970634173716E+00 
    2.2690247126853076E+00 
    2.2485015559943178E+00 
    2.2579502234549516E+00 
    2.5214411637775656E+00 
    2.4545714471285205E+00 
    2.3965710945704495E+00 
    2.4272287269458119E+00 
    2.4044650945177604E+00 
    2.3650472157858373E+00 
    2.3440229200432050E+00 
    2.3690454045367044E+00 
    2.3365555328180214E+00 
    2.3220478234023627E+00 
    2.2991433140536630E+00 
    2.3053876949925418E+00 
    2.3645343064773265E+00 
    2.3508273181687365E+00 
    2.3108259414742514E+00 
    2.3152701996068443E+00 
    2.3315435912753855E+00 
    2.3025200685445566E+00 
    2.2920986287497631E+00 
    2.3179374007311959E+00 
    2.2779008309821962E+00 
    2.2579465542088966E+00 
    2.2484311335630514E+00 
    2.2690389904248676E+00 
    2.2553687317400040E+00 
    2.2336687355646672E+00 
    2.2152878797756883E+00 
    2.2380024835040535E+00 
    2.3018393329714648E+00 
    2.2778893120130679E+00 
    2.2606336982708690E+00 
    2.2836578513384458E+00 
    2.2702780947849446E+00 
    2.2724157117066879E+00 
    2.2342251006833389E+00 
    2.2258685841895129E+00 
    2.2736542698342666E+00 
    2.2739968706303726E+00 
    2.2481772926161585E+00 
    2.2416964626576923E+00 
    2.2093132066475021E+00 
    2.2222252062061041E+00 
    2.1957107905324267E+00 
    2.1759356330289723E+00 
    2.1803654423373495E+00 
    2.1952782829393640E+00 
    2.1549380221095444E+00 
    2.1330278320977580E+00 
    2.0570501496745561E+00 
    2.0048769502570836E+00 
    1.9867208636205240E+00 
    2.0323013444938685E+00 
    1.9527037783129533E+00 
    1.9026843406705842E+00 
    1.8983009106030808E+00 
    1.9414819421930962E+00 
    1.9290260118108229E+00 
    1.8926201528185740E+00 
    1.8855457480722939E+00 
    1.9150192809643942E+00 
    2.0064418116609075E+00 
    1.9674129100494246E+00 
    1.9464734905550749E+00 
    1.9789354241437598E+00 
    1.8576225330418117E+00 
    1.8204010443226792E+00 
    1.8246365799599036E+00 
    1.8588053178494690E+00 
    1.7936180544063536E+00 
    1.7781792685737496E+00 
    1.7800489890487112E+00 
    1.7980455341403101E+00 
    1.8008461669444209E+00 
    1.7804896261875411E+00 
    1.7799465565376114E+00 
    1.8022370611768808E+00 
    1.8585542240113186E+00 
    1.8271511711082213E+00 
    1.8281753722228036E+00 
    1.8569086126112027E+00 
    1.9471214187672228E+00 
    1.9178771419232665E+00 
    1.8803388003397223E+00 
    1.9092645556798953E+00 
    1.8906426201213309E+00 
    1.8661728338180283E+00 
    1.8361978716967768E+00 
    1.8560780790227966E+00 
    1.8197191394851759E+00 
    1.8071087097254372E+00 
    1.7799587024577845E+00 
    1.7825273377513100E+00 
    1.8636025392188682E+00 
    1.8374818961139527E+00 
    1.7880796559230481E+00 
    1.8017084596818571E+00 
    2.0959158747332407E+00 
    2.0683383575864114E+00 
    2.0948592465779101E+00 
    2.1217988611502192E+00 
    2.0396566618032508E+00 
    2.0095467985383380E+00 
    2.0379017973398748E+00 
    2.0669495038881989E+00 
    2.0937194699326005E+00 
    2.0657667641088135E+00 
    2.0928588283220071E+00 
    2.1197211520814752E+00 
    2.1467890362799555E+00 
    2.1207037930746484E+00 
    2.1456416399619997E+00 
    2.1706646906814111E+00 
    1.9794083602810157E+00 
    1.9491148200091188E+00 
    1.9924428106905343E+00 
    2.0128787278602660E+00 
    1.9164001530979704E+00 
    1.8804775019521882E+00 
    1.9491557716249710E+00 
    1.9712179301337651E+00 
    2.0218126777758432E+00 
    2.0098812720827772E+00 
    2.0653007210590397E+00 
    2.0690648395568831E+00 
    2.0454604326145112E+00 
    2.0337116676186695E+00 
    2.0729760200052558E+00 
    2.0769485946576314E+00 
    2.1915357631262773E+00 
    2.1647616765416529E+00 
    2.1785412235060737E+00 
    2.2093322847043622E+00 
    2.1366907200753751E+00 
    2.1073100094826627E+00 
    2.1100904062801020E+00 
    2.1454036670024119E+00 
    2.1539936415035954E+00 
    2.1129515216956731E+00 
    2.1159076383666298E+00 
    2.1624881071354776E+00 
    2.2254297674087544E+00 
    2.1916699767676273E+00 
    2.2041864165061393E+00 
    2.2396808353048878E+00 
    1.7743252998656720E+00 
    1.7546053803893900E+00 
    1.7475169167590525E+00 
    1.7702394216482447E+00 
    1.7201750314469977E+00 
    1.6722730756341950E+00 
    1.6701747968965228E+00 
    1.7137984429247830E+00 
    1.7084710814630282E+00 
    1.6692298991267316E+00 
    1.6694630882392367E+00 
    1.7043602636826425E+00 
    1.7656349092654031E+00 
    1.7409372109849883E+00 
    1.7351719281667168E+00 
    1.7610209154909917E+00 
    1.6143329625287726E+00 
    1.5473584125565496E+00 
    1.5625263907238591E+00 
    1.6198671746794182E+00 
    1.4741233008183767E+00 
    1.3964359265341637E+00 
    1.4339609665485988E+00 
    1.5001459824795715E+00 
    1.5262707871262713E+00 
    1.4712164597473798E+00 
    1.5087837701521989E+00 
    1.5531832020412215E+00 
    1.6262026578105071E+00 
    1.5782988735641468E+00 
    1.5950530276099304E+00 
    1.6335452847930232E+00 
    1.7551238691414206E+00 
    1.7249882717573091E+00 
    1.7061745276369862E+00 
    1.7463770428318601E+00 
    1.6916531164048279E+00 
    1.6562078287662212E+00 
    1.6244149798661154E+00 
    1.6651703875599868E+00 
    1.6336072839487887E+00 
    1.5888503680737005E+00 
    1.5501004424840625E+00 
    1.5964728497380256E+00 
    1.7347250585157563E+00 
    1.6819746938564490E+00 
    1.6488820971705396E+00 
    1.7153493310334531E+00 
    1.6284319958859756E+00 
    1.5859967532655634E+00 
    1.5153776452147827E+00 
    1.5436676224368020E+00 
    1.5456035799180692E+00 
    1.5064847523312284E+00 
    1.4595030219066629E+00 
    1.4873618698913125E+00 
    1.4285617881731723E+00 
    1.4115583848326811E+00 
    1.3626591027289978E+00 
    1.3687390945471851E+00 
    1.4619147322922332E+00 
    1.4453036930296030E+00 
    1.3745705136356154E+00 
    1.3801391215525292E+00 
    1.4655447210971924E+00 
    1.4223817916087702E+00 
    1.3797706715534581E+00 
    1.4237751436697141E+00 
    1.3791647176680701E+00 
    1.3338368278994122E+00 
    1.2877583939507693E+00 
    1.3347886863505374E+00 
    1.2897127210864301E+00 
    1.2417129157632543E+00 
    1.1960326018214451E+00 
    1.2444670769373620E+00 
    1.3809022672825846E+00 
    1.3359337455323881E+00 
    1.2914403899376996E+00 
    1.3370990006253620E+00 
    1.2975472246114130E+00 
    1.3027938684029750E+00 
    1.2294352183662136E+00 
    1.2133187725265908E+00 
    1.3077711521304196E+00 
    1.3125385235633389E+00 
    1.2610560602427474E+00 
    1.2452196738672139E+00 
    1.1819754535123264E+00 
    1.2083844231769663E+00 
    1.1545900176668167E+00 
    1.1185297607864402E+00 
    1.1309430599676866E+00 
    1.1562078359360921E+00 
    1.0852248290020898E+00 
    1.0548601449914929E+00 
    2.2397421545900422E+00 
    2.2036523979786171E+00 
    2.1908964656318193E+00 
    2.2251673987004534E+00 
    2.1611283608249074E+00 
    2.1138050196214482E+00 
    2.1109986803798004E+00 
    2.1525740041947685E+00 
    2.1439699439663888E+00 
    2.1082816827576956E+00 
    2.1056422194132272E+00 
    2.1352771940457487E+00 
    2.2088104557697066E+00 
    2.1775858223603253E+00 
    2.1636882367414367E+00 
    2.1908074462040714E+00 
    2.0632165069978763E+00 
    2.0085926772646077E+00 
    2.0204663929866924E+00 
    2.0671338202685026E+00 
    1.9488036189366040E+00 
    1.8805600922049719E+00 
    1.9162211446993538E+00 
    1.9705796027258049E+00 
    1.9916127330892242E+00 
    1.9486918285707155E+00 
    1.9788034067840665E+00 
    2.0119547939842448E+00 
    2.0711740954389524E+00 
    2.0323429784011786E+00 
    2.0441311793613863E+00 
    2.0752923930296094E+00 
    2.1697754420556148E+00 
    2.1444522337605303E+00 
    2.1195492253435813E+00 
    2.1458906481941531E+00 
    2.1182920078526934E+00 
    2.0912969405546202E+00 
    2.0644497748335415E+00 
    2.0924377235744380E+00 
    2.0658798815375770E+00 
    2.0369076373682060E+00 
    2.0087887963270883E+00 
    2.0387750363285488E+00 
    2.1209318989958210E+00 
    2.0938608052324179E+00 
    2.0674447574940116E+00 
    2.0951002304212571E+00 
    2.0562719997401797E+00 
    2.0315183213363217E+00 
    1.9860895706340500E+00 
    2.0042166972017443E+00 
    2.0057237985723715E+00 
    1.9783643586837769E+00 
    1.9460478799611636E+00 
    1.9668566167286976E+00 
    1.9285732639205579E+00 
    1.9146479048193903E+00 
    1.8851533344115103E+00 
    1.8921155915115946E+00 
    1.9521344281367896E+00 
    1.9409392003115304E+00 
    1.8976969398327921E+00 
    1.9020051542538201E+00 
    1.9467268186878934E+00 
    1.9090659930711928E+00 
    1.8801974956057808E+00 
    1.9175744519556399E+00 
    1.8635513723003936E+00 
    1.8016879621264605E+00 
    1.7880758733750395E+00 
    1.8374263153331383E+00 
    1.8195957382386516E+00 
    1.7824491999383143E+00 
    1.7796859537682681E+00 
    1.8068070015314062E+00 
    1.8903594130043477E+00 
    1.8558944566766302E+00 
    1.8358887733132601E+00 
    1.8658284226991930E+00 
    1.8567993912423193E+00 
    1.8580657124693241E+00 
    1.8236386148222419E+00 
    1.8192328198578771E+00 
    1.8579228377491990E+00 
    1.8564065037267474E+00 
    1.8276172567653539E+00 
    1.8263570596073191E+00 
    1.7999041047555928E+00 
    1.8016010027439169E+00 
    1.7792932757966282E+00 
    1.7795118828126812E+00 
    1.7922535401702560E+00 
    1.7968641604001303E+00 
    1.7787852106211821E+00 
    1.7767749592486488E+00 
    1.2670478188424512E+00 
    1.1726759813101260E+00 
    1.1416691505948700E+00 
    1.2251456243914449E+00 
    1.0710337702101036E+00 
    9.5967614959987135E-01 
    9.5488943615302313E-01 
    1.0524244895521124E+00 
    1.0359419760340427E+00 
    9.5316492745902037E-01 
    9.5429487358950926E-01 
    1.0219921980726991E+00 
    1.1833726383184253E+00 
    1.1119715764679861E+00 
    1.0843650782985217E+00 
    1.1430242911804147E+00 
    8.3054015332188758E-01 
    6.6118966743222063E-01 
    7.1332356737468328E-01 
    8.4550123526296195E-01 
    4.0972837220216890E-01 
    0.0000000000000000E+00 
    3.0023135869502765E-01 
    5.4052513920475109E-01 
    6.4860434299856429E-01 
    5.0815374123977730E-01 
    6.6311661157746993E-01 
    7.4101394945848309E-01 
    8.6398691505859870E-01 
    7.6493146889444663E-01 
    8.1476929919767471E-01 
    8.8425336244522568E-01 
    1.1023598987447827E+00 
    1.0498810606447937E+00 
    1.0103422853903448E+00 
    1.0635245854652553E+00 
    9.9315815633692139E-01 
    9.3045457454738034E-01 
    8.7967664791889089E-01 
    9.4990031952197329E-01 
    9.1195981328395381E-01 
    8.3069207171832415E-01 
    7.8527775969680114E-01 
    8.8166773423667766E-01 
    1.0318857903446457E+00 
    9.7808197804671659E-01 
    9.5585051977482260E-01 
    1.0111188742197676E+00 
    1.6286072583565228E+00 
    1.5428087467476463E+00 
    1.5141456670147477E+00 
    1.5856869647983531E+00 
    1.4596747355680750E+00 
    1.3767722282142925E+00 
    1.3712590320841072E+00 
    1.4429228452218290E+00 
    1.4259979945292498E+00 
    1.3654984026604873E+00 
    1.3595226537942910E+00 
    1.4089193824525195E+00 
    1.5448449489552447E+00 
    1.4857497501212114E+00 
    1.4575500330696585E+00 
    1.5052811593510709E+00 
    1.2940052542616181E+00 
    1.2110816049508846E+00 
    1.2270021765822490E+00 
    1.2994249890920444E+00 
    1.1302127922776197E+00 
    1.0550816240110750E+00 
    1.0852949498060718E+00 
    1.1551471072212751E+00 
    1.1806006415037043E+00 
    1.1183632232539940E+00 
    1.1540411421704151E+00 
    1.2067902415901384E+00 
    1.3045815777979932E+00 
    1.2427886043628560E+00 
    1.2585787279282996E+00 
    1.3095438838452436E+00 
    1.4638988733315537E+00 
    1.4214810724790219E+00 
    1.3772198013138852E+00 
    1.4203037928067832E+00 
    1.3781248945516520E+00 
    1.3341117054288283E+00 
    1.2887773003913945E+00 
    1.3332250024895131E+00 
    1.2874260725355722E+00 
    1.2424671114481576E+00 
    1.1949203808017645E+00 
    1.2401763311609908E+00 
    1.3769142443812410E+00 
    1.3324431036185322E+00 
    1.2859540111008827E+00 
    1.3317902829819288E+00 
    1.7153469832457087E+00 
    1.6488251707423800E+00 
    1.6820755333123156E+00 
    1.7347814135468536E+00 
    1.5962149721652756E+00 
    1.5495416957168622E+00 
    1.5887983502325749E+00 
    1.6337067677224890E+00 
    1.6654507684648137E+00 
    1.6247495486532746E+00 
    1.6567111513537067E+00 
    1.6920062523213590E+00 
    1.7464028679191170E+00 
    1.7063898181801660E+00 
    1.7251297018703986E+00 
    1.7550082655788601E+00 
    1.5078899879238745E+00 
    1.4699078840795026E+00 
    1.5259083619012466E+00 
    1.5529788666188256E+00 
    1.4322617385447045E+00 
    1.3944188335889556E+00 
    1.4732777580204581E+00 
    1.4995132287453365E+00 
    1.5628166517053359E+00 
    1.5475251503296299E+00 
    1.6151550563712911E+00 
    1.6206629959924241E+00 
    1.5953683900130098E+00 
    1.5786411642302807E+00 
    1.6269431944075456E+00 
    1.6341538157058502E+00 
    1.7605690210669658E+00 
    1.7350811620474098E+00 
    1.7406402019824854E+00 
    1.7648776692384478E+00 
    1.7046427232767096E+00 
    1.6700523683773358E+00 
    1.6699186991935211E+00 
    1.7087259971086772E+00 
    1.7139417904262169E+00 
    1.6709400695844296E+00 
    1.6730611431008351E+00 
    1.7202119340438518E+00 
    1.7691733021368206E+00 
    1.7469914513889764E+00 
    1.7538579715309419E+00 
    1.7730431644422497E+00 
    1.0113316283175240E+00 
    9.5623898861948842E-01 
    9.7918168969154362E-01 
    1.0325243080982578E+00 
    8.8217623785137556E-01 
    7.8586268058514652E-01 
    8.3232723909387418E-01 
    9.1342791496262099E-01 
    9.5202912582945620E-01 
    8.8217706541942220E-01 
    9.3342470689149026E-01 
    9.9553572155350722E-01 
    1.0642882736991364E+00 
    1.0119046850693711E+00 
    1.0514003213767171E+00 
    1.1028835617022021E+00 
    6.6373450151187618E-01 
    5.0872228563025901E-01 
    6.5060197385223462E-01 
    7.4284012410528333E-01 
    3.0066823906150991E-01 
    0.0000000000000000E+00 
    4.1143015003624428E-01 
    5.4250921890527526E-01 
    7.1671655603621787E-01 
    6.6422945073371120E-01 
    8.3454308774928820E-01 
    8.4955279532325101E-01 
    8.1754872378430499E-01 
    7.6804142960801736E-01 
    8.6769538542508140E-01 
    8.8754676912919572E-01 
    1.1429664200152903E+00 
    1.0854729458277126E+00 
    1.1127805422332939E+00 
    1.1828544535088918E+00 
    1.0242529641031153E+00 
    9.5745369034780992E-01 
    9.5652851669317251E-01 
    1.0381709077762229E+00 
    1.0546469539071925E+00 
    9.5837814714090153E-01 
    9.6322648512421083E-01 
    1.0732425619876533E+00 
    1.2242423676220642E+00 
    1.1422480112665516E+00 
    1.1729638953280856E+00 
    1.2657517442901569E+00 
    1.7543318649495028E+00 
    1.8386862097467214E+00 
    1.8308419543458498E+00 
    1.7532158430319338E+00 
    1.9195395387585150E+00 
    1.9959375677367228E+00 
    1.9762138773924012E+00 
    1.9054003045470693E+00 
    1.8935100475123201E+00 
    1.9582531331343507E+00 
    1.9417207478186875E+00 
    1.8835759385964894E+00 
    1.7543198667696749E+00 
    1.8254288193347401E+00 
    1.8221946487899279E+00 
    1.7575059646117996E+00 
    2.0655086583066269E+00 
    2.1280141944132849E+00 
    2.0939845719302776E+00 
    2.0386912021846211E+00 
    2.1840457820774772E+00 
    2.2332969877805273E+00 
    2.1945669629007187E+00 
    2.1457955639028059E+00 
    2.1061412475461196E+00 
    2.1513549662461369E+00 
    2.1039729517929304E+00 
    2.0648184055290031E+00 
    2.0130831137490039E+00 
    2.0603073019013527E+00 
    2.0265498968510780E+00 
    1.9883068126395365E+00 
    1.7667741531311965E+00 
    1.8322097566607216E+00 
    1.8569510177338377E+00 
    1.7835310519497292E+00 
    1.8928822606861002E+00 
    1.9495775469073418E+00 
    1.9818492398811345E+00 
    1.9222511594934770E+00 
    1.9544509179744969E+00 
    2.0153664478159459E+00 
    2.0511126894581952E+00 
    1.9910771071618316E+00 
    1.8055319638768230E+00 
    1.8862460899420672E+00 
    1.9230039119518216E+00 
    1.8379838129806554E+00 
    1.6671949672648594E+00 
    1.5788962678837157E+00 
    1.5906794765990873E+00 
    1.6722097881408151E+00 
    1.4901634446329051E+00 
    1.4016722251885589E+00 
    1.4278844667536963E+00 
    1.5090988148996518E+00 
    1.5282817611890498E+00 
    1.4541760847897147E+00 
    1.4806901555450809E+00 
    1.5478278998074073E+00 
    1.6786685110064721E+00 
    1.6031562361889700E+00 
    1.6162883982287268E+00 
    1.6863881495287238E+00 
    1.3158420078104149E+00 
    1.2329807244205158E+00 
    1.2840773803310959E+00 
    1.3529735741162419E+00 
    1.1517942552076044E+00 
    1.0730015786028320E+00 
    1.1481401780892306E+00 
    1.2157967153689080E+00 
    1.2814359421909576E+00 
    1.2272546619090434E+00 
    1.3083334825304562E+00 
    1.3482000402732968E+00 
    1.3902555995902826E+00 
    1.3357938219607421E+00 
    1.3880596435203056E+00 
    1.4278514232464088E+00 
    1.6904536754281305E+00 
    1.6173450975484107E+00 
    1.6042045843508519E+00 
    1.6886706284256761E+00 
    1.5475134560728674E+00 
    1.4798791582533275E+00 
    1.4509657397506062E+00 
    1.5259042571820092E+00 
    1.5027903092536119E+00 
    1.4215528475679420E+00 
    1.3916293881990534E+00 
    1.4777167822014001E+00 
    1.6828309340838388E+00 
    1.5880514714914902E+00 
    1.5671044151426146E+00 
    1.6689146300278710E+00 
    1.8380451641974340E+00 
    1.9226308810167554E+00 
    1.8856188124074649E+00 
    1.8052437568826758E+00 
    1.9898251571944943E+00 
    2.0490722138476922E+00 
    2.0137093056290225E+00 
    1.9532866545176208E+00 
    1.9211740172020522E+00 
    1.9804907508911596E+00 
    1.9484730252714499E+00 
    1.8919300626935351E+00 
    1.7829292592842909E+00 
    1.8561795641194045E+00 
    1.8313862425238787E+00 
    1.7659873812171754E+00 
    2.1018996194256943E+00 
    2.1500163287351333E+00 
    2.1049597458381988E+00 
    2.0631618032950443E+00 
    2.1940630023152861E+00 
    2.2333699228418045E+00 
    2.1839472304942449E+00 
    2.1452166861263890E+00 
    2.0934097712445672E+00 
    2.1278446580934638E+00 
    2.0653362973233240E+00 
    2.0381903459195043E+00 
    2.0252121889789296E+00 
    2.0593052668073843E+00 
    2.0122657741868069E+00 
    1.9872359097109256E+00 
    1.7566444629446520E+00 
    1.8213838016464188E+00 
    1.8247513455765072E+00 
    1.7535636035623079E+00 
    1.8827274555523705E+00 
    1.9407935797442002E+00 
    1.9575352283445495E+00 