# vtk DataFile Version 2.0
Pressure Field Data 
ASCII 
DATASET UNSTRUCTURED_GRID 

POINTS 801 double 

    0.0000000000000000E+00     0.0000000000000000E+00     0.0000000000000000E+00 
    1.0000000000000000E+00     0.0000000000000000E+00     0.0000000000000000E+00 
    1.0000000000000000E+00     1.0000000000000000E+00     0.0000000000000000E+00 
    0.0000000000000000E+00     1.0000000000000000E+00     0.0000000000000000E+00 
    2.5000000000000000E-01     2.5000000000000000E-01     0.0000000000000000E+00 
    7.5000000000000000E-01     2.5000000000000000E-01     0.0000000000000000E+00 
    7.5000000000000000E-01     7.5000000000000000E-01     0.0000000000000000E+00 
    2.5000000000000000E-01     7.5000000000000000E-01     0.0000000000000000E+00 
    2.4999999999941941E-01     0.0000000000000000E+00     0.0000000000000000E+00 
    4.9999999999869399E-01     0.0000000000000000E+00     0.0000000000000000E+00 
    7.4999999999934697E-01     0.0000000000000000E+00     0.0000000000000000E+00 
    1.2499999999977940E-01     0.0000000000000000E+00     0.0000000000000000E+00 
    3.7499999999905670E-01     0.0000000000000000E+00     0.0000000000000000E+00 
    6.2499999999902045E-01     0.0000000000000000E+00     0.0000000000000000E+00 
    8.7499999999967348E-01     0.0000000000000000E+00     0.0000000000000000E+00 
    6.2499999999889699E-02     0.0000000000000000E+00     0.0000000000000000E+00 
    1.8749999999959940E-01     0.0000000000000000E+00     0.0000000000000000E+00 
    3.1249999999923811E-01     0.0000000000000000E+00     0.0000000000000000E+00 
    4.3749999999887529E-01     0.0000000000000000E+00     0.0000000000000000E+00 
    5.6249999999885725E-01     0.0000000000000000E+00     0.0000000000000000E+00 
    6.8749999999918376E-01     0.0000000000000000E+00     0.0000000000000000E+00 
    8.1249999999951017E-01     0.0000000000000000E+00     0.0000000000000000E+00 
    9.3749999999983680E-01     0.0000000000000000E+00     0.0000000000000000E+00 
    1.0000000000000000E+00     2.4999999999941941E-01     0.0000000000000000E+00 
    1.0000000000000000E+00     4.9999999999869399E-01     0.0000000000000000E+00 
    1.0000000000000000E+00     7.4999999999934697E-01     0.0000000000000000E+00 
    1.0000000000000000E+00     1.2499999999977940E-01     0.0000000000000000E+00 
    1.0000000000000000E+00     3.7499999999905670E-01     0.0000000000000000E+00 
    1.0000000000000000E+00     6.2499999999902045E-01     0.0000000000000000E+00 
    1.0000000000000000E+00     8.7499999999967348E-01     0.0000000000000000E+00 
    1.0000000000000000E+00     6.2499999999889699E-02     0.0000000000000000E+00 
    1.0000000000000000E+00     1.8749999999959940E-01     0.0000000000000000E+00 
    1.0000000000000000E+00     3.1249999999923811E-01     0.0000000000000000E+00 
    1.0000000000000000E+00     4.3749999999887529E-01     0.0000000000000000E+00 
    1.0000000000000000E+00     5.6249999999885725E-01     0.0000000000000000E+00 
    1.0000000000000000E+00     6.8749999999918376E-01     0.0000000000000000E+00 
    1.0000000000000000E+00     8.1249999999951017E-01     0.0000000000000000E+00 
    1.0000000000000000E+00     9.3749999999983680E-01     0.0000000000000000E+00 
    7.5000000000112044E-01     1.0000000000000000E+00     0.0000000000000000E+00 
    5.0000000000205913E-01     1.0000000000000000E+00     0.0000000000000000E+00 
    2.5000000000102962E-01     1.0000000000000000E+00     0.0000000000000000E+00 
    8.7499999999991362E-01     1.0000000000000000E+00     0.0000000000000000E+00 
    6.2499999999988309E-01     1.0000000000000000E+00     0.0000000000000000E+00 
    3.7499999999869987E-01     1.0000000000000000E+00     0.0000000000000000E+00 
    1.2499999999880820E-01     1.0000000000000000E+00     0.0000000000000000E+00 
    9.3749999999995681E-01     1.0000000000000000E+00     0.0000000000000000E+00 
    8.1250000000051703E-01     1.0000000000000000E+00     0.0000000000000000E+00 
    6.8750000000050182E-01     1.0000000000000000E+00     0.0000000000000000E+00 
    5.6250000000097111E-01     1.0000000000000000E+00     0.0000000000000000E+00 
    4.3750000000037947E-01     1.0000000000000000E+00     0.0000000000000000E+00 
    3.1249999999986477E-01     1.0000000000000000E+00     0.0000000000000000E+00 
    1.8749999999991890E-01     1.0000000000000000E+00     0.0000000000000000E+00 
    6.2499999999404102E-02     1.0000000000000000E+00     0.0000000000000000E+00 
    0.0000000000000000E+00     7.5000000000112044E-01     0.0000000000000000E+00 
    0.0000000000000000E+00     5.0000000000205913E-01     0.0000000000000000E+00 
    0.0000000000000000E+00     2.5000000000102962E-01     0.0000000000000000E+00 
    0.0000000000000000E+00     8.7499999999991362E-01     0.0000000000000000E+00 
    0.0000000000000000E+00     6.2499999999988309E-01     0.0000000000000000E+00 
    0.0000000000000000E+00     3.7499999999869987E-01     0.0000000000000000E+00 
    0.0000000000000000E+00     1.2499999999880820E-01     0.0000000000000000E+00 
    0.0000000000000000E+00     9.3749999999995681E-01     0.0000000000000000E+00 
    0.0000000000000000E+00     8.1250000000051703E-01     0.0000000000000000E+00 
    0.0000000000000000E+00     6.8750000000050182E-01     0.0000000000000000E+00 
    0.0000000000000000E+00     5.6250000000097111E-01     0.0000000000000000E+00 
    0.0000000000000000E+00     4.3750000000037947E-01     0.0000000000000000E+00 
    0.0000000000000000E+00     3.1249999999986477E-01     0.0000000000000000E+00 
    0.0000000000000000E+00     1.8749999999991890E-01     0.0000000000000000E+00 
    0.0000000000000000E+00     6.2499999999404102E-02     0.0000000000000000E+00 
    4.9999999999972200E-01     2.5000000000000000E-01     0.0000000000000000E+00 
    3.7500000000067490E-01     2.5000000000000000E-01     0.0000000000000000E+00 
    6.2500000000042988E-01     2.5000000000000000E-01     0.0000000000000000E+00 
    3.1250000000033751E-01     2.5000000000000000E-01     0.0000000000000000E+00 
    4.3750000000019851E-01     2.5000000000000000E-01     0.0000000000000000E+00 
    5.6250000000007594E-01     2.5000000000000000E-01     0.0000000000000000E+00 
    6.8750000000021494E-01     2.5000000000000000E-01     0.0000000000000000E+00 
    7.5000000000000000E-01     4.9999999999972200E-01     0.0000000000000000E+00 
    7.5000000000000000E-01     3.7500000000067490E-01     0.0000000000000000E+00 
    7.5000000000000000E-01     6.2500000000042988E-01     0.0000000000000000E+00 
    7.5000000000000000E-01     3.1250000000033751E-01     0.0000000000000000E+00 
    7.5000000000000000E-01     4.3750000000019851E-01     0.0000000000000000E+00 
    7.5000000000000000E-01     5.6250000000007594E-01     0.0000000000000000E+00 
    7.5000000000000000E-01     6.8750000000021494E-01     0.0000000000000000E+00 
    5.0000000000118039E-01     7.5000000000000000E-01     0.0000000000000000E+00 
    6.2500000000161415E-01     7.5000000000000000E-01     0.0000000000000000E+00 
    3.7500000000140910E-01     7.5000000000000000E-01     0.0000000000000000E+00 
    6.8750000000080713E-01     7.5000000000000000E-01     0.0000000000000000E+00 
    5.6250000000139733E-01     7.5000000000000000E-01     0.0000000000000000E+00 
    4.3750000000129469E-01     7.5000000000000000E-01     0.0000000000000000E+00 
    3.1250000000070460E-01     7.5000000000000000E-01     0.0000000000000000E+00 
    2.5000000000000000E-01     5.0000000000118039E-01     0.0000000000000000E+00 
    2.5000000000000000E-01     6.2500000000161415E-01     0.0000000000000000E+00 
    2.5000000000000000E-01     3.7500000000140910E-01     0.0000000000000000E+00 
    2.5000000000000000E-01     6.8750000000080713E-01     0.0000000000000000E+00 
    2.5000000000000000E-01     5.6250000000139733E-01     0.0000000000000000E+00 
    2.5000000000000000E-01     4.3750000000129469E-01     0.0000000000000000E+00 
    2.5000000000000000E-01     3.1250000000070460E-01     0.0000000000000000E+00 
    3.7499999999934702E-01     1.2500000000000000E-01     0.0000000000000000E+00 
    1.2500000000000000E-01     1.2500000000000000E-01     0.0000000000000000E+00 
    1.2500000000000000E-01     3.7500000000102962E-01     0.0000000000000000E+00 
    8.7500000000000000E-01     1.2500000000000000E-01     0.0000000000000000E+00 
    6.2499999999934697E-01     1.2500000000000000E-01     0.0000000000000000E+00 
    8.7500000000000000E-01     3.7499999999934702E-01     0.0000000000000000E+00 
    8.7500000000000000E-01     6.2499999999934697E-01     0.0000000000000000E+00 
    1.2500000000000000E-01     6.2500000000102962E-01     0.0000000000000000E+00 
    1.2500000000000000E-01     8.7500000000000000E-01     0.0000000000000000E+00 
    8.7500000000000000E-01     8.7500000000000000E-01     0.0000000000000000E+00 
    6.2500000000102962E-01     8.7500000000000000E-01     0.0000000000000000E+00 
    3.7500000000102962E-01     8.7500000000000000E-01     0.0000000000000000E+00 
    2.4999999999957681E-01     8.3333333333333329E-02     0.0000000000000000E+00 
    8.3333333333333329E-02     2.5000000000068640E-01     0.0000000000000000E+00 
    7.4999999999956468E-01     8.3333333333333329E-02     0.0000000000000000E+00 
    4.9999999999951827E-01     1.6666666666666671E-01     0.0000000000000000E+00 
    9.1666666666666674E-01     2.4999999999957681E-01     0.0000000000000000E+00 
    8.3333333333333337E-01     4.9999999999951827E-01     0.0000000000000000E+00 
    1.6666666666666671E-01     5.0000000000088307E-01     0.0000000000000000E+00 
    8.3333333333333329E-02     7.5000000000070155E-01     0.0000000000000000E+00 
    9.1666666666666674E-01     7.4999999999956468E-01     0.0000000000000000E+00 
    5.0000000000088307E-01     8.3333333333333348E-01     0.0000000000000000E+00 
    2.5000000000068640E-01     9.1666666666666674E-01     0.0000000000000000E+00 
    7.5000000000070155E-01     9.1666666666666674E-01     0.0000000000000000E+00 
[...]
CELL_DATA 768 
SCALARS Pressure double 1 
LOOKUP_TABLE default 

    3.3340942760903043E+00 
    3.2358637139266033E+00 
    3.2027191366590295E+00 
    3.2651471399535157E+00 
    3.1662511374914049E+00 
    3.1063244740425104E+00 
    3.1006802403369345E+00 
    3.1502698954576629E+00 
    3.1330875680623436E+00 
    3.0936886541155322E+00 
    3.0855057791824292E+00 
    3.1150350060546157E+00 
    3.2116471945249114E+00 
    3.1717623708686054E+00 
    3.1421788018823693E+00 
    3.1671749954915924E+00 
    3.0468500420160183E+00 
    2.9852650868833446E+00 
    2.9969959365765080E+00 
    3.0497686128366501E+00 
    2.9201744699564300E+00 
    2.8510370299558230E+00 
    2.8832898788714405E+00 
    2.9416858903911312E+00 
    2.9617609374933713E+00 
    2.9139776263110240E+00 
    2.9425666267144117E+00 
    2.9800735755508496E+00 
    3.0514559004641137E+00 
    3.0074448866630448E+00 
    3.0164256211079481E+00 
    3.0519108680828348E+00 
    3.1268143351924107E+00 
    3.1097524090163118E+00 
    3.0760784468998001E+00 
    3.0897640632213506E+00 
    3.0890507765520900E+00 
    3.0649897607975012E+00 
    3.0336343690832903E+00 
    3.0571168817189984E+00 
    3.0262373781674392E+00 
    3.0022060879229553E+00 
    2.9703837394589390E+00 
    2.9960480185251925E+00 
    3.0568847654216063E+00 
    3.0449157053505220E+00 
    3.0162947047848396E+00 
    3.0291143333300505E+00 
    3.3341393734133402E+00 
    3.2652024476328796E+00 
    3.2028886142496180E+00 
    3.2360343782041414E+00 
    3.2117125338374701E+00 
    3.1672404716793321E+00 
    3.1423253464561149E+00 
    3.1719168738318899E+00 
    3.1332698168808926E+00 
    3.1151586563357441E+00 
    3.0855769911324238E+00 
    3.0938218090600311E+00 
    3.1664784077271331E+00 
    3.1504763301831948E+00 
    3.1008682983749316E+00 
    3.1065269304365080E+00 
    3.1268783541224452E+00 
    3.0897839046101345E+00 
    3.0760770086564984E+00 
    3.1098699962044289E+00 
    3.0568077661456914E+00 
    3.0289878509360442E+00 
    3.0159138278455262E+00 
    3.0447181941451378E+00 
    3.0258603147442535E+00 
    2.9952959722285062E+00 
    2.9692477948364115E+00 
    3.0015728522739269E+00 
    3.0891174968243806E+00 
    3.0570035358271093E+00 
    3.0333684863857417E+00 
    3.0649538550081226E+00 
    3.0468595026273011E+00 
    3.0497675641568374E+00 
    2.9965062423470208E+00 
    2.9846706664690132E+00 
    3.0514177243789629E+00 
    3.0518167025204925E+00 
    3.0160195035762323E+00 
    3.0069928263340699E+00 
    2.9607487343516339E+00 
    2.9791993412033841E+00 
    2.9410856258280904E+00 
    2.9123047062831247E+00 
    2.9188353671075595E+00 
    2.9405217043908305E+00 
    2.8814664878656289E+00 
    2.8490446100938391E+00 
    2.7370027496011518E+00 
    2.6587035299281654E+00 
    2.6314327464883829E+00 
    2.7001197802452945E+00 
    2.5795941459853040E+00 
    2.5014921289600958E+00 
    2.4940604733356415E+00 
    2.5622963691200602E+00 
    2.5429913853095059E+00 
    2.4844945215328798E+00 
    2.4726181469867821E+00 
    2.5209917425259909E+00 
    2.6615639255739518E+00 
    2.6023836687081348E+00 
    2.5704765275148089E+00 
    2.6201950128475757E+00 
    2.4195040319490837E+00 
    2.3409636472682336E+00 
    2.3509081985363984E+00 
    2.4226064795929068E+00 
    2.2860434666340579E+00 
    2.2544123809769299E+00 
    2.2598016888257177E+00 
    2.2962591664660290E+00 
    2.3041913156888945E+00 
    2.2638442500293863E+00 
    2.2668142995293952E+00 
    2.3102331745162323E+00 
    2.4233819117850581E+00 
    2.3583961801906712E+00 
    2.3636036000611389E+00 
    2.4215445676315244E+00 
    2.5711599494550996E+00 
    2.5255081014390295E+00 
    2.4638037211132833E+00 
    2.5106549245517802E+00 
    2.4815644591945207E+00 
    2.4396514070073128E+00 
    2.3831585704103162E+00 
    2.4219072804226789E+00 
    2.3540482301082113E+00 
    2.3245998522377693E+00 
    2.2717091182796301E+00 
    2.2827483026449853E+00 
    2.4330589367154785E+00 
    2.3889195001202688E+00 
    2.2979743944881714E+00 
    2.3206256036698290E+00 
    2.7949361061142097E+00 
    2.7541035479089526E+00 
    2.7939092145572864E+00 
    2.8335315236005565E+00 
    2.7115588356599205E+00 
    2.6665162515893206E+00 
    2.7093497940932165E+00 
    2.7526716443034145E+00 
    2.7929768592983661E+00 
    2.7515073363652638E+00 
    2.7924192783467316E+00 
    2.8319345010766472E+00 
    2.8705927433791101E+00 
    2.8325772278789834E+00 
    2.8696267379341349E+00 
    2.9057110328594620E+00 
    2.6207558089079179E+00 
    2.5737560874086958E+00 
    2.6406066983244343E+00 
    2.6716617036922750E+00 
    2.5205961871223965E+00 
    2.4601934919588215E+00 
    2.5707307689683399E+00 
    2.6070706900508283E+00 
    2.6852484347024306E+00 
    2.6658824395630489E+00 
    2.7526583721201057E+00 
    2.7583915792756470E+00 
    2.7211539682331560E+00 
    2.7036745021566579E+00 
    2.7637075314179906E+00 
    2.7689768512996880E+00 
    2.9360231601839177E+00 
    2.8977871552066268E+00 
    2.9178681221441374E+00 
    2.9614289404152068E+00 
    2.8573065290280986E+00 
    2.8143360045289363E+00 
    2.8191783808046931E+00 
    2.8705259838563566E+00 
    2.8833748598055564E+00 
    2.8242531537955560E+00 
    2.8291479589109061E+00 
    2.8956805446134175E+00 
    2.9839799404952387E+00 
    2.9366163190507200E+00 
    2.9541536089246474E+00 
    3.0036443855322217E+00 
    2.2469578150478222E+00 
    2.2147298431957450E+00 
    2.2040767764727986E+00 
    2.2410943722232095E+00 
    2.1598735309841222E+00 
    2.0846168967553229E+00 
    2.0814635439336642E+00 
    2.1501828465126116E+00 
    2.1429108464900017E+00 
    2.0805107705364443E+00 
    2.0816390802560774E+00 
    2.1378122363677323E+00 
    2.2362137970530345E+00 
    2.1954552199014365E+00 
    2.1885002643029461E+00 
    2.2321014225516422E+00 
    1.9937932894106440E+00 
    1.8919877160403427E+00 
    1.9145036450047970E+00 
    2.0020966047322131E+00 
    1.7833415491238009E+00 
    1.6705107059567406E+00 
    1.7244409226199324E+00 
    1.8212345698814769E+00 
    1.8603557438812237E+00 
    1.7790323598525184E+00 
    1.8349962960176791E+00 
    1.9014799152172099E+00 
    2.0123392816337948E+00 
    1.9387964552593231E+00 
    1.9652256707555529E+00 
    2.0247035914084428E+00 
    2.2256555152628876E+00 
    2.1736423223041856E+00 
    2.1438651452943622E+00 
    2.2144416738186128E+00 
    2.1184684021489053E+00 
    2.0611484756297269E+00 
    2.0114501251861956E+00 
    2.0766656429348056E+00 
    2.0270729235868385E+00 
    1.9565326140714177E+00 
    1.8974964635496345E+00 
    1.9691680176752546E+00 
    2.1977527885297290E+00 
    2.1051521741350188E+00 
    2.0522827873921168E+00 
    2.1666156405938204E+00 
    2.0180187890635435E+00 
    1.9519628893817276E+00 
    1.8461211849763917E+00 
    1.8888302999822824E+00 
    1.8908589022863007E+00 
    1.8320639580249347E+00 
    1.7630960378997800E+00 
    1.8043347300073092E+00 
    1.7188579725428259E+00 
    1.6940669932202506E+00 
    1.6250030192035991E+00 
    1.6338356943686370E+00 
    1.7678803152662939E+00 
    1.7433994140674021E+00 
    1.6423316462173956E+00 
    1.6504357632189051E+00 
    1.7711914471876027E+00 
    1.7077539046791175E+00 
    1.6475321615128640E+00 
    1.7108186760377035E+00 
    1.6447212860114859E+00 
    1.5816258010938431E+00 
    1.5199295906595085E+00 
    1.5839839770726607E+00 
    1.5230893940254659E+00 
    1.4584474682016666E+00 
    1.3980065806527839E+00 
    1.4623410826485386E+00 
    1.6500303729661352E+00 
    1.5867867791478913E+00 
    1.5259160298767540E+00 
    1.5889308245193636E+00 
    1.5348840611785597E+00 
    1.5420077585872025E+00 
    1.4424242251892267E+00 
    1.4208817430787373E+00 
    1.5487516850364083E+00 
    1.5551853162830565E+00 
    1.4848761640436592E+00 
    1.4636050095525603E+00 
    1.3792354057828793E+00 
    1.4142976045901632E+00 
    1.3435210448338779E+00 
    1.2961395473334709E+00 
    1.3119989530769494E+00 
    1.3451165494083939E+00 
    1.2525988323028767E+00 
    1.2136646394570103E+00 
    3.0033679959176154E+00 
    2.9530057519476407E+00 
    2.9349875160235928E+00 
    2.9831957839128962E+00 
    2.8932923399883057E+00 
    2.8251230773390157E+00 
    2.8203643885215022E+00 
    2.8806571908738978E+00 
    2.8675511771072748E+00 
    2.8155325466424590E+00 
    2.8108963919508931E+00 
    2.8542403321774690E+00 
    2.9601251379660383E+00 
    2.9157507488244994E+00 
    2.8953262917261240E+00 
    2.9342584085810084E+00 
    2.7487429139299748E+00 
    2.6634309184529679E+00 
    2.6827376368770484E+00 
    2.7546800599417725E+00 
    2.5690930954680731E+00 
    2.4615008538994272E+00 
    2.5195969717972595E+00 
    2.6049351680348045E+00 
    2.6381727864174986E+00 
    2.5714990248154339E+00 
    2.6178936474396131E+00 
    2.6688959623849184E+00 
    2.7601942158063832E+00 
    2.7009191091778204E+00 
    2.7181899966223799E+00 
    2.7656052852878394E+00 
    2.9035854177057896E+00 
    2.8668873473259051E+00 
    2.8298239971241599E+00 
    2.8683702187113891E+00 
    2.8287705921200961E+00 
    2.7890919366573681E+00 
    2.7484728761141834E+00 
    2.7899764028220084E+00 
    2.7498390203228751E+00 
    2.7065268620618488E+00 
    2.6635700329937291E+00 
    2.7087120641210150E+00 
    2.8312580262207727E+00 
    2.7912932305691416E+00 
    2.7514652916009101E+00 
    2.7925950884642110E+00 
    2.7344624711929701E+00 
    2.6973763296116813E+00 
    2.6286793279406626E+00 
    2.6560720146173380E+00 
    2.6585690111723759E+00 
    2.6169917570670997E+00 
    2.5673159981492186E+00 
    2.5993608271585793E+00 
    2.5407706110278854E+00 
    2.5188372598801001E+00 
    2.4725371209281373E+00 
    2.4840601162659723E+00 
    2.5774570877838170E+00 
    2.5601592292272772E+00 
    2.4935442306513917E+00 
    2.5008847078213665E+00 
    2.5683198177596269E+00 
    2.5094692362187185E+00 
    2.4642598978115062E+00 
    2.5231351405653668E+00 
    2.4352633780345174E+00 
    2.3261956556711754E+00 
    2.3057992094583137E+00 
    2.3943181562845841E+00 
    2.3629446057600068E+00 
    2.2914372242025065E+00 
    2.2795387132052110E+00 
    2.3343512694294275E+00 
    2.4807392018867822E+00 
    2.4253443295510366E+00 
    2.3902574180379497E+00 
    2.4414451258475207E+00 
    2.4226528348791518E+00 
    2.4258538859296128E+00 
    2.3563715313593989E+00 
    2.3460099417813232E+00 
    2.4267291560213970E+00 
    2.4248485615456166E+00 
    2.3712666801746272E+00 
    2.3648479101609530E+00 
    2.3101821937620493E+00 
    2.3177188072709312E+00 
    2.2735132621959568E+00 
    2.2698411238155281E+00 
    2.2911969152839777E+00 
    2.3016493292019629E+00 
    2.2653417457742400E+00 
    2.2597913808721595E+00 
    1.4908536146670202E+00 
    1.3687323325880194E+00 
    1.3283401600150264E+00 
    1.4354789604413871E+00 
    1.2404668907313716E+00 
    1.1010570806146793E+00 
    1.0944191780643160E+00 
    1.2159389393670768E+00 
    1.1940563067993766E+00 
    1.0912146960243705E+00 
    1.0913909200085399E+00 
    1.1754992704269549E+00 
    1.3811025611790331E+00 
    1.2897542400012967E+00 
    1.2539515688687897E+00 
    1.3288247913485518E+00 
    9.4064256914682354E-01 
    7.3946863210707814E-01 
    7.9904159363897287E-01 
    9.5826276976397440E-01 
    4.5469211868562665E-01 
    0.0000000000000000E+00 
    3.2570540211439780E-01 
    5.9805275073539799E-01 
    7.2292596116566765E-01 
    5.6360679946054892E-01 
    7.4247787855546554E-01 
    8.3143343978175688E-01 
    9.7968821247359927E-01 
    8.5957170556273987E-01 
    9.1894119086388160E-01 
    1.0039437045757154E+00 
    1.2759396289583205E+00 
    1.2092344042441681E+00 
    1.1580968943885328E+00 
    1.2251805110009608E+00 
    1.1381697604250764E+00 
    1.0605179242470415E+00 
    9.9730354918409303E-01 
    1.0831309253239929E+00 
    1.0356697437461759E+00 
    9.3792901871002798E-01 
    8.8475852936246346E-01 
    9.9902190302469052E-01 
    1.1841269064521551E+00 
    1.1168046414222246E+00 
    1.0893555920624771E+00 
    1.1584340286318331E+00 
    2.0268042452465629E+00 
    1.8957004972566989E+00 
    1.8523161241656672E+00 
    1.9601286395821882E+00 
    1.7722853941797170E+00 
    1.6525985726806263E+00 
    1.6443487515595634E+00 
    1.7474214308623515E+00 
    1.7225074549339889E+00 
    1.6358679774542977E+00 
    1.6271945913486212E+00 
    1.6975960490076405E+00 
    1.8981124944043803E+00 
    1.8098696574592881E+00 
    1.7681054610299314E+00 
    1.8385278065846824E+00 
    1.5355290789478728E+00 
    1.4216502082082769E+00 
    1.4432348358347145E+00 
    1.5428584995331760E+00 
    1.3132533201314085E+00 
    1.2151571442150475E+00 
    1.2544609467664776E+00 
    1.3465074450252452E+00 
    1.3808239931269597E+00 
    1.2983836219028979E+00 
    1.3461351226290048E+00 
    1.4163173557538202E+00 
    1.5499421911270210E+00 
    1.4648242088904559E+00 
    1.4865009585105264E+00 
    1.5568490261949319E+00 
    1.7769638390121814E+00 
    1.7152899680073410E+00 
    1.6514681915148470E+00 
    1.7128891111991367E+00 
    1.6532322608859984E+00 
    1.5911256879571392E+00 
    1.5279883044413620E+00 
    1.5896777762567056E+00 
    1.5259979741735783E+00 
    1.4646847146042703E+00 
    1.4008915815968699E+00 
    1.4617652164640729E+00 
    1.6494548415322170E+00 
    1.5877530410212224E+00 
    1.5237491855610961E+00 
    1.5860647964127965E+00 
    2.1745666857170165E+00 
    2.0613503948323495E+00 
    2.1149862108426070E+00 
    2.2064748939866887E+00 
    1.9775671336645277E+00 
    1.9051747204877316E+00 
    1.9651274978844326E+00 
    2.0362625595388613E+00 
    2.0862159255454529E+00 
    2.0207060479682983E+00 
    2.0706442770890043E+00 
    2.1279310028038614E+00 
    2.2232736944759171E+00 
    2.1538744273241375E+00 
    2.1828877505611768E+00 
    2.2337852538620768E+00 
    1.8420663433985960E+00 
    1.7854973690296916E+00 
    1.8682402076580780E+00 
    1.9096743880120084E+00 
    1.7303478348814914E+00 
    1.6757898995317491E+00 
    1.7903682949559048E+00 
    1.8287076852001893E+00 
    1.9233523385591220E+00 
    1.9006652424759145E+00 
    2.0033859036747113E+00 
    2.0116503208370302E+00 
    1.9742384179102586E+00 
    1.9477257663059460E+00 
    2.0218512006041793E+00 
    2.0341633377467585E+00 
    2.2392799583650058E+00 
    2.1966887532156818E+00 
    2.2030731920559221E+00 
    2.2427746710874907E+00 
    2.1467893747956461E+00 
    2.0910924151433488E+00 
    2.0899596556886157E+00 
    2.1516203918668095E+00 
    2.1586204587628184E+00 
    2.0909510900911115E+00 
    2.0941333084207452E+00 
    2.1681182613063426E+00 
    2.2471236070576754E+00 
    2.2112434850732448E+00 
    2.2215015071177056E+00 
    2.2526162507353158E+00 
    1.1591594627383832E+00 
    1.0901484289579981E+00 
    1.1189881779853010E+00 
    1.1860362097167181E+00 
    9.9988951748258204E-01 
    8.8560128233833846E-01 
    9.4035807929126891E-01 
    1.0381176170515964E+00 
    1.0868307302178799E+00 
    1.0011503674753837E+00 
    1.0653904330889574E+00 
    1.1427388464426924E+00 
    1.2279175536338394E+00 
    1.1614234791438640E+00 
    1.2132298206386432E+00 
    1.2792451420644535E+00 
    7.4326757729492532E-01 
    5.6426319551728821E-01 
    7.2535450451350314E-01 
    8.3384944677936201E-01 
    3.2608187516551729E-01 
    0.0000000000000000E+00 
    4.5638705625357334E-01 
    6.0018239911847948E-01 
    8.0326935496699936E-01 
    7.4337533318322380E-01 
    9.4660514916949667E-01 
    9.6410700198243326E-01 
    9.2286470809078647E-01 
    8.6369979674984154E-01 
    9.8522543540131668E-01 
    1.0089889624980000E+00 
    1.3324175467203050E+00 
    1.2582784503478117E+00 
    1.2943443877530840E+00 
    1.3849490255361219E+00 
    1.1805428237514479E+00 
    1.0968968258266005E+00 
    1.0972267322462699E+00 
    1.1995042067886634E+00 
    1.2215416631506875E+00 
    1.1007433325996909E+00 
    1.1074719424916251E+00 
    1.2460263579852600E+00 
    1.4394879544535821E+00 
    1.3329787765533405E+00 
    1.3732673918049569E+00 
    1.4949508288704347E+00 
    2.2542570700497331E+00 
    2.3855703124134258E+00 
    2.3730374015918301E+00 
    2.2517494153371826E+00 
    2.5115331226040531E+00 
    2.6303155168903545E+00 
    2.5999709792805037E+00 
    2.4895424814993845E+00 
    2.4709413053905878E+00 
    2.5723609851576468E+00 
    2.5467661998390243E+00 
    2.4551174133251674E+00 
    2.2521735231157289E+00 
    2.3640092369800545E+00 
    2.3580163169511614E+00 
    2.2553471049515217E+00 
    2.7379133009725196E+00 
    2.8338128538366263E+00 
    2.7825938500459144E+00 
    2.6970118514757209E+00 
    2.9187535346668740E+00 
    2.9914725777931959E+00 
    2.9354773018475351E+00 
    2.8621978558919507E+00 
    2.8036278063067388E+00 
    2.8730955382273962E+00 
    2.8029288147680189E+00 
    2.7414992893165184E+00 
    2.6579924775195671E+00 
    2.7319319868577869E+00 
    2.6805629279962115E+00 
    2.6199851803739262E+00 
    2.2678137980178037E+00 
    2.3726802832310367E+00 
    2.4109264040717688E+00 
    2.2922995368880548E+00 
    2.4693573808198397E+00 
    2.5592223627686814E+00 
    2.6104687060923815E+00 
    2.5155785380455948E+00 
    2.5664450287740359E+00 
    2.6639710307962345E+00 
    2.7198495773332838E+00 
    2.6225622717280936E+00 
    2.3255986718291344E+00 
    2.4567140372240677E+00 
    2.5125998557790679E+00 
    2.3734555888466495E+00 
    2.1194781144868795E+00 
    1.9834946468765244E+00 
    2.0009905568449602E+00 
    2.1267574478536888E+00 
    1.8480938270683418E+00 
    1.7147386131828166E+00 
    1.7533338725442300E+00 
    1.8761947519747944E+00 
    1.9038708521611991E+00 
    1.7913797924036050E+00 
    1.8293204756117061E+00 
    1.9315075605067600E+00 
    2.1355073258541473E+00 
    2.0187171567008693E+00 
    2.0368009701690211E+00 
    2.1455616561413051E+00 
    1.5874548488832776E+00 
    1.4668289116662121E+00 
    1.5394503300324649E+00 
    1.6413666353697158E+00 
    1.3512754036452197E+00 
    1.2421765865658858E+00 
    1.3430125167319786E+00 
    1.4399252296252103E+00 
    1.5311821145876099E+00 
    1.4505798224357629E+00 
    1.5628141060458767E+00 
    1.6250022439365606E+00 
    1.6950145589540346E+00 
    1.6127522690580005E+00 
    1.6870823106695403E+00 
    1.7489245220795417E+00 
    2.1494056046079377E+00 
    2.0357415118206506E+00 
    2.0119668281585357E+00 
    2.1435950052077741E+00 
    1.9283652266409268E+00 
    1.8256748757703516E+00 
    1.7790007068982161E+00 
    1.8918788207208599E+00 
    1.8522883100447365E+00 
    1.7310551364735012E+00 
    1.6818417715060558E+00 
    1.8089130731330516E+00 
    2.1309908391185068E+00 
    1.9827555174996709E+00 
    1.9453743384051907E+00 
    2.1050144071303483E+00 
    2.3769102190923181E+00 
    2.5126114261034576E+00 
    2.4568542448169954E+00 
    2.3281514755830481E+00 
    2.6207014873885317E+00 
    2.7158288536470829E+00 
    2.6609215760205802E+00 
    2.5649408886775746E+00 
    2.5144529488650473E+00 
    2.6082342298174988E+00 
    2.5576582625255466E+00 
    2.4685926985604461E+00 
    2.2940898392693048E+00 
    2.4111043905132945E+00 
    2.3728293237207816E+00 
    2.2689869441029478E+00 
    2.7984235840895244E+00 
    2.8703222754078852E+00 
    2.8012232542709330E+00 
    2.7380970416662604E+00 
    2.9342915913232179E+00 
    2.9912997591350190E+00 
    2.9184262354849873E+00 
    2.8609489311541143E+00 
    2.7814435654522249E+00 
    2.8334359697979807E+00 
    2.7375793757596720E+00 
    2.6960949606288360E+00 
    2.6780423023152995E+00 
    2.7299977453449364E+00 
    2.6565583026818502E+00 
    2.6181899989137634E+00 
    2.2559377872545845E+00 
    2.3579550241399532E+00 
    2.3637865192498801E+00 
    2.2523772536904789E+00 
    2.4544163895042503E+00 
    2.5454843067225159E+00 
    2.5712931699791062E+00 