# vtk DataFile Version 2.0
Pressure Field Data 
ASCII 
DATASET UNSTRUCTURED_GRID 

POINTS 801 double 

    0.0000000000000000E+00     0.0000000000000000E+00     0.0000000000000000E+00 
    1.0000000000000000E+00     0.0000000000000000E+00     0.0000000000000000E+00 
    1.0000000000000000E+00     1.0000000000000000E+00     0.0000000000000000E+00 
    0.0000000000000000E+00     1.0000000000000000E+00     0.0000000000000000E+00 
    2.5000000000000000E-01     2.5000000000000000E-01     0.0000000000000000E+00 
    7.5000000000000000E-01     2.5000000000000000E-01     0.0000000000000000E+00 
    7.5000000000000000E-01     7.5000000000000000E-01     0.0000000000000000E+00 
    2.5000000000000000E-01     7.5000000000000000E-01     0.0000000000000000E+00 
    2.4999999999941941E-01     0.0000000000000000E+00     0.0000000000000000E+00 
    4.9999999999869399E-01     0.0000000000000000E+00     0.0000000000000000E+00 
    7.4999999999934697E-01     0.0000000000000000E+00     0.0000000000000000E+00 
    1.2499999999977940E-01     0.0000000000000000E+00     0.0000000000000000E+00 
    3.7499999999905670E-01     0.0000000000000000E+00     0.0000000000000000E+00 
    6.2499999999902045E-01     0.0000000000000000E+00     0.0000000000000000E+00 
    8.7499999999967348E-01     0.0000000000000000E+00     0.0000000000000000E+00 
    6.2499999999889699E-02     0.0000000000000000E+00     0.0000000000000000E+00 
    1.8749999999959940E-01     0.0000000000000000E+00     0.0000000000000000E+00 
    3.1249999999923811E-01     0.0000000000000000E+00     0.0000000000000000E+00 
    4.3749999999887529E-01     0.0000000000000000E+00     0.0000000000000000E+00 
    5.6249999999885725E-01     0.0000000000000000E+00     0.0000000000000000E+00 
    6.8749999999918376E-01     0.0000000000000000E+00     0.0000000000000000E+00 
    8.1249999999951017E-01     0.0000000000000000E+00     0.0000000000000000E+00 
    9.3749999999983680E-01     0.0000000000000000E+00     0.0000000000000000E+00 
    1.0000000000000000E+00     2.4999999999941941E-01     0.0000000000000000E+00 
    1.0000000000000000E+00     4.9999999999869399E-01     0.0000000000000000E+00 
    1.0000000000000000E+00     7.4999999999934697E-01     0.0000000000000000E+00 
    1.0000000000000000E+00     1.2499999999977940E-01     0.0000000000000000E+00 
    1.0000000000000000E+00     3.7499999999905670E-01     0.0000000000000000E+00 
    1.0000000000000000E+00     6.2499999999902045E-01     0.0000000000000000E+00 
    1.0000000000000000E+00     8.7499999999967348E-01     0.0000000000000000E+00 
    1.0000000000000000E+00     6.2499999999889699E-02     0.0000000000000000E+00 
    1.0000000000000000E+00     1.8749999999959940E-01     0.0000000000000000E+00 
    1.0000000000000000E+00     3.1249999999923811E-01     0.0000000000000000E+00 
    1.0000000000000000E+00     4.3749999999887529E-01     0.0000000000000000E+00 
    1.0000000000000000E+00     5.6249999999885725E-01     0.0000000000000000E+00 
    1.0000000000000000E+00     6.8749999999918376E-01     0.0000000000000000E+00 
    1.0000000000000000E+00     8.1249999999951017E-01     0.0000000000000000E+00 
    1.0000000000000000E+00     9.3749999999983680E-01     0.0000000000000000E+00 
    7.5000000000112044E-01     1.0000000000000000E+00     0.0000000000000000E+00 
    5.0000000000205913E-01     1.0000000000000000E+00     0.0000000000000000E+00 
    2.5000000000102962E-01     1.0000000000000000E+00     0.0000000000000000E+00 
    8.7499999999991362E-01     1.0000000000000000E+00     0.0000000000000000E+00 
    6.2499999999988309E-01     1.0000000000000000E+00     0.0000000000000000E+00 
    3.7499999999869987E-01     1.0000000000000000E+00     0.0000000000000000E+00 
    1.2499999999880820E-01     1.0000000000000000E+00     0.0000000000000000E+00 
    9.3749999999995681E-01     1.0000000000000000E+00     0.0000000000000000E+00 
    8.1250000000051703E-01     1.0000000000000000E+00     0.0000000000000000E+00 
    6.8750000000050182E-01     1.0000000000000000E+00     0.0000000000000000E+00 
    5.6250000000097111E-01     1.0000000000000000E+00     0.0000000000000000E+00 
    4.3750000000037947E-01     1.0000000000000000E+00     0.0000000000000000E+00 
    3.1249999999986477E-01     1.0000000000000000E+00     0.0000000000000000E+00 
    1.8749999999991890E-01     1.0000000000000000E+00     0.0000000000000000E+00 
    6.2499999999404102E-02     1.0000000000000000E+00     0.0000000000000000E+00 
    0.0000000000000000E+00     7.5000000000112044E-01     0.0000000000000000E+00 
    0.0000000000000000E+00     5.0000000000205913E-01     0.0000000000000000E+00 
    0.0000000000000000E+00     2.5000000000102962E-01     0.0000000000000000E+00 
    0.0000000000000000E+00     8.7499999999991362E-01     0.0000000000000000E+00 
    0.0000000000000000E+00     6.2499999999988309E-01     0.0000000000000000E+00 
    0.0000000000000000E+00     3.7499999999869987E-01     0.0000000000000000E+00 
    0.0000000000000000E+00     1.2499999999880820E-01     0.0000000000000000E+00 
    0.0000000000000000E+00     9.3749999999995681E-01     0.0000000000000000E+00 
    0.0000000000000000E+00     8.1250000000051703E-01     0.0000000000000000E+00 
    0.0000000000000000E+00     6.8750000000050182E-01     0.0000000000000000E+00 
    0.0000000000000000E+00     5.6250000000097111E-01     0.0000000000000000E+00 
    0.0000000000000000E+00     4.3750000000037947E-01     0.0000000000000000E+00 
    0.0000000000000000E+00     3.1249999999986477E-01     0.0000000000000000E+00 
    0.0000000000000000E+00     1.8749999999991890E-01     0.0000000000000000E+00 
    0.0000000000000000E+00     6.2499999999404102E-02     0.0000000000000000E+00 
    4.9999999999972200E-01     2.5000000000000000E-01     0.0000000000000000E+00 
    3.7500000000067490E-01     2.5000000000000000E-01     0.0000000000000000E+00 
    6.2500000000042988E-01     2.5000000000000000E-01     0.0000000000000000E+00 
    3.1250000000033751E-01     2.5000000000000000E-01     0.0000000000000000E+00 
    4.3750000000019851E-01     2.5000000000000000E-01     0.0000000000000000E+00 
    5.6250000000007594E-01     2.5000000000000000E-01     0.0000000000000000E+00 
    6.8750000000021494E-01     2.5000000000000000E-01     0.0000000000000000E+00 
    7.5000000000000000E-01     4.9999999999972200E-01     0.0000000000000000E+00 
    7.5000000000000000E-01     3.7500000000067490E-01     0.0000000000000000E+00 
    7.5000000000000000E-01     6.2500000000042988E-01     0.0000000000000000E+00 
    7.5000000000000000E-01     3.1250000000033751E-01     0.0000000000000000E+00 
    7.5000000000000000E-01     4.3750000000019851E-01     0.0000000000000000E+00 
    7.5000000000000000E-01     5.6250000000007594E-01     0.0000000000000000E+00 
    7.5000000000000000E-01     6.8750000000021494E-01     0.0000000000000000E+00 
    5.0000000000118039E-01     7.5000000000000000E-01     0.0000000000000000E+00 
    6.2500000000161415E-01     7.5000000000000000E-01     0.0000000000000000E+00 
    3.7500000000140910E-01     7.5000000000000000E-01     0.0000000000000000E+00 
    6.8750000000080713E-01     7.5000000000000000E-01     0.0000000000000000E+00 
    5.6250000000139733E-01     7.5000000000000000E-01     0.0000000000000000E+00 
    4.3750000000129469E-01     7.5000000000000000E-01     0.0000000000000000E+00 
    3.1250000000070460E-01     7.5000000000000000E-01     0.0000000000000000E+00 
    2.5000000000000000E-01     5.0000000000118039E-01     0.0000000000000000E+00 
    2.5000000000000000E-01     6.2500000000161415E-01     0.0000000000000000E+00 
    2.5000000000000000E-01     3.7500000000140910E-01     0.0000000000000000E+00 
    2.5000000000000000E-01     6.8750000000080713E-01     0.0000000000000000E+00 
    2.5000000000000000E-01     5.6250000000139733E-01     0.0000000000000000E+00 
    2.5000000000000000E-01     4.3750000000129469E-01     0.0000000000000000E+00 
    2.5000000000000000E-01     3.1250000000070460E-01     0.0000000000000000E+00 
    3.7499999999934702E-01     1.2500000000000000E-01     0.0000000000000000E+00 
    1.2500000000000000E-01     1.2500000000000000E-01     0.0000000000000000E+00 
    1.2500000000000000E-01     3.7500000000102962E-01     0.0000000000000000E+00 
    8.7500000000000000E-01     1.2500000000000000E-01     0.0000000000000000E+00 
    6.2499999999934697E-01     1.2500000000000000E-01     0.0000000000000000E+00 
    8.7500000000000000E-01     3.7499999999934702E-01     0.0000000000000000E+00 
    8.7500000000000000E-01     6.2499999999934697E-01     0.0000000000000000E+00 
    1.2500000000000000E-01     6.2500000000102962E-01     0.0000000000000000E+00 
    1.2500000000000000E-01     8.7500000000000000E-01     0.0000000000000000E+00 
    8.7500000000000000E-01     8.7500000000000000E-01     0.0000000000000000E+00 
    6.2500000000102962E-01     8.7500000000000000E-01     0.0000000000000000E+00 
    3.7500000000102962E-01     8.7500000000000000E-01     0.0000000000000000E+00 
    2.4999999999957681E-01     8.3333333333333329E-02     0.0000000000000000E+00 
    8.3333333333333329E-02     2.5000000000068640E-01     0.0000000000000000E+00 
    7.4999999999956468E-01     8.3333333333333329E-02     0.0000000000000000E+00 
    4.9999999999951827E-01     1.6666666666666671E-01     0.0000000000000000E+00 
    9.1666666666666674E-01     2.4999999999957681E-01     0.0000000000000000E+00 
    8.3333333333333337E-01     4.9999999999951827E-01     0.0000000000000000E+00 
    1.6666666666666671E-01     5.0000000000088307E-01     0.0000000000000000E+00 
    8.3333333333333329E-02     7.5000000000070155E-01     0.0000000000000000E+00 
    9.1666666666666674E-01     7.4999999999956468E-01     0.0000000000000000E+00 
    5.0000000000088307E-01     8.3333333333333348E-01     0.0000000000000000E+00 
    2.5000000000068640E-01     9.1666666666666674E-01     0.0000000000000000E+00 
    7.5000000000070155E-01     9.1666666666666674E-01     0.0000000000000000E+00 
[...]
CELL_DATA 768 
SCALARS Pressure double 1 
LOOKUP_TABLE default 

    3.4153608981851322E+00 
    3.3159985018584730E+00 
    3.2821034186402303E+00 
    3.3458060189881227E+00 
    3.2443380168264500E+00 
    3.1811692046544984E+00 
    3.1751517790822255E+00 
    3.2276539199474121E+00 
    3.2095587505350478E+00 
    3.1676609320990616E+00 
    3.1588583052252077E+00 
    3.1903804824783881E+00 
    3.2912718545499708E+00 
    3.2500802519118213E+00 
    3.2190699284086342E+00 
    3.2452257416667636E+00 
    3.1173252961546951E+00 
    3.0506936735746120E+00 
    3.0633899234401492E+00 
    3.1204592061802661E+00 
    2.9801982573331651E+00 
    2.9055316248877245E+00 
    2.9404105932852196E+00 
    3.0035147428033357E+00 
    3.0253147164448202E+00 
    2.9737108235267948E+00 
    3.0048460253059792E+00 
    3.0452368078336431E+00 
    3.1222538229485441E+00 
    3.0746955696752116E+00 
    3.0844227704407889E+00 
    3.1227188080415478E+00 
    3.2027635696070256E+00 
    3.1846960987468984E+00 
    3.1486878325090299E+00 
    3.1633195059106582E+00 
    3.1626209385708801E+00 
    3.1368071808860627E+00 
    3.1030343449980515E+00 
    3.1283286953836269E+00 
    3.0951770527924469E+00 
    3.0692496112709646E+00 
    3.0351436322603131E+00 
    3.0629353675099851E+00 
    3.1280877700257750E+00 
    3.1152572984825184E+00 
    3.0846883177397024E+00 
    3.0983441058440055E+00 
    3.4154033591102850E+00 
    3.3458585648455790E+00 
    3.2822634951539640E+00 
    3.3161588874397117E+00 
    3.2913348456241645E+00 
    3.2452903545277501E+00 
    3.2192115018935339E+00 
    3.2502267101202773E+00 
    3.2097266546796814E+00 
    3.1904918253565242E+00 
    3.1589197434718495E+00 
    3.1677847695131143E+00 
    3.2445497064172768E+00 
    3.2278454754577672E+00 
    3.1753319181276130E+00 
    3.1813643237078733E+00 
    3.2028272528029489E+00 
    3.1633343451828475E+00 
    3.1486741601690875E+00 
    3.1848097761621883E+00 
    3.1280031092655816E+00 
    3.0982187876194027E+00 
    3.0842747550813843E+00 
    3.1150387340905361E+00 
    3.0947592607996768E+00 
    3.0620938131869968E+00 
    3.0339126003018415E+00 
    3.0685649940959965E+00 
    3.1626801288330681E+00 
    3.1282014495335169E+00 
    3.1027564117507347E+00 
    3.1367675687567198E+00 
    3.1173489181819241E+00 
    3.1204693163041970E+00 
    3.0629240405792721E+00 
    3.0501349790325771E+00 
    3.1222237102135311E+00 
    3.1226287456543149E+00 
    3.0840164419165372E+00 
    3.0742577183753839E+00 
    3.0243157975808224E+00 
    3.0443387072240249E+00 
    3.0033387996602805E+00 
    2.9720786988576031E+00 
    2.9789196765743964E+00 
    3.0023930418640647E+00 
    2.9386593425727159E+00 
    2.9036395386448852E+00 
    2.7825992990199642E+00 
    2.6966088593371844E+00 
    2.6654487924550390E+00 
    2.7422450915922791E+00 
    2.6048704699733394E+00 
    2.5006134866369587E+00 
    2.4912314370545121E+00 
    2.5831650971979410E+00 
    2.5580223884895248E+00 
    2.4789199883018531E+00 
    2.4639432236191916E+00 
    2.5280674130660041E+00 
    2.6991947423768630E+00 
    2.6311894157382087E+00 
    2.5914930059953227E+00 
    2.6507829651177559E+00 
    2.4024235927332658E+00 
    2.3287628872353698E+00 
    2.3378706157916911E+00 
    2.4054825336134731E+00 
    2.2760848795731490E+00 
    2.2454453863351902E+00 
    2.2506639580653043E+00 
    2.2859106983808171E+00 
    2.2934379025537019E+00 
    2.2545559144937029E+00 
    2.2573085338459773E+00 
    2.2987552653812608E+00 
    2.4061352644593055E+00 
    2.3442235038302655E+00 
    2.3480366460528335E+00 
    2.4043376621798771E+00 
    2.5901103998803805E+00 
    2.5335287084004223E+00 
    2.4560405226135278E+00 
    2.5132727071852883E+00 
    2.4761890537167486E+00 
    2.4243515458451759E+00 
    2.3652187386423935E+00 
    2.4057601710125169E+00 
    2.3360834465716804E+00 
    2.3105154060138080E+00 
    2.2612704099443106E+00 
    2.2694241580736962E+00 
    2.4222013149747257E+00 
    2.3712698852308747E+00 
    2.2821992508361011E+00 
    2.3092165338768029E+00 
    2.8451186838177822E+00 
    2.8011096403314171E+00 
    2.8439488540095375E+00 
    2.8867525769660349E+00 
    2.7547315569958344E+00 
    2.7039951276577301E+00 
    2.7515591934875765E+00 
    2.7991908879580394E+00 
    2.8423925201939637E+00 
    2.7971619261872331E+00 
    2.8411122702552278E+00 
    2.8843873498565880E+00 
    2.9268197849006512E+00 
    2.8855353695272266E+00 
    2.9256869493005797E+00 
    2.9650040931722756E+00 
    2.6492767919237421E+00 
    2.5885412028444361E+00 
    2.6691024376030454E+00 
    2.7083619840095436E+00 
    2.5222613172829083E+00 
    2.4545636859752960E+00 
    2.5819405614422033E+00 
    2.6250536973073584E+00 
    2.7181993713307926E+00 
    2.6944625607880393E+00 
    2.7924796454942715E+00 
    2.8004923951676530E+00 
    2.7634218351305329E+00 
    2.7422508215650470E+00 
    2.8084087710179997E+00 
    2.8151754152876713E+00 
    2.9981629680171382E+00 
    2.9565330119384035E+00 
    2.9787894558385966E+00 
    3.0259433444976782E+00 
    2.9120229125567922E+00 
    2.8646448829032485E+00 
    2.8694077350545824E+00 
    2.9266494833854222E+00 
    2.9411938278607401E+00 
    2.8742556267675310E+00 
    2.8790286445403264E+00 
    2.9551544064368636E+00 
    3.0503952935463956E+00 
    2.9997102148483727E+00 
    3.0189377794805186E+00 
    3.0713620163530768E+00 
    2.2382215454494276E+00 
    2.2070483523185094E+00 
    2.1967687288458340E+00 
    2.2325521677422597E+00 
    2.1538900858730998E+00 
    2.0805445935619655E+00 
    2.0775529438694851E+00 
    2.1445491022490564E+00 
    2.1376819174205082E+00 
    2.0768239556324839E+00 
    2.0782609126744176E+00 
    2.1331191642140883E+00 
    2.2278477814558388E+00 
    2.1885506078817909E+00 
    2.1821533198391765E+00 
    2.2239467851801793E+00 
    1.9913736648967799E+00 
    1.8907272804063520E+00 
    1.9131393848676448E+00 
    1.9996511750368555E+00 
    1.7827607536646479E+00 
    1.6702810211498049E+00 
    1.7241311662948979E+00 
    1.8205475992815108E+00 
    1.8596428743797084E+00 
    1.7787080391025933E+00 
    1.8347830858040568E+00 
    1.9008600818962764E+00 
    2.0099389805469112E+00 
    1.9374125775174589E+00 
    1.9639257648681172E+00 
    2.0224293507949413E+00 
    2.2181084828161985E+00 
    2.1686981799689957E+00 
    2.1412515336529716E+00 
    2.2075242416370919E+00 
    2.1149648624961679E+00 
    2.0586353142892517E+00 
    2.0101084755503624E+00 
    2.0748622107198949E+00 
    2.0267718484319679E+00 
    1.9560786531663077E+00 
    1.8975940836876439E+00 
    1.9698852840542003E+00 
    2.1922344517448864E+00 
    2.1050607934466283E+00 
    2.0540979311927843E+00 
    2.1645506638026779E+00 
    2.0206550094723776E+00 
    1.9541085633358570E+00 
    1.8472878979304452E+00 
    1.8904145821086189E+00 
    1.8918287984467863E+00 
    1.8323850018919245E+00 
    1.7634186753515835E+00 
    1.8050017415508950E+00 
    1.7193104450269230E+00 
    1.6943533732124489E+00 
    1.6252419193674119E+00 
    1.6341460836410640E+00 
    1.7686963018113802E+00 
    1.7440435449689720E+00 
    1.6427057667375202E+00 
    1.6508576503791683E+00 
    1.7711950968127463E+00 
    1.7076407454583367E+00 
    1.6475459496853970E+00 
    1.7109273773494094E+00 
    1.6445926351937459E+00 
    1.5815280521658968E+00 
    1.5199121277665246E+00 
    1.5839661294255816E+00 
    1.5231366808741931E+00 
    1.4584833917946174E+00 
    1.3980716240553055E+00 
    1.4624209956853915E+00 
    1.6501808509472411E+00 
    1.5868664586544738E+00 
    1.5260233627275828E+00 
    1.5890885499487031E+00 
    1.5351138997458924E+00 
    1.5422321661239846E+00 
    1.4425689193728271E+00 
    1.4210219305910647E+00 
    1.5489574543776257E+00 
    1.5553601245262674E+00 
    1.4850012581409822E+00 
    1.4637459170369909E+00 
    1.3793380725727757E+00 
    1.4143934292256659E+00 
    1.3435982209029764E+00 
    1.2962175065084782E+00 
    1.3120906043564415E+00 
    1.3452168932643127E+00 
    1.2526697894775274E+00 
    1.2137239049657551E+00 
    3.0711102125911363E+00 
    3.0177270074750844E+00 
    2.9980293622347824E+00 
    3.0495553389022869E+00 
    2.9525343233140586E+00 
    2.8759660630350643E+00 
    2.8713934044733760E+00 
    2.9385596468696638E+00 
    2.9240979099634865E+00 
    2.8666536372637159E+00 
    2.8617956518974315E+00 
    2.9094220150856769E+00 
    3.0245403599799685E+00 
    2.9767432519276285E+00 
    2.9542672027490053E+00 
    2.9963597384485321E+00 
    2.7901103000671816E+00 
    2.6937575587093585E+00 
    2.7165486371100549E+00 
    2.7979036268701898E+00 
    2.5857096607441017E+00 
    2.4622009828317322E+00 
    2.5284317108039671E+00 
    2.6273316586287518E+00 
    2.6693247742868480E+00 
    2.5932681054496274E+00 
    2.6505844108008940E+00 
    2.7066480716749890E+00 
    2.8055697285845258E+00 
    2.7397037536050859E+00 
    2.7604040382104063E+00 
    2.8121446313348208E+00 
    2.9629488119027281E+00 
    2.9231994890279469E+00 
    2.8829468867331962E+00 
    2.9247091454772183E+00 
    2.8815826641480067E+00 
    2.8380853594892725E+00 
    2.7939853450958827E+00 
    2.8394551941960007E+00 
    2.7961086299786819E+00 
    2.7485851253450351E+00 
    2.7019847585723737E+00 
    2.7517158718403381E+00 
    2.8845702689154655E+00 
    2.8413219927249158E+00 
    2.7984446163067109E+00 
    2.8429241653852135E+00 
    2.7805022096907024E+00 
    2.7401680316397341E+00 
    2.6655939810261220E+00 
    2.6961287571604315E+00 
    2.6973776975344665E+00 
    2.6512202592174070E+00 
    2.5960692621998547E+00 
    2.6325202890059387E+00 
    2.5649723331487073E+00 
    2.5380812574414477E+00 
    2.4754511130831816E+00 
    2.4894757615064393E+00 
    2.6085377380317247E+00 
    2.5879999891064540E+00 
    2.5004024360829891E+00 
    2.5088714558116396E+00 
    2.5954958695380825E+00 
    2.5209698146091419E+00 
    2.4648899052614062E+00 
    2.5426569321502406E+00 
    2.4306214578544907E+00 
    2.3193765676571085E+00 
    2.2932949108420924E+00 
    2.3812771486889357E+00 
    2.3465829228182957E+00 
    2.2798461521710607E+00 
    2.2707317464725119E+00 
    2.3201385472623968E+00 
    2.4874253461236231E+00 
    2.4154545161752505E+00 
    2.3746439068021461E+00 
    2.4341693603431627E+00 
    2.4105059455905269E+00 
    2.4137069393398196E+00 
    2.3458596114161692E+00 
    2.3364771356881402E+00 
    2.4145555821264488E+00 
    2.4131123798738181E+00 
    2.3568271533112624E+00 
    2.3525530748441779E+00 
    2.3015886520244120E+00 
    2.3074925618469475E+00 
    2.2659082248956772E+00 
    2.2625949676516521E+00 
    2.2835462886300908E+00 
    2.2936487514165296E+00 
    2.2582640274221339E+00 
    2.2528511681141037E+00 
    1.4908292822063836E+00 
    1.3687537183461200E+00 
    1.3283747620840045E+00 
    1.4354924906006423E+00 
    1.2405035935454822E+00 
    1.1010923158863561E+00 
    1.0944548505902505E+00 
    1.2159786545753062E+00 
    1.1940989599034550E+00 
    1.0912511511227359E+00 
    1.0914283762888985E+00 
    1.1755439952617348E+00 
    1.3811438364597364E+00 
    1.2897989837074142E+00 
    1.2540029182307619E+00 
    1.3288823607283355E+00 
    9.4066797441001937E-01 
    7.3948255236231542E-01 
    7.9905812653956865E-01 
    9.5828946078361066E-01 
    4.5469721890969267E-01 
    0.0000000000000000E+00 
    3.2570736128434907E-01 
    5.9806075688287497E-01 
    7.2293735680087801E-01 
    5.6361202687380596E-01 
    7.4248702358235541E-01 
    8.3144888678216589E-01 
    9.7971651992836395E-01 
    8.5959126767120331E-01 
    9.1896394079616617E-01 
    1.0039739289736231E+00 
    1.2760030386748700E+00 
    1.2092869042320136E+00 
    1.1581436995725845E+00 
    1.2252401816605101E+00 
    1.1382130339530496E+00 
    1.0605529580499458E+00 
    9.9733164442508715E-01 
    1.0831674711425725E+00 
    1.0356979592546425E+00 
    9.3794977699846216E-01 
    8.8477245788213588E-01 
    9.9904121484588237E-01 
    1.1841764578614071E+00 
    1.1168418970883924E+00 
    1.0893808964517739E+00 
    1.1584673220553474E+00 
    2.0289913224409415E+00 
    1.8968083133175107E+00 
    1.8530359770891243E+00 
    1.9616607189737707E+00 
    1.7727327962616402E+00 
    1.6527328895080728E+00 
    1.6444456136867420E+00 
    1.7477230583912240E+00 
    1.7226536587210763E+00 
    1.6359148807056252E+00 
    1.6271850671106129E+00 
    1.6976093673337118E+00 
    1.8986551191209364E+00 
    1.8101772656830231E+00 
    1.7681350413560981E+00 
    1.8385433623987659E+00 
    1.5355388246530379E+00 
    1.4216264340163065E+00 
    1.4432067438539979E+00 
    1.5428613005762499E+00 
    1.3132319971469821E+00 
    1.2151499884221695E+00 
    1.2544436942026538E+00 
    1.3464791246061398E+00 
    1.3807837035908983E+00 
    1.2983531825929704E+00 
    1.3460849890790667E+00 
    1.4162576200351740E+00 
    1.5499272675955522E+00 
    1.4647847725352270E+00 
    1.4864408224081158E+00 
    1.5568065020596702E+00 
    1.7767263465598011E+00 
    1.7151517510660332E+00 
    1.6512668577696195E+00 
    1.7125686777069420E+00 
    1.6531431638686691E+00 
    1.5910591948771593E+00 
    1.5279002682792187E+00 
    1.5895484368797554E+00 
    1.5258615586508277E+00 
    1.4645956371249416E+00 
    1.4008118021897180E+00 
    1.4616401608963492E+00 
    1.6491371248971165E+00 
    1.5875442766279741E+00 
    1.5235599350078461E+00 
    1.5857906881858543E+00 
    2.1739656332965303E+00 
    2.0627992720786761E+00 
    2.1144565414562440E+00 
    2.2022990663357391E+00 
    1.9779280752301855E+00 
    1.9050025289820267E+00 
    1.9644728277775376E+00 
    2.0356863224520878E+00 
    2.0842840154004763E+00 
    2.0192684370956413E+00 
    2.0682263557223903E+00 
    2.1246288429234146E+00 
    2.2175038184704534E+00 
    2.1509992568722192E+00 
    2.1783321335157595E+00 
    2.2276000037587051E+00 
    1.8416400741473344E+00 
    1.7849883843770140E+00 
    1.8673963495970003E+00 
    1.9088976376019300E+00 
    1.7298615181142516E+00 
    1.6753826878194260E+00 
    1.7896471324943364E+00 
    1.8278928708914775E+00 
    1.9219679719284970E+00 
    1.8993704411237247E+00 
    2.0011490770480282E+00 
    2.0093858160760725E+00 
    1.9728772595687458E+00 
    1.9463151271493369E+00 
    2.0196057623849248E+00 
    2.0319891105557248E+00 
    2.2327498196122453E+00 
    2.1913648374678401E+00 
    2.1974446220873429E+00 
    2.2361611052155892E+00 
    2.1426788498691720E+00 
    2.0880279127219254E+00 
    2.0866962892553835E+00 
    2.1471843044448407E+00 
    2.1539293430678375E+00 
    2.0875417151434195E+00 
    2.0906134154762155E+00 
    2.1631937822098233E+00 
    2.2404365452157586E+00 
    2.2053806138664807E+00 
    2.2154012405173917E+00 
    2.2458206299577390E+00 
    1.1591712346707410E+00 
    1.0901612985239972E+00 
    1.1189887774924532E+00 
    1.1860311970287862E+00 
    9.9990113506375811E-01 
    8.8561042141806601E-01 
    9.4036275157080740E-01 
    1.0381212165644398E+00 
    1.0868251931030883E+00 
    1.0011490449812475E+00 
    1.0653812505707640E+00 
    1.1427216918976630E+00 
    1.2278974608866544E+00 
    1.1614110399617072E+00 
    1.2132023202056272E+00 
    1.2792064248765540E+00 
    7.4327339334652909E-01 
    5.6426609223024227E-01 
    7.2535607958345183E-01 
    8.3385274248102648E-01 
    3.2608303667398458E-01 
    0.0000000000000000E+00 
    4.5638716652654887E-01 
    6.0018302646991684E-01 
    8.0326715102695345E-01 
    7.4337328842268979E-01 
    9.4659593835441092E-01 
    9.6409769272404833E-01 
    9.2286370334773538E-01 
    8.6369782623663649E-01 
    9.8521663110206747E-01 
    1.0089811525905834E+00 
    1.3323543618495524E+00 
    1.2582333136643387E+00 
    1.2942803926112134E+00 
    1.3848531786310980E+00 
    1.1805134657061931E+00 
    1.0968797799042684E+00 
    1.0972059789249888E+00 
    1.1994652716950194E+00 
    1.2214926429184316E+00 
    1.1007189284555043E+00 
    1.1074442403231299E+00 
    1.2459664354869378E+00 
    1.4393507290696037E+00 
    1.3328922717635578E+00 
    1.3731563918139489E+00 
    1.4947645565017000E+00 
    2.2780391252346588E+00 
    2.4149215225448328E+00 
    2.4011440348673689E+00 
    2.2746710894437694E+00 
    2.5469130429360582E+00 
    2.6720810786056823E+00 
    2.6395427470640440E+00 
    2.5232270686770955E+00 
    2.5026195707108858E+00 
    2.6095060102591070E+00 
    2.5812209923728275E+00 
    2.4844286284167687E+00 
    2.2736511638654164E+00 
    2.3904345310110369E+00 
    2.3822352734410379E+00 
    2.2746908769572225E+00 
    2.7861441746056865E+00 
    2.8884150583908594E+00 
    2.8332028913677383E+00 
    2.7422336307978492E+00 
    2.9795125878236233E+00 
    3.0576759097574127E+00 
    2.9972846089403595E+00 
    2.9183866417819839E+00 
    2.8540057703010300E+00 
    2.9280137649850029E+00 
    2.8489281499783554E+00 
    2.7850521679093281E+00 
    2.6999171169290204E+00 
    2.7779613074917200E+00 
    2.7214950490271241E+00 
    2.6583086311838406E+00 
    2.2844072536194608E+00 
    2.3949408400429153E+00 
    2.4315494717070205E+00 
    2.3052488116023704E+00 
    2.4974498330863137E+00 
    2.5929249171624802E+00 
    2.6456864972862859E+00 
    2.5440001671310393E+00 
    2.5952396469177672E+00 
    2.7008021512792744E+00 
    2.7583909026595954E+00 
    2.6518997450970225E+00 
    2.3331976285575480E+00 
    2.4747723294373016E+00 
    2.5266354447578609E+00 
    2.3732967842460924E+00 
    2.1383178164882621E+00 
    1.9978811809962713E+00 
    2.0154812981205494E+00 
    2.1453130715860396E+00 
    1.8586209121787585E+00 
    1.7220046683059695E+00 
    1.7611992720162708E+00 
    1.8871227905630863E+00 
    1.9148353715424282E+00 
    1.7995879918369455E+00 
    1.8376138114737508E+00 
    1.9421437201724017E+00 
    2.1532046392837398E+00 
    2.0328445325459179E+00 
    2.0500824098050101E+00 
    2.1617885038379461E+00 
    1.5921036760783460E+00 
    1.4694473560850363E+00 
    1.5428437356141882E+00 
    1.6467660468140084E+00 
    1.3524018590136369E+00 
    1.2423445325633746E+00 
    1.3434556490711933E+00 
    1.4416646285110633E+00 
    1.5334168118028795E+00 
    1.4512428142920319E+00 
    1.5636793156804349E+00 
    1.6276335392254055E+00 
    1.7009686093668661E+00 
    1.6167513959032589E+00 
    1.6915299178147538E+00 
    1.7552386212355515E+00 
    2.1633111420622080E+00 
    2.0472203949161156E+00 
    2.0208098745153165E+00 
    2.1543601825627134E+00 
    1.9376209822164221E+00 
    1.8329432836787567E+00 
    1.7843193681805725E+00 
    1.8988619058210860E+00 
    1.8568055825311980E+00 
    1.7343583945477887E+00 
    1.6830623705599814E+00 
    1.8107883498193964E+00 
    2.1380245374800242E+00 
    1.9886278299732500E+00 
    1.9480330592434756E+00 
    2.1079703007002011E+00 
    2.3804300248583425E+00 
    2.5302513661156136E+00 
    2.4773175527125275E+00 
    2.3382839783470586E+00 
    2.6516660604771021E+00 
    2.7563515771103830E+00 
    2.6993311632798229E+00 
    2.5952819318017326E+00 
    2.5442141628827661E+00 
    2.6447217902234224E+00 
    2.5923759345253763E+00 
    2.4977695949475565E+00 
    2.3087638743902708E+00 
    2.4333961531020107E+00 
    2.3962780180008116E+00 
    2.2867567150816317E+00 
    2.8458208021788192E+00 
    2.9250540248582517E+00 
    2.8517735152796568E+00 
    2.7827619067383385E+00 
    2.9958794468684316E+00 
    3.0574924431785044E+00 
    2.9791513942805135E+00 
    2.9170654257567614E+00 
    2.8321316006552530E+00 
    2.8880335679764828E+00 
    2.7858466705881479E+00 
    2.7414925445624849E+00 
    2.7198991196724176E+00 
    2.7763849969099716E+00 
    2.6988980802060376E+00 
    2.6572842502048926E+00 
    2.2760907994538160E+00 
    2.3830202119835757E+00 
    2.3907767352702227E+00 
    2.2743896151218919E+00 
    2.4845467498982980E+00 
    2.5807038827113522E+00 
    2.6089165695041769E+00 