# vtk DataFile Version 2.0
Pressure Field Data 
ASCII 
DATASET UNSTRUCTURED_GRID 

POINTS 801 double 

    0.0000000000000000E+00     0.0000000000000000E+00     0.0000000000000000E+00 
    1.0000000000000000E+00     0.0000000000000000E+00     0.0000000000000000E+00 
    1.0000000000000000E+00     1.0000000000000000E+00     0.0000000000000000E+00 
    0.0000000000000000E+00     1.0000000000000000E+00     0.0000000000000000E+00 
    2.5000000000000000E-01     2.5000000000000000E-01     0.0000000000000000E+00 
    7.5000000000000000E-01     2.5000000000000000E-01     0.0000000000000000E+00 
    7.5000000000000000E-01     7.5000000000000000E-01     0.0000000000000000E+00 
    2.5000000000000000E-01     7.5000000000000000E-01     0.0000000000000000E+00 
    2.4999999999941941E-01     0.0000000000000000E+00     0.0000000000000000E+00 
    4.9999999999869399E-01     0.0000000000000000E+00     0.0000000000000000E+00 
    7.4999999999934697E-01     0.0000000000000000E+00     0.0000000000000000E+00 
    1.2499999999977940E-01     0.0000000000000000E+00     0.0000000000000000E+00 
    3.7499999999905670E-01     0.0000000000000000E+00     0.0000000000000000E+00 
    6.2499999999902045E-01     0.0000000000000000E+00     0.0000000000000000E+00 
    8.7499999999967348E-01     0.0000000000000000E+00     0.0000000000000000E+00 
    6.2499999999889699E-02     0.0000000000000000E+00     0.0000000000000000E+00 
    1.8749999999959940E-01     0.0000000000000000E+00     0.0000000000000000E+00 
    3.1249999999923811E-01     0.0000000000000000E+00     0.0000000000000000E+00 
    4.3749999999887529E-01     0.0000000000000000E+00     0.0000000000000000E+00 
    5.6249999999885725E-01     0.0000000000000000E+00     0.0000000000000000E+00 
    6.8749999999918376E-01     0.0000000000000000E+00     0.0000000000000000E+00 
    8.1249999999951017E-01     0.0000000000000000E+00     0.0000000000000000E+00 
    9.3749999999983680E-01     0.0000000000000000E+00     0.0000000000000000E+00 
    1.0000000000000000E+00     2.4999999999941941E-01     0.0000000000000000E+00 
    1.0000000000000000E+00     4.9999999999869399E-01     0.0000000000000000E+00 
    1.0000000000000000E+00     7.4999999999934697E-01     0.0000000000000000E+00 
    1.0000000000000000E+00     1.2499999999977940E-01     0.0000000000000000E+00 
    1.0000000000000000E+00     3.7499999999905670E-01     0.0000000000000000E+00 
    1.0000000000000000E+00     6.2499999999902045E-01     0.0000000000000000E+00 
    1.0000000000000000E+00     8.7499999999967348E-01     0.0000000000000000E+00 
    1.0000000000000000E+00     6.2499999999889699E-02     0.0000000000000000E+00 
    1.0000000000000000E+00     1.8749999999959940E-01     0.0000000000000000E+00 
    1.0000000000000000E+00     3.1249999999923811E-01     0.0000000000000000E+00 
    1.0000000000000000E+00     4.3749999999887529E-01     0.0000000000000000E+00 
    1.0000000000000000E+00     5.6249999999885725E-01     0.0000000000000000E+00 
    1.0000000000000000E+00     6.8749999999918376E-01     0.0000000000000000E+00 
    1.0000000000000000E+00     8.1249999999951017E-01     0.0000000000000000E+00 
    1.0000000000000000E+00     9.3749999999983680E-01     0.0000000000000000E+00 
    7.5000000000112044E-01     1.0000000000000000E+00     0.0000000000000000E+00 
    5.0000000000205913E-01     1.0000000000000000E+00     0.0000000000000000E+00 
    2.5000000000102962E-01     1.0000000000000000E+00     0.0000000000000000E+00 
    8.7499999999991362E-01     1.0000000000000000E+00     0.0000000000000000E+00 
    6.2499999999988309E-01     1.0000000000000000E+00     0.0000000000000000E+00 
    3.7499999999869987E-01     1.0000000000000000E+00     0.0000000000000000E+00 
    1.2499999999880820E-01     1.0000000000000000E+00     0.0000000000000000E+00 
    9.3749999999995681E-01     1.0000000000000000E+00     0.0000000000000000E+00 
    8.1250000000051703E-01     1.0000000000000000E+00     0.0000000000000000E+00 
    6.8750000000050182E-01     1.0000000000000000E+00     0.0000000000000000E+00 
    5.6250000000097111E-01     1.0000000000000000E+00     0.0000000000000000E+00 
    4.3750000000037947E-01     1.0000000000000000E+00     0.0000000000000000E+00 
    3.1249999999986477E-01     1.0000000000000000E+00     0.0000000000000000E+00 
    1.8749999999991890E-01     1.0000000000000000E+00     0.0000000000000000E+00 
    6.2499999999404102E-02     1.0000000000000000E+00     0.0000000000000000E+00 
    0.0000000000000000E+00     7.5000000000112044E-01     0.0000000000000000E+00 
    0.0000000000000000E+00     5.0000000000205913E-01     0.0000000000000000E+00 
    0.0000000000000000E+00     2.5000000000102962E-01     0.0000000000000000E+00 
    0.0000000000000000E+00     8.7499999999991362E-01     0.0000000000000000E+00 
    0.0000000000000000E+00     6.2499999999988309E-01     0.0000000000000000E+00 
    0.0000000000000000E+00     3.7499999999869987E-01     0.0000000000000000E+00 
    0.0000000000000000E+00     1.2499999999880820E-01     0.0000000000000000E+00 
    0.0000000000000000E+00     9.3749999999995681E-01     0.0000000000000000E+00 
    0.0000000000000000E+00     8.1250000000051703E-01     0.0000000000000000E+00 
    0.0000000000000000E+00     6.8750000000050182E-01     0.0000000000000000E+00 
    0.0000000000000000E+00     5.6250000000097111E-01     0.0000000000000000E+00 
    0.0000000000000000E+00     4.3750000000037947E-01     0.0000000000000000E+00 
    0.0000000000000000E+00     3.1249999999986477E-01     0.0000000000000000E+00 
    0.0000000000000000E+00     1.8749999999991890E-01     0.0000000000000000E+00 
    0.0000000000000000E+00     6.2499999999404102E-02     0.0000000000000000E+00 
    4.9999999999972200E-01     2.5000000000000000E-01     0.0000000000000000E+00 
    3.7500000000067490E-01     2.5000000000000000E-01     0.0000000000000000E+00 
    6.2500000000042988E-01     2.5000000000000000E-01     0.0000000000000000E+00 
    3.1250000000033751E-01     2.5000000000000000E-01     0.0000000000000000E+00 
    4.3750000000019851E-01     2.5000000000000000E-01     0.0000000000000000E+00 
    5.6250000000007594E-01     2.5000000000000000E-01     0.0000000000000000E+00 
    6.8750000000021494E-01     2.5000000000000000E-01     0.0000000000000000E+00 
    7.5000000000000000E-01     4.9999999999972200E-01     0.0000000000000000E+00 
    7.5000000000000000E-01     3.7500000000067490E-01     0.0000000000000000E+00 
    7.5000000000000000E-01     6.2500000000042988E-01     0.0000000000000000E+00 
    7.5000000000000000E-01     3.1250000000033751E-01     0.0000000000000000E+00 
    7.5000000000000000E-01     4.3750000000019851E-01     0.0000000000000000E+00 
    7.5000000000000000E-01     5.6250000000007594E-01     0.0000000000000000E+00 
    7.5000000000000000E-01     6.8750000000021494E-01     0.0000000000000000E+00 
    5.0000000000118039E-01     7.5000000000000000E-01     0.0000000000000000E+00 
    6.2500000000161415E-01     7.5000000000000000E-01     0.0000000000000000E+00 
    3.7500000000140910E-01     7.5000000000000000E-01     0.0000000000000000E+00 
    6.8750000000080713E-01     7.5000000000000000E-01     0.0000000000000000E+00 
    5.6250000000139733E-01     7.5000000000000000E-01     0.0000000000000000E+00 
    4.3750000000129469E-01     7.5000000000000000E-01     0.0000000000000000E+00 
    3.1250000000070460E-01     7.5000000000000000E-01     0.0000000000000000E+00 
    2.5000000000000000E-01     5.0000000000118039E-01     0.0000000000000000E+00 
    2.5000000000000000E-01     6.2500000000161415E-01     0.0000000000000000E+00 
    2.5000000000000000E-01     3.7500000000140910E-01     0.0000000000000000E+00 
    2.5000000000000000E-01     6.8750000000080713E-01     0.0000000000000000E+00 
    2.5000000000000000E-01     5.6250000000139733E-01     0.0000000000000000E+00 
    2.5000000000000000E-01     4.3750000000129469E-01     0.0000000000000000E+00 
    2.5000000000000000E-01     3.1250000000070460E-01     0.0000000000000000E+00 
    3.7499999999934702E-01     1.2500000000000000E-01     0.0000000000000000E+00 
    1.2500000000000000E-01     1.2500000000000000E-01     0.0000000000000000E+00 
    1.2500000000000000E-01     3.7500000000102962E-01     0.0000000000000000E+00 
    8.7500000000000000E-01     1.2500000000000000E-01     0.0000000000000000E+00 
    6.2499999999934697E-01     1.2500000000000000E-01     0.0000000000000000E+00 
    8.7500000000000000E-01     3.7499999999934702E-01     0.0000000000000000E+00 
    8.7500000000000000E-01     6.2499999999934697E-01     0.0000000000000000E+00 
    1.2500000000000000E-01     6.2500000000102962E-01     0.0000000000000000E+00 
    1.2500000000000000E-01     8.7500000000000000E-01     0.0000000000000000E+00 
    8.7500000000000000E-01     8.7500000000000000E-01     0.0000000000000000E+00 
    6.2500000000102962E-01     8.7500000000000000E-01     0.0000000000000000E+00 
    3.7500000000102962E-01     8.7500000000000000E-01     0.0000000000000000E+00 
    2.4999999999957681E-01     8.3333333333333329E-02     0.0000000000000000E+00 
    8.3333333333333329E-02     2.5000000000068640E-01     0.0000000000000000E+00 
    7.4999999999956468E-01     8.3333333333333329E-02     0.0000000000000000E+00 
    4.9999999999951827E-01     1.6666666666666671E-01     0.0000000000000000E+00 
    9.1666666666666674E-01     2.4999999999957681E-01     0.0000000000000000E+00 
    8.3333333333333337E-01     4.9999999999951827E-01     0.0000000000000000E+00 
    1.6666666666666671E-01     5.0000000000088307E-01     0.0000000000000000E+00 
    8.3333333333333329E-02     7.5000000000070155E-01     0.0000000000000000E+00 
    9.1666666666666674E-01     7.4999999999956468E-01     0.0000000000000000E+00 
    5.0000000000088307E-01     8.3333333333333348E-01     0.0000000000000000E+00 
    2.5000000000068640E-01     9.1666666666666674E-01     0.0000000000000000E+00 
    7.5000000000070155E-01     9.1666666666666674E-01     0.0000000000000000E+00 
[...]
CELL_DATA 768 
SCALARS Pressure double 1 
LOOKUP_TABLE default 

    1.8789111637145617E+00 
    1.7859381701695090E+00 
    1.7561206813332111E+00 
    1.8127656153782647E+00 
    1.7255043862493318E+00 
    1.6799281356149327E+00 
    1.6759168841224741E+00 
    1.7125861701057605E+00 
    1.6993199359180855E+00 
    1.6710655609614453E+00 
    1.6655389836706740E+00 
    1.6860692851463432E+00 
    1.7637787814796109E+00 
    1.7297487196441237E+00 
    1.7062626921675645E+00 
    1.7260361181800661E+00 
    1.6403304173627644E+00 
    1.6028128062031408E+00 
    1.6097984147089770E+00 
    1.6421811882855688E+00 
    1.5653470270609298E+00 
    1.5269800713820914E+00 
    1.5447727121476500E+00 
    1.5775934623240970E+00 
    1.5891893421871397E+00 
    1.5619296905027822E+00 
    1.5781593979215067E+00 
    1.5999146292852935E+00 
    1.6432666333428680E+00 
    1.6160990207889379E+00 
    1.6215719782856268E+00 
    1.6435862721270922E+00 
    1.6948516836826184E+00 
    1.6823609190852640E+00 
    1.6593356732825173E+00 
    1.6686290266001562E+00 
    1.6679048535364731E+00 
    1.6519227528060438E+00 
    1.6321068675848651E+00 
    1.6469274316348836E+00 
    1.6276589345650021E+00 
    1.6130480882061626E+00 
    1.5942606249460722E+00 
    1.6094837750779891E+00 
    1.6469947259651041E+00 
    1.6393157785193677E+00 
    1.6217981319694776E+00 
    1.6298687333807318E+00 
    1.8789552460680503E+00 
    1.8128242454020955E+00 
    1.7563263940654210E+00 
    1.7861330335397210E+00 
    1.7638485097717731E+00 
    1.7261040485444579E+00 
    1.7064499942801696E+00 
    1.7299482548291054E+00 
    1.6996278635664595E+00 
    1.6863309233385222E+00 
    1.6658364790859743E+00 
    1.6714115148280222E+00 
    1.7258323555953874E+00 
    1.7129089876888826E+00 
    1.6763015881743419E+00 
    1.6803229143498088E+00 
    1.6949189847082560E+00 
    1.6686848571384532E+00 
    1.6594719548581713E+00 
    1.6825320647017263E+00 
    1.6470197948142413E+00 
    1.6299027782490270E+00 
    1.6218187945997615E+00 
    1.6393853409858217E+00 
    1.6277096879601913E+00 
    1.6093885779198347E+00 
    1.5940306020479054E+00 
    1.6130155851887780E+00 
    1.6681305029244804E+00 
    1.6470812483217905E+00 
    1.6322303792446802E+00 
    1.6521503095015238E+00 
    1.6406501055956548E+00 
    1.6424872325080382E+00 
    1.6098813532472895E+00 
    1.6028572005609156E+00 
    1.6435397626194757E+00 
    1.6438103241822415E+00 
    1.6216530139908860E+00 
    1.6161796187233131E+00 
    1.5890352496437439E+00 
    1.5997952505940429E+00 
    1.5778046386023226E+00 
    1.5615243746821765E+00 
    1.5651011886080941E+00 
    1.5773976305683566E+00 
    1.5443476368967459E+00 
    1.5265400016519410E+00 
    1.4655229665425002E+00 
    1.4242130592652302E+00 
    1.4099427154530275E+00 
    1.4459502814048963E+00 
    1.3831217852264681E+00 
    1.3438467436589854E+00 
    1.3404584311879439E+00 
    1.3743543507042788E+00 
    1.3646820019859913E+00 
    1.3361043565435136E+00 
    1.3307048229861480E+00 
    1.3538543778667840E+00 
    1.4256218146197781E+00 
    1.3948538985820991E+00 
    1.3785691115179082E+00 
    1.4041185328056036E+00 
    1.3084612422982895E+00 
    1.2790849364421608E+00 
    1.2825472811155849E+00 
    1.3094541714467158E+00 
    1.2575724731704943E+00 
    1.2447340905146562E+00 
    1.2466288669049221E+00 
    1.2613488988698367E+00 
    1.2639291890380657E+00 
    1.2476126814528428E+00 
    1.2478709242161885E+00 
    1.2654388189300767E+00 
    1.3093756441284727E+00 
    1.2847221728584952E+00 
    1.2857774299074145E+00 
    1.3082522135110841E+00 
    1.3793394497700162E+00 
    1.3563488889992990E+00 
    1.3272028468806205E+00 
    1.3499336103089683E+00 
    1.3349410760354987E+00 
    1.3156785351431102E+00 
    1.2923264151114282E+00 
    1.3080793261563370E+00 
    1.2798716499416989E+00 
    1.2696708991004164E+00 
    1.2485214573541175E+00 
    1.2510707190189185E+00 
    1.3146227280227902E+00 
    1.2940236321816065E+00 
    1.2558889974108050E+00 
    1.2670614785468002E+00 
    1.4965557448482374E+00 
    1.4746047426418400E+00 
    1.4958467312474206E+00 
    1.5174116089669321E+00 
    1.4519360065083564E+00 
    1.4282855086564876E+00 
    1.4507440509173328E+00 
    1.4736749679625880E+00 
    1.4950811797197023E+00 
    1.4728839306482375E+00 
    1.4945028254213395E+00 
    1.5159702443242753E+00 
    1.5376737958625641E+00 
    1.5166532239873798E+00 
    1.5368341107923877E+00 
    1.5571469513525029E+00 
    1.4047367931381480E+00 
    1.3811485046451926E+00 
    1.4151808850928069E+00 
    1.4311238193108946E+00 
    1.3557288880363318E+00 
    1.3278497174146107E+00 
    1.3815064482260235E+00 
    1.3986564738177669E+00 
    1.4384317694780435E+00 
    1.4291344415765848E+00 
    1.4728662223216504E+00 
    1.4757818631363619E+00 
    1.4568889305421437E+00 
    1.4477113198231737E+00 
    1.4788111345789816E+00 
    1.4818958489892466E+00 
    1.5742860545408315E+00 
    1.5524078641650334E+00 
    1.5636917683603417E+00 
    1.5890026636541474E+00 
    1.5296942722650875E+00 
    1.5061225373732963E+00 
    1.5084070337954871E+00 
    1.5367826863269436E+00 
    1.5437749702402013E+00 
    1.5107427671726859E+00 
    1.5131364590444261E+00 
    1.5506936779532909E+00 
    1.6024085375422465E+00 
    1.5744836776456270E+00 
    1.5848191622268457E+00 
    1.6143804764613998E+00 
    1.2415432080966202E+00 
    1.2267851835093619E+00 
    1.2217284247946105E+00 
    1.2386953716280984E+00 
    1.2013177261141925E+00 
    1.1657616490059548E+00 
    1.1642279729827696E+00 
    1.1966953938316858E+00 
    1.1930487101593563E+00 
    1.1636710254748239E+00 
    1.1640631334585592E+00 
    1.1903634395733500E+00 
    1.2358773023357807E+00 
    1.2173345209617348E+00 
    1.2135959938471004E+00 
    1.2331409797483983E+00 
    1.1222336246277469E+00 
    1.0721287255652658E+00 
    1.0833997859621025E+00 
    1.1263307822266388E+00 
    1.0173471925874671E+00 
    9.5908902668554630E-01 
    9.8721907259821295E-01 
    1.0367178028113062E+00 
    1.0563794245897011E+00 
    1.0152524476100420E+00 
    1.0435937304110550E+00 
    1.0767921413332890E+00 
    1.1312106538866564E+00 
    1.0953294037478420E+00 
    1.1081522631902192E+00 
    1.1369966308582040E+00 
    1.2293390756518605E+00 
    1.2064129335276055E+00 
    1.1925516218745458E+00 
    1.2232391366434632E+00 
    1.1811224927683681E+00 
    1.1542699497590927E+00 
    1.1304479837491028E+00 
    1.1613611526087626E+00 
    1.1377030513538924E+00 
    1.1037878923149025E+00 
    1.0747610379800017E+00 
    1.1098171385118272E+00 
    1.2148047262848150E+00 
    1.1744912842670872E+00 
    1.1495977511616302E+00 
    1.2002510363216012E+00 
    1.1342302182506638E+00 
    1.1020893867953481E+00 
    1.0490982873088186E+00 
    1.0703407681925412E+00 
    1.0715970499180238E+00 
    1.0421430101836837E+00 
    1.0071710698625851E+00 
    1.0280673897618375E+00 
    9.8441084177515281E-01 
    9.7169639992222756E-01 
    9.3572415692989497E-01 
    9.4028545371243510E-01 
    1.0093065429569192E+00 
    9.9691771180036659E-01 
    9.4463832547462068E-01 
    9.4877059121288276E-01 
    1.0113680651261552E+00 
    9.7890460131041812E-01 
    9.4768813172709709E-01 
    9.8045111637188431E-01 
    9.4633118983043485E-01 
    9.1303541423652257E-01 
    8.8028479159482986E-01 
    9.1441083084243169E-01 
    8.8197659200441259E-01 
    8.4719561602307447E-01 
    8.1428174457024016E-01 
    8.4929549054295250E-01 
    9.4892353504515103E-01 
    9.1578508981127060E-01 
    8.8345640619185473E-01 
    9.1686677418293461E-01 
    8.8819809288093898E-01 
    8.9199613918630938E-01 
    8.3837030086333308E-01 
    8.2658505229049239E-01 
    8.9557503294183849E-01 
    8.9898847512072599E-01 
    8.6140778999952750E-01 
    8.4989122342816226E-01 
    8.0384897963568480E-01 
    8.2314213134082426E-01 
    7.8422022600152030E-01 
    7.5774691853070864E-01 
    7.6632288461662823E-01 
    7.8491768996997024E-01 
    7.3307084397328948E-01 
    7.1046678566979149E-01 
    1.6145518408641282E+00 
    1.5845197054404672E+00 
    1.5739853746891221E+00 
    1.6023135802607829E+00 
    1.5497166305401393E+00 
    1.5115342576103588E+00 
    1.5092858893179464E+00 
    1.5427544959942865E+00 
    1.5357580140778706E+00 
    1.5070842315150772E+00 
    1.5049267931385364E+00 
    1.5286960607182705E+00 
    1.5886992366183732E+00 
    1.5630463561702015E+00 
    1.5516740247419825E+00 
    1.5738203666354986E+00 
    1.4712874531480169E+00 
    1.4282596473852462E+00 
    1.4375117978460135E+00 
    1.4743539488481461E+00 
    1.3815132957254210E+00 
    1.3283305969176871E+00 
    1.3559181512452971E+00 
    1.3983830500739103E+00 
    1.4147224521165866E+00 
    1.3810804824821254E+00 
    1.4044807744526713E+00 
    1.4305713874636978E+00 
    1.4775086000002213E+00 
    1.4467784225228040E+00 
    1.4559905705442919E+00 
    1.4807230407612733E+00 
    1.5565598594396832E+00 
    1.5360182145409726E+00 
    1.5158746385292310E+00 
    1.5370869511480414E+00 
    1.5149720265497391E+00 
    1.4934036137371456E+00 
    1.4719900885345771E+00 
    1.4942105754225552E+00 
    1.4729899801996136E+00 
    1.4501251078941531E+00 
    1.4278874167945885E+00 
    1.4514319612700608E+00 
    1.5168663117665449E+00 
    1.4952103974762596E+00 
    1.4740804797283416E+00 
    1.4960752950109899E+00 
    1.4651037377611509E+00 
    1.4455467457629334E+00 
    1.4096989550072914E+00 
    1.4239316167557885E+00 
    1.4252831343409154E+00 
    1.4039079080151977E+00 
    1.3785099650929789E+00 
    1.3946801040714343E+00 
    1.3646255603091066E+00 
    1.3538697130358270E+00 
    1.3307321373337806E+00 
    1.3360420732046980E+00 
    1.3829586215181282E+00 
    1.3742201676293315E+00 
    1.3403174452408595E+00 
    1.3436444972074939E+00 
    1.3792949268122670E+00 
    1.3500945260361050E+00 
    1.3274377488472793E+00 
    1.3564123017572656E+00 
    1.3149688872223890E+00 
    1.2675129629763586E+00 
    1.2563562627138323E+00 
    1.2943854640130388E+00 
    1.2801825469639054E+00 
    1.2514553951127427E+00 
    1.2487298105386182E+00 
    1.2698392477339213E+00 
    1.3350470077427965E+00 
    1.3082996066131740E+00 
    1.2924619179234691E+00 
    1.3157586326949249E+00 
    1.3081934576095151E+00 
    1.3092461835151421E+00 
    1.2821703359414443E+00 
    1.2785821394451131E+00 
    1.3092459394164047E+00 
    1.3082189144811471E+00 
    1.2857256719791470E+00 
    1.2844932012101116E+00 
    1.2636061922408068E+00 
    1.2653460971630972E+00 
    1.2477775251674923E+00 
    1.2472729128221467E+00 
    1.2569354131730266E+00 
    1.2608458166890790E+00 
    1.2460752925430958E+00 
    1.2440808451144469E+00 
    8.6514013863840578E-01 
    7.9845921856295532E-01 
    7.7605190884678343E-01 
    8.3512311053016941E-01 
    7.2682181695718251E-01 
    6.4730753187210754E-01 
    6.4351272358454725E-01 
    7.1294534795584519E-01 
    7.0052103545791877E-01 
    6.4172474862154760E-01 
    6.4192356616538193E-01 
    6.8998168790033987E-01 
    8.0521225311747369E-01 
    7.5446684398315134E-01 
    7.3433712850209276E-01 
    7.7619243243091507E-01 
    5.5464548858576113E-01 
    4.3687278858445905E-01 
    4.7251649794068890E-01 
    5.6519343357546303E-01 
    2.6893308671230937E-01 
    0.0000000000000000E+00 
    1.9563829670900293E-01 
    3.5509568670726499E-01 
    4.2834753817345778E-01 
    3.3466230393110213E-01 
    4.3909735829230373E-01 
    4.9159588656929171E-01 
    5.7779619980363373E-01 
    5.0809296280264038E-01 
    5.4264550515770571E-01 
    5.9181498866068694E-01 
    7.4661383933001990E-01 
    7.0910156062458329E-01 
    6.8005558370994901E-01 
    7.1799838403950977E-01 
    6.6876389796043689E-01 
    6.2433806976959982E-01 
    5.8791987114899247E-01 
    6.3727188520880818E-01 
    6.0974601099905401E-01 
    5.5330169553179642E-01 
    5.2194863484375154E-01 
    5.8810737531173096E-01 
    6.9442348836723067E-01 
    6.5621207974707041E-01 
    6.3981409204444784E-01 
    6.7869536556155685E-01 
    1.1350523125007603E+00 
    1.0702608611522915E+00 
    1.0487131093850928E+00 
    1.1024961931590083E+00 
    1.0079943046331872E+00 
    9.4639302236629697E-01 
    9.4239043922422450E-01 
    9.9552885908637034E-01 
    9.8295549240285318E-01 
    9.3819706183026486E-01 
    9.3382474073128441E-01 
    9.7028389900934531E-01 
    1.0716609837388473E+00 
    1.0274293025494941E+00 
    1.0063521697967592E+00 
    1.0419176295338375E+00 
    8.8557293092182410E-01 
    8.2496253386437191E-01 
    8.3664302454874706E-01 
    8.8959064882414229E-01 
    7.6588115012858138E-01 
    7.1073121671617678E-01 
    7.3312408639621518E-01 
    7.8419046929172598E-01 
    8.0292003352649455E-01 
    7.5760241818115048E-01 
    7.8391555196930351E-01 
    8.2217864567557908E-01 
    8.9341317396014419E-01 
    8.4825228700467581E-01 
    8.5986554177561070E-01 
    8.9709996186213536E-01 
    1.0109086278755810E+00 
    9.7947170101986403E-01 
    9.4662224201687173E-01 
    9.7826579878533559E-01 
    9.4748288593204100E-01 
    9.1512841237317744E-01 
    8.8194521385333002E-01 
    9.1442846277165357E-01 
    8.8090429275710691E-01 
    8.4823003943368414E-01 
    8.1379582562223463E-01 
    8.4662458052371514E-01 
    9.4569666181952361E-01 
    9.1350414999353546E-01 
    8.7968358928156032E-01 
    9.1252754109720824E-01 
    1.2008138339168932E+00 
    1.1501719434456719E+00 
    1.1751359662590775E+00 
    1.2153749148692281E+00 
    1.1102556212337740E+00 
    1.0750055709572803E+00 
    1.1043717779064461E+00 
    1.1383676297349405E+00 
    1.1621059628172010E+00 
    1.1312667021709590E+00 
    1.1551600928694574E+00 
    1.1818700730347536E+00 
    1.2237308405101770E+00 
    1.1932200438846117E+00 
    1.2069748803075002E+00 
    1.2296807152073945E+00 
    1.0436653367890052E+00 
    1.0151149096682150E+00 
    1.0568274253362984E+00 
    1.0773152192910167E+00 
    9.8689587645303112E-01 
    9.5861654815514319E-01 
    1.0174643522987723E+00 
    1.0370138164770175E+00 
    1.0843032336751182E+00 
    1.0729929042184825E+00 
    1.1234474793396740E+00 
    1.1274925784547676E+00 
    1.1089929019537248E+00 
    1.0962121977049251E+00 
    1.1322997883659662E+00 
    1.1379865326330789E+00 
    1.2332133991239376E+00 
    1.2139650101088146E+00 
    1.2175467098648052E+00 
    1.2357166293113617E+00 
    1.1910373762632074E+00 
    1.1649952803629933E+00 
    1.1646729995936826E+00 
    1.1936974543003183E+00 
    1.1972665418622206E+00 
    1.1652979545698048E+00 
    1.1668703549326742E+00 
    1.2018206941215062E+00 
    1.2383036337348050E+00 
    1.2217765961984928E+00 
    1.2266736468016011E+00 
    1.2409925171864267E+00 
    6.7885529425089541E-01 
    6.4007190939969238E-01 
    6.5686649024613186E-01 
    6.9478859933966985E-01 
    5.8845698502597221E-01 
    5.2232931131495208E-01 
    5.5432677577819767E-01 
    6.1066904019579171E-01 
    6.3856842901463462E-01 
    5.8945734114512061E-01 
    6.2616491350544079E-01 
    6.7023411513856657E-01 
    7.1841056290778793E-01 
    6.8097826720055932E-01 
    7.1005578589303153E-01 
    7.4696266297766423E-01 
    4.3947534048956433E-01 
    3.3497694613642359E-01 
    4.2945917238191289E-01 
    4.9267593003492921E-01 
    1.9581696158125397E-01 
    0.0000000000000000E+00 
    2.6965262971847442E-01 
    3.5605847621603781E-01 
    4.7439731791083567E-01 
    4.3858686698414001E-01 
    5.5718175810224979E-01 
    5.6765551578993467E-01 
    5.4431247529220605E-01 
    5.0989939126950590E-01 
    5.8008088936878521E-01 
    5.9383347233076766E-01 
    7.7636911415971799E-01 
    7.3519692044909968E-01 
    7.5526299044319656E-01 
    8.0524705834016252E-01 
    6.9148997860954764E-01 
    6.4392049722480327E-01 
    6.4393690263228409E-01 
    7.0212191113463562E-01 
    7.1452022233501977E-01 
    6.4586098568605377E-01 
    6.4968241455443032E-01 
    7.2827802381052120E-01 
    8.3499956049150459E-01 
    7.7669393569259337E-01 
    7.9888481522153776E-01 
    8.6485171132813921E-01 
    1.2362324782131859E+00 
    1.3011251442850731E+00 
    1.2948762175687303E+00 
    1.2351236855641359E+00 
    1.3635468840092528E+00 
    1.4227704514144861E+00 
    1.4072906448524063E+00 
    1.3524358712980005E+00 
    1.3429248900547239E+00 
    1.3930761847852704E+00 
    1.3798866005914179E+00 
    1.3348079658155825E+00 
    1.2354965217641658E+00 
    1.2903250574641254E+00 
    1.2872978393491910E+00 
    1.2372675868788801E+00 
    1.4769737645094909E+00 
    1.5259697058289781E+00 
    1.4989611187983924E+00 
    1.4558529509809097E+00 
    1.5702444816854395E+00 
    1.6099811250538991E+00 
    1.5784103923277779E+00 
    1.5395498448040603E+00 
    1.5077546210135857E+00 
    1.5434312002579571E+00 
    1.5054403073148257E+00 
    1.4747751963138656E+00 
    1.4355977599338003E+00 
    1.4721819015402904E+00 
    1.4453547779979492E+00 
    1.4159423206715933E+00 
    1.2435748277287582E+00 
    1.2944078337024034E+00 
    1.3128967009516785E+00 
    1.2555943343361566E+00 
    1.3415169417396888E+00 
    1.3855829129236397E+00 
    1.4102140304464081E+00 
    1.3637494167670055E+00 
    1.3881559462850739E+00 
    1.4357776249743546E+00 
    1.4636778537585438E+00 
    1.4168903704678351E+00 
    1.2716545654523426E+00 
    1.3349374747320877E+00 
    1.3641432765673407E+00 
    1.2977997115097770E+00 
    1.1694591356364195E+00 
    1.1020391930767339E+00 
    1.1107957281789471E+00 
    1.1730574524445045E+00 
    1.0345740281507527E+00 
    9.6760932127347488E-01 
    9.8722082180625115E-01 
    1.0487353240101434E+00 
    1.0629022160926946E+00 
    1.0067527368515048E+00 
    1.0263273544581779E+00 
    1.0771748493520081E+00 
    1.1775183130971434E+00 
    1.1198621989809401E+00 
    1.1292253154655878E+00 
    1.1827175541480062E+00 
    9.0298655464014821E-01 
    8.4091860062899715E-01 
    8.7887958248359399E-01 
    9.3069921238553632E-01 
    7.8044432390182361E-01 
    7.2194202090506865E-01 
    7.7721313972479467E-01 
    8.2775154550419860E-01 
    8.7617619733080088E-01 
    8.3529917832835687E-01 
    8.9486784216044413E-01 
    9.2541640667110414E-01 
    9.5841228243409637E-01 
    9.1719814702898073E-01 
    9.5586012917787333E-01 
    9.8626841175143809E-01 
    1.1849141029142498E+00 
    1.1292066542525216E+00 
    1.1181624927454148E+00 
    1.1824057940728248E+00 
    1.0762360201127603E+00 
    1.0251511999757050E+00 
    1.0026801314334020E+00 
    1.0590013960807847E+00 
    1.0404647637355962E+00 
    9.7976107524734368E-01 
    9.5625846068228171E-01 
    1.0201051854945808E+00 
    1.1765136854404092E+00 
    1.1045685246201831E+00 
    1.0868209188397735E+00 
    1.1640027463512059E+00 
    1.2982926198551479E+00 
    1.3641391049275537E+00 
    1.3346783224507288E+00 
    1.2717885570161958E+00 
    1.4160254511645816E+00 
    1.4621052422870375E+00 
    1.4345308186247505E+00 
    1.3873618942525239E+00 
    1.3630235752234399E+00 
    1.4092167589574007E+00 
    1.3847928164214658E+00 
    1.3408840995847999E+00 
    1.2554045172938177E+00 
    1.3124862978898459E+00 
    1.2939248103715995E+00 
    1.2431750381303983E+00 
    1.5038375332218761E+00 
    1.5424557977227036E+00 
    1.5068847343682388E+00 
    1.4735153204836404E+00 
    1.5781203299251376E+00 
    1.6101325816434588E+00 
    1.5702155064413781E+00 
    1.5391618074231110E+00 
    1.4985535709101510E+00 
    1.5258617703505726E+00 
    1.4768529587224650E+00 
    1.4554922781101718E+00 
    1.4443550088325197E+00 
    1.4714438133294356E+00 
    1.4350014422263238E+00 
    1.4151584999283875E+00 
    1.2367517089347848E+00 
    1.2867866244588804E+00 
    1.2898802515581864E+00 
    1.2350123133046682E+00 
    1.3342349035896690E+00 
    1.3792260041579201E+00 
    1.3925620702766492E+00 