# vtk DataFile Version 2.0
Pressure Field Data 
ASCII 
DATASET UNSTRUCTURED_GRID 

POINTS 801 double 

    0.0000000000000000E+00     0.0000000000000000E+00     0.0000000000000000E+00 
    1.0000000000000000E+00     0.0000000000000000E+00     0.0000000000000000E+00 
    1.0000000000000000E+00     1.0000000000000000E+00     0.0000000000000000E+00 
    0.0000000000000000E+00     1.0000000000000000E+00     0.0000000000000000E+00 
    2.5000000000000000E-01     2.5000000000000000E-01     0.0000000000000000E+00 
    7.5000000000000000E-01     2.5000000000000000E-01     0.0000000000000000E+00 
    7.5000000000000000E-01     7.5000000000000000E-01     0.0000000000000000E+00 
    2.5000000000000000E-01     7.5000000000000000E-01     0.0000000000000000E+00 
    2.4999999999941941E-01     0.0000000000000000E+00     0.0000000000000000E+00 
    4.9999999999869399E-01     0.0000000000000000E+00     0.0000000000000000E+00 
    7.4999999999934697E-01     0.0000000000000000E+00     0.0000000000000000E+00 
    1.2499999999977940E-01     0.0000000000000000E+00     0.0000000000000000E+00 
    3.7499999999905670E-01     0.0000000000000000E+00     0.0000000000000000E+00 
    6.2499999999902045E-01     0.0000000000000000E+00     0.0000000000000000E+00 
    8.7499999999967348E-01     0.0000000000000000E+00     0.0000000000000000E+00 
    6.2499999999889699E-02     0.0000000000000000E+00     0.0000000000000000E+00 
    1.8749999999959940E-01     0.0000000000000000E+00     0.0000000000000000E+00 
    3.1249999999923811E-01     0.0000000000000000E+00     0.0000000000000000E+00 
    4.3749999999887529E-01     0.0000000000000000E+00     0.0000000000000000E+00 
    5.6249999999885725E-01     0.0000000000000000E+00     0.0000000000000000E+00 
    6.8749999999918376E-01     0.0000000000000000E+00     0.0000000000000000E+00 
    8.1249999999951017E-01     0.0000000000000000E+00     0.0000000000000000E+00 
    9.3749999999983680E-01     0.0000000000000000E+00     0.0000000000000000E+00 
    1.0000000000000000E+00     2.4999999999941941E-01     0.0000000000000000E+00 
    1.0000000000000000E+00     4.9999999999869399E-01     0.0000000000000000E+00 
    1.0000000000000000E+00     7.4999999999934697E-01     0.0000000000000000E+00 
    1.0000000000000000E+00     1.2499999999977940E-01     0.0000000000000000E+00 
    1.0000000000000000E+00     3.7499999999905670E-01     0.0000000000000000E+00 
    1.0000000000000000E+00     6.2499999999902045E-01     0.0000000000000000E+00 
    1.0000000000000000E+00     8.7499999999967348E-01     0.0000000000000000E+00 
    1.0000000000000000E+00     6.2499999999889699E-02     0.0000000000000000E+00 
    1.0000000000000000E+00     1.8749999999959940E-01     0.0000000000000000E+00 
    1.0000000000000000E+00     3.1249999999923811E-01     0.0000000000000000E+00 
    1.0000000000000000E+00     4.3749999999887529E-01     0.0000000000000000E+00 
    1.0000000000000000E+00     5.6249999999885725E-01     0.0000000000000000E+00 
    1.0000000000000000E+00     6.8749999999918376E-01     0.0000000000000000E+00 
    1.0000000000000000E+00     8.1249999999951017E-01     0.0000000000000000E+00 
    1.0000000000000000E+00     9.3749999999983680E-01     0.0000000000000000E+00 
    7.5000000000112044E-01     1.0000000000000000E+00     0.0000000000000000E+00 
    5.0000000000205913E-01     1.0000000000000000E+00     0.0000000000000000E+00 
    2.5000000000102962E-01     1.0000000000000000E+00     0.0000000000000000E+00 
    8.7499999999991362E-01     1.0000000000000000E+00     0.0000000000000000E+00 
    6.2499999999988309E-01     1.0000000000000000E+00     0.0000000000000000E+00 
    3.7499999999869987E-01     1.0000000000000000E+00     0.0000000000000000E+00 
    1.2499999999880820E-01     1.0000000000000000E+00     0.0000000000000000E+00 
    9.3749999999995681E-01     1.0000000000000000E+00     0.0000000000000000E+00 
    8.1250000000051703E-01     1.0000000000000000E+00     0.0000000000000000E+00 
    6.8750000000050182E-01     1.0000000000000000E+00     0.0000000000000000E+00 
    5.6250000000097111E-01     1.0000000000000000E+00     0.0000000000000000E+00 
    4.3750000000037947E-01     1.0000000000000000E+00     0.0000000000000000E+00 
    3.1249999999986477E-01     1.0000000000000000E+00     0.0000000000000000E+00 
    1.8749999999991890E-01     1.0000000000000000E+00     0.0000000000000000E+00 
    6.2499999999404102E-02     1.0000000000000000E+00     0.0000000000000000E+00 
    0.0000000000000000E+00     7.5000000000112044E-01     0.0000000000000000E+00 
    0.0000000000000000E+00     5.0000000000205913E-01     0.0000000000000000E+00 
    0.0000000000000000E+00     2.5000000000102962E-01     0.0000000000000000E+00 
    0.0000000000000000E+00     8.7499999999991362E-01     0.0000000000000000E+00 
    0.0000000000000000E+00     6.2499999999988309E-01     0.0000000000000000E+00 
    0.0000000000000000E+00     3.7499999999869987E-01     0.0000000000000000E+00 
    0.0000000000000000E+00     1.2499999999880820E-01     0.0000000000000000E+00 
    0.0000000000000000E+00     9.3749999999995681E-01     0.0000000000000000E+00 
    0.0000000000000000E+00     8.1250000000051703E-01     0.0000000000000000E+00 
    0.0000000000000000E+00     6.8750000000050182E-01     0.0000000000000000E+00 
    0.0000000000000000E+00     5.6250000000097111E-01     0.0000000000000000E+00 
    0.0000000000000000E+00     4.3750000000037947E-01     0.0000000000000000E+00 
    0.0000000000000000E+00     3.1249999999986477E-01     0.0000000000000000E+00 
    0.0000000000000000E+00     1.8749999999991890E-01     0.0000000000000000E+00 
    0.0000000000000000E+00     6.2499999999404102E-02     0.0000000000000000E+00 
    4.9999999999972200E-01     2.5000000000000000E-01     0.0000000000000000E+00 
    3.7500000000067490E-01     2.5000000000000000E-01     0.0000000000000000E+00 
    6.2500000000042988E-01     2.5000000000000000E-01     0.0000000000000000E+00 
    3.1250000000033751E-01     2.5000000000000000E-01     0.0000000000000000E+00 
    4.3750000000019851E-01     2.5000000000000000E-01     0.0000000000000000E+00 
    5.6250000000007594E-01     2.5000000000000000E-01     0.0000000000000000E+00 
    6.8750000000021494E-01     2.5000000000000000E-01     0.0000000000000000E+00 
    7.5000000000000000E-01     4.9999999999972200E-01     0.0000000000000000E+00 
    7.5000000000000000E-01     3.7500000000067490E-01     0.0000000000000000E+00 
    7.5000000000000000E-01     6.2500000000042988E-01     0.0000000000000000E+00 
    7.5000000000000000E-01     3.1250000000033751E-01     0.0000000000000000E+00 
    7.5000000000000000E-01     4.3750000000019851E-01     0.0000000000000000E+00 
    7.5000000000000000E-01     5.6250000000007594E-01     0.0000000000000000E+00 
    7.5000000000000000E-01     6.8750000000021494E-01     0.0000000000000000E+00 
    5.0000000000118039E-01     7.5000000000000000E-01     0.0000000000000000E+00 
    6.2500000000161415E-01     7.5000000000000000E-01     0.0000000000000000E+00 
    3.7500000000140910E-01     7.5000000000000000E-01     0.0000000000000000E+00 
    6.8750000000080713E-01     7.5000000000000000E-01     0.0000000000000000E+00 
    5.6250000000139733E-01     7.5000000000000000E-01     0.0000000000000000E+00 
    4.3750000000129469E-01     7.5000000000000000E-01     0.0000000000000000E+00 
    3.1250000000070460E-01     7.5000000000000000E-01     0.0000000000000000E+00 
    2.5000000000000000E-01     5.0000000000118039E-01     0.0000000000000000E+00 
    2.5000000000000000E-01     6.2500000000161415E-01     0.0000000000000000E+00 
    2.5000000000000000E-01     3.7500000000140910E-01     0.0000000000000000E+00 
    2.5000000000000000E-01     6.8750000000080713E-01     0.0000000000000000E+00 
    2.5000000000000000E-01     5.6250000000139733E-01     0.0000000000000000E+00 
    2.5000000000000000E-01     4.3750000000129469E-01     0.0000000000000000E+00 
    2.5000000000000000E-01     3.1250000000070460E-01     0.0000000000000000E+00 
    3.7499999999934702E-01     1.2500000000000000E-01     0.0000000000000000E+00 
    1.2500000000000000E-01     1.2500000000000000E-01     0.0000000000000000E+00 
    1.2500000000000000E-01     3.7500000000102962E-01     0.0000000000000000E+00 
    8.7500000000000000E-01     1.2500000000000000E-01     0.0000000000000000E+00 
    6.2499999999934697E-01     1.2500000000000000E-01     0.0000000000000000E+00 
    8.7500000000000000E-01     3.7499999999934702E-01     0.0000000000000000E+00 
    8.7500000000000000E-01     6.2499999999934697E-01     0.0000000000000000E+00 
    1.2500000000000000E-01     6.2500000000102962E-01     0.0000000000000000E+00 
    1.2500000000000000E-01     8.7500000000000000E-01     0.0000000000000000E+00 
    8.7500000000000000E-01     8.7500000000000000E-01     0.0000000000000000E+00 
    6.2500000000102962E-01     8.7500000000000000E-01     0.0000000000000000E+00 
    3.7500000000102962E-01     8.7500000000000000E-01     0.0000000000000000E+00 
    2.4999999999957681E-01     8.3333333333333329E-02     0.0000000000000000E+00 
    8.3333333333333329E-02     2.5000000000068640E-01     0.0000000000000000E+00 
    7.4999999999956468E-01     8.3333333333333329E-02     0.0000000000000000E+00 
    4.9999999999951827E-01     1.6666666666666671E-01     0.0000000000000000E+00 
    9.1666666666666674E-01     2.4999999999957681E-01     0.0000000000000000E+00 
    8.3333333333333337E-01     4.9999999999951827E-01     0.0000000000000000E+00 
    1.6666666666666671E-01     5.0000000000088307E-01     0.0000000000000000E+00 
    8.3333333333333329E-02     7.5000000000070155E-01     0.0000000000000000E+00 
    9.1666666666666674E-01     7.4999999999956468E-01     0.0000000000000000E+00 
    5.0000000000088307E-01     8.3333333333333348E-01     0.0000000000000000E+00 
    2.5000000000068640E-01     9.1666666666666674E-01     0.0000000000000000E+00 
    7.5000000000070155E-01     9.1666666666666674E-01     0.0000000000000000E+00 
[...]
CELL_DATA 768 
SCALARS Pressure double 1 
LOOKUP_TABLE default 

    2.1710910381517086E+00 
    2.0774656461761927E+00 
    2.0472528018085310E+00 
    2.1045994172206952E+00 
    2.0159149136656462E+00 
    1.9685906999314065E+00 
    1.9643829557559229E+00 
    2.0026362980778076E+00 
    1.9889135859503357E+00 
    1.9592781072207825E+00 
    1.9534418184592703E+00 
    1.9751024872820231E+00 
    2.0550908487110768E+00 
    2.0203527836664783E+00 
    1.9961611096494700E+00 
    2.0165767053211185E+00 
    1.9264918054161637E+00 
    1.8858519793528778E+00 
    1.8934701417127651E+00 
    1.9284854763417110E+00 
    1.8447276337187493E+00 
    1.8021951037885009E+00 
    1.8219487600866322E+00 
    1.8582189517703449E+00 
    1.8709583066117903E+00 
    1.8409340142355655E+00 
    1.8588335363416761E+00 
    1.8827109424005068E+00 
    1.9296621908705527E+00 
    1.9003324882904418E+00 
    1.9062889056984809E+00 
    1.9300225443820873E+00 
    1.9843175693609572E+00 
    1.9712520514442682E+00 
    1.9469354800395999E+00 
    1.9567994617431868E+00 
    1.9560021681456270E+00 
    1.9389857092517970E+00 
    1.9177155535529840E+00 
    1.9336716653946247E+00 
    1.9129323145619972E+00 
    1.8970581795598449E+00 
    1.8765259514980863E+00 
    1.8931787036856806E+00 
    1.9337900729181070E+00 
    1.9255312280549406E+00 
    1.9065906665604584E+00 
    1.9153354049853966E+00 
    2.1711367263309849E+00 
    2.1046610422167036E+00 
    2.0474697697489832E+00 
    2.0776701066694390E+00 
    2.0551647883523496E+00 
    2.0166502173004064E+00 
    1.9963627643453210E+00 
    2.0205641277848683E+00 
    1.9892382503166426E+00 
    1.9753809750705360E+00 
    1.9537619149833652E+00 
    1.9596479084019944E+00 
    2.0162598508818679E+00 
    2.0029757328696842E+00 
    1.9647928599492244E+00 
    1.9690103989240237E+00 
    1.9843921972237231E+00 
    1.9568619928250326E+00 
    1.9470882504412361E+00 
    1.9714406142957979E+00 
    1.9338185007698474E+00 
    1.9153742900947179E+00 
    1.9066241130909394E+00 
    1.9256138164902215E+00 
    1.9130009039408071E+00 
    1.8930949068712037E+00 
    1.8763067997046265E+00 
    1.8970460030650294E+00 
    1.9562481637697100E+00 
    1.9338459449203409E+00 
    1.9178643693105883E+00 
    1.9392374668695069E+00 
    1.9268504568892482E+00 
    1.9288285262669653E+00 
    1.8935929160207543E+00 
    1.8859380255517901E+00 
    1.9299689767530799E+00 
    1.9302755206078868E+00 
    1.9063993381176201E+00 
    1.9004473837989728E+00 
    1.8708334964054154E+00 
    1.8826150245749596E+00 
    1.8584912076869800E+00 
    1.8405503020603076E+00 
    1.8445207794177416E+00 
    1.8580580821152199E+00 
    1.8215570044403588E+00 
    1.8017985917273158E+00 
    1.7333950832947083E+00 
    1.6868310123948587E+00 
    1.6706814260611653E+00 
    1.7113273234963777E+00 
    1.6403588739750286E+00 
    1.5958369482322976E+00 
    1.5919637502110939E+00 
    1.6303997081725536E+00 
    1.6193754360827752E+00 
    1.5869633917168222E+00 
    1.5807446855019278E+00 
    1.6069983166470985E+00 
    1.6883318721176193E+00 
    1.6535514781288314E+00 
    1.6350068202384307E+00 
    1.6639245215708314E+00 
    1.5556747280397487E+00 
    1.5223357995727675E+00 
    1.5262136596720275E+00 
    1.5567677299887703E+00 
    1.4979834542451009E+00 
    1.4836013189796848E+00 
    1.4856121402439848E+00 
    1.5021824733707214E+00 
    1.5049721052357949E+00 
    1.4865029129920400E+00 
    1.4865257527634481E+00 
    1.5064996598870641E+00 
    1.5566116407301043E+00 
    1.5285873536609642E+00 
    1.5296515064654297E+00 
    1.5552375141041954E+00 
    1.6357162261953460E+00 
    1.6096686612270803E+00 
    1.5763902680491477E+00 
    1.6021580014895767E+00 
    1.5854051558030244E+00 
    1.5635788671398532E+00 
    1.5369487041439835E+00 
    1.5547418578653349E+00 
    1.5224971962328866E+00 
    1.5110955018908401E+00 
    1.4869585305740924E+00 
    1.4895446449929162E+00 
    1.5617442681225935E+00 
    1.5384287431707977E+00 
    1.4947292392642786E+00 
    1.5071266373744343E+00 
    1.7682042853442219E+00 
    1.7435510124824078E+00 
    1.7673454059412350E+00 
    1.7914847778157104E+00 
    1.7179919137151849E+00 
    1.6912259321613796E+00 
    1.7165475418963763E+00 
    1.7424213732633220E+00 
    1.7664206667177496E+00 
    1.7414603270107860E+00 
    1.7657215115761358E+00 
    1.7897741686552173E+00 
    1.8140256304908375E+00 
    1.7905840575068850E+00 
    1.8130557231243858E+00 
    1.8356172935946942E+00 
    1.6644776571703426E+00 
    1.6376097836607004E+00 
    1.6761933239682634E+00 
    1.6943164310808037E+00 
    1.6086020635970810E+00 
    1.5767522929712483E+00 
    1.6378242349848244E+00 
    1.6573781238488825E+00 
    1.7024346777747752E+00 
    1.6918610598466628E+00 
    1.7412596224384389E+00 
    1.7445801570851212E+00 
    1.7233913898840851E+00 
    1.7129779579832183E+00 
    1.7480275112445478E+00 
    1.7515314197245695E+00 
    1.8545494388495816E+00 
    1.8303348044735883E+00 
    1.8428184339635927E+00 
    1.8707447314920338E+00 
    1.8050612279737070E+00 
    1.7787078694002980E+00 
    1.7812374976683594E+00 
    1.8129340793634809E+00 
    1.8206959411240480E+00 
    1.7838307833174583E+00 
    1.7864973545727407E+00 
    1.8283714049170334E+00 
    1.8854432438133555E+00 
    1.8547322517049816E+00 
    1.8661135753980127E+00 
    1.8985109957380888E+00 
    1.4800441124363604E+00 
    1.4631059260988146E+00 
    1.4571369767598992E+00 
    1.4766840218687678E+00 
    1.4336715751481663E+00 
    1.3924253664353248E+00 
    1.3905390645458797E+00 
    1.4281852948286065E+00 
    1.4237127872922151E+00 
    1.3897012926211290E+00 
    1.3899391914286925E+00 
    1.4203390928501844E+00 
    1.4731682857726773E+00 
    1.4517822122138584E+00 
    1.4471645262524917E+00 
    1.4697058238331913E+00 
    1.3419649287798021E+00 
    1.2836328765943603E+00 
    1.2966768582678676E+00 
    1.3466591947724136E+00 
    1.2196923624854186E+00 
    1.1514904785552869E+00 
    1.1843307068430662E+00 
    1.2422195272310688E+00 
    1.2649020119058876E+00 
    1.2168515496409471E+00 
    1.2496857501999172E+00 
    1.2884208743781973E+00 
    1.3521097733902803E+00 
    1.3103286682290403E+00 
    1.3249740481836563E+00 
    1.3585658151958582E+00 
    1.4649955143569895E+00 
    1.4385803529613290E+00 
    1.4222966778280861E+00 
    1.4576278324322278E+00 
    1.4094141043216557E+00 
    1.3784198015759863E+00 
    1.3506652424608994E+00 
    1.3863433943810215E+00 
    1.3587730789190606E+00 
    1.3196019912366055E+00 
    1.2857719881521088E+00 
    1.3263147368144088E+00 
    1.4476007807848486E+00 
    1.4011951597901124E+00 
    1.3722473087783220E+00 
    1.4306573690927340E+00 
    1.3543912777023497E+00 
    1.3171992554941745E+00 
    1.2555954905343081E+00 
    1.2802751342596932E+00 
    1.2818840338599651E+00 
    1.2477516784126970E+00 
    1.2069309935238404E+00 
    1.2311784327267228E+00 
    1.1801905878655858E+00 
    1.1654355428803660E+00 
    1.1232558411436977E+00 
    1.1285083142346530E+00 
    1.2091669119280213E+00 
    1.1947330268390415E+00 
    1.1335488110491252E+00 
    1.1383652249590723E+00 
    1.2120568610550488E+00 
    1.1743929773024497E+00 
    1.1377460929296961E+00 
    1.1758836279768090E+00 
    1.1367362834906878E+00 
    1.0978697971100884E+00 
    1.0590377511829376E+00 
    1.0990381251303880E+00 
    1.0605894278483576E+00 
    1.0196639479383656E+00 
    9.8048032960825571E-01 
    1.0218274892156498E+00 
    1.1389138234105771E+00 
    1.1001815047140553E+00 
    1.0620298514245761E+00 
    1.1012346746510047E+00 
    1.0671913398373987E+00 
    1.0717147433928376E+00 
    1.0085460867441249E+00 
    9.9458866170377624E-01 
    1.0760110683878106E+00 
    1.0801249394153483E+00 
    1.0359215268446715E+00 
    1.0222299116382187E+00 
    9.6784841253981091E-01 
    9.9077277282364495E-01 
    9.4470049796829858E-01 
    9.1322465445815437E-01 
    9.2335437684856059E-01 
    9.4537782241826018E-01 
    8.8394050837985561E-01 
    8.5723726428577174E-01 
    1.8986981272109096E+00 
    1.8658129898686517E+00 
    1.8542265231573192E+00 
    1.8853570814808009E+00 
    1.8273612350809820E+00 
    1.7848416863407626E+00 
    1.7823267132133589E+00 
    1.8196423002446922E+00 
    1.8118792537839443E+00 
    1.7798760169444652E+00 
    1.7774837078348840E+00 
    1.8040375200504573E+00 
    1.8704446338827707E+00 
    1.8421617285099692E+00 
    1.8295879191537145E+00 
    1.8540837438947586E+00 
    1.7396671090519737E+00 
    1.6910786621584857E+00 
    1.7015884071689995E+00 
    1.7431384503401739E+00 
    1.6380376303129507E+00 
    1.5775240340449614E+00 
    1.6090444750318946E+00 
    1.6572766097094687E+00 
    1.6758765259641339E+00 
    1.6377535168306034E+00 
    1.6643959672287012E+00 
    1.6938832438604798E+00 
    1.7467114279371794E+00 
    1.7121029796986873E+00 
    1.7225438556142973E+00 
    1.7503512140908728E+00 
    1.8350307795561895E+00 
    1.8122275663740561E+00 
    1.7898162917404721E+00 
    1.8134580624335577E+00 
    1.7887579765360535E+00 
    1.7646120186272420E+00 
    1.7406032356339760E+00 
    1.7655674716508374E+00 
    1.7417961943794082E+00 
    1.7160206848129371E+00 
    1.6909614433415534E+00 
    1.7175818651601953E+00 
    1.7909791071160182E+00 
    1.7667539654539322E+00 
    1.7430965495315209E+00 
    1.7677831287720744E+00 
    1.7330630749467681E+00 
    1.7110266806506731E+00 
    1.6705873112470859E+00 
    1.6866837859811419E+00 
    1.6881232555192895E+00 
    1.6638841565790030E+00 
    1.6351541679315229E+00 
    1.6535511417470814E+00 
    1.6195319594425570E+00 
    1.6072486594271314E+00 
    1.5810292429305914E+00 
    1.5871383372510854E+00 
    1.6403769713608445E+00 
    1.6304583656120124E+00 
    1.5920436244167855E+00 
    1.5958437498843463E+00 
    1.6358880911273050E+00 
    1.6025838315949008E+00 
    1.5769182149814762E+00 
    1.6099771066595689E+00 
    1.5623982136302048E+00 
    1.5079107765711877E+00 
    1.4955629214320081E+00 
    1.5391239472821421E+00 
    1.5231561247323575E+00 
    1.4903109016872564E+00 
    1.4875373733783928E+00 
    1.5116069870174327E+00 
    1.5857784579818366E+00 
    1.5552719501466195E+00 
    1.5373995002970953E+00 
    1.5639411784867421E+00 
    1.5556379810872711E+00 
    1.5568002341103975E+00 
    1.5260770539215316E+00 
    1.5220558827345343E+00 
    1.5567364841545168E+00 
    1.5554765814783553E+00 
    1.5298929246638484E+00 
    1.5286228977573759E+00 
    1.5049184468672996E+00 
    1.5067148525453828E+00 
    1.4867575163125299E+00 
    1.4864447812505233E+00 
    1.4975665143309804E+00 
    1.5019196652105644E+00 
    1.4853034167985772E+00 
    1.4831762701042872E+00 
    1.0417016386137137E+00 
    9.6245663380093549E-01 
    9.3557474229871174E-01 
    1.0059163282806052E+00 
    8.7691686089754195E-01 
    7.8138139546190200E-01 
    7.7682821632906707E-01 
    8.6019622409405450E-01 
    8.4521190422447778E-01 
    7.7473340694935733E-01 
    7.7505134815205257E-01 
    8.3256069447198922E-01 
    9.7005865064405472E-01 
    9.0962312961154834E-01 
    8.8550129357817908E-01 
    9.3532728801668719E-01 
    6.7022428985228144E-01 
    5.2886998290978782E-01 
    5.7223909634471137E-01 
    6.8317173863130864E-01 
    3.2616873799708285E-01 
    0.0000000000000000E+00 
    2.3966862671134687E-01 
    4.3138818723429029E-01 
    5.1930124231425001E-01 
    4.0668339080061194E-01 
    5.3206559825099187E-01 
    5.9512675407846127E-01 
    6.9840919487541009E-01 
    6.1493782185332446E-01 
    6.5633237173589565E-01 
    7.1520670798135355E-01 
    9.0005317587633982E-01 
    8.5537913001400590E-01 
    8.2073561714568388E-01 
    8.6597701735350063E-01 
    8.0721904126474775E-01 
    7.5409264626067085E-01 
    7.1055080949547833E-01 
    7.6961047802593652E-01 
    7.3673811216873664E-01 
    6.6910633798377495E-01 
    6.3149046411122611E-01 
    7.1084601544590165E-01 
    8.3797223121110598E-01 
    7.9234264931399689E-01 
    7.7285707907102053E-01 
    8.1947822387971214E-01 
    1.3555436262498917E+00 
    1.2804324194589323E+00 
    1.2554034790085091E+00 
    1.3179108434990383E+00 
    1.2079440100159868E+00 
    1.1359382021683313E+00 
    1.1312164658101023E+00 
    1.1933913078658085E+00 
    1.1787281780434469E+00 
    1.1263006641056987E+00 
    1.1212140378807132E+00 
    1.1639776814881522E+00 
    1.2822060071988857E+00 
    1.2306720426042279E+00 
    1.2061853703507128E+00 
    1.2477254149514838E+00 
    1.0644151243949531E+00 
    9.9283587664554307E-01 
    1.0066628301683385E+00 
    1.0691487397299557E+00 
    9.2285091538941810E-01 
    8.5750434684565835E-01 
    8.8399402367973501E-01 
    9.4456270491428374E-01 
    9.6678221487494509E-01 
    9.1301702541499608E-01 
    9.4426131675512415E-01 
    9.8962610040634658E-01 
    1.0736755256930861E+00 
    1.0204134824627027E+00 
    1.0341719581897413E+00 
    1.0780510028105119E+00 
    1.2117231552956800E+00 
    1.1749017013942333E+00 
    1.1365725732966847E+00 
    1.1737822269554328E+00 
    1.1373644737533353E+00 
    1.0993191373542124E+00 
    1.0602969869378427E+00 
    1.0986375711661653E+00 
    1.0592773817537364E+00 
    1.0205377818422114E+00 
    9.7980779008305419E-01 
    1.0188750949534331E+00 
    1.1360057553871976E+00 
    1.0979227101733706E+00 
    1.0581974588871854E+00 
    1.0971893212577983E+00 
    1.4315689685506114E+00 
    1.3731810605801105E+00 
    1.4022525808297153E+00 
    1.4485640918666898E+00 
    1.3270999913869450E+00 
    1.2863329026439889E+00 
    1.3206082599874807E+00 
    1.3598646823257945E+00 
    1.3875696577206182E+00 
    1.3519920185060021E+00 
    1.3798602180136623E+00 
    1.4106701597820661E+00 
    1.4585346178676624E+00 
    1.4234210572221506E+00 
    1.4396038518483678E+00 
    1.4657472449102962E+00 
    1.2500282257050728E+00 
    1.2169114069764897E+00 
    1.2657677374001668E+00 
    1.2893618769070292E+00 
    1.1840691082635590E+00 
    1.1509357500267938E+00 
    1.2200738342985120E+00 
    1.2428857880059527E+00 
    1.2981999715885666E+00 
    1.2851244682206215E+00 
    1.3439219612209679E+00 
    1.3485253032536759E+00 
    1.3263465695228500E+00 
    1.3117933852424444E+00 
    1.3538504095602288E+00 
    1.3601479182315617E+00 
    1.4701447147400233E+00 
    1.4479671486492887E+00 
    1.4523959886121582E+00 
    1.4733282617404639E+00 
    1.4215196030085513E+00 
    1.3914470044748792E+00 
    1.3913166590870178E+00 
    1.4248695045485475E+00 
    1.4292457642888097E+00 
    1.3922554391940420E+00 
    1.3941982055400708E+00 
    1.4346374080117619E+00 
    1.4765681089924296E+00 
    1.4575452981721677E+00 
    1.4633133953878747E+00 
    1.4797373877122764E+00 
    8.1964265866104735E-01 
    7.7310397881265192E-01 
    7.9303112365635409E-01 
    8.3839545292913520E-01 
    7.1117944591347382E-01 
    6.3186125681820371E-01 
    6.7014468397615967E-01 
    7.3767422087185386E-01 
    7.7092587943222812E-01 
    7.1211813144159797E-01 
    7.5591058880037620E-01 
    8.0866295777798869E-01 
    8.6639050024441189E-01 
    8.2168116063721874E-01 
    8.5628684135455313E-01 
    9.0031935529031604E-01 
    5.3241927170515857E-01 
    4.0693749704118615E-01 
    5.2036364545465796E-01 
    5.9622855193025071E-01 
    2.3973167412933269E-01 
    0.0000000000000000E+00 
    3.2653164334208956E-01 
    4.3213470810381732E-01 
    5.7399445980794550E-01 
    5.3035519713443102E-01 
    6.7267030635316138E-01 
    6.8555322622113546E-01 
    6.5804759229430265E-01 
    6.1673717599000732E-01 
    7.0066393209084621E-01 
    7.1723129907250915E-01 
    9.3537078005439045E-01 
    8.8625983483145188E-01 
    9.1028748530872838E-01 
    9.6993920562247260E-01 
    8.3398812615718354E-01 
    7.7698522246546164E-01 
    7.7683403870905121E-01 
    8.4668548716889702E-01 
    8.6158614635429442E-01 
    7.7903377017916697E-01 
    7.8359833369182352E-01 
    8.7813657065001971E-01 
    1.0056062991906007E+00 
    9.3603173510383386E-01 
    9.6264268503196704E-01 
    1.0412197723673251E+00 
    1.4683299507654006E+00 
    1.5427379283877527E+00 
    1.5356907481738720E+00 
    1.4671930176573282E+00 
    1.6141609356042346E+00 
    1.6817575664527922E+00 
    1.6641998715655637E+00 
    1.6015581680894910E+00 
    1.5908795239110838E+00 
    1.6481565245360295E+00 
    1.6333400071885882E+00 
    1.5818753262036487E+00 
    1.4679052539482025E+00 
    1.5307071224560065E+00 
    1.5275732516941520E+00 
    1.4703541394486261E+00 
    1.7434339382960027E+00 
    1.7989775533542545E+00 
    1.7685629307460058E+00 
    1.7195362634170437E+00 
    1.8489251622554943E+00 
    1.8932105333457918E+00 
    1.8582216547719679E+00 
    1.8145871018485393E+00 
    1.7790059753846463E+00 
    1.8193091131127657E+00 
    1.7768168183971138E+00 
    1.7420042087497996E+00 
    1.6966773611521784E+00 
    1.7384428203446454E+00 
    1.7082614933260596E+00 
    1.6745350861650252E+00 
    1.4780985245753233E+00 
    1.5361054269990302E+00 
    1.5576668887144733E+00 
    1.4924290655996502E+00 
    1.5898613453216972E+00 
    1.6401006797772189E+00 
    1.6684779421030176E+00 
    1.6156014903204141E+00 
    1.6438479873736409E+00 
    1.6979461862459504E+00 
    1.7297090573090717E+00 
    1.6764906182160162E+00 
    1.5113931552812947E+00 
    1.5832828514926913E+00 
    1.6162366547339209E+00 
    1.5406531708035758E+00 
    1.3916301114698195E+00 
    1.3139924185184064E+00 
    1.3242720324683006E+00 
    1.3959643821231045E+00 
    1.2361128133807104E+00 
    1.1585941078266424E+00 
    1.1814864217515293E+00 
    1.2526546914172441E+00 
    1.2693218357191884E+00 
    1.2043773118863133E+00 
    1.2273916630608543E+00 
    1.2862163632421748E+00 
    1.4014499106515867E+00 
    1.3350522104974876E+00 
    1.3463023922514348E+00 
    1.4079307062759341E+00 
    1.0835506130963215E+00 
    1.0112275653102307E+00 
    1.0557457537053612E+00 
    1.1159455225975830E+00 
    9.4047221523078606E-01 
    8.7180817126989385E-01 
    9.3719383856129046E-01 
    9.9617722393772778E-01 
    1.0531938192284875E+00 
    1.0058312259341458E+00 
    1.0760280714440216E+00 
    1.1110904065357436E+00 
    1.1484090263669504E+00 
    1.1007246519291174E+00 
    1.1461099676711166E+00 
    1.1810829936957281E+00 
    1.4110857252068667E+00 
    1.3468459730792679E+00 
    1.3348007777283621E+00 
    1.4089651733437050E+00 
    1.2856151926724260E+00 
    1.2264244617740687E+00 
    1.2008273015168371E+00 
    1.2662641201619451E+00 
    1.2455044629340726E+00 
    1.1747549480511714E+00 
    1.1481399439715094E+00 
    1.2228556160674060E+00 
    1.4031141589353264E+00 
    1.3199664780061635E+00 
    1.3006672748191224E+00 
    1.3899411834416038E+00 
    1.5414346366573706E+00 
    1.6164392424021621E+00 
    1.5831875044167372E+00 
    1.5117555994108269E+00 
    1.6757285017128241E+00 
    1.7281334286304575E+00 
    1.6967102458734991E+00 
    1.6431409918534150E+00 
    1.6149444700569189E+00 
    1.6674987178209779E+00 
    1.6393326783783235E+00 
    1.5892830372698048E+00 
    1.4924066194304411E+00 
    1.5573789858198617E+00 
    1.5357089829992168E+00 
    1.4778125863253517E+00 
    1.7751651262744317E+00 
    1.8182991101793069E+00 
    1.7781106784995322E+00 
    1.7407183494282676E+00 
    1.8579278584143388E+00 
    1.8933726759904141E+00 
    1.8488972334868286E+00 
    1.8141899173756721E+00 
    1.7681451544161002E+00 
    1.7988661744966399E+00 
    1.7433092799815637E+00 
    1.7191689603552751E+00 
    1.7072511458413477E+00 
    1.7376890940369347E+00 
    1.6960743293179283E+00 
    1.6737520124748861E+00 
    1.4699042344266395E+00 
    1.5271148040862041E+00 
    1.5302892008406204E+00 
    1.4674546660708458E+00 
    1.5813367645367065E+00 
    1.6326933106538009E+00 
    1.6476452354636439E+00 