# vtk DataFile Version 2.0
Pressure Field Data 
ASCII 
DATASET UNSTRUCTURED_GRID 

POINTS 801 double 

    0.0000000000000000E+00     0.0000000000000000E+00     0.0000000000000000E+00 
    1.0000000000000000E+00     0.0000000000000000E+00     0.0000000000000000E+00 
    1.0000000000000000E+00     1.0000000000000000E+00     0.0000000000000000E+00 
    0.0000000000000000E+00     1.0000000000000000E+00     0.0000000000000000E+00 
    2.5000000000000000E-01     2.5000000000000000E-01     0.0000000000000000E+00 
    7.5000000000000000E-01     2.5000000000000000E-01     0.0000000000000000E+00 
    7.5000000000000000E-01     7.5000000000000000E-01     0.0000000000000000E+00 
    2.5000000000000000E-01     7.5000000000000000E-01     0.0000000000000000E+00 
    2.4999999999941941E-01     0.0000000000000000E+00     0.0000000000000000E+00 
    4.9999999999869399E-01     0.0000000000000000E+00     0.0000000000000000E+00 
    7.4999999999934697E-01     0.0000000000000000E+00     0.0000000000000000E+00 
    1.2499999999977940E-01     0.0000000000000000E+00     0.0000000000000000E+00 
    3.7499999999905670E-01     0.0000000000000000E+00     0.0000000000000000E+00 
    6.2499999999902045E-01     0.0000000000000000E+00     0.0000000000000000E+00 
    8.7499999999967348E-01     0.0000000000000000E+00     0.0000000000000000E+00 
    6.2499999999889699E-02     0.0000000000000000E+00     0.0000000000000000E+00 
    1.8749999999959940E-01     0.0000000000000000E+00     0.0000000000000000E+00 
    3.1249999999923811E-01     0.0000000000000000E+00     0.0000000000000000E+00 
    4.3749999999887529E-01     0.0000000000000000E+00     0.0000000000000000E+00 
    5.6249999999885725E-01     0.0000000000000000E+00     0.0000000000000000E+00 
    6.8749999999918376E-01     0.0000000000000000E+00     0.0000000000000000E+00 
    8.1249999999951017E-01     0.0000000000000000E+00     0.0000000000000000E+00 
    9.3749999999983680E-01     0.0000000000000000E+00     0.0000000000000000E+00 
    1.0000000000000000E+00     2.4999999999941941E-01     0.0000000000000000E+00 
    1.0000000000000000E+00     4.9999999999869399E-01     0.0000000000000000E+00 
    1.0000000000000000E+00     7.4999999999934697E-01     0.0000000000000000E+00 
    1.0000000000000000E+00     1.2499999999977940E-01     0.0000000000000000E+00 
    1.0000000000000000E+00     3.7499999999905670E-01     0.0000000000000000E+00 
    1.0000000000000000E+00     6.2499999999902045E-01     0.0000000000000000E+00 
    1.0000000000000000E+00     8.7499999999967348E-01     0.0000000000000000E+00 
    1.0000000000000000E+00     6.2499999999889699E-02     0.0000000000000000E+00 
    1.0000000000000000E+00     1.8749999999959940E-01     0.0000000000000000E+00 
    1.0000000000000000E+00     3.1249999999923811E-01     0.0000000000000000E+00 
    1.0000000000000000E+00     4.3749999999887529E-01     0.0000000000000000E+00 
    1.0000000000000000E+00     5.6249999999885725E-01     0.0000000000000000E+00 
    1.0000000000000000E+00     6.8749999999918376E-01     0.0000000000000000E+00 
    1.0000000000000000E+00     8.1249999999951017E-01     0.0000000000000000E+00 
    1.0000000000000000E+00     9.3749999999983680E-01     0.0000000000000000E+00 
    7.5000000000112044E-01     1.0000000000000000E+00     0.0000000000000000E+00 
    5.0000000000205913E-01     1.0000000000000000E+00     0.0000000000000000E+00 
    2.5000000000102962E-01     1.0000000000000000E+00     0.0000000000000000E+00 
    8.7499999999991362E-01     1.0000000000000000E+00     0.0000000000000000E+00 
    6.2499999999988309E-01     1.0000000000000000E+00     0.0000000000000000E+00 
    3.7499999999869987E-01     1.0000000000000000E+00     0.0000000000000000E+00 
    1.2499999999880820E-01     1.0000000000000000E+00     0.0000000000000000E+00 
    9.3749999999995681E-01     1.0000000000000000E+00     0.0000000000000000E+00 
    8.1250000000051703E-01     1.0000000000000000E+00     0.0000000000000000E+00 
    6.8750000000050182E-01     1.0000000000000000E+00     0.0000000000000000E+00 
    5.6250000000097111E-01     1.0000000000000000E+00     0.0000000000000000E+00 
    4.3750000000037947E-01     1.0000000000000000E+00     0.0000000000000000E+00 
    3.1249999999986477E-01     1.0000000000000000E+00     0.0000000000000000E+00 
    1.8749999999991890E-01     1.0000000000000000E+00     0.0000000000000000E+00 
    6.2499999999404102E-02     1.0000000000000000E+00     0.0000000000000000E+00 
    0.0000000000000000E+00     7.5000000000112044E-01     0.0000000000000000E+00 
    0.0000000000000000E+00     5.0000000000205913E-01     0.0000000000000000E+00 
    0.0000000000000000E+00     2.5000000000102962E-01     0.0000000000000000E+00 
    0.0000000000000000E+00     8.7499999999991362E-01     0.0000000000000000E+00 
    0.0000000000000000E+00     6.2499999999988309E-01     0.0000000000000000E+00 
    0.0000000000000000E+00     3.7499999999869987E-01     0.0000000000000000E+00 
    0.0000000000000000E+00     1.2499999999880820E-01     0.0000000000000000E+00 
    0.0000000000000000E+00     9.3749999999995681E-01     0.0000000000000000E+00 
    0.0000000000000000E+00     8.1250000000051703E-01     0.0000000000000000E+00 
    0.0000000000000000E+00     6.8750000000050182E-01     0.0000000000000000E+00 
    0.0000000000000000E+00     5.6250000000097111E-01     0.0000000000000000E+00 
    0.0000000000000000E+00     4.3750000000037947E-01     0.0000000000000000E+00 
    0.0000000000000000E+00     3.1249999999986477E-01     0.0000000000000000E+00 
    0.0000000000000000E+00     1.8749999999991890E-01     0.0000000000000000E+00 
    0.0000000000000000E+00     6.2499999999404102E-02     0.0000000000000000E+00 
    4.9999999999972200E-01     2.5000000000000000E-01     0.0000000000000000E+00 
    3.7500000000067490E-01     2.5000000000000000E-01     0.0000000000000000E+00 
    6.2500000000042988E-01     2.5000000000000000E-01     0.0000000000000000E+00 
    3.1250000000033751E-01     2.5000000000000000E-01     0.0000000000000000E+00 
    4.3750000000019851E-01     2.5000000000000000E-01     0.0000000000000000E+00 
    5.6250000000007594E-01     2.5000000000000000E-01     0.0000000000000000E+00 
    6.8750000000021494E-01     2.5000000000000000E-01     0.0000000000000000E+00 
    7.5000000000000000E-01     4.9999999999972200E-01     0.0000000000000000E+00 
    7.5000000000000000E-01     3.7500000000067490E-01     0.0000000000000000E+00 
    7.5000000000000000E-01     6.2500000000042988E-01     0.0000000000000000E+00 
    7.5000000000000000E-01     3.1250000000033751E-01     0.0000000000000000E+00 
    7.5000000000000000E-01     4.3750000000019851E-01     0.0000000000000000E+00 
    7.5000000000000000E-01     5.6250000000007594E-01     0.0000000000000000E+00 
    7.5000000000000000E-01     6.8750000000021494E-01     0.0000000000000000E+00 
    5.0000000000118039E-01     7.5000000000000000E-01     0.0000000000000000E+00 
    6.2500000000161415E-01     7.5000000000000000E-01     0.0000000000000000E+00 
    3.7500000000140910E-01     7.5000000000000000E-01     0.0000000000000000E+00 
    6.8750000000080713E-01     7.5000000000000000E-01     0.0000000000000000E+00 
    5.6250000000139733E-01     7.5000000000000000E-01     0.0000000000000000E+00 
    4.3750000000129469E-01     7.5000000000000000E-01     0.0000000000000000E+00 
    3.1250000000070460E-01     7.5000000000000000E-01     0.0000000000000000E+00 
    2.5000000000000000E-01     5.0000000000118039E-01     0.0000000000000000E+00 
    2.5000000000000000E-01     6.2500000000161415E-01     0.0000000000000000E+00 
    2.5000000000000000E-01     3.7500000000140910E-01     0.0000000000000000E+00 
    2.5000000000000000E-01     6.8750000000080713E-01     0.0000000000000000E+00 
    2.5000000000000000E-01     5.6250000000139733E-01     0.0000000000000000E+00 
    2.5000000000000000E-01     4.3750000000129469E-01     0.0000000000000000E+00 
    2.5000000000000000E-01     3.1250000000070460E-01     0.0000000000000000E+00 
    3.7499999999934702E-01     1.2500000000000000E-01     0.0000000000000000E+00 
    1.2500000000000000E-01     1.2500000000000000E-01     0.0000000000000000E+00 
    1.2500000000000000E-01     3.7500000000102962E-01     0.0000000000000000E+00 
    8.7500000000000000E-01     1.2500000000000000E-01     0.0000000000000000E+00 
    6.2499999999934697E-01     1.2500000000000000E-01     0.0000000000000000E+00 
    8.7500000000000000E-01     3.7499999999934702E-01     0.0000000000000000E+00 
    8.7500000000000000E-01     6.2499999999934697E-01     0.0000000000000000E+00 
    1.2500000000000000E-01     6.2500000000102962E-01     0.0000000000000000E+00 
    1.2500000000000000E-01     8.7500000000000000E-01     0.0000000000000000E+00 
    8.7500000000000000E-01     8.7500000000000000E-01     0.0000000000000000E+00 
    6.2500000000102962E-01     8.7500000000000000E-01     0.0000000000000000E+00 
    3.7500000000102962E-01     8.7500000000000000E-01     0.0000000000000000E+00 
    2.4999999999957681E-01     8.3333333333333329E-02     0.0000000000000000E+00 
    8.3333333333333329E-02     2.5000000000068640E-01     0.0000000000000000E+00 
    7.4999999999956468E-01     8.3333333333333329E-02     0.0000000000000000E+00 
    4.9999999999951827E-01     1.6666666666666671E-01     0.0000000000000000E+00 
    9.1666666666666674E-01     2.4999999999957681E-01     0.0000000000000000E+00 
    8.3333333333333337E-01     4.9999999999951827E-01     0.0000000000000000E+00 
    1.6666666666666671E-01     5.0000000000088307E-01     0.0000000000000000E+00 
    8.3333333333333329E-02     7.5000000000070155E-01     0.0000000000000000E+00 
    9.1666666666666674E-01     7.4999999999956468E-01     0.0000000000000000E+00 
    5.0000000000088307E-01     8.3333333333333348E-01     0.0000000000000000E+00 
    2.5000000000068640E-01     9.1666666666666674E-01     0.0000000000000000E+00 
    7.5000000000070155E-01     9.1666666666666674E-01     0.0000000000000000E+00 
[...]
CELL_DATA 768 
SCALARS Pressure double 1 
LOOKUP_TABLE default 

    2.1396949322519228E+00 
    2.0461382013904719E+00 
    2.0159673265402254E+00 
    2.0732399396986048E+00 
    1.9847049819458384E+00 
    1.9375651382845471E+00 
    1.9333783481711337E+00 
    1.9714648696317614E+00 
    1.9577910916244716E+00 
    1.9283005465980692E+00 
    1.9224973148558613E+00 
    1.9440398602335343E+00 
    2.0237873054565028E+00 
    1.9891239605776359E+00 
    1.9650079498680579E+00 
    1.9853561904279100E+00 
    1.8957285508256487E+00 
    1.8554134230873907E+00 
    1.8629660703425939E+00 
    1.8977073559398383E+00 
    1.8146685241001987E+00 
    1.7725675644670420E+00 
    1.7921185807405566E+00 
    1.8280311070042201E+00 
    1.8406524017266317E+00 
    1.8109150511118437E+00 
    1.8286422532685287E+00 
    1.8522991433450142E+00 
    1.8988747716644394E+00 
    1.8697704127319383E+00 
    1.8756771966902386E+00 
    1.8992314069427085E+00 
    1.9532120751912638E+00 
    1.9402061820138583E+00 
    1.9160262792585796E+00 
    1.9258318728680415E+00 
    1.9250387609383861E+00 
    1.9081298285011032E+00 
    1.8870118591662681E+00 
    1.9028505847309691E+00 
    1.8822652071418264E+00 
    1.8665212183596651E+00 
    1.8461705270642845E+00 
    1.8626761015159761E+00 
    1.9029682114065203E+00 
    1.8947677191257630E+00 
    1.8759758441425343E+00 
    1.8846533049491121E+00 
    2.1397406318032646E+00 
    2.0733017051842726E+00 
    2.0161853677967527E+00 
    2.0463433841520162E+00 
    2.0238614829536448E+00 
    1.9854299739283954E+00 
    1.9652110764363544E+00 
    1.9893367304409395E+00 
    1.9581192410969297E+00 
    1.9443220685571045E+00 
    1.9228234164368034E+00 
    1.9286762445184154E+00 
    1.9850525792875247E+00 
    1.9718074731342330E+00 
    1.9337939681200225E+00 
    1.9379904437171676E+00 
    1.9532870622850687E+00 
    1.9258953577419504E+00 
    1.9161824987725329E+00 
    1.9403966056602464E+00 
    1.9029987676297759E+00 
    1.8846958251069019E+00 
    1.8760181723837597E+00 
    1.8948561742450254E+00 
    1.8823434285427163E+00 
    1.8626060037215151E+00 
    1.8459692142114716E+00 
    1.8665223354522404E+00 
    1.9252891137054287E+00 
    1.9030314461233855E+00 
    1.8871702671909016E+00 
    1.9083885372144873E+00 
    1.8960960458545788E+00 
    1.8980590356170230E+00 
    1.8631022019946248E+00 
    1.8555139268652459E+00 
    1.8991900453409893E+00 
    1.8994927684798315E+00 
    1.8757993237350223E+00 
    1.8698979144170025E+00 
    1.8405454808335431E+00 
    1.8522193166237029E+00 
    1.8283212651566398E+00 
    1.8105551752372964E+00 
    1.8144833559319915E+00 
    1.8278899270805218E+00 
    1.7917529527316716E+00 
    1.7721996640560991E+00 
    1.7045257825307758E+00 
    1.6585024730256406E+00 
    1.6425465224156752E+00 
    1.6827155624089156E+00 
    1.6125824257631469E+00 
    1.5685959803447616E+00 
    1.5647727381859931E+00 
    1.6027458196972411E+00 
    1.5918610308465992E+00 
    1.5598393528399210E+00 
    1.5537056606532709E+00 
    1.5796439825289523E+00 
    1.6599957502126534E+00 
    1.6256273035519984E+00 
    1.6073161203130566E+00 
    1.6358887040145957E+00 
    1.5289162072757778E+00 
    1.4959695565346212E+00 
    1.4998088605319189E+00 
    1.5300001744105012E+00 
    1.4718852537284692E+00 
    1.4576294240553700E+00 
    1.4596413356885494E+00 
    1.4760499448908402E+00 
    1.4788271663587043E+00 
    1.4605580939340910E+00 
    1.4606207266660352E+00 
    1.4803613444665666E+00 
    1.5298536854195550E+00 
    1.5021664257224263E+00 
    1.5032340276630800E+00 
    1.5285072247640681E+00 
    1.6080343640381052E+00 
    1.5822991145342671E+00 
    1.5494442926570848E+00 
    1.5749030999810214E+00 
    1.5583260909463417E+00 
    1.5367586974646936E+00 
    1.5104606479523659E+00 
    1.5280506475905145E+00 
    1.4962159447743644E+00 
    1.4849290512906184E+00 
    1.4610895175186940E+00 
    1.4636828949732443E+00 
    1.5350125634299159E+00 
    1.5119712101054343E+00 
    1.4688385747115789E+00 
    1.4811181107447970E+00 
    1.7389454410112155E+00 
    1.7145717391768445E+00 
    1.7381033696525301E+00 
    1.7619759272303719E+00 
    1.6893118397560869E+00 
    1.6628683856836253E+00 
    1.6878956356507162E+00 
    1.7134645619966480E+00 
    1.7371966800246301E+00 
    1.7125227269710952E+00 
    1.7365111722251765E+00 
    1.7602958361732821E+00 
    1.7842817620356310E+00 
    1.7610913634379808E+00 
    1.7833266261704503E+00 
    1.8056548103816743E+00 
    1.6364510062712860E+00 
    1.6099214326827695E+00 
    1.6480378518786571E+00 
    1.6659350866282514E+00 
    1.5812824311417351E+00 
    1.5498390699025202E+00 
    1.6101530283895655E+00 
    1.6294593551123739E+00 
    1.6739721440223070E+00 
    1.6635307112330968E+00 
    1.7123439414691843E+00 
    1.7156221635906301E+00 
    1.6946690036689218E+00 
    1.6843841960605448E+00 
    1.7190256567507585E+00 
    1.7224854891977646E+00 
    1.8244019127709701E+00 
    1.8004297016404938E+00 
    1.8127896015445208E+00 
    1.8404447262537285E+00 
    1.7754216153158227E+00 
    1.7493565949419625E+00 
    1.7518613909161496E+00 
    1.7832137291197876E+00 
    1.7908962713756158E+00 
    1.7544284289663843E+00 
    1.7570670021154204E+00 
    1.7984936122467776E+00 
    1.8550101588039816E+00 
    1.8245876893269646E+00 
    1.8358611190429177E+00 
    1.8679653997278391E+00 
    1.4541002774175904E+00 
    1.4373820366745544E+00 
    1.4315148941622713E+00 
    1.4507982616606507E+00 
    1.4083608852349137E+00 
    1.3677158341703946E+00 
    1.3658726791306006E+00 
    1.4029721985045023E+00 
    1.3986003338104644E+00 
    1.3650741275591203E+00 
    1.3653389216548177E+00 
    1.3953141286075164E+00 
    1.4473724205144651E+00 
    1.4262769303728073E+00 
    1.4217695664657020E+00 
    1.4440050424739546E+00 
    1.3179857682614600E+00 
    1.2605382509816807E+00 
    1.2733914520975438E+00 
    1.3226187145366719E+00 
    1.1975838581996043E+00 
    1.1304412327675752E+00 
    1.1627737906509485E+00 
    1.2197678816669815E+00 
    1.2421294275770334E+00 
    1.1948152508049328E+00 
    1.2271751657578407E+00 
    1.2653249815951630E+00 
    1.3280177213996625E+00 
    1.2868655058950174E+00 
    1.3013278797542520E+00 
    1.3344157467435334E+00 
    1.4394043002768739E+00 
    1.4133447868561373E+00 
    1.3973218678622310E+00 
    1.4321793323038816E+00 
    1.3845756254272821E+00 
    1.3540076622219386E+00 
    1.3266695211789559E+00 
    1.3618565248965138E+00 
    1.3346982390287339E+00 
    1.2960707783344632E+00 
    1.2627461091404082E+00 
    1.3027192746043770E+00 
    1.4223252454274080E+00 
    1.3765420656866414E+00 
    1.3480187828132535E+00 
    1.4056341199728213E+00 
    1.3304241054152692E+00 
    1.2937534686490828E+00 
    1.2330487079583357E+00 
    1.2573706454708486E+00 
    1.2589376759750497E+00 
    1.2252934195981504E+00 
    1.1850893875697861E+00 
    1.2089847677006440E+00 
    1.1587707113206216E+00 
    1.1442320239770145E+00 
    1.1027141476633939E+00 
    1.1078920458701380E+00 
    1.1873191429801977E+00 
    1.1730994318421284E+00 
    1.1128603501257961E+00 
    1.1176053562980603E+00 
    1.1901165398241900E+00 
    1.1530014461877591E+00 
    1.1169335283337676E+00 
    1.1545000535763317E+00 
    1.1158763050286444E+00 
    1.0776118837224087E+00 
    1.0394535206193116E+00 
    1.0788028454587393E+00 
    1.0410121242893815E+00 
    1.0007719379126832E+00 
    9.6225828041282480E-01 
    1.0029103111770414E+00 
    1.1181102254354944E+00 
    1.0799780436970949E+00 
    1.0424544848038717E+00 
    1.0810331913289977E+00 
    1.0475698494805588E+00 
    1.0520139178642802E+00 
    9.8988006414555219E-01 
    9.7615939833531196E-01 
    1.0562317397435461E+00 
    1.0602702830068267E+00 
    1.0167842501727200E+00 
    1.0033282816713183E+00 
    9.4985706001966508E-01 
    9.7238551814597662E-01 
    9.2709143103721980E-01 
    8.9616400917542238E-01 
    9.0612612167023943E-01 
    9.2777361475164100E-01 
    8.6738881626528530E-01 
    8.4114104687881686E-01 
    1.8681631017227787E+00 
    1.8355806263816179E+00 
    1.8241052322448139E+00 
    1.8549390915127488E+00 
    1.7975143293299454E+00 
    1.7554517561679948E+00 
    1.7529647720393735E+00 
    1.7898750515700899E+00 
    1.7821925421124210E+00 
    1.7505400280697574E+00 
    1.7481720242407086E+00 
    1.7744325639822864E+00 
    1.8401638694648301E+00 
    1.8121590696659562E+00 
    1.7997116389587549E+00 
    1.8239592573263872E+00 
    1.7107955946812898E+00 
    1.6627904510879346E+00 
    1.6731680880933892E+00 
    1.7142242357236577E+00 
    1.6104074785998119E+00 
    1.5506560149677766E+00 
    1.5817668364278283E+00 
    1.6293984018859964E+00 
    1.6477611440720945E+00 
    1.6101054599456277E+00 
    1.6364085066824607E+00 
    1.6655411624140180E+00 
    1.7177528556644057E+00 
    1.6835512432150821E+00 
    1.6938625369744176E+00 
    1.7213474158045117E+00 
    1.8050949497854623E+00 
    1.7825304242155755E+00 
    1.7603572767829607E+00 
    1.7837429382734138E+00 
    1.7593162844389192E+00 
    1.7354417230407444E+00 
    1.7117051531970302E+00 
    1.7363806880678823E+00 
    1.7128766145064420E+00 
    1.6874071215203554E+00 
    1.6626426453662682E+00 
    1.6889400071214178E+00 
    1.7615010370693367E+00 
    1.7375463747876707E+00 
    1.7141535115154614E+00 
    1.7385572399726696E+00 
    1.7042300713475362E+00 
    1.6824535546520760E+00 
    1.6424935983875542E+00 
    1.6583951285950480E+00 
    1.6598270454257278E+00 
    1.6358884104397982E+00 
    1.6075051764999193E+00 
    1.6256687499080045E+00 
    1.5920615007023073E+00 
    1.5799382229225265E+00 
    1.5540367286855434E+00 
    1.5600617498483029E+00 
    1.6126439974901634E+00 
    1.6028485405520676E+00 
    1.5649008827546380E+00 
    1.5686515660420297E+00 
    1.6082466815855789E+00 
    1.5753710229794873E+00 
    1.5500164798284644E+00 
    1.5826500438416737E+00 
    1.5357130493067599E+00 
    1.4819585263306985E+00 
    1.4697273731037372E+00 
    1.5127148918422304E+00 
    1.4969243669035253E+00 
    1.4645024690128661E+00 
    1.4617221944352958E+00 
    1.4854922516030979E+00 
    1.5587440649395703E+00 
    1.5286272324238896E+00 
    1.5109606559242481E+00 
    1.5371682590668065E+00 
    1.5289337524222524E+00 
    1.5300857181593133E+00 
    1.4997313272438586E+00 
    1.4957512602455529E+00 
    1.5300300309551360E+00 
    1.5287961371578962E+00 
    1.5035282268823398E+00 
    1.5022579545569299E+00 
    1.4788336421567894E+00 
    1.4806324130282245E+00 
    1.4609104939116591E+00 
    1.4605623758582327E+00 
    1.4715348259002934E+00 
    1.4758507566913919E+00 
    1.4593990536869710E+00 
    1.4572731128305396E+00 
    1.0223442667097942E+00 
    9.4445631299244337E-01 
    9.1806159997616199E-01 
    9.8720983795056250E-01 
    8.6037538869607322E-01 
    7.6661827341997280E-01 
    7.6213293956328787E-01 
    8.4394479619083829E-01 
    8.2923591476759773E-01 
    7.6006938940994573E-01 
    7.6039159368947629E-01 
    8.1684568571962535E-01 
    9.5200340610491629E-01 
    8.9256670960198115E-01 
    8.6887136957024913E-01 
    9.1786531819053474E-01 
    6.5754816817081041E-01 
    5.1876985875518855E-01 
    5.6129507340936236E-01 
    6.7021868226532744E-01 
    3.1979854031499461E-01 
    0.0000000000000000E+00 
    2.3482417066020106E-01 
    4.2297147411446401E-01 
    5.0931737601520877E-01 
    3.9880624481608129E-01 
    5.2190971001205710E-01 
    5.8378694361534844E-01 
    6.8515085671511144E-01 
    6.0321154872073490E-01 
    6.4386103141547391E-01 
    7.0164517197859222E-01 
    8.8320340433845956E-01 
    8.3929850797348438E-01 
    8.0528876523138404E-01 
    8.4973500588593653E-01 
    7.9199128698213173E-01 
    7.3983141069043334E-01 
    6.9709939101293883E-01 
    7.5508333087956203E-01 
    7.2282595967476704E-01 
    6.5642848208799442E-01 
    6.1952488547356488E-01 
    6.9743176901457316E-01 
    8.2223171411492324E-01 
    7.7741735278297075E-01 
    7.5830143411519191E-01 
    8.0406586383944778E-01 
    1.3316671240246447E+00 
    1.2576437436109382E+00 
    1.2329842570319396E+00 
    1.2945677160868214E+00 
    1.1862432234282796E+00 
    1.1153552777123719E+00 
    1.1107102541613587E+00 
    1.1719140048003978E+00 
    1.1574752113232201E+00 
    1.1058724288114197E+00 
    1.1008668041243055E+00 
    1.1429508649287141E+00 
    1.2593761331529898E+00 
    1.2086192271545273E+00 
    1.1844970174861682E+00 
    1.2253973162526435E+00 
    1.0449887145660159E+00 
    9.7459503852735652E-01 
    9.8819182596942046E-01 
    1.0496444087836259E+00 
    9.0578517432973105E-01 
    8.4152517893384970E-01 
    8.6758886622605424E-01 
    9.2713563062339299E-01 
    9.4898591472372806E-01 
    8.9613703110553244E-01 
    9.2686338137797009E-01 
    9.7145124293561680E-01 
    1.0540955700452306E+00 
    1.0017143638119674E+00 
    1.0152467678048298E+00 
    1.0584008929804878E+00 
    1.1899329794589910E+00 
    1.1536921494046679E+00 
    1.1159610136903426E+00 
    1.1525681688797449E+00 
    1.1167552600321731E+00 
    1.0793235719743099E+00 
    1.0409394443500943E+00 
    1.0786480246577930E+00 
    1.0399279907218149E+00 
    1.0018444119134160E+00 
    9.6181113111157091E-01 
    1.0002111737041781E+00 
    1.1153567374024198E+00 
    1.0779149761889253E+00 
    1.0388567941219342E+00 
    1.0771764174164620E+00 
    1.4066181072613304E+00 
    1.3490381485293885E+00 
    1.3776718268346064E+00 
    1.4233519564548125E+00 
    1.3036021171736503E+00 
    1.2634163951856014E+00 
    1.2971661856772039E+00 
    1.3358702533144826E+00 
    1.3631486065845784E+00 
    1.3280667674549593E+00 
    1.3555054206700385E+00 
    1.3858872687329753E+00 
    1.4331429859302083E+00 
    1.3985069486158732E+00 
    1.4144228081509687E+00 
    1.4402102667583814E+00 
    1.2276420260815035E+00 
    1.1950194296800636E+00 
    1.2430968857672016E+00 
    1.2663627640977011E+00 
    1.1626873299937295E+00 
    1.1300971150501504E+00 
    1.1980996115162466E+00 
    1.2205476425093786E+00 
    1.2749792148156043E+00 
    1.2620956816298317E+00 
    1.3199772861149031E+00 
    1.3245253451121815E+00 
    1.3027731022605766E+00 
    1.2883982987570197E+00 
    1.3298063891607896E+00 
    1.3360536834686958E+00 
    1.4445009986262334E+00 
    1.4226266597277653E+00 
    1.4269469723186659E+00 
    1.4475933089279023E+00 
    1.3965465444553571E+00 
    1.3668971744176723E+00 
    1.3667339735627451E+00 
    1.3998068377054274E+00 
    1.4040832731320743E+00 
    1.3676282713141474E+00 
    1.3695247543344087E+00 
    1.4093796556581610E+00 
    1.4507475368933980E+00 
    1.4319831363115709E+00 
    1.4376532666915243E+00 
    1.4538616898512735E+00 
    8.0428038111522271E-01 
    7.5859268366020627E-01 
    7.7821628919915353E-01 
    8.2276710069698500E-01 
    6.9780107695783911E-01 
    6.1992828746842810E-01 
    6.5754962251332449E-01 
    7.2385883896797243E-01 
    7.5655384998290376E-01 
    6.9879898860386036E-01 
    7.4184406769936329E-01 
    7.9365653224078825E-01 
    8.5031528338534978E-01 
    8.0640082173603089E-01 
    8.4043136786763506E-01 
    8.8368495348010700E-01 
    5.2231361726837811E-01 
    3.9915139414354589E-01 
    5.1053065682625232E-01 
    5.8498387555341125E-01 
    2.3503645696208261E-01 
    0.0000000000000000E+00 
    3.2053807336983425E-01 
    4.2397437085365697E-01 
    5.6322180445769066E-01 
    5.2045527062250929E-01 
    6.6018509936375236E-01 
    6.7279642528752226E-01 
    6.4570455885533595E-01 
    6.0515751061262846E-01 
    6.8760465602700693E-01 
    7.0385738997652947E-01 
    9.1814832186887552E-01 
    8.6990734551026694E-01 
    8.9353682144925084E-01 
    9.5212037784140124E-01 
    8.1856663679327391E-01 
    7.6258072148792544E-01 
    7.6247029832293745E-01 
    8.3107209195219489E-01 
    8.4573684187832421E-01 
    7.6466609030860744E-01 
    7.6917137394118662E-01 
    8.6201044742109079E-01 
    9.8715470242712189E-01 
    9.1884010584577969E-01 
    9.4498246238512384E-01 
    1.0221367219523962E+00 
    1.4432294908214143E+00 
    1.5166433512032795E+00 
    1.5096716209405991E+00 
    1.4420847772652907E+00 
    1.5871265393578329E+00 
    1.6538491171936871E+00 
    1.6365038520219031E+00 
    1.5746736039454348E+00 
    1.5641104259724230E+00 
    1.6206465958706517E+00 
    1.6059947042761202E+00 
    1.5551920253533069E+00 
    1.4427498714405225E+00 
    1.5047245234801900E+00 
    1.5015927428213047E+00 
    1.4451159047346411E+00 
    1.7147449637089303E+00 
    1.7696040397985631E+00 
    1.7395412987822101E+00 
    1.6911332454896519E+00 
    1.8189576957883029E+00 
    1.8627641289466137E+00 
    1.8281301196548239E+00 
    1.7849968938229794E+00 
    1.7498075636921251E+00 
    1.7896260114985394E+00 
    1.7476004759884380E+00 
    1.7132215173139707E+00 
    1.6685419438266480E+00 
    1.7097659807223735E+00 
    1.6799302703644077E+00 
    1.6466546414352266E+00 
    1.4526991867626982E+00 
    1.5099690071241969E+00 
    1.5312056965061254E+00 
    1.4667798593318149E+00 
    1.5630396791436485E+00 
    1.6126408075114131E+00 
    1.6406262568356416E+00 
    1.5884118769299140E+00 
    1.6162572814415561E+00 
    1.6696867902996495E+00 
    1.7010467463110033E+00 
    1.6484934081496501E+00 
    1.4854349049742872E+00 
    1.5564469627402360E+00 
    1.5890116243817551E+00 
    1.5143696835844465E+00 
    1.3675798966289772E+00 
    1.2910157715188670E+00 
    1.3011448226963866E+00 
    1.3718457582372601E+00 
    1.2142337575716813E+00 
    1.1378315864807600E+00 
    1.1603883395941832E+00 
    1.2305351524896053E+00 
    1.2469452582704095E+00 
    1.1829312046804399E+00 
    1.2055852797183377E+00 
    1.2635662661630760E+00 
    1.3772294979621698E+00 
    1.3117508650881975E+00 
    1.3228051616880583E+00 
    1.3835783265436368E+00 
    1.0638965920151107E+00 
    9.9267192488847078E-01 
    1.0365074125811626E+00 
    1.0958076902526217E+00 
    9.2302565307946527E-01 
    8.5546769627126273E-01 
    9.1978862223714686E-01 
    9.7785100159882621E-01 
    1.0339552723531251E+00 
    9.8729688095617107E-01 
    1.0563494231106094E+00 
    1.0909262768132710E+00 
    1.1277748209607119E+00 
    1.0807844890726028E+00 
    1.1254558848152192E+00 
    1.1599410626251414E+00 
    1.3866320461612827E+00 
    1.3232890353744038E+00 
    1.3113455075276406E+00 
    1.3844667894641642E+00 
    1.2629295541894143E+00 
    1.2045969872909124E+00 
    1.1793311561700230E+00 
    1.2437997161262984E+00 
    1.2232697835398725E+00 
    1.1535919052217396E+00 
    1.1273053830543847E+00 
    1.2008558179452873E+00 
    1.3786039595234940E+00 
    1.2966345896975593E+00 
    1.2774899603337047E+00 
    1.3654932975731706E+00 
    1.5152030550215181E+00 
    1.5892576403174903E+00 
    1.5564000634761583E+00 
    1.4858565272206314E+00 
    1.6477729026783496E+00 
    1.6995137325548328E+00 
    1.6684910806955566E+00 
    1.6155932460384574E+00 
    1.5877978377080137E+00 
    1.6396850370245191E+00 
    1.6119083157258833E+00 
    1.5625025267057717E+00 
    1.4668192441266847E+00 
    1.5309680924439981E+00 
    1.5096215976807577E+00 
    1.4524732641805072E+00 
    1.7459877438013272E+00 
    1.7886456028041524E+00 
    1.7489388152534955E+00 
    1.7119708592327465E+00 
    1.8278546758835004E+00 
    1.8629338527617572E+00 
    1.8189358908071434E+00 
    1.7846160342902189E+00 
    1.7391382909257456E+00 
    1.7694979408905134E+00 
    1.7146249249304950E+00 
    1.6907792387849849E+00 
    1.6789522055454063E+00 
    1.7090362418719036E+00 
    1.6679607327687171E+00 
    1.6459012843895715E+00 
    1.4447193786608565E+00 
    1.5011774245727854E+00 
    1.5043393625605801E+00 
    1.4423408198638425E+00 
    1.5546891825777749E+00 
    1.6053785015060393E+00 
    1.6201576886878148E+00 