# vtk DataFile Version 2.0
Pressure Field Data 
ASCII 
DATASET UNSTRUCTURED_GRID 

POINTS 801 double 

    0.0000000000000000E+00     0.0000000000000000E+00     0.0000000000000000E+00 
    1.0000000000000000E+00     0.0000000000000000E+00     0.0000000000000000E+00 
    1.0000000000000000E+00     1.0000000000000000E+00     0.0000000000000000E+00 
    0.0000000000000000E+00     1.0000000000000000E+00     0.0000000000000000E+00 
    2.5000000000000000E-01     2.5000000000000000E-01     0.0000000000000000E+00 
    7.5000000000000000E-01     2.5000000000000000E-01     0.0000000000000000E+00 
    7.5000000000000000E-01     7.5000000000000000E-01     0.0000000000000000E+00 
    2.5000000000000000E-01     7.5000000000000000E-01     0.0000000000000000E+00 
    2.4999999999941941E-01     0.0000000000000000E+00     0.0000000000000000E+00 
    4.9999999999869399E-01     0.0000000000000000E+00     0.0000000000000000E+00 
    7.4999999999934697E-01     0.0000000000000000E+00     0.0000000000000000E+00 
    1.2499999999977940E-01     0.0000000000000000E+00     0.0000000000000000E+00 
    3.7499999999905670E-01     0.0000000000000000E+00     0.0000000000000000E+00 
    6.2499999999902045E-01     0.0000000000000000E+00     0.0000000000000000E+00 
    8.7499999999967348E-01     0.0000000000000000E+00     0.0000000000000000E+00 
    6.2499999999889699E-02     0.0000000000000000E+00     0.0000000000000000E+00 
    1.8749999999959940E-01     0.0000000000000000E+00     0.0000000000000000E+00 
    3.1249999999923811E-01     0.0000000000000000E+00     0.0000000000000000E+00 
    4.3749999999887529E-01     0.0000000000000000E+00     0.0000000000000000E+00 
    5.6249999999885725E-01     0.0000000000000000E+00     0.0000000000000000E+00 
    6.8749999999918376E-01     0.0000000000000000E+00     0.0000000000000000E+00 
    8.1249999999951017E-01     0.0000000000000000E+00     0.0000000000000000E+00 
    9.3749999999983680E-01     0.0000000000000000E+00     0.0000000000000000E+00 
    1.0000000000000000E+00     2.4999999999941941E-01     0.0000000000000000E+00 
    1.0000000000000000E+00     4.9999999999869399E-01     0.0000000000000000E+00 
    1.0000000000000000E+00     7.4999999999934697E-01     0.0000000000000000E+00 
    1.0000000000000000E+00     1.2499999999977940E-01     0.0000000000000000E+00 
    1.0000000000000000E+00     3.7499999999905670E-01     0.0000000000000000E+00 
    1.0000000000000000E+00     6.2499999999902045E-01     0.0000000000000000E+00 
    1.0000000000000000E+00     8.7499999999967348E-01     0.0000000000000000E+00 
    1.0000000000000000E+00     6.2499999999889699E-02     0.0000000000000000E+00 
    1.0000000000000000E+00     1.8749999999959940E-01     0.0000000000000000E+00 
    1.0000000000000000E+00     3.1249999999923811E-01     0.0000000000000000E+00 
    1.0000000000000000E+00     4.3749999999887529E-01     0.0000000000000000E+00 
    1.0000000000000000E+00     5.6249999999885725E-01     0.0000000000000000E+00 
    1.0000000000000000E+00     6.8749999999918376E-01     0.0000000000000000E+00 
    1.0000000000000000E+00     8.1249999999951017E-01     0.0000000000000000E+00 
    1.0000000000000000E+00     9.3749999999983680E-01     0.0000000000000000E+00 
    7.5000000000112044E-01     1.0000000000000000E+00     0.0000000000000000E+00 
    5.0000000000205913E-01     1.0000000000000000E+00     0.0000000000000000E+00 
    2.5000000000102962E-01     1.0000000000000000E+00     0.0000000000000000E+00 
    8.7499999999991362E-01     1.0000000000000000E+00     0.0000000000000000E+00 
    6.2499999999988309E-01     1.0000000000000000E+00     0.0000000000000000E+00 
    3.7499999999869987E-01     1.0000000000000000E+00     0.0000000000000000E+00 
    1.2499999999880820E-01     1.0000000000000000E+00     0.0000000000000000E+00 
    9.3749999999995681E-01     1.0000000000000000E+00     0.0000000000000000E+00 
    8.1250000000051703E-01     1.0000000000000000E+00     0.0000000000000000E+00 
    6.8750000000050182E-01     1.0000000000000000E+00     0.0000000000000000E+00 
    5.6250000000097111E-01     1.0000000000000000E+00     0.0000000000000000E+00 
    4.3750000000037947E-01     1.0000000000000000E+00     0.0000000000000000E+00 
    3.1249999999986477E-01     1.0000000000000000E+00     0.0000000000000000E+00 
    1.8749999999991890E-01     1.0000000000000000E+00     0.0000000000000000E+00 
    6.2499999999404102E-02     1.0000000000000000E+00     0.0000000000000000E+00 
    0.0000000000000000E+00     7.5000000000112044E-01     0.0000000000000000E+00 
    0.0000000000000000E+00     5.0000000000205913E-01     0.0000000000000000E+00 
    0.0000000000000000E+00     2.5000000000102962E-01     0.0000000000000000E+00 
    0.0000000000000000E+00     8.7499999999991362E-01     0.0000000000000000E+00 
    0.0000000000000000E+00     6.2499999999988309E-01     0.0000000000000000E+00 
    0.0000000000000000E+00     3.7499999999869987E-01     0.0000000000000000E+00 
    0.0000000000000000E+00     1.2499999999880820E-01     0.0000000000000000E+00 
    0.0000000000000000E+00     9.3749999999995681E-01     0.0000000000000000E+00 
    0.0000000000000000E+00     8.1250000000051703E-01     0.0000000000000000E+00 
    0.0000000000000000E+00     6.8750000000050182E-01     0.0000000000000000E+00 
    0.0000000000000000E+00     5.6250000000097111E-01     0.0000000000000000E+00 
    0.0000000000000000E+00     4.3750000000037947E-01     0.0000000000000000E+00 
    0.0000000000000000E+00     3.1249999999986477E-01     0.0000000000000000E+00 
    0.0000000000000000E+00     1.8749999999991890E-01     0.0000000000000000E+00 
    0.0000000000000000E+00     6.2499999999404102E-02     0.0000000000000000E+00 
    4.9999999999972200E-01     2.5000000000000000E-01     0.0000000000000000E+00 
    3.7500000000067490E-01     2.5000000000000000E-01     0.0000000000000000E+00 
    6.2500000000042988E-01     2.5000000000000000E-01     0.0000000000000000E+00 
    3.1250000000033751E-01     2.5000000000000000E-01     0.0000000000000000E+00 
    4.3750000000019851E-01     2.5000000000000000E-01     0.0000000000000000E+00 
    5.6250000000007594E-01     2.5000000000000000E-01     0.0000000000000000E+00 
    6.8750000000021494E-01     2.5000000000000000E-01     0.0000000000000000E+00 
    7.5000000000000000E-01     4.9999999999972200E-01     0.0000000000000000E+00 
    7.5000000000000000E-01     3.7500000000067490E-01     0.0000000000000000E+00 
    7.5000000000000000E-01     6.2500000000042988E-01     0.0000000000000000E+00 
    7.5000000000000000E-01     3.1250000000033751E-01     0.0000000000000000E+00 
    7.5000000000000000E-01     4.3750000000019851E-01     0.0000000000000000E+00 
    7.5000000000000000E-01     5.6250000000007594E-01     0.0000000000000000E+00 
    7.5000000000000000E-01     6.8750000000021494E-01     0.0000000000000000E+00 
    5.0000000000118039E-01     7.5000000000000000E-01     0.0000000000000000E+00 
    6.2500000000161415E-01     7.5000000000000000E-01     0.0000000000000000E+00 
    3.7500000000140910E-01     7.5000000000000000E-01     0.0000000000000000E+00 
    6.8750000000080713E-01     7.5000000000000000E-01     0.0000000000000000E+00 
    5.6250000000139733E-01     7.5000000000000000E-01     0.0000000000000000E+00 
    4.3750000000129469E-01     7.5000000000000000E-01     0.0000000000000000E+00 
    3.1250000000070460E-01     7.5000000000000000E-01     0.0000000000000000E+00 
    2.5000000000000000E-01     5.0000000000118039E-01     0.0000000000000000E+00 
    2.5000000000000000E-01     6.2500000000161415E-01     0.0000000000000000E+00 
    2.5000000000000000E-01     3.7500000000140910E-01     0.0000000000000000E+00 
    2.5000000000000000E-01     6.8750000000080713E-01     0.0000000000000000E+00 
    2.5000000000000000E-01     5.6250000000139733E-01     0.0000000000000000E+00 
    2.5000000000000000E-01     4.3750000000129469E-01     0.0000000000000000E+00 
    2.5000000000000000E-01     3.1250000000070460E-01     0.0000000000000000E+00 
    3.7499999999934702E-01     1.2500000000000000E-01     0.0000000000000000E+00 
    1.2500000000000000E-01     1.2500000000000000E-01     0.0000000000000000E+00 
    1.2500000000000000E-01     3.7500000000102962E-01     0.0000000000000000E+00 
    8.7500000000000000E-01     1.2500000000000000E-01     0.0000000000000000E+00 
    6.2499999999934697E-01     1.2500000000000000E-01     0.0000000000000000E+00 
    8.7500000000000000E-01     3.7499999999934702E-01     0.0000000000000000E+00 
    8.7500000000000000E-01     6.2499999999934697E-01     0.0000000000000000E+00 
    1.2500000000000000E-01     6.2500000000102962E-01     0.0000000000000000E+00 
    1.2500000000000000E-01     8.7500000000000000E-01     0.0000000000000000E+00 
    8.7500000000000000E-01     8.7500000000000000E-01     0.0000000000000000E+00 
    6.2500000000102962E-01     8.7500000000000000E-01     0.0000000000000000E+00 
    3.7500000000102962E-01     8.7500000000000000E-01     0.0000000000000000E+00 
    2.4999999999957681E-01     8.3333333333333329E-02     0.0000000000000000E+00 
    8.3333333333333329E-02     2.5000000000068640E-01     0.0000000000000000E+00 
    7.4999999999956468E-01     8.3333333333333329E-02     0.0000000000000000E+00 
    4.9999999999951827E-01     1.6666666666666671E-01     0.0000000000000000E+00 
    9.1666666666666674E-01     2.4999999999957681E-01     0.0000000000000000E+00 
    8.3333333333333337E-01     4.9999999999951827E-01     0.0000000000000000E+00 
    1.6666666666666671E-01     5.0000000000088307E-01     0.0000000000000000E+00 
    8.3333333333333329E-02     7.5000000000070155E-01     0.0000000000000000E+00 
    9.1666666666666674E-01     7.4999999999956468E-01     0.0000000000000000E+00 
    5.0000000000088307E-01     8.3333333333333348E-01     0.0000000000000000E+00 
    2.5000000000068640E-01     9.1666666666666674E-01     0.0000000000000000E+00 
    7.5000000000070155E-01     9.1666666666666674E-01     0.0000000000000000E+00 
[...]
CELL_DATA 768 
SCALARS Pressure double 1 
LOOKUP_TABLE default 

    3.6016595096608479E+00 
    3.4982279525508964E+00 
    3.4615682434883421E+00 
    3.5299331956877360E+00 
    3.4190151645149616E+00 
    3.3437381004768985E+00 
    3.3363343158972389E+00 
    3.3996742933033492E+00 
    3.3780778765606936E+00 
    3.3269952057806798E+00 
    3.3160262381186376E+00 
    3.3546571698299856E+00 
    3.4715687509983590E+00 
    3.4255136271817315E+00 
    3.3890704513471861E+00 
    3.4195553036758097E+00 
    3.2647065177627557E+00 
    3.1825420230906016E+00 
    3.1982560332410199E+00 
    3.2685767018954870E+00 
    3.0966073074590685E+00 
    3.0034228229257089E+00 
    3.0477679101223472E+00 
    3.1253319204682239E+00 
    3.1521093932835784E+00 
    3.0888698359775115E+00 
    3.1266850646999149E+00 
    3.1766711655176958E+00 
    3.2708029375143020E+00 
    3.2123558895326569E+00 
    3.2246249545047410E+00 
    3.2714682997671076E+00 
    3.3693479266283313E+00 
    3.3476240944994644E+00 
    3.3039113021701536E+00 
    3.3217208394774285E+00 
    3.3206966373872890E+00 
    3.2889551171208202E+00 
    3.2478013271856265E+00 
    3.2789890473829284E+00 
    3.2388450129019342E+00 
    3.2064997284243226E+00 
    3.1638650727471229E+00 
    3.1988839204469910E+00 
    3.2794428386172427E+00 
    3.2636958180060374E+00 
    3.2266830617805162E+00 
    3.2440729063377471E+00 
    3.6017143373693354E+00 
    3.5300167665873339E+00 
    3.4618754266466754E+00 
    3.4984975391970163E+00 
    3.4716811027839185E+00 
    3.4196830583024616E+00 
    3.3894152000747497E+00 
    3.4258383397445957E+00 
    3.3786021328028628E+00 
    3.3551339783853362E+00 
    3.3166490767733925E+00 
    3.3277140871111919E+00 
    3.4195166890612954E+00 
    3.4001922985467603E+00 
    3.3371180957643034E+00 
    3.3445250252420506E+00 
    3.3694825498346725E+00 
    3.3218068630325059E+00 
    3.3041125688650208E+00 
    3.3479540164358497E+00 
    3.2794488512406077E+00 
    3.2441107748920519E+00 
    3.2268135318843516E+00 
    3.2637336994578754E+00 
    3.2388834341205670E+00 
    3.1990595514353934E+00 
    3.1640530519354697E+00 
    3.2066380024243646E+00 
    3.3211305081782565E+00 
    3.2792170235235276E+00 
    3.2481034886065783E+00 
    3.2894621962454562E+00 
    3.2656866922675776E+00 
    3.2694910076217378E+00 
    3.1989892304345378E+00 
    3.1833217156468074E+00 
    3.2715985479969834E+00 
    3.2720914488646349E+00 
    3.2250525248256841E+00 
    3.2129471533517768E+00 
    3.1524415479625909E+00 
    3.1768891309970719E+00 
    3.1266527332528664E+00 
    3.0888821537381705E+00 
    3.0972658412537020E+00 
    3.1258295146735389E+00 
    3.0483383263793185E+00 
    3.0045293099705850E+00 
    2.8232094787808979E+00 
    2.7021769683361638E+00 
    2.6627617680058364E+00 
    2.7633530632174850E+00 
    2.5913714655410631E+00 
    2.4897254157934108E+00 
    2.4814020296892494E+00 
    2.5684994815156683E+00 
    2.5439116492695466E+00 
    2.4710168132094812E+00 
    2.4584211083093432E+00 
    2.5170835998067007E+00 
    2.7052630985628694E+00 
    2.6225833419364726E+00 
    2.5806764752919955E+00 
    2.6476283928869706E+00 
    2.4009120860469397E+00 
    2.3289280060314437E+00 
    2.3378846521142216E+00 
    2.4037587802550147E+00 
    2.2771819519433869E+00 
    2.2469564423754020E+00 
    2.2521015640873356E+00 
    2.2868767819514821E+00 
    2.2944071202555594E+00 
    2.2559948474183456E+00 
    2.2589340132978957E+00 
    2.2999819567091619E+00 
    2.4043281570528463E+00 
    2.3442366483520827E+00 
    2.3483199939274182E+00 
    2.4026782844931489E+00 
    2.5839089691165253E+00 
    2.5249094740983562E+00 
    2.4536643296305050E+00 
    2.5108761411148972E+00 
    2.4705647279901748E+00 
    2.4220572736857662E+00 
    2.3658443847237223E+00 
    2.4055933212278369E+00 
    2.3390553262868887E+00 
    2.3124007732090854E+00 
    2.2634511917240143E+00 
    2.2727808407896610E+00 
    2.4259808494760819E+00 
    2.3749127581843910E+00 
    2.2871195367184907E+00 
    2.3146572701595018E+00 
    2.9190162561250790E+00 
    2.8490442926434278E+00 
    2.9122979323532903E+00 
    2.9772761855273298E+00 
    2.7782660164734150E+00 
    2.7121248696894269E+00 
    2.7729247864723332E+00 
    2.8400217835755783E+00 
    2.9015586376846039E+00 
    2.8339515472421981E+00 
    2.8941839773796980E+00 
    2.9607144289588967E+00 
    3.0292520219170815E+00 
    2.9708315172003950E+00 
    3.0238276936719326E+00 
    3.0764639373417921E+00 
    2.6498085548099275E+00 
    2.5895525812441891E+00 
    2.6770780919766604E+00 
    2.7194232551189272E+00 
    2.5266540861350348E+00 
    2.4595605766194626E+00 
    2.5907868344613467E+00 
    2.6342831046014461E+00 
    2.7378736084409825E+00 
    2.7130743723111217E+00 
    2.8297084423906456E+00 
    2.8381422271511969E+00 
    2.7887711550128582E+00 
    2.7631101000573950E+00 
    2.8473200896564888E+00 
    2.8572651592830636E+00 
    3.1167136345947051E+00 
    3.0616558831023983E+00 
    3.0872900414477882E+00 
    3.1512474874417111E+00 
    2.9964805148205786E+00 
    2.9248894663723135E+00 
    2.9292198136714274E+00 
    3.0118194841762405E+00 
    3.0274996928853142E+00 
    2.9345464288723506E+00 
    2.9407046384913578E+00 
    3.0447005841365948E+00 
    3.1824000461200130E+00 
    3.1122416266450248E+00 
    3.1370533146306023E+00 
    3.2097888323026234E+00 
    2.2398083403028037E+00 
    2.2089103580145411E+00 
    2.1987229537383777E+00 
    2.2341880632151936E+00 
    2.1560686439623491E+00 
    2.0829505682975111E+00 
    2.0799877426921416E+00 
    2.1467952951004308E+00 
    2.1400251575209994E+00 
    2.0793098125395186E+00 
    2.0808265543460354E+00 
    2.1356028416839812E+00 
    2.2295783241550686E+00 
    2.1906311730806958E+00 
    2.1844409643214080E+00 
    2.2258988931665136E+00 
    1.9938461259448430E+00 
    1.8931164550515953E+00 
    1.9155724502573179E+00 
    2.0021430830492029E+00 
    1.7849613640590303E+00 
    1.6722317430127545E+00 
    1.7262113544255377E+00 
    1.8228318084334156E+00 
    1.8620263822380618E+00 
    1.7809270287143193E+00 
    1.8371624468379957E+00 
    1.9033689845609985E+00 
    2.0124721133764751E+00 
    1.9399096431893861E+00 
    1.9665155164135428E+00 
    2.0250301066760796E+00 
    2.2205468878878580E+00 
    2.1713484050265230E+00 
    2.1443209304886093E+00 
    2.2107235563018537E+00 
    2.1176744277049657E+00 
    2.0613197503925376E+00 
    2.0128411931626347E+00 
    2.0777614339145685E+00 
    2.0297356333859229E+00 
    1.9587748275858778E+00 
    1.9001837280156308E+00 
    1.9727736725450511E+00 
    2.1961675377236003E+00 
    2.1084115079175163E+00 
    2.0574464334792970E+00 
    2.1686831269844027E+00 
    2.0239474295355526E+00 
    1.9570380389292299E+00 
    1.8498396679030338E+00 
    1.8931480054850314E+00 
    1.8944796395601882E+00 
    1.8348133836837919E+00 
    1.7656659208527681E+00 
    1.8073929997256148E+00 
    1.7214543859654474E+00 
    1.6964146952290933E+00 
    1.6271137384397114E+00 
    1.6360478285239199E+00 
    1.7710129357580957E+00 
    1.7462728690842471E+00 
    1.6446367929114611E+00 
    1.6528165856898662E+00 
    1.7734297840853368E+00 
    1.7096980903052843E+00 
    1.6494589439572347E+00 
    1.7130150654367080E+00 
    1.6464858328951379E+00 
    1.5832629240659812E+00 
    1.5214945170800853E+00 
    1.5857114081457531E+00 
    1.5247260294939553E+00 
    1.4599071531957881E+00 
    1.3993299006801150E+00 
    1.4638467099955910E+00 
    1.6521122149371905E+00 
    1.5886244442773627E+00 
    1.5276190421653495E+00 
    1.5908566774541191E+00 
    1.5367349994829014E+00 
    1.5438729131407569E+00 
    1.4439210000481402E+00 
    1.4223073190793885E+00 
    1.5506165776968142E+00 
    1.5570362084397706E+00 
    1.4864820335871398E+00 
    1.4651632154021113E+00 
    1.3805143719365709E+00 
    1.4156805327473776E+00 
    1.3446933125984843E+00 
    1.2971522864014797E+00 
    1.3130344144664303E+00 
    1.3462788111870145E+00 
    1.2534351957976404E+00 
    1.2143074217834084E+00 
    3.2099954929871366E+00 
    3.1370489584573007E+00 
    3.1121258386378119E+00 
    3.1826866816112278E+00 
    3.0445883735388657E+00 
    2.9412275894266990E+00 
    2.9351956527708927E+00 
    3.0273447363329429E+00 
    3.0118137342230762E+00 
    2.9300863315434071E+00 
    2.9260842608760367E+00 
    2.9969960614509645E+00 
    3.1515434638316879E+00 
    3.0870651082172893E+00 
    3.0614892596133965E+00 
    3.1167666669035872E+00 
    2.8307646463510365E+00 
    2.7148653282620243E+00 
    2.7396177930625840E+00 
    2.8392603690085934E+00 
    2.5932870192174584E+00 
    2.4625215648502286E+00 
    2.5295129088794952E+00 
    2.6366551016717810E+00 
    2.6794038242041531E+00 
    2.5923329760102551E+00 
    2.6525624825177250E+00 
    2.7218146291969414E+00 
    2.8485921308798665E+00 
    2.7649166086492873E+00 
    2.7907491976529988E+00 
    2.8588194022498912E+00 
    3.0761824817834307E+00 
    3.0239855980236263E+00 
    2.9725301304105796E+00 
    3.0295499955803669E+00 
    2.9623564242400948E+00 
    2.8959842615688371E+00 
    2.8361880435648903E+00 
    2.9043185088992485E+00 
    2.8429063622926489E+00 
    2.7755949658926706E+00 
    2.7150506728858166E+00 
    2.7813241394198709E+00 
    2.9787930510165954E+00 
    2.9150630122094214E+00 
    2.8518546288786433E+00 
    2.9211820663155756E+00 
    2.8261373539563492E+00 
    2.7664236248872336E+00 
    2.6659441641765742E+00 
    2.7053191433492545E+00 
    2.7083898467328638E+00 
    2.6507117122208670E+00 
    2.5838837968405182E+00 
    2.6257811302685976E+00 
    2.5471232437725373E+00 
    2.5202889132787254E+00 
    2.4614691330883915E+00 
    2.4739664870201690E+00 
    2.5945326442281416E+00 
    2.5716527098281992E+00 
    2.4842453901926822E+00 
    2.4924697235061384E+00 
    2.5869304612468298E+00 
    2.5139245757632342E+00 
    2.4568142748768662E+00 
    2.5280486975018608E+00 
    2.4290302452354062E+00 
    2.3176538459682989E+00 
    2.2901930030947253E+00 
    2.3780173907567903E+00 
    2.3420614867389853E+00 
    2.2757176582007532E+00 
    2.2660397759266506E+00 
    2.3150760384475570E+00 
    2.4737013850742806E+00 
    2.4086683889061136E+00 
    2.3686635078976344E+00 
    2.4250115159541958E+00 
    2.4031568363023514E+00 
    2.4061316144530247E+00 
    2.3396229514612923E+00 
    2.3303639682684674E+00 
    2.4068462956781111E+00 
    2.4053591495356361E+00 
    2.3507295449884453E+00 
    2.3462876214425124E+00 
    2.2960700878728444E+00 
    2.3021110411487156E+00 
    2.2609203882801108E+00 
    2.2574936260513239E+00 
    2.2781496817600351E+00 
    2.2881488988913210E+00 
    2.2531596434005730E+00 
    2.2477985470386002E+00 
    1.4923399174178222E+00 
    1.3699681376806985E+00 
    1.3294898486883708E+00 
    1.4368654625640236E+00 
    1.2414289442228650E+00 
    1.1017484324829940E+00 
    1.0950890154808592E+00 
    1.2168444703073966E+00 
    1.1949004745466849E+00 
    1.0918579512589084E+00 
    1.0920019206013880E+00 
    1.1762749906968470E+00 
    1.3823750735911620E+00 
    1.2908107930985269E+00 
    1.2549052440112092E+00 
    1.3299655198469484E+00 
    9.4108770183837753E-01 
    7.3970971570654087E-01 
    7.9930933048526698E-01 
    9.5871673829195814E-01 
    4.5478392993056516E-01 
    0.0000000000000000E+00 
    3.2572660465345044E-01 
    5.9817476694949934E-01 
    7.2307191597618736E-01 
    5.6364338378302947E-01 
    7.4252623763287362E-01 
    8.3159814726007153E-01 
    9.8014531562000118E-01 
    8.5985933123079905E-01 
    9.1924277911620467E-01 
    1.0043983622391219E+00 
    1.2769179202553695E+00 
    1.2100411639909743E+00 
    1.1587069387773794E+00 
    1.2259597007862169E+00 
    1.1388202064991468E+00 
    1.0610294953638504E+00 
    9.9765742881180242E-01 
    1.0836003955232434E+00 
    1.0359519238602446E+00 
    9.3813204642018433E-01 
    8.8482315282722190E-01 
    9.9911663363870529E-01 
    1.1846672474436568E+00 
    1.1171932411072036E+00 
    1.0894953474941145E+00 
    1.1586573488258722E+00 
    2.0262762682849784E+00 
    1.8943148064695934E+00 
    1.8506177536464006E+00 
    1.9589950145958741E+00 
    1.7705301853249737E+00 
    1.6508417380931570E+00 
    1.6425712620544031E+00 
    1.7455743290995769E+00 
    1.7205599065767354E+00 
    1.6340564471310155E+00 
    1.6253419702952838E+00 
    1.6955710523269107E+00 
    1.8960880604058277E+00 
    1.8078458374452400E+00 
    1.7658971036817475E+00 
    1.8361008391725988E+00 
    1.5339596597961065E+00 
    1.4203599804704576E+00 
    1.4418731625089214E+00 
    1.5412579432764484E+00 
    1.3122889955814141E+00 
    1.2145559747961652E+00 
    1.2536697904393672E+00 
    1.3454198259739700E+00 
    1.3796103724342876E+00 
    1.2974113157398648E+00 
    1.3449832030577507E+00 
    1.4149722294138540E+00 
    1.5482988237867141E+00 
    1.4633834640062799E+00 
    1.4849714989340772E+00 
    1.5551520893415940E+00 
    1.7744351811696617E+00 
    1.7130457187801629E+00 
    1.6493280937383947E+00 
    1.7104461748759676E+00 
    1.6512157517663812E+00 
    1.5893059031598835E+00 
    1.5263111564078369E+00 
    1.5877860121928609E+00 
    1.5242627195041363E+00 
    1.4631685714791425E+00 
    1.3995455308811311E+00 
    1.4602024706809100E+00 
    1.6471848891517020E+00 
    1.5857705275939205E+00 
    1.5219504967698101E+00 
    1.5840071005494798E+00 
    2.1714854329630424E+00 
    2.0600521274458479E+00 
    2.1113865510412060E+00 
    2.1991866410073171E+00 
    1.9751807745655670E+00 
    1.9023647197275100E+00 
    1.9616236661609683E+00 
    2.0327034265512194E+00 
    2.0809900926146576E+00 
    2.0161707468345536E+00 
    2.0648428813045996E+00 
    2.1209876910496224E+00 
    2.2137032569300423E+00 
    2.1474909619649272E+00 
    2.1743868728656421E+00 
    2.2232731113225284E+00 
    1.8391448219882527E+00 
    1.7826413322839774E+00 
    1.8647735907109959E+00 
    1.9061717761731469E+00 
    1.7276690535563684E+00 
    1.6733457625963943E+00 
    1.7872565272731922E+00 
    1.8253827021518785E+00 
    1.9191098222271064E+00 
    1.8965873084932692E+00 
    1.9979257090575475E+00 
    2.0061385559111846E+00 
    1.9698957608472514E+00 
    1.9433893851071118E+00 
    2.0163425430972501E+00 
    2.0287202792403400E+00 
    2.2280980176886098E+00 
    2.1871145203534996E+00 
    2.1930225326444872E+00 
    2.2313436977507917E+00 
    2.1387890895616950E+00 
    2.0844580719002272E+00 
    2.0830703255739627E+00 
    2.1431704060631911E+00 
    2.1498116425222507E+00 
    2.0838711796694440E+00 
    2.0869063177001128E+00 
    2.1589843092294512E+00 
    2.2355257257299757E+00 
    2.2008296249154262E+00 
    2.2107393865071305E+00 
    2.2408460594515311E+00 
    1.1589668045069295E+00 
    1.0900302031848805E+00 
    1.1186206556236959E+00 
    1.1855267138546535E+00 
    9.9980916825503374E-01 
    8.8554573362151257E-01 
    9.4016484595298910E-01 
    1.0378499313045937E+00 
    1.0863737631078487E+00 
    1.0008058294246169E+00 
    1.0648855156780808E+00 
    1.1420953512825676E+00 
    1.2271648536565969E+00 
    1.1608310213723667E+00 
    1.2124311962087742E+00 
    1.2782789870268410E+00 
    7.4322449146253056E-01 
    5.6422916504737808E-01 
    7.2521255304256593E-01 
    8.3369122221709302E-01 
    3.2606160390061389E-01 
    0.0000000000000000E+00 
    4.5629677561243931E-01 
    6.0006288608998981E-01 
    8.0300486463599285E-01 
    7.4313700902961499E-01 
    9.4616047331570896E-01 
    9.6365398567722793E-01 
    9.2256975004453223E-01 
    8.6341669309531877E-01 
    9.8477075393547475E-01 
    1.0085390848120865E+00 
    1.3312581175337375E+00 
    1.2573137498992377E+00 
    1.2932503343564565E+00 
    1.3836064208287453E+00 
    1.1797628562782290E+00 
    1.0962865748061132E+00 
    1.0965793422095111E+00 
    1.1986435122669263E+00 
    1.2206059891748577E+00 
    1.1000650648781736E+00 
    1.1067687665277095E+00 
    1.2450202171328850E+00 
    1.4379566556518084E+00 
    1.3317575036737188E+00 
    1.3719200458204341E+00 
    1.4932235998821537E+00 
    2.3100337288390902E+00 
    2.4556499987305522E+00 
    2.4392181603940566E+00 
    2.3049680237916230E+00 
    2.5980830191221775E+00 
    2.7356672157337654E+00 
    2.6977699380899365E+00 
    2.5705318897417690E+00 
    2.5450016915932423E+00 
    2.6615402842074678E+00 
    2.6263485005393328E+00 
    2.5209689605970826E+00 
    2.3009613274974976E+00 
    2.4246443849780901E+00 
    2.4115442469219830E+00 
    2.2979149415634477E+00 
    2.8639439391202659E+00 
    2.9820243337341137E+00 
    2.9146494927961801E+00 
    2.8120056246376657E+00 
    3.0907553776429215E+00 
    3.1878225870035584E+00 
    3.1064770340713417E+00 
    3.0129773047002502E+00 
    2.9304827058254146E+00 
    3.0132831833143809E+00 
    2.9104626169004750E+00 
    2.8432891329534744E+00 
    2.7609404685591104E+00 
    2.8463516464434941E+00 
    2.7764765471996982E+00 
    2.7100567582540962E+00 
    2.3031057809190698E+00 
    2.4197714255281344E+00 
    2.4521974648553204E+00 
    2.3192755561420539E+00 
    2.5298097257159200E+00 
    2.6344730547223438E+00 
    2.6869501258910100E+00 
    2.5735527075463116E+00 
    2.6209082297254525E+00 
    2.7411349758842185E+00 
    2.7970402173924542E+00 
    2.6724537755185156E+00 
    2.3425984637610893E+00 
    2.4905323035184028E+00 
    2.5370860230860699E+00 
    2.3787806883553286E+00 
    2.1628881651763954E+00 
    2.0162899328563935E+00 
    2.0335654694919025E+00 
    2.1688278888193895E+00 
    1.8718759642051683E+00 
    1.7310030803887821E+00 
    1.7706877108553254E+00 
    1.9005525121189593E+00 
    1.9278386126744977E+00 
    1.8091780592228925E+00 
    1.8468849635668161E+00 
    1.9540942998884674E+00 
    2.1744898844476852E+00 
    2.0497405575585916E+00 
    2.0649494953305179E+00 
    2.1797467031223254E+00 
    1.5977259400776076E+00 
    1.4724647488653415E+00 
    1.5465103545142671E+00 
    1.6530621250093009E+00 
    1.3535002243855068E+00 
    1.2421683550381257E+00 
    1.3432225553152495E+00 
    1.4431624357012083E+00 
    1.5351911496282302E+00 
    1.4509321664860055E+00 
    1.5632366068758705E+00 
    1.6295136140611006E+00 
    1.7076614036611473E+00 
    1.6208563265558635E+00 
    1.6958127730287771E+00 
    1.7620125366417654E+00 
    2.1768939614688878E+00 
    2.0588430213498969E+00 
    2.0284484978889865E+00 
    2.1629676865052776E+00 
    1.9471947151508937E+00 
    1.8405138480831982E+00 
    1.7892237278597585E+00 
    1.9051859362907044E+00 
    1.8597663977764529E+00 
    1.7365672499182534E+00 
    1.6825448046329445E+00 
    1.8103039623605794E+00 
    2.1415949844734956E+00 
    1.9921386101656930E+00 
    1.9474301489425934E+00 
    2.1068736231982763E+00 
    2.3814913007557439E+00 
    2.5393971687385677E+00 
    2.4923761986472033E+00 
    2.3447186624020211E+00 
    2.6741349660352256E+00 
    2.7980218193860638E+00 
    2.7419743836159087E+00 
    2.6223009203176373E+00 
    2.5746913253783719E+00 
    2.6876950120426857E+00 
    2.6351351062602508E+00 
    2.5307296671421127E+00 
    2.3208646374085276E+00 
    2.4536584963383072E+00 
    2.4208661882626630E+00 
    2.3042281542515743E+00 
    2.9109220291073798E+00 
    3.0132625714161718E+00 
    2.9305334926526250E+00 
    2.8437104070791688E+00 
    3.1064685820855340E+00 
    3.1879443184269221E+00 
    3.0907630760972040E+00 
    3.0129677071667480E+00 
    2.9146618248821250E+00 
    2.9820016461368968E+00 
    2.8639382415547932E+00 
    2.8120691867616809E+00 
    2.7768900007421138E+00 
    2.8464885990823174E+00 
    2.7611308713292697E+00 
    2.7104670333567271E+00 
    2.2985852260218849E+00 
    2.4122737532910925E+00 
    2.4250756967227169E+00 
    2.3013032515318725E+00 
    2.5216256163419684E+00 
    2.6268480060112021E+00 
    2.6618237833598859E+00 