# vtk DataFile Version 2.0
Pressure Field Data 
ASCII 
DATASET UNSTRUCTURED_GRID 

POINTS 801 double 

    0.0000000000000000E+00     0.0000000000000000E+00     0.0000000000000000E+00 
    1.0000000000000000E+00     0.0000000000000000E+00     0.0000000000000000E+00 
    1.0000000000000000E+00     1.0000000000000000E+00     0.0000000000000000E+00 
    0.0000000000000000E+00     1.0000000000000000E+00     0.0000000000000000E+00 
    2.5000000000000000E-01     2.5000000000000000E-01     0.0000000000000000E+00 
    7.5000000000000000E-01     2.5000000000000000E-01     0.0000000000000000E+00 
    7.5000000000000000E-01     7.5000000000000000E-01     0.0000000000000000E+00 
    2.5000000000000000E-01     7.5000000000000000E-01     0.0000000000000000E+00 
    2.4999999999941941E-01     0.0000000000000000E+00     0.0000000000000000E+00 
    4.9999999999869399E-01     0.0000000000000000E+00     0.0000000000000000E+00 
    7.4999999999934697E-01     0.0000000000000000E+00     0.0000000000000000E+00 
    1.2499999999977940E-01     0.0000000000000000E+00     0.0000000000000000E+00 
    3.7499999999905670E-01     0.0000000000000000E+00     0.0000000000000000E+00 
    6.2499999999902045E-01     0.0000000000000000E+00     0.0000000000000000E+00 
    8.7499999999967348E-01     0.0000000000000000E+00     0.0000000000000000E+00 
    6.2499999999889699E-02     0.0000000000000000E+00     0.0000000000000000E+00 
    1.8749999999959940E-01     0.0000000000000000E+00     0.0000000000000000E+00 
    3.1249999999923811E-01     0.0000000000000000E+00     0.0000000000000000E+00 
    4.3749999999887529E-01     0.0000000000000000E+00     0.0000000000000000E+00 
    5.6249999999885725E-01     0.0000000000000000E+00     0.0000000000000000E+00 
    6.8749999999918376E-01     0.0000000000000000E+00     0.0000000000000000E+00 
    8.1249999999951017E-01     0.0000000000000000E+00     0.0000000000000000E+00 
    9.3749999999983680E-01     0.0000000000000000E+00     0.0000000000000000E+00 
    1.0000000000000000E+00     2.4999999999941941E-01     0.0000000000000000E+00 
    1.0000000000000000E+00     4.9999999999869399E-01     0.0000000000000000E+00 
    1.0000000000000000E+00     7.4999999999934697E-01     0.0000000000000000E+00 
    1.0000000000000000E+00     1.2499999999977940E-01     0.0000000000000000E+00 
    1.0000000000000000E+00     3.7499999999905670E-01     0.0000000000000000E+00 
    1.0000000000000000E+00     6.2499999999902045E-01     0.0000000000000000E+00 
    1.0000000000000000E+00     8.7499999999967348E-01     0.0000000000000000E+00 
    1.0000000000000000E+00     6.2499999999889699E-02     0.0000000000000000E+00 
    1.0000000000000000E+00     1.8749999999959940E-01     0.0000000000000000E+00 
    1.0000000000000000E+00     3.1249999999923811E-01     0.0000000000000000E+00 
    1.0000000000000000E+00     4.3749999999887529E-01     0.0000000000000000E+00 
    1.0000000000000000E+00     5.6249999999885725E-01     0.0000000000000000E+00 
    1.0000000000000000E+00     6.8749999999918376E-01     0.0000000000000000E+00 
    1.0000000000000000E+00     8.1249999999951017E-01     0.0000000000000000E+00 
    1.0000000000000000E+00     9.3749999999983680E-01     0.0000000000000000E+00 
    7.5000000000112044E-01     1.0000000000000000E+00     0.0000000000000000E+00 
    5.0000000000205913E-01     1.0000000000000000E+00     0.0000000000000000E+00 
    2.5000000000102962E-01     1.0000000000000000E+00     0.0000000000000000E+00 
    8.7499999999991362E-01     1.0000000000000000E+00     0.0000000000000000E+00 
    6.2499999999988309E-01     1.0000000000000000E+00     0.0000000000000000E+00 
    3.7499999999869987E-01     1.0000000000000000E+00     0.0000000000000000E+00 
    1.2499999999880820E-01     1.0000000000000000E+00     0.0000000000000000E+00 
    9.3749999999995681E-01     1.0000000000000000E+00     0.0000000000000000E+00 
    8.1250000000051703E-01     1.0000000000000000E+00     0.0000000000000000E+00 
    6.8750000000050182E-01     1.0000000000000000E+00     0.0000000000000000E+00 
    5.6250000000097111E-01     1.0000000000000000E+00     0.0000000000000000E+00 
    4.3750000000037947E-01     1.0000000000000000E+00     0.0000000000000000E+00 
    3.1249999999986477E-01     1.0000000000000000E+00     0.0000000000000000E+00 
    1.8749999999991890E-01     1.0000000000000000E+00     0.0000000000000000E+00 
    6.2499999999404102E-02     1.0000000000000000E+00     0.0000000000000000E+00 
    0.0000000000000000E+00     7.5000000000112044E-01     0.0000000000000000E+00 
    0.0000000000000000E+00     5.0000000000205913E-01     0.0000000000000000E+00 
    0.0000000000000000E+00     2.5000000000102962E-01     0.0000000000000000E+00 
    0.0000000000000000E+00     8.7499999999991362E-01     0.0000000000000000E+00 
    0.0000000000000000E+00     6.2499999999988309E-01     0.0000000000000000E+00 
    0.0000000000000000E+00     3.7499999999869987E-01     0.0000000000000000E+00 
    0.0000000000000000E+00     1.2499999999880820E-01     0.0000000000000000E+00 
    0.0000000000000000E+00     9.3749999999995681E-01     0.0000000000000000E+00 
    0.0000000000000000E+00     8.1250000000051703E-01     0.0000000000000000E+00 
    0.0000000000000000E+00     6.8750000000050182E-01     0.0000000000000000E+00 
    0.0000000000000000E+00     5.6250000000097111E-01     0.0000000000000000E+00 
    0.0000000000000000E+00     4.3750000000037947E-01     0.0000000000000000E+00 
    0.0000000000000000E+00     3.1249999999986477E-01     0.0000000000000000E+00 
    0.0000000000000000E+00     1.8749999999991890E-01     0.0000000000000000E+00 
    0.0000000000000000E+00     6.2499999999404102E-02     0.0000000000000000E+00 
    4.9999999999972200E-01     2.5000000000000000E-01     0.0000000000000000E+00 
    3.7500000000067490E-01     2.5000000000000000E-01     0.0000000000000000E+00 
    6.2500000000042988E-01     2.5000000000000000E-01     0.0000000000000000E+00 
    3.1250000000033751E-01     2.5000000000000000E-01     0.0000000000000000E+00 
    4.3750000000019851E-01     2.5000000000000000E-01     0.0000000000000000E+00 
    5.6250000000007594E-01     2.5000000000000000E-01     0.0000000000000000E+00 
    6.8750000000021494E-01     2.5000000000000000E-01     0.0000000000000000E+00 
    7.5000000000000000E-01     4.9999999999972200E-01     0.0000000000000000E+00 
    7.5000000000000000E-01     3.7500000000067490E-01     0.0000000000000000E+00 
    7.5000000000000000E-01     6.2500000000042988E-01     0.0000000000000000E+00 
    7.5000000000000000E-01     3.1250000000033751E-01     0.0000000000000000E+00 
    7.5000000000000000E-01     4.3750000000019851E-01     0.0000000000000000E+00 
    7.5000000000000000E-01     5.6250000000007594E-01     0.0000000000000000E+00 
    7.5000000000000000E-01     6.8750000000021494E-01     0.0000000000000000E+00 
    5.0000000000118039E-01     7.5000000000000000E-01     0.0000000000000000E+00 
    6.2500000000161415E-01     7.5000000000000000E-01     0.0000000000000000E+00 
    3.7500000000140910E-01     7.5000000000000000E-01     0.0000000000000000E+00 
    6.8750000000080713E-01     7.5000000000000000E-01     0.0000000000000000E+00 
    5.6250000000139733E-01     7.5000000000000000E-01     0.0000000000000000E+00 
    4.3750000000129469E-01     7.5000000000000000E-01     0.0000000000000000E+00 
    3.1250000000070460E-01     7.5000000000000000E-01     0.0000000000000000E+00 
    2.5000000000000000E-01     5.0000000000118039E-01     0.0000000000000000E+00 
    2.5000000000000000E-01     6.2500000000161415E-01     0.0000000000000000E+00 
    2.5000000000000000E-01     3.7500000000140910E-01     0.0000000000000000E+00 
    2.5000000000000000E-01     6.8750000000080713E-01     0.0000000000000000E+00 
    2.5000000000000000E-01     5.6250000000139733E-01     0.0000000000000000E+00 
    2.5000000000000000E-01     4.3750000000129469E-01     0.0000000000000000E+00 
    2.5000000000000000E-01     3.1250000000070460E-01     0.0000000000000000E+00 
    3.7499999999934702E-01     1.2500000000000000E-01     0.0000000000000000E+00 
    1.2500000000000000E-01     1.2500000000000000E-01     0.0000000000000000E+00 
    1.2500000000000000E-01     3.7500000000102962E-01     0.0000000000000000E+00 
    8.7500000000000000E-01     1.2500000000000000E-01     0.0000000000000000E+00 
    6.2499999999934697E-01     1.2500000000000000E-01     0.0000000000000000E+00 
    8.7500000000000000E-01     3.7499999999934702E-01     0.0000000000000000E+00 
    8.7500000000000000E-01     6.2499999999934697E-01     0.0000000000000000E+00 
    1.2500000000000000E-01     6.2500000000102962E-01     0.0000000000000000E+00 
    1.2500000000000000E-01     8.7500000000000000E-01     0.0000000000000000E+00 
    8.7500000000000000E-01     8.7500000000000000E-01     0.0000000000000000E+00 
    6.2500000000102962E-01     8.7500000000000000E-01     0.0000000000000000E+00 
    3.7500000000102962E-01     8.7500000000000000E-01     0.0000000000000000E+00 
    2.4999999999957681E-01     8.3333333333333329E-02     0.0000000000000000E+00 
    8.3333333333333329E-02     2.5000000000068640E-01     0.0000000000000000E+00 
    7.4999999999956468E-01     8.3333333333333329E-02     0.0000000000000000E+00 
    4.9999999999951827E-01     1.6666666666666671E-01     0.0000000000000000E+00 
    9.1666666666666674E-01     2.4999999999957681E-01     0.0000000000000000E+00 
    8.3333333333333337E-01     4.9999999999951827E-01     0.0000000000000000E+00 
    1.6666666666666671E-01     5.0000000000088307E-01     0.0000000000000000E+00 
    8.3333333333333329E-02     7.5000000000070155E-01     0.0000000000000000E+00 
    9.1666666666666674E-01     7.4999999999956468E-01     0.0000000000000000E+00 
    5.0000000000088307E-01     8.3333333333333348E-01     0.0000000000000000E+00 
    2.5000000000068640E-01     9.1666666666666674E-01     0.0000000000000000E+00 
    7.5000000000070155E-01     9.1666666666666674E-01     0.0000000000000000E+00 
[...]
CELL_DATA 768 
SCALARS Pressure double 1 
LOOKUP_TABLE default 

    1.9637133986259669E+00 
    1.8705484334191484E+00 
    1.8406149073311651E+00 
    1.8974658743929915E+00 
    1.8097857447395005E+00 
    1.7636955360743245E+00 
    1.7596268451474166E+00 
    1.7967623278986178E+00 
    1.7833630959162654E+00 
    1.7547012705242924E+00 
    1.7490837690411676E+00 
    1.7699484455996892E+00 
    1.8483266469773822E+00 
    1.8140890348798131E+00 
    1.7903971801820655E+00 
    1.8103594286914368E+00 
    1.7233587341764802E+00 
    1.6849116035174263E+00 
    1.6920859459183812E+00 
    1.7252518376610653E+00 
    1.6463534735750487E+00 
    1.6067417351388469E+00 
    1.6251214174067323E+00 
    1.6589722773452766E+00 
    1.6709103473643612E+00 
    1.6428258430480698E+00 
    1.6595554774078329E+00 
    1.6819431443606470E+00 
    1.7263644528700020E+00 
    1.6985542863396907E+00 
    1.7041719683392198E+00 
    1.7266967039720127E+00 
    1.7788606533701810E+00 
    1.7662000136612497E+00 
    1.7427946559376202E+00 
    1.7522574245212035E+00 
    1.7515088198227227E+00 
    1.7352198573746345E+00 
    1.7149731029474520E+00 
    1.7301318397048013E+00 
    1.7104276196719923E+00 
    1.6954394947943376E+00 
    1.6761327968502053E+00 
    1.6917835326860353E+00 
    1.7302180185954370E+00 
    1.7223658705189795E+00 
    1.7044263398307642E+00 
    1.7126990111657179E+00 
    1.9637579964987482E+00 
    1.8975254595755853E+00 
    1.8408242748328800E+00 
    1.8707463866840652E+00 
    1.8483977270878718E+00 
    1.8104291248897764E+00 
    1.7905890790065260E+00 
    1.8142924533733660E+00 
    1.7836766079840192E+00 
    1.7702156238150630E+00 
    1.7493886676311043E+00 
    1.7550550050392331E+00 
    1.8101194165913339E+00 
    1.7970907875464404E+00 
    1.7600198476059961E+00 
    1.7640986260837221E+00 
    1.7789302639172435E+00 
    1.7523154313484417E+00 
    1.7429363952103345E+00 
    1.7663767464699480E+00 
    1.7302443603631530E+00 
    1.7127350551059859E+00 
    1.7044520275542701E+00 
    1.7224401017306490E+00 
    1.7104847374562160E+00 
    1.6916930947574220E+00 
    1.6759072290190924E+00 
    1.6954141148686177E+00 
    1.7517411540634849E+00 
    1.7302925609451525E+00 
    1.7151050527763521E+00 
    1.7354553724466513E+00 
    1.7236905779704474E+00 
    1.7255694866536428E+00 
    1.6921813531303382E+00 
    1.6849689071234404E+00 
    1.7266482608891189E+00 
    1.7269301094495979E+00 
    1.7042626121674771E+00 
    1.6986458412393415E+00 
    1.6707658593352841E+00 
    1.6818317089775172E+00 
    1.6592054170281356E+00 
    1.6424278976422366E+00 
    1.6461202103655470E+00 
    1.6587877403978339E+00 
    1.6247072638425499E+00 
    1.6063156904964666E+00 
    1.5430848986748833E+00 
    1.5001967883923428E+00 
    1.4853623301120624E+00 
    1.5227642128770764E+00 
    1.4574856012167128E+00 
    1.4166255396942096E+00 
    1.4130917710830246E+00 
    1.4483600228698723E+00 
    1.4382823649494652E+00 
    1.4085446620924458E+00 
    1.4029008061591346E+00 
    1.4269907840842295E+00 
    1.5016368725729146E+00 
    1.4696616834827858E+00 
    1.4527000369663576E+00 
    1.4792642001159735E+00 
    1.3797880499907038E+00 
    1.3491935159060793E+00 
    1.3527883532954015E+00 
    1.3808135339917711E+00 
    1.3267862945237419E+00 
    1.3134242083190275E+00 
    1.3153779296348349E+00 
    1.3307055594785062E+00 
    1.3333647768408439E+00 
    1.3163634589416315E+00 
    1.3165786417651077E+00 
    1.3348953389135250E+00 
    1.3807150199489975E+00 
    1.3550311657591354E+00 
    1.3560976584920434E+00 
    1.3795202486816407E+00 
    1.4534577178493926E+00 
    1.4295444315239929E+00 
    1.3991551158864086E+00 
    1.4228052389002122E+00 
    1.4072721335110590E+00 
    1.3872298904487761E+00 
    1.3628839648743163E+00 
    1.3792631090864742E+00 
    1.3498335800217172E+00 
    1.3392545911619562E+00 
    1.3171892468395112E+00 
    1.3197715271014314E+00 
    1.3859597225826292E+00 
    1.3645338946313195E+00 
    1.3247176707915800E+00 
    1.3362751252087621E+00 
    1.5752499295450284E+00 
    1.5524902465000057E+00 
    1.5744984354431657E+00 
    1.5968327560585542E+00 
    1.5289567263404411E+00 
    1.5043742184224622E+00 
    1.5276930806335878E+00 
    1.5515039131266686E+00 
    1.5736880965363675E+00 
    1.5506649460804562E+00 
    1.5730756349916331E+00 
    1.5953156425887982E+00 
    1.6177779165575168E+00 
    1.5960343988771966E+00 
    1.6169016243274683E+00 
    1.6378856411378284E+00 
    1.4798680340556665E+00 
    1.4552971031528172E+00 
    1.4906980068731623E+00 
    1.5072924716334699E+00 
    1.4287999634519772E+00 
    1.3997251509818924E+00 
    1.4556170468207816E+00 
    1.4734879854520002E+00 
    1.5148479482919459E+00 
    1.5051691917451546E+00 
    1.5505980525057490E+00 
    1.5536339912108286E+00 
    1.5340505362280004E+00 
    1.5245046045004682E+00 
    1.5567872081390697E+00 
    1.5599960688066430E+00 
    1.6555615206982919E+00 
    1.6329861101922465E+00 
    1.6446293451891949E+00 
    1.6707206635353655E+00 
    1.6095080077144568E+00 
    1.5851050630872441E+00 
    1.5874638384765021E+00 
    1.6168317836267867E+00 
    1.6240547436469879E+00 
    1.5898773485652176E+00 
    1.5923531331787757E+00 
    1.6312000454554305E+00 
    1.6845133179722558E+00 
    1.6557570808369564E+00 
    1.6664054108330706E+00 
    1.6968130262935281E+00 
    1.3101041758979994E+00 
    1.2946767068726961E+00 
    1.2893608841087523E+00 
    1.3071122219693865E+00 
    1.2680169992407273E+00 
    1.2307723498270540E+00 
    1.2291464241456520E+00 
    1.2631510163687838E+00 
    1.2592878888580574E+00 
    1.2285278718741544E+00 
    1.2288984915736423E+00 
    1.2564303750284336E+00 
    1.3041193423513122E+00 
    1.2847130843522476E+00 
    1.2807473407167842E+00 
    1.3012004504149812E+00 
    1.1851794407467540E+00 
    1.1326384576111728E+00 
    1.1444418704898032E+00 
    1.1894623854331834E+00 
    1.0751628552670385E+00 
    1.0140065630049955E+00 
    1.0435067756728451E+00 
    1.0954631283094864E+00 
    1.1160392130418100E+00 
    1.0728742693556146E+00 
    1.1025639306767863E+00 
    1.1373989577069572E+00 
    1.1945342854629180E+00 
    1.1569057570736565E+00 
    1.1702970105971318E+00 
    1.2005466599438603E+00 
    1.2971551775979753E+00 
    1.2731723623373981E+00 
    1.2586060207900784E+00 
    1.2906985509596378E+00 
    1.2467102048687277E+00 
    1.2186078202921879E+00 
    1.1936233852150120E+00 
    1.2259753584200592E+00 
    1.2011595975787726E+00 
    1.1656589728387410E+00 
    1.1352090129147752E+00 
    1.1719168078617412E+00 
    1.2818042026894632E+00 
    1.2396496225468838E+00 
    1.2135526853965468E+00 
    1.2665456190477662E+00 
    1.1974482703262865E+00 
    1.1637900354626827E+00 
    1.1082327606778648E+00 
    1.1305026050775142E+00 
    1.1318482148637736E+00 
    1.1009898569573684E+00 
    1.0642889008890295E+00 
    1.0861878262523341E+00 
    1.0403650017020545E+00 
    1.0270422479295613E+00 
    9.8925283029774136E-01 
    9.9402031242844813E-01 
    1.0664768206393844E+00 
    1.0534793740451547E+00 
    9.9857955959645539E-01 
    1.0029159088808242E+00 
    1.0687440888555721E+00 
    1.0347289429502327E+00 
    1.0019313987206369E+00 
    1.0362822700384915E+00 
    1.0006329985733682E+00 
    9.6572725748910104E-01 
    9.3124756591098312E-01 
    9.6705251578253271E-01 
    9.3290066657200454E-01 
    8.9637287117286646E-01 
    8.6166467470824659E-01 
    8.9848078094829864E-01 
    1.0031627421608271E+00 
    9.6838846035737325E-01 
    9.3437864905575396E-01 
    9.6946945026331510E-01 
    9.3925194589848704E-01 
    9.4325741963914289E-01 
    8.8687259437746935E-01 
    8.7446381373429549E-01 
    9.4704070921239381E-01 
    9.5065493319527117E-01 
    9.1115914063946657E-01 
    8.9901497690668697E-01 
    8.5057973775552309E-01 
    8.7091877582570831E-01 
    8.2995626750485474E-01 
    8.0204448088747426E-01 
    8.1105443307317637E-01 
    8.3063243949179177E-01 
    7.7604740740177358E-01 
    7.5226502073580293E-01 
    1.6969909123616338E+00 
    1.6661075854615075E+00 
    1.6552583000783969E+00 
    1.6844227969613408E+00 
    1.6302143203833817E+00 
    1.5907347145729267E+00 
    1.5884064466200500E+00 
    1.6230254842549243E+00 
    1.6157991144178221E+00 
    1.5861297521357234E+00 
    1.5839011651710604E+00 
    1.6085030103062787E+00 
    1.6704198294172474E+00 
    1.6439820264664269E+00 
    1.6322495137135469E+00 
    1.6550970976713315E+00 
    1.5490138105538667E+00 
    1.5043204462666839E+00 
    1.5139486852653155E+00 
    1.5522011155201318E+00 
    1.4556851906311803E+00 
    1.4002940618595749E+00 
    1.4290643017854041E+00 
    1.4732647653654272E+00 
    1.4902805548790992E+00 
    1.4552911055050064E+00 
    1.4796631257841868E+00 
    1.5067747269159786E+00 
    1.5554801418677167E+00 
    1.5235879448800795E+00 
    1.5331666806608211E+00 
    1.5588207947658954E+00 
    1.6372996518678400E+00 
    1.6160828209059308E+00 
    1.5952595902399489E+00 
    1.6171976218625455E+00 
    1.5943125381075873E+00 
    1.5719734692779881E+00 
    1.5497819376883548E+00 
    1.5728229542993655E+00 
    1.5508369940427047E+00 
    1.5271013763893118E+00 
    1.5040156934667483E+00 
    1.5284809270809594E+00 
    1.5963000685795730E+00 
    1.5738760536157745E+00 
    1.5519873149432468E+00 
    1.5747878961637785E+00 
    1.5426921564345550E+00 
    1.5223916800246764E+00 
    1.4851633230610313E+00 
    1.4999555955659958E+00 
    1.5013370791206659E+00 
    1.4791041003825247E+00 
    1.4527022045609004E+00 
    1.4695395687127737E+00 
    1.4382891813889020E+00 
    1.4270757117676058E+00 
    1.4030042156190670E+00 
    1.4085526943001558E+00 
    1.4573765110567538E+00 
    1.4482832563130821E+00 
    1.4130163863436036E+00 
    1.4164854189915874E+00 
    1.4534771595319229E+00 
    1.4230449086695960E+00 
    1.3994774279042983E+00 
    1.4296805042553666E+00 
    1.3863992039005035E+00 
    1.3368308556685133E+00 
    1.3252988255975406E+00 
    1.3649968145123859E+00 
    1.3502489343304132E+00 
    1.3202722232653548E+00 
    1.3175086340120479E+00 
    1.3395252885594648E+00 
    1.4074571927671062E+00 
    1.3795754847744548E+00 
    1.3631129978545287E+00 
    1.3873934221482462E+00 
    1.3795893077303789E+00 
    1.3806772134029559E+00 
    1.3524834695153123E+00 
    1.3487577717200054E+00 
    1.3806608555156505E+00 
    1.3795675058176338E+00 
    1.3561328617647459E+00 
    1.3548809670764732E+00 
    1.3331224406556139E+00 
    1.3348942999130493E+00 
    1.3165824444262453E+00 
    1.3161083949864667E+00 
    1.3262158386718130E+00 
    1.3302748113823368E+00 
    1.3148985315444426E+00 
    1.3128406288077428E+00 
    9.1546708523589759E-01 
    8.4524004443968981E-01 
    8.2157205886188400E-01 
    8.8382789225823455E-01 
    7.6964188171772951E-01 
    6.8555414510949253E-01 
    6.8152686849391442E-01 
    7.5495304351474057E-01 
    7.4178535764668807E-01 
    6.7962767728788120E-01 
    6.7984260284113696E-01 
    7.3062072764155128E-01 
    8.5223504429856933E-01 
    7.9873815873428955E-01 
    7.7744127685117848E-01 
    8.2157105667254260E-01 
    5.8752949119275388E-01 
    4.6292883431387760E-01 
    5.0077043673777255E-01 
    5.9874202235387852E-01 
    2.8507154198893270E-01 
    0.0000000000000000E+00 
    2.0800452271201009E-01 
    3.7662503759147081E-01 
    4.5412527322522334E-01 
    3.5506444441582613E-01 
    4.6550406177359988E-01 
    5.2100098634274850E-01 
    6.1209835144242253E-01 
    5.3842223296373692E-01 
    5.7495697065539086E-01 
    6.2692008133382382E-01 
    7.9034215977264832E-01 
    7.5078417202716430E-01 
    7.2012716719890579E-01 
    7.6015757629654790E-01 
    7.0820421708994108E-01 
    6.6127727150659343E-01 
    6.2280877690501046E-01 
    6.7495179377860670E-01 
    6.4588984053395793E-01 
    5.8623318256370849E-01 
    5.5310117179149765E-01 
    6.2303826335000234E-01 
    7.3531176660322728E-01 
    6.9497492179741338E-01 
    6.7769022316979521E-01 
    7.1878082923616127E-01 
    1.1983906700578957E+00 
    1.1305245114132385E+00 
    1.1079420739751624E+00 
    1.1643159774975753E+00 
    1.0652297956353074E+00 
    1.0005684893648485E+00 
    9.9635537502815796E-01 
    1.0521484410552202E+00 
    1.0389577496080782E+00 
    9.9194997497735127E-01 
    9.8736760665223700E-01 
    1.0256707401049596E+00 
    1.1320251449656920E+00 
    1.0856332816825653E+00 
    1.0635418406760435E+00 
    1.1008669003375617E+00 
    9.3662932286211409E-01 
    8.7284929612167172E-01 
    8.8514775618812624E-01 
    9.4085343852298520E-01 
    8.1063471192428882E-01 
    7.5255501967239335E-01 
    7.7613399372324110E-01 
    8.2992323318224259E-01 
    8.4966183380830151E-01 
    8.0193293063395510E-01 
    8.2967762551478264E-01 
    8.6996168598615087E-01 
    9.4487979245993858E-01 
    8.9737614338345828E-01 
    9.0961440159879969E-01 
    9.4876869995063751E-01 
    1.0683743721422503E+00 
    1.0353608178568636E+00 
    1.0009062707928686E+00 
    1.0341664060676181E+00 
    1.0017508810105744E+00 
    9.6773915945900812E-01 
    9.3286585981057601E-01 
    9.6704530327105376E-01 
    9.3183116447117709E-01 
    8.9741455223790412E-01 
    8.6118797239651446E-01 
    8.9580210270372962E-01 
    1.0000582420907584E+00 
    9.6616990095260624E-01 
    9.3065529838781036E-01 
    9.6525812392399080E-01 
    1.2672249887222014E+00 
    1.2142546689877660E+00 
    1.2404312169427989E+00 
    1.2825004112716898E+00 
    1.1724863798061802E+00 
    1.1355817959731900E+00 
    1.1663921452270145E+00 
    1.2019702570794066E+00 
    1.2268738513944046E+00 
    1.1946068732819022E+00 
    1.2196672885250577E+00 
    1.2476130638053453E+00 
    1.2913180633241297E+00 
    1.2594174123133008E+00 
    1.2738742811897892E+00 
    1.2976202518026989E+00 
    1.1027570228661878E+00 
    1.0728455121677751E+00 
    1.1166368135913018E+00 
    1.1380728741877744E+00 
    1.0432731448361798E+00 
    1.0135975061235436E+00 
    1.0754027589085646E+00 
    1.0959004772364704E+00 
    1.1455358394265045E+00 
    1.1336964243788952E+00 
    1.1866049886945069E+00 
    1.1908282967523338E+00 
    1.1713100716390430E+00 
    1.1579709576168455E+00 
    1.1958167422716737E+00 
    1.2017175869619483E+00 
    1.3013828444906710E+00 
    1.2812464861210144E+00 
    1.2850456222339346E+00 
    1.3040552990298804E+00 
    1.2572560211863957E+00 
    1.2300031242982621E+00 
    1.2297093365759175E+00 
    1.2600866283193244E+00 
    1.2638661679731069E+00 
    1.2304021888849312E+00 
    1.2320701754069532E+00 
    1.2686573211054943E+00 
    1.3068044921881385E+00 
    1.2895182371783529E+00 
    1.2946636186399678E+00 
    1.3096285683942341E+00 
    7.1895849033243930E-01 
    6.7797146755181170E-01 
    6.9569334964329455E-01 
    7.3572400822453488E-01 
    6.2341431914030021E-01 
    5.5351423004866263E-01 
    5.8734075154319343E-01 
    6.4688563520067321E-01 
    6.7635200714806609E-01 
    6.2446658520003517E-01 
    6.6324701607833769E-01 
    7.0979279291433794E-01 
    7.6062714776938989E-01 
    7.2113586850806177E-01 
    7.5182569064589277E-01 
    7.9074498122519288E-01 
    4.6591852056023669E-01 
    3.5542314893911542E-01 
    4.5534610588991292E-01 
    5.2217621946335202E-01 
    2.0823286331416574E-01 
    0.0000000000000000E+00 
    2.8587956521525565E-01 
    3.7770076911699102E-01 
    5.0281971573525286E-01 
    4.6480090098871485E-01 
    5.9029414840548344E-01 
    6.0142177501566518E-01 
    5.7676297907090301E-01 
    5.4039038040225873E-01 
    6.1458211703229848E-01 
    6.2910612430217561E-01 
    8.2178043126587497E-01 
    7.7837396414126592E-01 
    7.9959362700620829E-01 
    8.5228359878780580E-01 
    7.3224898936570182E-01 
    6.8199627340815605E-01 
    6.8201814232623381E-01 
    7.4351259310892392E-01 
    7.5665193295725797E-01 
    6.8406993847276876E-01 
    6.8813048631827400E-01 
    7.7121244896385011E-01 
    8.8371315350560520E-01 
    8.2226306607888999E-01 
    8.4570546833103477E-01 
    9.1519409733550683E-01 
    1.3031445903687779E+00 
    1.3708757820632653E+00 
    1.3643857428302792E+00 
    1.3020223309620231E+00 
    1.4359846112895116E+00 
    1.4977086852378190E+00 
    1.4816076225085566E+00 
    1.4244266688113112E+00 
    1.4145643492042848E+00 
    1.4668456334387745E+00 
    1.4531680078828371E+00 
    1.4061786379126200E+00 
    1.3024879679755099E+00 
    1.3597006053256353E+00 
    1.3566348802458090E+00 
    1.3044501998352265E+00 
    1.5541439555355747E+00 
    1.6050952554819338E+00 
    1.5770697441568358E+00 
    1.5321935174335701E+00 
    1.6510633560325854E+00 
    1.6921519869807817E+00 
    1.6595651023467533E+00 
    1.6192821217359310E+00 
    1.5863566164892440E+00 
    1.6234138515708720E+00 
    1.5840790615069915E+00 
    1.5521748601084457E+00 
    1.5111598974205092E+00 
    1.5492923903992821E+00 
    1.5214621211928354E+00 
    1.4907601695570667E+00 
    1.3111746378915325E+00 
    1.3641633169347005E+00 
    1.3835672464170181E+00 
    1.3238743567582640E+00 
    1.4132659579037623E+00 
    1.4591808773333959E+00 
    1.4849319262534166E+00 
    1.4365463449288414E+00 
    1.4621021242157404E+00 
    1.5116636351363077E+00 
    1.5407197942663182E+00 
    1.4920087149102508E+00 
    1.3407947285889821E+00 
    1.4066766713529824E+00 
    1.4370088415336810E+00 
    1.3678739382316283E+00 
    1.2334155648237575E+00 
    1.1629573696344231E+00 
    1.1721621373876598E+00 
    1.2372292333596826E+00 
    1.0924032563144068E+00 
    1.0223185890713353E+00 
    1.0428942450521901E+00 
    1.1072653046164416E+00 
    1.1221633951719814E+00 
    1.0634090588923435E+00 
    1.0839878376850329E+00 
    1.1371997336056490E+00 
    1.2419864141515384E+00 
    1.1817281919518543E+00 
    1.1916384223873899E+00 
    1.2475543187119000E+00 
    9.5462809706176910E-01 
    8.8955543752683708E-01 
    9.2942817507778364E-01 
    9.8371241415964428E-01 
    8.2608544057981392E-01 
    7.6464366629992442E-01 
    8.2283079143324245E-01 
    8.7582795492558319E-01 
    9.2674221077265428E-01 
    8.8395764692735845E-01 
    9.4660394922282298E-01 
    9.7849808477460987E-01 
    1.0128136283082128E+00 
    9.6968582243281920E-01 
    1.0103072239119362E+00 
    1.0420766642627770E+00 
    1.2500197953005039E+00 
    1.1917697244160368E+00 
    1.1804057830705001E+00 
    1.2476062037833504E+00 
    1.1363444659969555E+00 
    1.0828585421141026E+00 
    1.0594442687003698E+00 
    1.1184606812324973E+00 
    1.0992388034819234E+00 
    1.0355707598816581E+00 
    1.0111248027130266E+00 
    1.0781729958582216E+00 
    1.2417007020794482E+00 
    1.1664161688887860E+00 
    1.1481803631692937E+00 
    1.2289706431138887E+00 
    1.3684554695339446E+00 
    1.4370661183282250E+00 
    1.4064692766978739E+00 
    1.3410032697245327E+00 
    1.4911727547299649E+00 
    1.5391444687259590E+00 
    1.5104200187678898E+00 
    1.4613349013518688E+00 
    1.4358436855161716E+00 
    1.4839413394495249E+00 
    1.4583996995411435E+00 
    1.4126532385513431E+00 
    1.3237427579715588E+00 
    1.3831982977957971E+00 
    1.3637121579430047E+00 
    1.3108178197625930E+00 
    1.5824609076708263E+00 
    1.6224288152319390E+00 
    1.5854798299521116E+00 
    1.5509073726611409E+00 
    1.6592754479034402E+00 
    1.6923079383358284E+00 
    1.6510353645919216E+00 
    1.6188922853458625E+00 
    1.5766598830331633E+00 
    1.6049866632036431E+00 
    1.5540222813855387E+00 
    1.5318316596645236E+00 
    1.5204601400766709E+00 
    1.5485505272601201E+00 
    1.5105628410892573E+00 
    1.4899782261465429E+00 
    1.3039623488346530E+00 
    1.3561452101395453E+00 
    1.3592683351946961E+00 
    1.3020203429155059E+00 
    1.4056197362898422E+00 
    1.4525140241775425E+00 
    1.4663342027166966E+00 