# vtk DataFile Version 2.0
Pressure Field Data 
ASCII 
DATASET UNSTRUCTURED_GRID 

POINTS 801 double 

    0.0000000000000000E+00     0.0000000000000000E+00     0.0000000000000000E+00 
    1.0000000000000000E+00     0.0000000000000000E+00     0.0000000000000000E+00 
    1.0000000000000000E+00     1.0000000000000000E+00     0.0000000000000000E+00 
    0.0000000000000000E+00     1.0000000000000000E+00     0.0000000000000000E+00 
    2.5000000000000000E-01     2.5000000000000000E-01     0.0000000000000000E+00 
    7.5000000000000000E-01     2.5000000000000000E-01     0.0000000000000000E+00 
    7.5000000000000000E-01     7.5000000000000000E-01     0.0000000000000000E+00 
    2.5000000000000000E-01     7.5000000000000000E-01     0.0000000000000000E+00 
    2.4999999999941941E-01     0.0000000000000000E+00     0.0000000000000000E+00 
    4.9999999999869399E-01     0.0000000000000000E+00     0.0000000000000000E+00 
    7.4999999999934697E-01     0.0000000000000000E+00     0.0000000000000000E+00 
    1.2499999999977940E-01     0.0000000000000000E+00     0.0000000000000000E+00 
    3.7499999999905670E-01     0.0000000000000000E+00     0.0000000000000000E+00 
    6.2499999999902045E-01     0.0000000000000000E+00     0.0000000000000000E+00 
    8.7499999999967348E-01     0.0000000000000000E+00     0.0000000000000000E+00 
    6.2499999999889699E-02     0.0000000000000000E+00     0.0000000000000000E+00 
    1.8749999999959940E-01     0.0000000000000000E+00     0.0000000000000000E+00 
    3.1249999999923811E-01     0.0000000000000000E+00     0.0000000000000000E+00 
    4.3749999999887529E-01     0.0000000000000000E+00     0.0000000000000000E+00 
    5.6249999999885725E-01     0.0000000000000000E+00     0.0000000000000000E+00 
    6.8749999999918376E-01     0.0000000000000000E+00     0.0000000000000000E+00 
    8.1249999999951017E-01     0.0000000000000000E+00     0.0000000000000000E+00 
    9.3749999999983680E-01     0.0000000000000000E+00     0.0000000000000000E+00 
    1.0000000000000000E+00     2.4999999999941941E-01     0.0000000000000000E+00 
    1.0000000000000000E+00     4.9999999999869399E-01     0.0000000000000000E+00 
    1.0000000000000000E+00     7.4999999999934697E-01     0.0000000000000000E+00 
    1.0000000000000000E+00     1.2499999999977940E-01     0.0000000000000000E+00 
    1.0000000000000000E+00     3.7499999999905670E-01     0.0000000000000000E+00 
    1.0000000000000000E+00     6.2499999999902045E-01     0.0000000000000000E+00 
    1.0000000000000000E+00     8.7499999999967348E-01     0.0000000000000000E+00 
    1.0000000000000000E+00     6.2499999999889699E-02     0.0000000000000000E+00 
    1.0000000000000000E+00     1.8749999999959940E-01     0.0000000000000000E+00 
    1.0000000000000000E+00     3.1249999999923811E-01     0.0000000000000000E+00 
    1.0000000000000000E+00     4.3749999999887529E-01     0.0000000000000000E+00 
    1.0000000000000000E+00     5.6249999999885725E-01     0.0000000000000000E+00 
    1.0000000000000000E+00     6.8749999999918376E-01     0.0000000000000000E+00 
    1.0000000000000000E+00     8.1249999999951017E-01     0.0000000000000000E+00 
    1.0000000000000000E+00     9.3749999999983680E-01     0.0000000000000000E+00 
    7.5000000000112044E-01     1.0000000000000000E+00     0.0000000000000000E+00 
    5.0000000000205913E-01     1.0000000000000000E+00     0.0000000000000000E+00 
    2.5000000000102962E-01     1.0000000000000000E+00     0.0000000000000000E+00 
    8.7499999999991362E-01     1.0000000000000000E+00     0.0000000000000000E+00 
    6.2499999999988309E-01     1.0000000000000000E+00     0.0000000000000000E+00 
    3.7499999999869987E-01     1.0000000000000000E+00     0.0000000000000000E+00 
    1.2499999999880820E-01     1.0000000000000000E+00     0.0000000000000000E+00 
    9.3749999999995681E-01     1.0000000000000000E+00     0.0000000000000000E+00 
    8.1250000000051703E-01     1.0000000000000000E+00     0.0000000000000000E+00 
    6.8750000000050182E-01     1.0000000000000000E+00     0.0000000000000000E+00 
    5.6250000000097111E-01     1.0000000000000000E+00     0.0000000000000000E+00 
    4.3750000000037947E-01     1.0000000000000000E+00     0.0000000000000000E+00 
    3.1249999999986477E-01     1.0000000000000000E+00     0.0000000000000000E+00 
    1.8749999999991890E-01     1.0000000000000000E+00     0.0000000000000000E+00 
    6.2499999999404102E-02     1.0000000000000000E+00     0.0000000000000000E+00 
    0.0000000000000000E+00     7.5000000000112044E-01     0.0000000000000000E+00 
    0.0000000000000000E+00     5.0000000000205913E-01     0.0000000000000000E+00 
    0.0000000000000000E+00     2.5000000000102962E-01     0.0000000000000000E+00 
    0.0000000000000000E+00     8.7499999999991362E-01     0.0000000000000000E+00 
    0.0000000000000000E+00     6.2499999999988309E-01     0.0000000000000000E+00 
    0.0000000000000000E+00     3.7499999999869987E-01     0.0000000000000000E+00 
    0.0000000000000000E+00     1.2499999999880820E-01     0.0000000000000000E+00 
    0.0000000000000000E+00     9.3749999999995681E-01     0.0000000000000000E+00 
    0.0000000000000000E+00     8.1250000000051703E-01     0.0000000000000000E+00 
    0.0000000000000000E+00     6.8750000000050182E-01     0.0000000000000000E+00 
    0.0000000000000000E+00     5.6250000000097111E-01     0.0000000000000000E+00 
    0.0000000000000000E+00     4.3750000000037947E-01     0.0000000000000000E+00 
    0.0000000000000000E+00     3.1249999999986477E-01     0.0000000000000000E+00 
    0.0000000000000000E+00     1.8749999999991890E-01     0.0000000000000000E+00 
    0.0000000000000000E+00     6.2499999999404102E-02     0.0000000000000000E+00 
    4.9999999999972200E-01     2.5000000000000000E-01     0.0000000000000000E+00 
    3.7500000000067490E-01     2.5000000000000000E-01     0.0000000000000000E+00 
    6.2500000000042988E-01     2.5000000000000000E-01     0.0000000000000000E+00 
    3.1250000000033751E-01     2.5000000000000000E-01     0.0000000000000000E+00 
    4.3750000000019851E-01     2.5000000000000000E-01     0.0000000000000000E+00 
    5.6250000000007594E-01     2.5000000000000000E-01     0.0000000000000000E+00 
    6.8750000000021494E-01     2.5000000000000000E-01     0.0000000000000000E+00 
    7.5000000000000000E-01     4.9999999999972200E-01     0.0000000000000000E+00 
    7.5000000000000000E-01     3.7500000000067490E-01     0.0000000000000000E+00 
    7.5000000000000000E-01     6.2500000000042988E-01     0.0000000000000000E+00 
    7.5000000000000000E-01     3.1250000000033751E-01     0.0000000000000000E+00 
    7.5000000000000000E-01     4.3750000000019851E-01     0.0000000000000000E+00 
    7.5000000000000000E-01     5.6250000000007594E-01     0.0000000000000000E+00 
    7.5000000000000000E-01     6.8750000000021494E-01     0.0000000000000000E+00 
    5.0000000000118039E-01     7.5000000000000000E-01     0.0000000000000000E+00 
    6.2500000000161415E-01     7.5000000000000000E-01     0.0000000000000000E+00 
    3.7500000000140910E-01     7.5000000000000000E-01     0.0000000000000000E+00 
    6.8750000000080713E-01     7.5000000000000000E-01     0.0000000000000000E+00 
    5.6250000000139733E-01     7.5000000000000000E-01     0.0000000000000000E+00 
    4.3750000000129469E-01     7.5000000000000000E-01     0.0000000000000000E+00 
    3.1250000000070460E-01     7.5000000000000000E-01     0.0000000000000000E+00 
    2.5000000000000000E-01     5.0000000000118039E-01     0.0000000000000000E+00 
    2.5000000000000000E-01     6.2500000000161415E-01     0.0000000000000000E+00 
    2.5000000000000000E-01     3.7500000000140910E-01     0.0000000000000000E+00 
    2.5000000000000000E-01     6.8750000000080713E-01     0.0000000000000000E+00 
    2.5000000000000000E-01     5.6250000000139733E-01     0.0000000000000000E+00 
    2.5000000000000000E-01     4.3750000000129469E-01     0.0000000000000000E+00 
    2.5000000000000000E-01     3.1250000000070460E-01     0.0000000000000000E+00 
    3.7499999999934702E-01     1.2500000000000000E-01     0.0000000000000000E+00 
    1.2500000000000000E-01     1.2500000000000000E-01     0.0000000000000000E+00 
    1.2500000000000000E-01     3.7500000000102962E-01     0.0000000000000000E+00 
    8.7500000000000000E-01     1.2500000000000000E-01     0.0000000000000000E+00 
    6.2499999999934697E-01     1.2500000000000000E-01     0.0000000000000000E+00 
    8.7500000000000000E-01     3.7499999999934702E-01     0.0000000000000000E+00 
    8.7500000000000000E-01     6.2499999999934697E-01     0.0000000000000000E+00 
    1.2500000000000000E-01     6.2500000000102962E-01     0.0000000000000000E+00 
    1.2500000000000000E-01     8.7500000000000000E-01     0.0000000000000000E+00 
    8.7500000000000000E-01     8.7500000000000000E-01     0.0000000000000000E+00 
    6.2500000000102962E-01     8.7500000000000000E-01     0.0000000000000000E+00 
    3.7500000000102962E-01     8.7500000000000000E-01     0.0000000000000000E+00 
    2.4999999999957681E-01     8.3333333333333329E-02     0.0000000000000000E+00 
    8.3333333333333329E-02     2.5000000000068640E-01     0.0000000000000000E+00 
    7.4999999999956468E-01     8.3333333333333329E-02     0.0000000000000000E+00 
    4.9999999999951827E-01     1.6666666666666671E-01     0.0000000000000000E+00 
    9.1666666666666674E-01     2.4999999999957681E-01     0.0000000000000000E+00 
    8.3333333333333337E-01     4.9999999999951827E-01     0.0000000000000000E+00 
    1.6666666666666671E-01     5.0000000000088307E-01     0.0000000000000000E+00 
    8.3333333333333329E-02     7.5000000000070155E-01     0.0000000000000000E+00 
    9.1666666666666674E-01     7.4999999999956468E-01     0.0000000000000000E+00 
    5.0000000000088307E-01     8.3333333333333348E-01     0.0000000000000000E+00 
    2.5000000000068640E-01     9.1666666666666674E-01     0.0000000000000000E+00 
    7.5000000000070155E-01     9.1666666666666674E-01     0.0000000000000000E+00 
[...]
CELL_DATA 768 
SCALARS Pressure double 1 
LOOKUP_TABLE default 

    2.1101501060047592E+00 
    2.0166577366760983E+00 
    1.9865260738257704E+00 
    2.0437293432862198E+00 
    1.9553346566295868E+00 
    1.9083674963789157E+00 
    1.9042002687222237E+00 
    1.9421304707666711E+00 
    1.9285023075349190E+00 
    1.8991476990696452E+00 
    1.8933752757227176E+00 
    1.9148069029457897E+00 
    1.9943288050125587E+00 
    1.9597354874644024E+00 
    1.9356899758416062E+00 
    1.9559749679260032E+00 
    1.8667769077487442E+00 
    1.8267667867054485E+00 
    1.8342578138886447E+00 
    1.8687417276548084E+00 
    1.7863784622537440E+00 
    1.7446831801161153E+00 
    1.7640435838501689E+00 
    1.7996199689080288E+00 
    1.8121301603954927E+00 
    1.7826624302328229E+00 
    1.8002274488613033E+00 
    1.8236771773828273E+00 
    1.8699003207109604E+00 
    1.8410075346927941E+00 
    1.8468674891718255E+00 
    1.8702532842911765E+00 
    1.9239380251314562E+00 
    1.9109883212277070E+00 
    1.8869361852656330E+00 
    1.8966864719152596E+00 
    1.8958985156804282E+00 
    1.8790907113548585E+00 
    1.8581154891989153E+00 
    1.8738436514081163E+00 
    1.8534026799672869E+00 
    1.8377813651579811E+00 
    1.8176011828946321E+00 
    1.8339680464879951E+00 
    1.8739589300664463E+00 
    1.8658140470652222E+00 
    1.8471617000339990E+00 
    1.8557748633242421E+00 
    2.1101957392579775E+00 
    2.0437910468752980E+00 
    1.9867441706118329E+00 
    2.0168628613602784E+00 
    1.9944029211986982E+00 
    1.9560486469183180E+00 
    1.9358932315977926E+00 
    1.9599484858271363E+00 
    1.9288315354922296E+00 
    1.9150902819717126E+00 
    1.8937034457838102E+00 
    1.8995253643802201E+00 
    1.9556829031078145E+00 
    1.9424740098197522E+00 
    1.9046177257563321E+00 
    1.9087946097534982E+00 
    1.9240128753194921E+00 
    1.8967501516113485E+00 
    1.8870934478756578E+00 
    1.9111789368365559E+00 
    1.8739904307622972E+00 
    1.8558190435740078E+00 
    1.8472080187738029E+00 
    1.8659049348615193E+00 
    1.8534850244065768E+00 
    1.8339044199842593E+00 
    1.8174084078090995E+00 
    1.8377883167769788E+00 
    1.8961502056473087E+00 
    1.8740269723745064E+00 
    1.8582776478799179E+00 
    1.8793518917897147E+00 
    1.8671471190649105E+00 
    1.8690961096063796E+00 
    1.8343988688745776E+00 
    1.8268726642071307E+00 
    1.8702183883056946E+00 
    1.8705176152712799E+00 
    1.8469942205899021E+00 
    1.8411398568761481E+00 
    1.8120309230411722E+00 
    1.8236044191708212E+00 
    1.7999166388103931E+00 
    1.7823135339524891E+00 
    1.7862024122898923E+00 
    1.7994870996407983E+00 
    1.7636895272458695E+00 
    1.7443276019379930E+00 
    1.6773547046196131E+00 
    1.6318404715280115E+00 
    1.6160667557197708E+00 
    1.6557867521942939E+00 
    1.5864405571439482E+00 
    1.5429593233319130E+00 
    1.5391831236794040E+00 
    1.5767193664735770E+00 
    1.5659658452054224E+00 
    1.5343127312434741E+00 
    1.5282589945359555E+00 
    1.5538994335636125E+00 
    1.6333261573474112E+00 
    1.5993457809828178E+00 
    1.5812542510251564E+00 
    1.6095015340442254E+00 
    1.5037361057519971E+00 
    1.4711629428982829E+00 
    1.4749648543362426E+00 
    1.5048112766163952E+00 
    1.4473378037432849E+00 
    1.4332092456549173E+00 
    1.4352188646943222E+00 
    1.4514676425257029E+00 
    1.4542306911745884E+00 
    1.4361557807525405E+00 
    1.4362517189667918E+00 
    1.4557689345266041E+00 
    1.5046734811458544E+00 
    1.4773061731740107E+00 
    1.4783760134701627E+00 
    1.5033527008609544E+00 
    1.5819803376238524E+00 
    1.5565396992988474E+00 
    1.5240843825682413E+00 
    1.5492514570592617E+00 
    1.5328409902434559E+00 
    1.5115185528577650E+00 
    1.4855346796462741E+00 
    1.5029318003029228E+00 
    1.4714847230974917E+00 
    1.4603079229338358E+00 
    1.4367510222048463E+00 
    1.4393487256087427E+00 
    1.5098544152940818E+00 
    1.4870724604184531E+00 
    1.4444752641867347E+00 
    1.4566420456472926E+00 
    1.7114078158896442E+00 
    1.6872969643577191E+00 
    1.7105812026269931E+00 
    1.7342030071681482E+00 
    1.6623183230333223E+00 
    1.6361780848496976E+00 
    1.6609280936707342E+00 
    1.6862104426608400E+00 
    1.7096910640359240E+00 
    1.6852862477125161E+00 
    1.7090180785726203E+00 
    1.7325509011695734E+00 
    1.7562876593171055E+00 
    1.7333332567864534E+00 
    1.7553460675179953E+00 
    1.7774549759246396E+00 
    1.6100719546424800E+00 
    1.5838609083525819E+00 
    1.6215370233745341E+00 
    1.6392218737794433E+00 
    1.5555694778715716E+00 
    1.5245095975284009E+00 
    1.5841081580441780E+00 
    1.6031812836955917E+00 
    1.6471819398169814E+00 
    1.6368648103738035E+00 
    1.6851273146128181E+00 
    1.6883658473648586E+00 
    1.6676347278070678E+00 
    1.6574706870140423E+00 
    1.6917282488582788E+00 
    1.6951468211600895E+00 
    1.7960279204010872E+00 
    1.7722835158681225E+00 
    1.7845269449428762E+00 
    1.8119271606362479E+00 
    1.7475249119426350E+00 
    1.7217308607739104E+00 
    1.7242121646528645E+00 
    1.7552409906755086E+00 
    1.7628488615461479E+00 
    1.7267544164344519E+00 
    1.7293666046736964E+00 
    1.7703726910707656E+00 
    1.8263671867180959E+00 
    1.7962160865001622E+00 
    1.8073879327020415E+00 
    1.8392162595060557E+00 
    1.4297087846644425E+00 
    1.4131976809559190E+00 
    1.4074242795261200E+00 
    1.4264600414108199E+00 
    1.3845627921328247E+00 
    1.3444786702028244E+00 
    1.3426745533779434E+00 
    1.3792636859971144E+00 
    1.3749829928514616E+00 
    1.3419107466427944E+00 
    1.3421985564148895E+00 
    1.3717755029262824E+00 
    1.4231144151576574E+00 
    1.4022918985671196E+00 
    1.3978835134934942E+00 
    1.4198310454776684E+00 
    1.2954272772406568E+00 
    1.2387959564046689E+00 
    1.2514744563104174E+00 
    1.3000039140857254E+00 
    1.1767607962348470E+00 
    1.1106209312548430E+00 
    1.1424760031966319E+00 
    1.1986269789141639E+00 
    1.2206923810651127E+00 
    1.1740692189400670E+00 
    1.2059870683659251E+00 
    1.2435882700897922E+00 
    1.3053542857923432E+00 
    1.2647852327113593E+00 
    1.2790773710927554E+00 
    1.3116961679068768E+00 
    1.4153293363688362E+00 
    1.3896051363368760E+00 
    1.3738250986152281E+00 
    1.4082359242740752E+00 
    1.3612095357432579E+00 
    1.3310418091867071E+00 
    1.3040922102626105E+00 
    1.3388186875462613E+00 
    1.3120462113168809E+00 
    1.2739279311745340E+00 
    1.2410769845264713E+00 
    1.2805168838667618E+00 
    1.3985427896913039E+00 
    1.3533463755325006E+00 
    1.3252214261324506E+00 
    1.3820879584015677E+00 
    1.3078717965644415E+00 
    1.2716914031606839E+00 
    1.2118300742291217E+00 
    1.2358163637742081E+00 
    1.2373442488097854E+00 
    1.2041566205074556E+00 
    1.1645302835509319E+00 
    1.1880968814082848E+00 
    1.1386071147929502E+00 
    1.1242699437773620E+00 
    1.0833703196279840E+00 
    1.0884791071097522E+00 
    1.1667549379819400E+00 
    1.1527359596327569E+00 
    1.0933798949835682E+00 
    1.0980578779442010E+00 
    1.1694636627058546E+00 
    1.1328624997210262E+00 
    1.0973365094410630E+00 
    1.1343687753259140E+00 
    1.0962388912125052E+00 
    1.0585366489329870E+00 
    1.0209918128675577E+00 
    1.0597456289432101E+00 
    1.0225636058496741E+00 
    9.8295140856710583E-01 
    9.4507549682096315E-01 
    9.8507847096718926E-01 
    1.0985210931229541E+00 
    1.0609485667047527E+00 
    1.0240105885833517E+00 
    1.0620062724995043E+00 
    1.0290825751409247E+00 
    1.0334529836765354E+00 
    9.7228063415733534E-01 
    9.5877978314081913E-01 
    1.0375981051504279E+00 
    1.0415667997023677E+00 
    9.9874827129559207E-01 
    9.8551050760989745E-01 
    9.3288527091405138E-01 
    9.5504800572916659E-01 
    9.1048300731848131E-01 
    8.8005852129373086E-01 
    8.8985963955542102E-01 
    9.1115942341896650E-01 
    8.5174898454496373E-01 
    8.2592030123222360E-01 
    1.8394187192141487E+00 
    1.8071177142215697E+00 
    1.7957457446689384E+00 
    1.8263034476305962E+00 
    1.7694104156258283E+00 
    1.7277738547127253E+00 
    1.7253129935320721E+00 
    1.7618453991148864E+00 
    1.7542380121777343E+00 
    1.7229125173820186E+00 
    1.7205672778151346E+00 
    1.7465543380155892E+00 
    1.8116559189970121E+00 
    1.7839101150432708E+00 
    1.7715805120860624E+00 
    1.7955968814563066E+00 
    1.6836013308186730E+00 
    1.6361409186073146E+00 
    1.6463951998935038E+00 
    1.6869901526505158E+00 
    1.5843731492621951E+00 
    1.5253352036656493E+00 
    1.5560626291480719E+00 
    1.6031322081754611E+00 
    1.6212733897189595E+00 
    1.5840547862626360E+00 
    1.6100405993661457E+00 
    1.6388417304441421E+00 
    1.6904774661421529E+00 
    1.6566557294672868E+00 
    1.6668461645763568E+00 
    1.6940299410017634E+00 
    1.7769084560956547E+00 
    1.7545663935476685E+00 
    1.7326154517306138E+00 
    1.7557623248133860E+00 
    1.7315904182601298E+00 
    1.7079689726617158E+00 
    1.6844865361634567E+00 
    1.7088927456156180E+00 
    1.6856381976215327E+00 
    1.6604542638339574E+00 
    1.6359652743056563E+00 
    1.6619610758286296E+00 
    1.7337416596405606E+00 
    1.7100392773620705E+00 
    1.6868935171700818E+00 
    1.7110333015295185E+00 
    1.6770729879347963E+00 
    1.6555391374365542E+00 
    1.6160272796973831E+00 
    1.6317466650500605E+00 
    1.6331711730598868E+00 
    1.6095131024334832E+00 
    1.5814542737124797E+00 
    1.5993998237304752E+00 
    1.5661781085759838E+00 
    1.5542043572752935E+00 
    1.5286009780700611E+00 
    1.5345474932117293E+00 
    1.5865152209993068E+00 
    1.5768349100716645E+00 
    1.5393248374948860E+00 
    1.5430292957754925E+00 
    1.5822024664196761E+00 
    1.5497276806113303E+00 
    1.5246646348791022E+00 
    1.5569001089885925E+00 
    1.5105634738714935E+00 
    1.4574949762101383E+00 
    1.4453743646962776E+00 
    1.4878244831944034E+00 
    1.4722012198542758E+00 
    1.4401768023760040E+00 
    1.4373928910422471E+00 
    1.4608805123211337E+00 
    1.5332684539151558E+00 
    1.5035167472211384E+00 
    1.4860441352609566E+00 
    1.5119381701123353E+00 
    1.5037697630098175E+00 
    1.5049118383832514E+00 
    1.4749053664523948E+00 
    1.4709648089777780E+00 
    1.5048633712343511E+00 
    1.5036534404715289E+00 
    1.4786825044856797E+00 
    1.4774130015590716E+00 
    1.4542543417442599E+00 
    1.4560531513284467E+00 
    1.4365549260524653E+00 
    1.4361778504141707E+00 
    1.4470101503549673E+00 
    1.4512887965748913E+00 
    1.4349981839828032E+00 
    1.4328765273130097E+00 
    1.0041036343355267E+00 
    9.2751469519022511E-01 
    9.0159043104681269E-01 
    9.6956489186251316E-01 
    8.4483105830584015E-01 
    7.5261669193334224E-01 
    7.4819686443793187E-01 
    8.2868781519432799E-01 
    8.1422478012710864E-01 
    7.4616518827128142E-01 
    7.4649607833573572E-01 
    8.0203355946499866E-01 
    9.3497668753689389E-01 
    8.7654143946750485E-01 
    8.5322436311547389E-01 
    9.0141243047767194E-01 
    6.4540903847915865E-01 
    5.0913416372006515E-01 
    5.5084054566366969E-01 
    6.5782089270766975E-01 
    3.1380631287774863E-01 
    0.0000000000000000E+00 
    2.3017705106299266E-01 
    4.1497634329793115E-01 
    4.9980527427725302E-01 
    3.9127686085038460E-01 
    5.1222306405352458E-01 
    5.7298304744966821E-01 
    6.7249669050909722E-01 
    5.9202019893978608E-01 
    6.3198228701366077E-01 
    6.8874213646010196E-01 
    8.6731107668277330E-01 
    8.2412441595057628E-01 
    7.9068275932735854E-01 
    8.3439170235370397E-01 
    7.7759125616878610E-01 
    7.2629612432641921E-01 
    6.8431317714701201E-01 
    7.4131531489737046E-01 
    7.0962062576381491E-01 
    6.4436581315124564E-01 
    6.0813063237583176E-01 
    6.8468244532379119E-01 
    8.0734406293107219E-01 
    7.6328523963296524E-01 
    7.4450048172147176E-01 
    7.8947536429003073E-01 
    1.3091466468066830E+00 
    1.2361389735091255E+00 
    1.2118235286622303E+00 
    1.2725453227280239E+00 
    1.1657512123187790E+00 
    1.0959036985809216E+00 
    1.0913308027218982E+00 
    1.1516301583144144E+00 
    1.1373996417409848E+00 
    1.0865655885249790E+00 
    1.0816331941914472E+00 
    1.1230825443298662E+00 
    1.2378324173973883E+00 
    1.1877994481271226E+00 
    1.1640142420138915E+00 
    1.2043201482603882E+00 
    1.0266165637808646E+00 
    9.5733304599560276E-01 
    9.7071272701955191E-01 
    1.0311990731541063E+00 
    8.8962515218621530E-01 
    8.2638787703585359E-01 
    8.5204731921387078E-01 
    9.1063446400883963E-01 
    9.3213539147890068E-01 
    8.8014467241993244E-01 
    9.1038107201257090E-01 
    9.5424318432305799E-01 
    1.0355791255589784E+00 
    9.8401967288089276E-01 
    9.9733920308563917E-01 
    1.0398180019324139E+00 
    1.1693519171188294E+00 
    1.1336500167404266E+00 
    1.0964733774189879E+00 
    1.1325186388050159E+00 
    1.0972724620502221E+00 
    1.0604161192025532E+00 
    1.0226265061814994E+00 
    1.0597424517739946E+00 
    1.0216165307641860E+00 
    9.8414844552884739E-01 
    9.4476264777496222E-01 
    9.8253259268408522E-01 
    1.0958290463159368E+00 
    1.0589871633124419E+00 
    1.0205416727516927E+00 
    1.0582313610309311E+00 
    1.3830924967263123E+00 
    1.3262683329130847E+00 
    1.3544937652125029E+00 
    1.3995830648120973E+00 
    1.2814348572279020E+00 
    1.2417903340165035E+00 
    1.2750500379388157E+00 
    1.3132398399612188E+00 
    1.3401216816115331E+00 
    1.3055017897808368E+00 
    1.3325426346846925E+00 
    1.3625251218202095E+00 
    1.4092084407969581E+00 
    1.3750193412114793E+00 
    1.3906885865868903E+00 
    1.4161428885959830E+00 
    1.2065060830742174E+00 
    1.1743380531291017E+00 
    1.2216923680618690E+00 
    1.2446566051443901E+00 
    1.1424741652836659E+00 
    1.1103820592908173E+00 
    1.1773313568766683E+00 
    1.1994469559770062E+00 
    1.2530656160085836E+00 
    1.2403568457560847E+00 
    1.2974005859106428E+00 
    1.3018972192020966E+00 
    1.2805348012196482E+00 
    1.2663250705169471E+00 
    1.3071360542118982E+00 
    1.3133343425144430E+00 
    1.4203380875654750E+00 
    1.3987472390070648E+00 
    1.4029709926264453E+00 
    1.4233505583603445E+00 
    1.3730098620566895E+00 
    1.3437548467433482E+00 
    1.3435635331732898E+00 
    1.3761901288034084E+00 
    1.3803766265833386E+00 
    1.3444186415840773E+00 
    1.3462735456006836E+00 
    1.3855859416138503E+00 
    1.4264289184582930E+00 
    1.4079055193230376E+00 
    1.4134859471621861E+00 
    1.4294928358087711E+00 
    7.8972179427651679E-01 
    7.4481787034698976E-01 
    7.6415290713801087E-01 
    8.0795276378977698E-01 
    6.8507810959880122E-01 
    6.0855827331674384E-01 
    6.4555514435636874E-01 
    7.1072483482832161E-01 
    7.4289834441098090E-01 
    6.8612612156670760E-01 
    7.2847080784345375E-01 
    7.7940598159979524E-01 
    8.3507544688057644E-01 
    7.9189997613694618E-01 
    8.2538914133887253E-01 
    8.6791602249606914E-01 
    5.1265028236302479E-01 
    3.9165041857364641E-01 
    5.0108644284779569E-01 
    5.7424344476890743E-01 
    2.3043070964652732E-01 
    0.0000000000000000E+00 
    3.1460110600192365E-01 
    4.1605245576289301E-01 
    5.5290330989652114E-01 
    5.1094244959458812E-01 
    6.4828911840876047E-01 
    6.6064396534418823E-01 
    6.3393938231744440E-01 
    5.9409682670612862E-01 
    6.7516941147757448E-01 
    6.9112940369332598E-01 
    9.0182236873017696E-01 
    8.5439552951230358E-01 
    8.7764393256249795E-01 
    9.3522661461344225E-01 
    8.0392524272264343E-01 
    7.4888960623463652E-01 
    7.4881635866274010E-01 
    8.1624683621680261E-01 
    8.3068179783832929E-01 
    7.5100737177348131E-01 
    7.5545485547303215E-01 
    8.4668604980663476E-01 
    9.6966074249398726E-01 
    9.0252215488376908E-01 
    9.2821674536448517E-01 
    1.0040497013061300E+00 
    1.4195802552963028E+00 
    1.4920621738811430E+00 
    1.4851642436729497E+00 
    1.4184322531383191E+00 
    1.5616643090772440E+00 
    1.6275675573588730E+00 
    1.6104232638614997E+00 
    1.5493541972596283E+00 
    1.5389017029584324E+00 
    1.5947423482964262E+00 
    1.5802467361827581E+00 
    1.5300662050857488E+00 
    1.4190571980040734E+00 
    1.4802545254444599E+00 
    1.4771278220465793E+00 
    1.4213494976118175E+00 
    1.6877320022460625E+00 
    1.7419499392509326E+00 
    1.7122185913229711E+00 
    1.6643899604907308E+00 
    1.7907476502675002E+00 
    1.8341064193648533E+00 
    1.7998061994736483E+00 
    1.7571418513795098E+00 
    1.7223211588780702E+00 
    1.7616859519953281E+00 
    1.7200991375823187E+00 
    1.6861263420098811E+00 
    1.6420511758317571E+00 
    1.6827680583872113E+00 
    1.6532580257402654E+00 
    1.6204046413624142E+00 
    1.4287852122187337E+00 
    1.4853604193437870E+00 
    1.5062940807398852E+00 
    1.4426343029747590E+00 
    1.5377859564380567E+00 
    1.5867867511800411E+00 
    1.6144053331091042E+00 
    1.5628139955161255E+00 
    1.5902837160156225E+00 
    1.6430839000868322E+00 
    1.6740662150964571E+00 
    1.6221385701415250E+00 
    1.4610014605052124E+00 
    1.5311847917374208E+00 
    1.5633844055073725E+00 
    1.4896317650422730E+00 
    1.3449102594714515E+00 
    1.2693511915517350E+00 
    1.2793347337708008E+00 
    1.3491078315704483E+00 
    1.1935962478890638E+00 
    1.1182383553240414E+00 
    1.1404760401028851E+00 
    1.2096676879387809E+00 
    1.2258332043906193E+00 
    1.1626890618903816E+00 
    1.1850028276178930E+00 
    1.2421951610025317E+00 
    1.3543926730556066E+00 
    1.2897739340758390E+00 
    1.3006419689170443E+00 
    1.3606151728480451E+00 
    1.0453391956670108E+00 
    9.7513979920095284E-01 
    1.0183300126434363E+00 
    1.0767920621536418E+00 
    9.0652806322961366E-01 
    8.4000104514052831E-01 
    9.0331712431924827E-01 
    9.6052287634641187E-01 
    1.0157685833768613E+00 
    9.6976401754677233E-01 
    1.0377435086237530E+00 
    1.0718708919343221E+00 
    1.1082903736401899E+00 
    1.0619456997978967E+00 
    1.1059461135050757E+00 
    1.1399783820200924E+00 
    1.3635722756739814E+00 
    1.3010679905868436E+00 
    1.2892183991136832E+00 
    1.3613644150129969E+00 
    1.2415229420721816E+00 
    1.1839923127265444E+00 
    1.1590335453474232E+00 
    1.2225980541930983E+00 
    1.2022815939760729E+00 
    1.1336029358478168E+00 
    1.1076204553119813E+00 
    1.1800864646197553E+00 
    1.3554908940728447E+00 
    1.2746228221831020E+00 
    1.2556235995351133E+00 
    1.3424392729518111E+00 
    1.4904774188635024E+00 
    1.5636421353259724E+00 
    1.5311546098725302E+00 
    1.4614424392420433E+00 
    1.6214336781079870E+00 
    1.6725542688733046E+00 
    1.6419076723842927E+00 
    1.5896370690591619E+00 
    1.5622184807397173E+00 
    1.6134823543859467E+00 
    1.5860712325506050E+00 
    1.5372672893353123E+00 
    1.4426975943643574E+00 
    1.5060763909765549E+00 
    1.4850342055204182E+00 
    1.4285850354046892E+00 
    1.7185079259539870E+00 
    1.7607219332318145E+00 
    1.7214668667988393E+00 
    1.6848944040408995E+00 
    1.7995402454212637E+00 
    1.8342795961202392E+00 
    1.7907289275848499E+00 
    1.7567696451882704E+00 
    1.7118234963995613E+00 
    1.7418466720832102E+00 
    1.6876144773810835E+00 
    1.6640429861845711E+00 
    1.6522966381417394E+00 
    1.6820510923310030E+00 
    1.6414813128220194E+00 
    1.6196662728517739E+00 
    1.4209776998759325E+00 
    1.4767323805951116E+00 
    1.4798851394752237E+00 
    1.4186683243248783E+00 
    1.5295801144339016E+00 
    1.5796454291732493E+00 
    1.5942647252689739E+00 