# vtk DataFile Version 2.0
Pressure Field Data 
ASCII 
DATASET UNSTRUCTURED_GRID 

POINTS 801 double 

    0.0000000000000000E+00     0.0000000000000000E+00     0.0000000000000000E+00 
    1.0000000000000000E+00     0.0000000000000000E+00     0.0000000000000000E+00 
    1.0000000000000000E+00     1.0000000000000000E+00     0.0000000000000000E+00 
    0.0000000000000000E+00     1.0000000000000000E+00     0.0000000000000000E+00 
    2.5000000000000000E-01     2.5000000000000000E-01     0.0000000000000000E+00 
    7.5000000000000000E-01     2.5000000000000000E-01     0.0000000000000000E+00 
    7.5000000000000000E-01     7.5000000000000000E-01     0.0000000000000000E+00 
    2.5000000000000000E-01     7.5000000000000000E-01     0.0000000000000000E+00 
    2.4999999999941941E-01     0.0000000000000000E+00     0.0000000000000000E+00 
    4.9999999999869399E-01     0.0000000000000000E+00     0.0000000000000000E+00 
    7.4999999999934697E-01     0.0000000000000000E+00     0.0000000000000000E+00 
    1.2499999999977940E-01     0.0000000000000000E+00     0.0000000000000000E+00 
    3.7499999999905670E-01     0.0000000000000000E+00     0.0000000000000000E+00 
    6.2499999999902045E-01     0.0000000000000000E+00     0.0000000000000000E+00 
    8.7499999999967348E-01     0.0000000000000000E+00     0.0000000000000000E+00 
    6.2499999999889699E-02     0.0000000000000000E+00     0.0000000000000000E+00 
    1.8749999999959940E-01     0.0000000000000000E+00     0.0000000000000000E+00 
    3.1249999999923811E-01     0.0000000000000000E+00     0.0000000000000000E+00 
    4.3749999999887529E-01     0.0000000000000000E+00     0.0000000000000000E+00 
    5.6249999999885725E-01     0.0000000000000000E+00     0.0000000000000000E+00 
    6.8749999999918376E-01     0.0000000000000000E+00     0.0000000000000000E+00 
    8.1249999999951017E-01     0.0000000000000000E+00     0.0000000000000000E+00 
    9.3749999999983680E-01     0.0000000000000000E+00     0.0000000000000000E+00 
    1.0000000000000000E+00     2.4999999999941941E-01     0.0000000000000000E+00 
    1.0000000000000000E+00     4.9999999999869399E-01     0.0000000000000000E+00 
    1.0000000000000000E+00     7.4999999999934697E-01     0.0000000000000000E+00 
    1.0000000000000000E+00     1.2499999999977940E-01     0.0000000000000000E+00 
    1.0000000000000000E+00     3.7499999999905670E-01     0.0000000000000000E+00 
    1.0000000000000000E+00     6.2499999999902045E-01     0.0000000000000000E+00 
    1.0000000000000000E+00     8.7499999999967348E-01     0.0000000000000000E+00 
    1.0000000000000000E+00     6.2499999999889699E-02     0.0000000000000000E+00 
    1.0000000000000000E+00     1.8749999999959940E-01     0.0000000000000000E+00 
    1.0000000000000000E+00     3.1249999999923811E-01     0.0000000000000000E+00 
    1.0000000000000000E+00     4.3749999999887529E-01     0.0000000000000000E+00 
    1.0000000000000000E+00     5.6249999999885725E-01     0.0000000000000000E+00 
    1.0000000000000000E+00     6.8749999999918376E-01     0.0000000000000000E+00 
    1.0000000000000000E+00     8.1249999999951017E-01     0.0000000000000000E+00 
    1.0000000000000000E+00     9.3749999999983680E-01     0.0000000000000000E+00 
    7.5000000000112044E-01     1.0000000000000000E+00     0.0000000000000000E+00 
    5.0000000000205913E-01     1.0000000000000000E+00     0.0000000000000000E+00 
    2.5000000000102962E-01     1.0000000000000000E+00     0.0000000000000000E+00 
    8.7499999999991362E-01     1.0000000000000000E+00     0.0000000000000000E+00 
    6.2499999999988309E-01     1.0000000000000000E+00     0.0000000000000000E+00 
    3.7499999999869987E-01     1.0000000000000000E+00     0.0000000000000000E+00 
    1.2499999999880820E-01     1.0000000000000000E+00     0.0000000000000000E+00 
    9.3749999999995681E-01     1.0000000000000000E+00     0.0000000000000000E+00 
    8.1250000000051703E-01     1.0000000000000000E+00     0.0000000000000000E+00 
    6.8750000000050182E-01     1.0000000000000000E+00     0.0000000000000000E+00 
    5.6250000000097111E-01     1.0000000000000000E+00     0.0000000000000000E+00 
    4.3750000000037947E-01     1.0000000000000000E+00     0.0000000000000000E+00 
    3.1249999999986477E-01     1.0000000000000000E+00     0.0000000000000000E+00 
    1.8749999999991890E-01     1.0000000000000000E+00     0.0000000000000000E+00 
    6.2499999999404102E-02     1.0000000000000000E+00     0.0000000000000000E+00 
    0.0000000000000000E+00     7.5000000000112044E-01     0.0000000000000000E+00 
    0.0000000000000000E+00     5.0000000000205913E-01     0.0000000000000000E+00 
    0.0000000000000000E+00     2.5000000000102962E-01     0.0000000000000000E+00 
    0.0000000000000000E+00     8.7499999999991362E-01     0.0000000000000000E+00 
    0.0000000000000000E+00     6.2499999999988309E-01     0.0000000000000000E+00 
    0.0000000000000000E+00     3.7499999999869987E-01     0.0000000000000000E+00 
    0.0000000000000000E+00     1.2499999999880820E-01     0.0000000000000000E+00 
    0.0000000000000000E+00     9.3749999999995681E-01     0.0000000000000000E+00 
    0.0000000000000000E+00     8.1250000000051703E-01     0.0000000000000000E+00 
    0.0000000000000000E+00     6.8750000000050182E-01     0.0000000000000000E+00 
    0.0000000000000000E+00     5.6250000000097111E-01     0.0000000000000000E+00 
    0.0000000000000000E+00     4.3750000000037947E-01     0.0000000000000000E+00 
    0.0000000000000000E+00     3.1249999999986477E-01     0.0000000000000000E+00 
    0.0000000000000000E+00     1.8749999999991890E-01     0.0000000000000000E+00 
    0.0000000000000000E+00     6.2499999999404102E-02     0.0000000000000000E+00 
    4.9999999999972200E-01     2.5000000000000000E-01     0.0000000000000000E+00 
    3.7500000000067490E-01     2.5000000000000000E-01     0.0000000000000000E+00 
    6.2500000000042988E-01     2.5000000000000000E-01     0.0000000000000000E+00 
    3.1250000000033751E-01     2.5000000000000000E-01     0.0000000000000000E+00 
    4.3750000000019851E-01     2.5000000000000000E-01     0.0000000000000000E+00 
    5.6250000000007594E-01     2.5000000000000000E-01     0.0000000000000000E+00 
    6.8750000000021494E-01     2.5000000000000000E-01     0.0000000000000000E+00 
    7.5000000000000000E-01     4.9999999999972200E-01     0.0000000000000000E+00 
    7.5000000000000000E-01     3.7500000000067490E-01     0.0000000000000000E+00 
    7.5000000000000000E-01     6.2500000000042988E-01     0.0000000000000000E+00 
    7.5000000000000000E-01     3.1250000000033751E-01     0.0000000000000000E+00 
    7.5000000000000000E-01     4.3750000000019851E-01     0.0000000000000000E+00 
    7.5000000000000000E-01     5.6250000000007594E-01     0.0000000000000000E+00 
    7.5000000000000000E-01     6.8750000000021494E-01     0.0000000000000000E+00 
    5.0000000000118039E-01     7.5000000000000000E-01     0.0000000000000000E+00 
    6.2500000000161415E-01     7.5000000000000000E-01     0.0000000000000000E+00 
    3.7500000000140910E-01     7.5000000000000000E-01     0.0000000000000000E+00 
    6.8750000000080713E-01     7.5000000000000000E-01     0.0000000000000000E+00 
    5.6250000000139733E-01     7.5000000000000000E-01     0.0000000000000000E+00 
    4.3750000000129469E-01     7.5000000000000000E-01     0.0000000000000000E+00 
    3.1250000000070460E-01     7.5000000000000000E-01     0.0000000000000000E+00 
    2.5000000000000000E-01     5.0000000000118039E-01     0.0000000000000000E+00 
    2.5000000000000000E-01     6.2500000000161415E-01     0.0000000000000000E+00 
    2.5000000000000000E-01     3.7500000000140910E-01     0.0000000000000000E+00 
    2.5000000000000000E-01     6.8750000000080713E-01     0.0000000000000000E+00 
    2.5000000000000000E-01     5.6250000000139733E-01     0.0000000000000000E+00 
    2.5000000000000000E-01     4.3750000000129469E-01     0.0000000000000000E+00 
    2.5000000000000000E-01     3.1250000000070460E-01     0.0000000000000000E+00 
    3.7499999999934702E-01     1.2500000000000000E-01     0.0000000000000000E+00 
    1.2500000000000000E-01     1.2500000000000000E-01     0.0000000000000000E+00 
    1.2500000000000000E-01     3.7500000000102962E-01     0.0000000000000000E+00 
    8.7500000000000000E-01     1.2500000000000000E-01     0.0000000000000000E+00 
    6.2499999999934697E-01     1.2500000000000000E-01     0.0000000000000000E+00 
    8.7500000000000000E-01     3.7499999999934702E-01     0.0000000000000000E+00 
    8.7500000000000000E-01     6.2499999999934697E-01     0.0000000000000000E+00 
    1.2500000000000000E-01     6.2500000000102962E-01     0.0000000000000000E+00 
    1.2500000000000000E-01     8.7500000000000000E-01     0.0000000000000000E+00 
    8.7500000000000000E-01     8.7500000000000000E-01     0.0000000000000000E+00 
    6.2500000000102962E-01     8.7500000000000000E-01     0.0000000000000000E+00 
    3.7500000000102962E-01     8.7500000000000000E-01     0.0000000000000000E+00 
    2.4999999999957681E-01     8.3333333333333329E-02     0.0000000000000000E+00 
    8.3333333333333329E-02     2.5000000000068640E-01     0.0000000000000000E+00 
    7.4999999999956468E-01     8.3333333333333329E-02     0.0000000000000000E+00 
    4.9999999999951827E-01     1.6666666666666671E-01     0.0000000000000000E+00 
    9.1666666666666674E-01     2.4999999999957681E-01     0.0000000000000000E+00 
    8.3333333333333337E-01     4.9999999999951827E-01     0.0000000000000000E+00 
    1.6666666666666671E-01     5.0000000000088307E-01     0.0000000000000000E+00 
    8.3333333333333329E-02     7.5000000000070155E-01     0.0000000000000000E+00 
    9.1666666666666674E-01     7.4999999999956468E-01     0.0000000000000000E+00 
    5.0000000000088307E-01     8.3333333333333348E-01     0.0000000000000000E+00 
    2.5000000000068640E-01     9.1666666666666674E-01     0.0000000000000000E+00 
    7.5000000000070155E-01     9.1666666666666674E-01     0.0000000000000000E+00 
[...]
CELL_DATA 768 
SCALARS Pressure double 1 
LOOKUP_TABLE default 

    1.9138955650862002E+00 
    1.8208430702870293E+00 
    1.7909775293974701E+00 
    1.8477077368418104E+00 
    1.7602730315885240E+00 
    1.7144839723150778E+00 
    1.7104489790099835E+00 
    1.7473113187117553E+00 
    1.7339901342213313E+00 
    1.7055669459123937E+00 
    1.7000027148754173E+00 
    1.7206716434048683E+00 
    1.7986578474541552E+00 
    1.7645419369695952E+00 
    1.7409708284551411E+00 
    1.7608223916732142E+00 
    1.6745799159568358E+00 
    1.6366762686675644E+00 
    1.6437402899558702E+00 
    1.6764482416313418E+00 
    1.5987563733379897E+00 
    1.5598717948003800E+00 
    1.5779086436181786E+00 
    1.6111576695316963E+00 
    1.6228958547341605E+00 
    1.5952933614613540E+00 
    1.6117310132734701E+00 
    1.6337490170506959E+00 
    1.6775449528282704E+00 
    1.6501105833465233E+00 
    1.6556436987192231E+00 
    1.6778698491469470E+00 
    1.7295079071159001E+00 
    1.7169467732649746E+00 
    1.6937640523564210E+00 
    1.7031276127491040E+00 
    1.7023932264501436E+00 
    1.6862838338839046E+00 
    1.6662892103569173E+00 
    1.6812501806284830E+00 
    1.6618009386971613E+00 
    1.6470333312624545E+00 
    1.6280302218309441E+00 
    1.6434311299292643E+00 
    1.6813254290308519E+00 
    1.6735746545721091E+00 
    1.6558819801307243E+00 
    1.6640364388514319E+00 
    1.9139398444360407E+00 
    1.8477667273333773E+00 
    1.7911845925948404E+00 
    1.8210390822798173E+00 
    1.7987280860248998E+00 
    1.7608909904238337E+00 
    1.7411598085128708E+00 
    1.7647428885707435E+00 
    1.7342999783487936E+00 
    1.7209351414112652E+00 
    1.7003025892162731E+00 
    1.7059154383407609E+00 
    1.7606030465482339E+00 
    1.7476361194910364E+00 
    1.7108364598563692E+00 
    1.7148815606694805E+00 
    1.7295760815097609E+00 
    1.7031842162292781E+00 
    1.6939021857720242E+00 
    1.7171199516946745E+00 
    1.6813508255010956E+00 
    1.6640709850913142E+00 
    1.6559039005761444E+00 
    1.6736455664769680E+00 
    1.6618533690975748E+00 
    1.6433366467867185E+00 
    1.6278003638932876E+00 
    1.6470024380291439E+00 
    1.7026211279160066E+00 
    1.6814061437637640E+00 
    1.6664151764442154E+00 
    1.6865139008327930E+00 
    1.6749035050346062E+00 
    1.6767580005611717E+00 
    1.6438267901363506E+00 
    1.6367242605099439E+00 
    1.6778214659699342E+00 
    1.6780968016069042E+00 
    1.6557274197801841E+00 
    1.6501942699491101E+00 
    1.6227438254652784E+00 
    1.6336312650125857E+00 
    1.6113761279117897E+00 
    1.5948886773499897E+00 
    1.5985133548795916E+00 
    1.6109643586759970E+00 
    1.5774853370475377E+00 
    1.5594344449267534E+00 
    1.4974994638067742E+00 
    1.4555324856053162E+00 
    1.4410272939276401E+00 
    1.4776154767279115E+00 
    1.4137664401440257E+00 
    1.3738307756958503E+00 
    1.3703819285953327E+00 
    1.4048498797543185E+00 
    1.3950088522721273E+00 
    1.3659475904744953E+00 
    1.3604465035392528E+00 
    1.3839882054315575E+00 
    1.4569545748777637E+00 
    1.4256838396412368E+00 
    1.4091174133690954E+00 
    1.4350895636816599E+00 
    1.3378395481120757E+00 
    1.3079542429960869E+00 
    1.3114722574116340E+00 
    1.3388462185835670E+00 
    1.2860667668038750E+00 
    1.2730064415905449E+00 
    1.2749273372306529E+00 
    1.2899036214944439E+00 
    1.2925177759465702E+00 
    1.2759137742637015E+00 
    1.2761558355633584E+00 
    1.2940371662114101E+00 
    1.3387596315561314E+00 
    1.3136760040319391E+00 
    1.3147365724449189E+00 
    1.3376068265909746E+00 
    1.4098829834162114E+00 
    1.3865078947733809E+00 
    1.3568441905566049E+00 
    1.3799582853680425E+00 
    1.3647396333839599E+00 
    1.3451517458108528E+00 
    1.3213852904474344E+00 
    1.3373999341903124E+00 
    1.3086830102264118E+00 
    1.2983234712293803E+00 
    1.2767914844543033E+00 
    1.2793561066617436E+00 
    1.3440085279950840E+00 
    1.3230643622757308E+00 
    1.2842289967415663E+00 
    1.2955632335468230E+00 
    1.5290034239166295E+00 
    1.5067160164444973E+00 
    1.5282769429832388E+00 
    1.5501618067712071E+00 
    1.4836875180654843E+00 
    1.4596492919934756E+00 
    1.4824660417540851E+00 
    1.5057629721599513E+00 
    1.5274929954789065E+00 
    1.5049522278616339E+00 
    1.5269006168943080E+00 
    1.5486893528523968E+00 
    1.5707081839164110E+00 
    1.5493870252051751E+00 
    1.5698534833516742E+00 
    1.5904453395356382E+00 
    1.4357022519212050E+00 
    1.4117051120149928E+00 
    1.4463073202419476E+00 
    1.4625212215796366E+00 
    1.3858370090630361E+00 
    1.3574599304989392E+00 
    1.4120477135682508E+00 
    1.4294977124785722E+00 
    1.4699325638936322E+00 
    1.4604766164485357E+00 
    1.5049145178441317E+00 
    1.5078801242304447E+00 
    1.4886996253076079E+00 
    1.4793689013092497E+00 
    1.5109608604675888E+00 
    1.5140971188751311E+00 
    1.6078077179295764E+00 
    1.5856397173269001E+00 
    1.5970731106134965E+00 
    1.6227083710901109E+00 
    1.5626082544142110E+00 
    1.5386908353590540E+00 
    1.5410063078674185E+00 
    1.5697946285981410E+00 
    1.5768829021427846E+00 
    1.5433744551443236E+00 
    1.5458023367750986E+00 
    1.5838958784201447E+00 
    1.6362750703957816E+00 
    1.6080047046491805E+00 
    1.6184702831313527E+00 
    1.6483832456116452E+00 
    1.2697603626541127E+00 
    1.2547219817838817E+00 
    1.2495585957013400E+00 
    1.2668531642493235E+00 
    1.2287571532802775E+00 
    1.1924973804106365E+00 
    1.1909264779037281E+00 
    1.2240346209714585E+00 
    1.2203002875735296E+00 
    1.1903461556007655E+00 
    1.1907318249430769E+00 
    1.2175458294073225E+00 
    1.2639647868828903E+00 
    1.2450616296206658E+00 
    1.2412308158702112E+00 
    1.2611546337762261E+00 
    1.1481103345778905E+00 
    1.0969916505767647E+00 
    1.1084857313122567E+00 
    1.1522856784404196E+00 
    1.0410879414865473E+00 
    9.8162604632422790E-01 
    1.0103270522815431E+00 
    1.0608471642564865E+00 
    1.0808928081130553E+00 
    1.0389186202950516E+00 
    1.0678235158997498E+00 
    1.1017023976734202E+00 
    1.1572477776326153E+00 
    1.1206403647964558E+00 
    1.1337021212236960E+00 
    1.1631304642446438E+00 
    1.2572533488463566E+00 
    1.2338864995879582E+00 
    1.2197333055962498E+00 
    1.2510066527479995E+00 
    1.2081072741840329E+00 
    1.1807333054793396E+00 
    1.1564285681638447E+00 
    1.1879420923481361E+00 
    1.1638032052864729E+00 
    1.1292264052736209E+00 
    1.0996079851139022E+00 
    1.1353532917546845E+00 
    1.2423821464541471E+00 
    1.2013012033332435E+00 
    1.1759075477703418E+00 
    1.2275358960075553E+00 
    1.1602339181510883E+00 
    1.1274609056560301E+00 
    1.0734022839284909E+00 
    1.0950724598607489E+00 
    1.0963643417175295E+00 
    1.0663243464780165E+00 
    1.0306338300559272E+00 
    1.0519486711131749E+00 
    1.0073919071564981E+00 
    9.9442328543094283E-01 
    9.5769737788410791E-01 
    9.6234545757220236E-01 
    1.0327942454768375E+00 
    1.0201521237987625E+00 
    9.6678478061167628E-01 
    9.7100207347747269E-01 
    1.0349353303310478E+00 
    1.0018237498123264E+00 
    9.6995184953952751E-01 
    1.0033769436651698E+00 
    9.6861157158718958E-01 
    9.3464419602649129E-01 
    9.0118059147779295E-01 
    9.3600556371814059E-01 
    9.0286392120868142E-01 
    8.6735849835390322E-01 
    8.3371054457073379E-01 
    8.6946794344029654E-01 
    9.7118910523703850E-01 
    9.3737034011857168E-01 
    9.0434757766833518E-01 
    9.3845470171262013E-01 
    9.0914902478176740E-01 
    9.1303237173787666E-01 
    8.5826660265438293E-01 
    8.4622465959144078E-01 
    9.1669492906372685E-01 
    9.2019017107954260E-01 
    8.8181702866737033E-01 
    8.7004285157870342E-01 
    8.2301373422063862E-01 
    8.4273630548444856E-01 
    8.0297480817798161E-01 
    7.7591126720874037E-01 
    7.8466408027731327E-01 
    8.0366460205777401E-01 
    7.5069081021916773E-01 
    7.2759673085084131E-01 
    1.6485563762430830E+00 
    1.6181698250912253E+00 
    1.6075042406628275E+00 
    1.6361806435386919E+00 
    1.5829126961817077E+00 
    1.5441899324881110E+00 
    1.5419082706106062E+00 
    1.5758560828256152E+00 
    1.5687637732065620E+00 
    1.5396753109104844E+00 
    1.5374881567725975E+00 
    1.5616041915420362E+00 
    1.6224043275508135E+00 
    1.5964246559544226E+00 
    1.5849021913200683E+00 
    1.6073404728682752E+00 
    1.5033291117362435E+00 
    1.4596074441177680E+00 
    1.4690162028191809E+00 
    1.5064459003682913E+00 
    1.4120739850004314E+00 
    1.3579702547611265E+00 
    1.3860508159695903E+00 
    1.4292393868492628E+00 
    1.4458604606365490E+00 
    1.4116566926805516E+00 
    1.4354617998367871E+00 
    1.4619780839107961E+00 
    1.5096522927603135E+00 
    1.4784379604489493E+00 
    1.4878027053773597E+00 
    1.5129192168504371E+00 
    1.5898562140236692E+00 
    1.5690334702058764E+00 
    1.5486066716818814E+00 
    1.5701211533963675E+00 
    1.5476857565410747E+00 
    1.5257963780724353E+00 
    1.5040586445219708E+00 
    1.5266208764943083E+00 
    1.5050812779910152E+00 
    1.4818537235494631E+00 
    1.4592624813579125E+00 
    1.4831905508487486E+00 
    1.5496184369593147E+00 
    1.5276426504340932E+00 
    1.5061964297665833E+00 
    1.5285268980150057E+00 
    1.4970868652634097E+00 
    1.4772200390798287E+00 
    1.4407965945962722E+00 
    1.4552625261968366E+00 
    1.4566268473543944E+00 
    1.4348942719531654E+00 
    1.4090775488592193E+00 
    1.4255256705243293E+00 
    1.3949722017851935E+00 
    1.3840257206970845E+00 
    1.3604981802391676E+00 
    1.3659074005494451E+00 
    1.4136196452461021E+00 
    1.4047332687155885E+00 
    1.3702611827178139E+00 
    1.3736474024724112E+00 
    1.4098588473456217E+00 
    1.3801451228990942E+00 
    1.3571081218446117E+00 
    1.3865948246090722E+00 
    1.3443859900588693E+00 
    1.2960497324848226E+00 
    1.2847349788073821E+00 
    1.3234602528874304E+00 
    1.3090289507948352E+00 
    1.2797800547584417E+00 
    1.2770368681663662E+00 
    1.2985257036476221E+00 
    1.3648712852538569E+00 
    1.3376507275782454E+00 
    1.3215515183030802E+00 
    1.3452589064894347E+00 
    1.3375927522982793E+00 
    1.3386603158150663E+00 
    1.3111169953958364E+00 
    1.3074710016120690E+00 
    1.3386535950825513E+00 
    1.3375992309867002E+00 
    1.3147126728582186E+00 
    1.3134715054346069E+00 
    1.2922196167518591E+00 
    1.2939738240937082E+00 
    1.2760937527007297E+00 
    1.2756002134333990E+00 
    1.2854486638518738E+00 
    1.2894219206388131E+00 
    1.2743956283667595E+00 
    1.2723731740326383E+00 
    8.8576837536145769E-01 
    8.1763740031628551E-01 
    7.9471556636591001E-01 
    8.5508583607896627E-01 
    7.4438152176286032E-01 
    6.6299657357083985E-01 
    6.5910728373468974E-01 
    7.3017514779021375E-01 
    7.1744785066902028E-01 
    6.5727247942721789E-01 
    6.5747462736232221E-01 
    7.0664993773430440E-01 
    8.2448861566248111E-01 
    7.7262163498788561E-01 
    7.5201442736969493E-01 
    7.9479896887616031E-01 
    5.6813717379038320E-01 
    4.4753569051928416E-01 
    4.8408296137413359E-01 
    5.7895182296714154E-01 
    2.7552510327085084E-01 
    0.0000000000000000E+00 
    2.0068046373280907E-01 
    3.6389135413125839E-01 
    4.3889375586201557E-01 
    3.4300347398768566E-01 
    4.4990441089573430E-01 
    5.0363489620534585E-01 
    5.9185985843503386E-01 
    5.2051470176942272E-01 
    5.5588253184754288E-01 
    6.0620568597954150E-01 
    7.6454467443840624E-01 
    7.2619398689674897E-01 
    6.9648318773811235E-01 
    7.3528468131272373E-01 
    6.8493649060856565E-01 
    6.3948273179337878E-01 
    6.0221766491969575E-01 
    6.5271747120815760E-01 
    6.2455661409949126E-01 
    5.6679104412900871E-01 
    5.3470409573664646E-01 
    6.0241596012245990E-01 
    7.1118246529111262E-01 
    6.7209935036256740E-01 
    6.5533850886981426E-01 
    6.9512039968740025E-01 
    1.1610966341772151E+00 
    1.0950255198142238E+00 
    1.0730471341879522E+00 
    1.1279078077465645E+00 
    1.0315001573124631E+00 
    9.6862830067268013E-01 
    9.6453833007908418E-01 
    1.0187786855490386E+00 
    1.0059484523919076E+00 
    9.6025679199780034E-01 
    9.5579689512445865E-01 
    9.9302051076573916E-01 
    1.0964658669819518E+00 
    1.0513364387815258E+00 
    1.0298364771509547E+00 
    1.0661323399226792E+00 
    9.0651482008475537E-01 
    8.4459230472694269E-01 
    8.5652828486039090E-01 
    9.1061800903787016E-01 
    7.8421687552141073E-01 
    7.2785898073592714E-01 
    7.5074218113353741E-01 
    8.0293019852841807E-01 
    8.2207565419726136E-01 
    7.7576354055142382E-01 
    8.0266473816736505E-01 
    8.4176367181462597E-01 
    9.1452488322852854E-01 
    8.6839348516263459E-01 
    8.8026504648705539E-01 
    9.1829514741523499E-01 
    1.0345040135179953E+00 
    1.0024140984999779E+00 
    9.6889740458528362E-01 
    1.0012069846015674E+00 
    9.6975431578158100E-01 
    9.3671358028142881E-01 
    9.0282984592405835E-01 
    9.3601536755281201E-01 
    9.0179186003421608E-01 
    8.6839491642450928E-01 
    8.3321706332380130E-01 
    8.6678611790479765E-01 
    9.6799786114511677E-01 
    9.3511015570365630E-01 
    9.0058916124005550E-01 
    9.3415635663851737E-01 
    1.2281380185056228E+00 
    1.1765253015370929E+00 
    1.2019929799793914E+00 
    1.2429954460558570E+00 
    1.1358365557224475E+00 
    1.0998960583498985E+00 
    1.1298620508788249E+00 
    1.1645183560968959E+00 
    1.1887403612233076E+00 
    1.1573050217116925E+00 
    1.1816828455116413E+00 
    1.2089089209710808E+00 
    1.2515419931268648E+00 
    1.2204511610596678E+00 
    1.2344966426179096E+00 
    1.2576367658026806E+00 
    1.0679355545622544E+00 
    1.0388151546795152E+00 
    1.0813919974662560E+00 
    1.1022776617700110E+00 
    1.0100309308347897E+00 
    9.8117501952230268E-01 
    1.0412476354293632E+00 
    1.0611912924858105E+00 
    1.1094563460240825E+00 
    1.0979246482133582E+00 
    1.1493984287887768E+00 
    1.1535191539853125E+00 
    1.1346033648392946E+00 
    1.1215873203826332E+00 
    1.1584050110020181E+00 
    1.1641841582601462E+00 
    1.2612633979148657E+00 
    1.2416441270594110E+00 
    1.2453142453478598E+00 
    1.2638350720390523E+00 
    1.2182724905849587E+00 
    1.1917245982966502E+00 
    1.1914113211850692E+00 
    1.2210011325743007E+00 
    1.2246554697923244E+00 
    1.1920619073000158E+00 
    1.1936727006446912E+00 
    1.2293072270820007E+00 
    1.2664872533099656E+00 
    1.2496427764797393E+00 
    1.2546422178194252E+00 
    1.2692318821067379E+00 
    6.9528236504228824E-01 
    6.5560281747352012E-01 
    6.7276974978141224E-01 
    7.1155338765990594E-01 
    6.0277479259573907E-01 
    5.3509839290040973E-01 
    5.6784708880994206E-01 
    6.2550337424225266E-01 
    6.5404572819830920E-01 
    6.0379796307899503E-01 
    6.4135623433557520E-01 
    6.8643769338784588E-01 
    7.3570320364486186E-01 
    6.9742603786535851E-01 
    7.2716353160783342E-01 
    7.6489614676858109E-01 
    4.5030038455399163E-01 
    3.4334041063842136E-01 
    4.4005753243513535E-01 
    5.0475503338355365E-01 
    2.0088293168132393E-01 
    0.0000000000000000E+00 
    2.7629712868940365E-01 
    3.6491455569120024E-01 
    4.8604396795315141E-01 
    4.4933332248563634E-01 
    5.7075875568367451E-01 
    5.8149683866846325E-01 
    5.5760318342626491E-01 
    5.2239057022459223E-01 
    5.9421873516077550E-01 
    6.0828366040161430E-01 
    7.9497048197531528E-01 
    7.5287860206587076E-01 
    7.7341475362324874E-01 
    8.2451700052804100E-01 
    7.0818181260393454E-01 
    6.5951795822611325E-01 
    6.5953757415561653E-01 
    7.1906926492679468E-01 
    7.3176850910313895E-01 
    6.6151492915075283E-01 
    6.6543403482829777E-01 
    7.4585338571936466E-01 
    8.5496238327742757E-01 
    7.9535252767931974E-01 
    8.1805823693952440E-01 
    8.8548837596725316E-01 
    1.2637778011890672E+00 
    1.3298515493110021E+00 
    1.3235026888734360E+00 
    1.2626637924666377E+00 
    1.3933914971993813E+00 
    1.4536556881918443E+00 
    1.4379176934140216E+00 
    1.3820948753914539E+00 
    1.3724379918724809E+00 
    1.4234756960507335E+00 
    1.4100832796261895E+00 
    1.3642094364524286E+00 
    1.2630753319743031E+00 
    1.3188960186833323E+00 
    1.3158528688409379E+00 
    1.2649257744674554E+00 
    1.5087878959990693E+00 
    1.5585976181922445E+00 
    1.5311662908781412E+00 
    1.4873221965171417E+00 
    1.6035770598660228E+00 
    1.6438756274118578E+00 
    1.6118830655668301E+00 
    1.5724308472199453E+00 
    1.5401657405685314E+00 
    1.5764168785531751E+00 
    1.5378672471796251E+00 
    1.5066863218354374E+00 
    1.4667433948275823E+00 
    1.5039720975323947E+00 
    1.4767278350731896E+00 
    1.4467785058015623E+00 
    1.2714063199908170E+00 
    1.3231370444353883E+00 
    1.3420069674660484E+00 
    1.2837086627590437E+00 
    1.3710760608516199E+00 
    1.4159115675960563E+00 
    1.4410090554783046E+00 
    1.3937449820362415E+00 
    1.4186302723899387E+00 
    1.4670591195022666E+00 
    1.4954407859509047E+00 
    1.4478532570343849E+00 
    1.3001267403761347E+00 
    1.3644929688578755E+00 
    1.3941687066565360E+00 
    1.3266618362826685E+00 
    1.1957740470919349E+00 
    1.1270904433097608E+00 
    1.1360320055797246E+00 
    1.1994607203665175E+00 
    1.0583410872450782E+00 
    9.9008004346983391E-01 
    1.0100903955985980E+00 
    1.0727921301175778E+00 
    1.0872612485519131E+00 
    1.0300289056873757E+00 
    1.0500190328202570E+00 
    1.1018495589622554E+00 
    1.2040433334782903E+00 
    1.1453045815755765E+00 
    1.1548934314030426E+00 
    1.2093942225626793E+00 
    9.2418342284340449E-01 
    8.6086843422899817E-01 
    8.9961982431102727E-01 
    9.5246349005238529E-01 
    7.9915150559398684E-01 
    7.3943065794103879E-01 
    7.9590604761910611E-01 
    8.4746499047172841E-01 
    8.9691927154057061E-01 
    8.5524903713619216E-01 
    9.1609212157444087E-01 
    9.4720136294563262E-01 
    9.8075100983377927E-01 
    9.3874071207890475E-01 
    9.7821419695644296E-01 
    1.0091897027256804E+00 
    1.2117007609759725E+00 
    1.1549351861217978E+00 
    1.1437557256710258E+00 
    1.2092296765814610E+00 
    1.1009435770198046E+00 
    1.0488606160691023E+00 
    1.0259955726731056E+00 
    1.0834368365751319E+00 
    1.0646128173724876E+00 
    1.0026777001301517E+00 
    9.7878101631583159E-01 
    1.0439572344828607E+00 
    1.2033293992562393E+00 
    1.1299945745180102E+00 
    1.1120414641530270E+00 
    1.1907253424107958E+00 
    1.3271839487537593E+00 
    1.3941838229079093E+00 
    1.3642494999177910E+00 
    1.3002846454192039E+00 
    1.4469951137551573E+00 
    1.4938626821257377E+00 
    1.4658096507408660E+00 
    1.4178425296727333E+00 
    1.3930243926395738E+00 
    1.4400109344441805E+00 
    1.4151219165444580E+00 
    1.3704477049536459E+00 
    1.2835366901064487E+00 
    1.3416085207284836E+00 
    1.3226626523444149E+00 
    1.2710188977733599E+00 
    1.5362546492013927E+00 
    1.5754350138343653E+00 
    1.5392907520887842E+00 
    1.5054201495933095E+00 
    1.6115916248032760E+00 
    1.6440282780563069E+00 
    1.6035479784141544E+00 
    1.5720406918445020E+00 
    1.5307565577621736E+00 
    1.5584889841687486E+00 
    1.5086663648148348E+00 
    1.4869599345252005E+00 
    1.4757242812088838E+00 
    1.5032304062571695E+00 
    1.4661449288289228E+00 
    1.4459928566121207E+00 
    1.2644170752831667E+00 
    1.3153468635653962E+00 
    1.3184537242500480E+00 
    1.2625947145354974E+00 
    1.3636391027255859E+00 
    1.4094227532066639E+00 
    1.4229608070344535E+00 