# vtk DataFile Version 2.0
Pressure Field Data 
ASCII 
DATASET UNSTRUCTURED_GRID 

POINTS 801 double 

    0.0000000000000000E+00     0.0000000000000000E+00     0.0000000000000000E+00 
    1.0000000000000000E+00     0.0000000000000000E+00     0.0000000000000000E+00 
    1.0000000000000000E+00     1.0000000000000000E+00     0.0000000000000000E+00 
    0.0000000000000000E+00     1.0000000000000000E+00     0.0000000000000000E+00 
    2.5000000000000000E-01     2.5000000000000000E-01     0.0000000000000000E+00 
    7.5000000000000000E-01     2.5000000000000000E-01     0.0000000000000000E+00 
    7.5000000000000000E-01     7.5000000000000000E-01     0.0000000000000000E+00 
    2.5000000000000000E-01     7.5000000000000000E-01     0.0000000000000000E+00 
    2.4999999999941941E-01     0.0000000000000000E+00     0.0000000000000000E+00 
    4.9999999999869399E-01     0.0000000000000000E+00     0.0000000000000000E+00 
    7.4999999999934697E-01     0.0000000000000000E+00     0.0000000000000000E+00 
    1.2499999999977940E-01     0.0000000000000000E+00     0.0000000000000000E+00 
    3.7499999999905670E-01     0.0000000000000000E+00     0.0000000000000000E+00 
    6.2499999999902045E-01     0.0000000000000000E+00     0.0000000000000000E+00 
    8.7499999999967348E-01     0.0000000000000000E+00     0.0000000000000000E+00 
    6.2499999999889699E-02     0.0000000000000000E+00     0.0000000000000000E+00 
    1.8749999999959940E-01     0.0000000000000000E+00     0.0000000000000000E+00 
    3.1249999999923811E-01     0.0000000000000000E+00     0.0000000000000000E+00 
    4.3749999999887529E-01     0.0000000000000000E+00     0.0000000000000000E+00 
    5.6249999999885725E-01     0.0000000000000000E+00     0.0000000000000000E+00 
    6.8749999999918376E-01     0.0000000000000000E+00     0.0000000000000000E+00 
    8.1249999999951017E-01     0.0000000000000000E+00     0.0000000000000000E+00 
    9.3749999999983680E-01     0.0000000000000000E+00     0.0000000000000000E+00 
    1.0000000000000000E+00     2.4999999999941941E-01     0.0000000000000000E+00 
    1.0000000000000000E+00     4.9999999999869399E-01     0.0000000000000000E+00 
    1.0000000000000000E+00     7.4999999999934697E-01     0.0000000000000000E+00 
    1.0000000000000000E+00     1.2499999999977940E-01     0.0000000000000000E+00 
    1.0000000000000000E+00     3.7499999999905670E-01     0.0000000000000000E+00 
    1.0000000000000000E+00     6.2499999999902045E-01     0.0000000000000000E+00 
    1.0000000000000000E+00     8.7499999999967348E-01     0.0000000000000000E+00 
    1.0000000000000000E+00     6.2499999999889699E-02     0.0000000000000000E+00 
    1.0000000000000000E+00     1.8749999999959940E-01     0.0000000000000000E+00 
    1.0000000000000000E+00     3.1249999999923811E-01     0.0000000000000000E+00 
    1.0000000000000000E+00     4.3749999999887529E-01     0.0000000000000000E+00 
    1.0000000000000000E+00     5.6249999999885725E-01     0.0000000000000000E+00 
    1.0000000000000000E+00     6.8749999999918376E-01     0.0000000000000000E+00 
    1.0000000000000000E+00     8.1249999999951017E-01     0.0000000000000000E+00 
    1.0000000000000000E+00     9.3749999999983680E-01     0.0000000000000000E+00 
    7.5000000000112044E-01     1.0000000000000000E+00     0.0000000000000000E+00 
    5.0000000000205913E-01     1.0000000000000000E+00     0.0000000000000000E+00 
    2.5000000000102962E-01     1.0000000000000000E+00     0.0000000000000000E+00 
    8.7499999999991362E-01     1.0000000000000000E+00     0.0000000000000000E+00 
    6.2499999999988309E-01     1.0000000000000000E+00     0.0000000000000000E+00 
    3.7499999999869987E-01     1.0000000000000000E+00     0.0000000000000000E+00 
    1.2499999999880820E-01     1.0000000000000000E+00     0.0000000000000000E+00 
    9.3749999999995681E-01     1.0000000000000000E+00     0.0000000000000000E+00 
    8.1250000000051703E-01     1.0000000000000000E+00     0.0000000000000000E+00 
    6.8750000000050182E-01     1.0000000000000000E+00     0.0000000000000000E+00 
    5.6250000000097111E-01     1.0000000000000000E+00     0.0000000000000000E+00 
    4.3750000000037947E-01     1.0000000000000000E+00     0.0000000000000000E+00 
    3.1249999999986477E-01     1.0000000000000000E+00     0.0000000000000000E+00 
    1.8749999999991890E-01     1.0000000000000000E+00     0.0000000000000000E+00 
    6.2499999999404102E-02     1.0000000000000000E+00     0.0000000000000000E+00 
    0.0000000000000000E+00     7.5000000000112044E-01     0.0000000000000000E+00 
    0.0000000000000000E+00     5.0000000000205913E-01     0.0000000000000000E+00 
    0.0000000000000000E+00     2.5000000000102962E-01     0.0000000000000000E+00 
    0.0000000000000000E+00     8.7499999999991362E-01     0.0000000000000000E+00 
    0.0000000000000000E+00     6.2499999999988309E-01     0.0000000000000000E+00 
    0.0000000000000000E+00     3.7499999999869987E-01     0.0000000000000000E+00 
    0.0000000000000000E+00     1.2499999999880820E-01     0.0000000000000000E+00 
    0.0000000000000000E+00     9.3749999999995681E-01     0.0000000000000000E+00 
    0.0000000000000000E+00     8.1250000000051703E-01     0.0000000000000000E+00 
    0.0000000000000000E+00     6.8750000000050182E-01     0.0000000000000000E+00 
    0.0000000000000000E+00     5.6250000000097111E-01     0.0000000000000000E+00 
    0.0000000000000000E+00     4.3750000000037947E-01     0.0000000000000000E+00 
    0.0000000000000000E+00     3.1249999999986477E-01     0.0000000000000000E+00 
    0.0000000000000000E+00     1.8749999999991890E-01     0.0000000000000000E+00 
    0.0000000000000000E+00     6.2499999999404102E-02     0.0000000000000000E+00 
    4.9999999999972200E-01     2.5000000000000000E-01     0.0000000000000000E+00 
    3.7500000000067490E-01     2.5000000000000000E-01     0.0000000000000000E+00 
    6.2500000000042988E-01     2.5000000000000000E-01     0.0000000000000000E+00 
    3.1250000000033751E-01     2.5000000000000000E-01     0.0000000000000000E+00 
    4.3750000000019851E-01     2.5000000000000000E-01     0.0000000000000000E+00 
    5.6250000000007594E-01     2.5000000000000000E-01     0.0000000000000000E+00 
    6.8750000000021494E-01     2.5000000000000000E-01     0.0000000000000000E+00 
    7.5000000000000000E-01     4.9999999999972200E-01     0.0000000000000000E+00 
    7.5000000000000000E-01     3.7500000000067490E-01     0.0000000000000000E+00 
    7.5000000000000000E-01     6.2500000000042988E-01     0.0000000000000000E+00 
    7.5000000000000000E-01     3.1250000000033751E-01     0.0000000000000000E+00 
    7.5000000000000000E-01     4.3750000000019851E-01     0.0000000000000000E+00 
    7.5000000000000000E-01     5.6250000000007594E-01     0.0000000000000000E+00 
    7.5000000000000000E-01     6.8750000000021494E-01     0.0000000000000000E+00 
    5.0000000000118039E-01     7.5000000000000000E-01     0.0000000000000000E+00 
    6.2500000000161415E-01     7.5000000000000000E-01     0.0000000000000000E+00 
    3.7500000000140910E-01     7.5000000000000000E-01     0.0000000000000000E+00 
    6.8750000000080713E-01     7.5000000000000000E-01     0.0000000000000000E+00 
    5.6250000000139733E-01     7.5000000000000000E-01     0.0000000000000000E+00 
    4.3750000000129469E-01     7.5000000000000000E-01     0.0000000000000000E+00 
    3.1250000000070460E-01     7.5000000000000000E-01     0.0000000000000000E+00 
    2.5000000000000000E-01     5.0000000000118039E-01     0.0000000000000000E+00 
    2.5000000000000000E-01     6.2500000000161415E-01     0.0000000000000000E+00 
    2.5000000000000000E-01     3.7500000000140910E-01     0.0000000000000000E+00 
    2.5000000000000000E-01     6.8750000000080713E-01     0.0000000000000000E+00 
    2.5000000000000000E-01     5.6250000000139733E-01     0.0000000000000000E+00 
    2.5000000000000000E-01     4.3750000000129469E-01     0.0000000000000000E+00 
    2.5000000000000000E-01     3.1250000000070460E-01     0.0000000000000000E+00 
    3.7499999999934702E-01     1.2500000000000000E-01     0.0000000000000000E+00 
    1.2500000000000000E-01     1.2500000000000000E-01     0.0000000000000000E+00 
    1.2500000000000000E-01     3.7500000000102962E-01     0.0000000000000000E+00 
    8.7500000000000000E-01     1.2500000000000000E-01     0.0000000000000000E+00 
    6.2499999999934697E-01     1.2500000000000000E-01     0.0000000000000000E+00 
    8.7500000000000000E-01     3.7499999999934702E-01     0.0000000000000000E+00 
    8.7500000000000000E-01     6.2499999999934697E-01     0.0000000000000000E+00 
    1.2500000000000000E-01     6.2500000000102962E-01     0.0000000000000000E+00 
    1.2500000000000000E-01     8.7500000000000000E-01     0.0000000000000000E+00 
    8.7500000000000000E-01     8.7500000000000000E-01     0.0000000000000000E+00 
    6.2500000000102962E-01     8.7500000000000000E-01     0.0000000000000000E+00 
    3.7500000000102962E-01     8.7500000000000000E-01     0.0000000000000000E+00 
    2.4999999999957681E-01     8.3333333333333329E-02     0.0000000000000000E+00 
    8.3333333333333329E-02     2.5000000000068640E-01     0.0000000000000000E+00 
    7.4999999999956468E-01     8.3333333333333329E-02     0.0000000000000000E+00 
    4.9999999999951827E-01     1.6666666666666671E-01     0.0000000000000000E+00 
    9.1666666666666674E-01     2.4999999999957681E-01     0.0000000000000000E+00 
    8.3333333333333337E-01     4.9999999999951827E-01     0.0000000000000000E+00 
    1.6666666666666671E-01     5.0000000000088307E-01     0.0000000000000000E+00 
    8.3333333333333329E-02     7.5000000000070155E-01     0.0000000000000000E+00 
    9.1666666666666674E-01     7.4999999999956468E-01     0.0000000000000000E+00 
    5.0000000000088307E-01     8.3333333333333348E-01     0.0000000000000000E+00 
    2.5000000000068640E-01     9.1666666666666674E-01     0.0000000000000000E+00 
    7.5000000000070155E-01     9.1666666666666674E-01     0.0000000000000000E+00 
[...]
CELL_DATA 768 
SCALARS Pressure double 1 
LOOKUP_TABLE default 

    1.9332194494862962E+00 
    1.8401232240420826E+00 
    1.8102312385491472E+00 
    1.8670083767012313E+00 
    1.7794782699237115E+00 
    1.7335721425573276E+00 
    1.7295240550188322E+00 
    1.7664925809676881E+00 
    1.7531410739156397E+00 
    1.7246250907394782E+00 
    1.7190401276531064E+00 
    1.7397851918425968E+00 
    1.8179237392704126E+00 
    1.7837605555831166E+00 
    1.7601425134189708E+00 
    1.7800370705758153E+00 
    1.6934997589435385E+00 
    1.6553844670402682E+00 
    1.6624914553120163E+00 
    1.6953777185435297E+00 
    1.6172158838480357E+00 
    1.5780479095245141E+00 
    1.5962184034304612E+00 
    1.6297019498228171E+00 
    1.6415180284496267E+00 
    1.6137277444482456E+00 
    1.6302791918126085E+00 
    1.6524411799901608E+00 
    1.6964806046003091E+00 
    1.6688999284169146E+00 
    1.6744659742274521E+00 
    1.6968083532075053E+00 
    1.7486509097017442E+00 
    1.7360511234744389E+00 
    1.7127817905466833E+00 
    1.7221838643193541E+00 
    1.7214440633832151E+00 
    1.7052648195715130E+00 
    1.6851720753998749E+00 
    1.7002100054297333E+00 
    1.6806615358121610E+00 
    1.6658080817647094E+00 
    1.6466867582999338E+00 
    1.6621849623012133E+00 
    1.7002893546125735E+00 
    1.6924992489071655E+00 
    1.6747105080010591E+00 
    1.6829108315414172E+00 
    1.9332638343953958E+00 
    1.8670675587188066E+00 
    1.8104390095392500E+00 
    1.8403198419985081E+00 
    1.8179942475503230E+00 
    1.7801060238912654E+00 
    1.7603323744756458E+00 
    1.7839622437858143E+00 
    1.7534518961040928E+00 
    1.7400496426766339E+00 
    1.7193412126601160E+00 
    1.7249748788984252E+00 
    1.7798093383996265E+00 
    1.7668183935767467E+00 
    1.7299129533187219E+00 
    1.7339711612155289E+00 
    1.7487195478830446E+00 
    1.7222408703639640E+00 
    1.7129208740606905E+00 
    1.7362253687896461E+00 
    1.7003149000223494E+00 
    1.6829455966268976E+00 
    1.6747329858320283E+00 
    1.6925708104962012E+00 
    1.6807147521369705E+00 
    1.6620906989207476E+00 
    1.6464568021993671E+00 
    1.6657779121151957E+00 
    1.7216731205366151E+00 
    1.7003670419422354E+00 
    1.6852992561851252E+00 
    1.7054961569592368E+00 
    1.6938253641555039E+00 
    1.6956893949719267E+00 
    1.6625797660452426E+00 
    1.6554342904299801E+00 
    1.6967588560508358E+00 
    1.6970367789121470E+00 
    1.6745510240551778E+00 
    1.6689851635778532E+00 
    1.6413669528897696E+00 
    1.6523241491014686E+00 
    1.6299240390430478E+00 
    1.6133231918563942E+00 
    1.6169742087954073E+00 
    1.6295098342530749E+00 
    1.5957958268112362E+00 
    1.5776117829585437E+00 
    1.5151747474940362E+00 
    1.4728484468798742E+00 
    1.4582148171594165E+00 
    1.4951204526076245E+00 
    1.4307135938688111E+00 
    1.3904170759209904E+00 
    1.3869351078447989E+00 
    1.4217154903525968E+00 
    1.4117821756934874E+00 
    1.3824568110340394E+00 
    1.3769000834882692E+00 
    1.4006558831389482E+00 
    1.4742776564757396E+00 
    1.4427320560104320E+00 
    1.4260115104523847E+00 
    1.4522146896660493E+00 
    1.3540952880863117E+00 
    1.3239326448479833E+00 
    1.3274808115619847E+00 
    1.3551093623711259E+00 
    1.3018414721243696E+00 
    1.2886619554900125E+00 
    1.2905962436037324E+00 
    1.3057108320399291E+00 
    1.3083429325681724E+00 
    1.2915830312146852E+00 
    1.2918152488226777E+00 
    1.3098670555801877E+00 
    1.3550182114703755E+00 
    1.3297000014568936E+00 
    1.3307631020227169E+00 
    1.3538491454336068E+00 
    1.4267741716180364E+00 
    1.4031890073817204E+00 
    1.3732422156239208E+00 
    1.3965656136836471E+00 
    1.3812239365368526E+00 
    1.3614585480154451E+00 
    1.3374658221654616E+00 
    1.3536230156607227E+00 
    1.3246278904457214E+00 
    1.3141822755709114E+00 
    1.2924417601996376E+00 
    1.2950138512158718E+00 
    1.3602664164957907E+00 
    1.3391340499538567E+00 
    1.2999158040169143E+00 
    1.3113376238876513E+00 
    1.5469364968449730E+00 
    1.5244649639919226E+00 
    1.5462003304554908E+00 
    1.5682603837920546E+00 
    1.5012395640954208E+00 
    1.4769891255892109E+00 
    1.5000017501474761E+00 
    1.5234990284161536E+00 
    1.5454061718669674E+00 
    1.5226773592829688E+00 
    1.5448060174269691E+00 
    1.5667706533262042E+00 
    1.5889622429671248E+00 
    1.5674764846140330E+00 
    1.5880991892714535E+00 
    1.6088438521688446E+00 
    1.4528240711128284E+00 
    1.4286031818509666E+00 
    1.4635169818658313E+00 
    1.4798792397778582E+00 
    1.4024897263769354E+00 
    1.3738404072000789E+00 
    1.4289371009590741E+00 
    1.4465512563864065E+00 
    1.4873469191234030E+00 
    1.4778041162982387E+00 
    1.5226284200064930E+00 
    1.5256214220303643E+00 
    1.5062837205388260E+00 
    1.4968691268783023E+00 
    1.5287303848987432E+00 
    1.5318949152358721E+00 
    1.6263284110246747E+00 
    1.6040016826155321E+00 
    1.6155168623728000E+00 
    1.6413297791955779E+00 
    1.5807961688569108E+00 
    1.5566895091233197E+00 
    1.5590218853456670E+00 
    1.5880361150422511E+00 
    1.5951768940098361E+00 
    1.5614077335228274E+00 
    1.5638543000768830E+00 
    1.6022414469689963E+00 
    1.6549844905327675E+00 
    1.6265248887305210E+00 
    1.6370616657391646E+00 
    1.6671672317536324E+00 
    1.2853864984317125E+00 
    1.2701957362286618E+00 
    1.2649733016860600E+00 
    1.2824464648797440E+00 
    1.2439594290708627E+00 
    1.2073153576468154E+00 
    1.2057233955011881E+00 
    1.2391813437320505E+00 
    1.2353976525286310E+00 
    1.2051289576334692E+00 
    1.2055096557314295E+00 
    1.2326039714857990E+00 
    1.2795182195080075E+00 
    1.2604184359063570E+00 
    1.2565358550656813E+00 
    1.2766664539429251E+00 
    1.1624582137716570E+00 
    1.1107853468051188E+00 
    1.1224003834141998E+00 
    1.1666758941753390E+00 
    1.0542685808967853E+00 
    9.9414611550023679E-01 
    1.0231591955472112E+00 
    1.0742391989111131E+00 
    1.0944926280221401E+00 
    1.0520543772585120E+00 
    1.0812660737363646E+00 
    1.1155175934234198E+00 
    1.1716816136739947E+00 
    1.1346764340690498E+00 
    1.1478674416418524E+00 
    1.1776157136992154E+00 
    1.2727097134344287E+00 
    1.2491022763774409E+00 
    1.2347885274737258E+00 
    1.2663817618323689E+00 
    1.2230562990653397E+00 
    1.1953978348586474E+00 
    1.1708284229619974E+00 
    1.2026694481588232E+00 
    1.1782669583938354E+00 
    1.1433292917660496E+00 
    1.1133868523831925E+00 
    1.1495081136592509E+00 
    1.2576524998611720E+00 
    1.2161523793184008E+00 
    1.1904847331656316E+00 
    1.2426457577179675E+00 
    1.1746433222130199E+00 
    1.1415248312194617E+00 
    1.0868818875302220E+00 
    1.1087859801003812E+00 
    1.1100982761125608E+00 
    1.0797386325922378E+00 
    1.0436544222545288E+00 
    1.0651974422595152E+00 
    1.0201474707199834E+00 
    1.0070404233242634E+00 
    9.6990077573783662E-01 
    9.7459572731795352E-01 
    1.0458266528533824E+00 
    1.0330459648919559E+00 
    9.7908199820191311E-01 
    9.8334574362915894E-01 
    1.0480148822534567E+00 
    1.0145501664721368E+00 
    9.8231820909578493E-01 
    1.0161047103926484E+00 
    9.8099154015967349E-01 
    9.4665784801026387E-01 
    9.1280048773569267E-01 
    9.4800735173650386E-01 
    9.1447460941794101E-01 
    8.7857212408511332E-01 
    8.4451546369211972E-01 
    8.8068274850010597E-01 
    9.8355438775728976E-01 
    9.4936328069780362E-01 
    9.1595771318197894E-01 
    9.5044735644384393E-01 
    9.2078876804123844E-01 
    9.2471936740665883E-01 
    8.6932505035279573E-01 
    8.5714097850738979E-01 
    9.2842851491000644E-01 
    9.3196956736658265E-01 
    8.9316035644429126E-01 
    8.8124302115051312E-01 
    8.3366872348946330E-01 
    8.5362997762907933E-01 
    8.1340373196817128E-01 
    7.8601155915449783E-01 
    7.9486369223937736E-01 
    8.1408792416437437E-01 
    7.6049036055533448E-01 
    7.3712950656990839E-01 
    1.6673411506149185E+00 
    1.6367604164046310E+00 
    1.6260229972288407E+00 
    1.6548901487605392E+00 
    1.6012546631904536E+00 
    1.5622361022480165E+00 
    1.5599362212234733E+00 
    1.5941463543393095E+00 
    1.5870016239952909E+00 
    1.5576861513429081E+00 
    1.5554827742337778E+00 
    1.5797886507305599E+00 
    1.6410251820795179E+00 
    1.6148664994548687E+00 
    1.6032618991076404E+00 
    1.6258600950920088E+00 
    1.5210391681747666E+00 
    1.4769377445751253E+00 
    1.4864322533055823E+00 
    1.5241835017927967E+00 
    1.4289736238070763E+00 
    1.3743664357842287E+00 
    1.4027166201635886E+00 
    1.4463008634704606E+00 
    1.4630761543220925E+00 
    1.4285651819699483E+00 
    1.4525918354041853E+00 
    1.4793408927307254E+00 
    1.5274182529680014E+00 
    1.4959389741380331E+00 
    1.5053873038657941E+00 
    1.5307139550573476E+00 
    1.6082533908219039E+00 
    1.5872766828655063E+00 
    1.5666949098276006E+00 
    1.5883748718609867E+00 
    1.5657638596412864E+00 
    1.5436987604761243E+00 
    1.5217836351900194E+00 
    1.5445329557126719E+00 
    1.5228188495430977E+00 
    1.4993927609790521E+00 
    1.4766081835135827E+00 
    1.5007461691503778E+00 
    1.5677178057887100E+00 
    1.5455668798813544E+00 
    1.5239476443119173E+00 
    1.5464618335294922E+00 
    1.5147654808836166E+00 
    1.4947291431554182E+00 
    1.4579909487969773E+00 
    1.4725844638498782E+00 
    1.4739556105618159E+00 
    1.4520274736817578E+00 
    1.4259818730962055E+00 
    1.4425821143745874E+00 
    1.4117560272787701E+00 
    1.4007052145598275E+00 
    1.3769647795839872E+00 
    1.3824283861534099E+00 
    1.4305754306037284E+00 
    1.4216081668146223E+00 
    1.3868251036652013E+00 
    1.3902436924406940E+00 
    1.4267608768812023E+00 
    1.3967663107026578E+00 
    1.3735217076665389E+00 
    1.4032884839165307E+00 
    1.3606606375958448E+00 
    1.3118428052789819E+00 
    1.3004425357886342E+00 
    1.3395482255484670E+00 
    1.3249927180797290E+00 
    1.2954589847563469E+00 
    1.2927071645815300E+00 
    1.3144027939291805E+00 
    1.3813693519801249E+00 
    1.3538902100668146E+00 
    1.3376485905981437E+00 
    1.3615802231128591E+00 
    1.3538596301870185E+00 
    1.3549352098806235E+00 
    1.3271370666350737E+00 
    1.3234597327371809E+00 
    1.3549248097975697E+00 
    1.3538553178196093E+00 
    1.3307541648687828E+00 
    1.3295085810653025E+00 
    1.3080580345312740E+00 
    1.3098195128867036E+00 
    1.2917700188388461E+00 
    1.2912834622409279E+00 
    1.3012333364701512E+00 
    1.3052404556043111E+00 
    1.2900761054388943E+00 
    1.2880392028087100E+00 
    8.9724477153027737E-01 
    8.2830733507872401E-01 
    8.0509824701727595E-01 
    8.6619330806678552E-01 
    7.5414566393327898E-01 
    6.7171988781126712E-01 
    6.6777582582996509E-01 
    7.3975389508450418E-01 
    7.2685666243672709E-01 
    6.6591435002865773E-01 
    6.6612001419139999E-01 
    7.1591585694935433E-01 
    8.3521321620248812E-01 
    7.8271890441973380E-01 
    7.6184404170761055E-01 
    8.0514788147612681E-01 
    5.7563116258161828E-01 
    4.5349549105328452E-01 
    4.9053471830865614E-01 
    5.8659935478108605E-01 
    2.7922864244637630E-01 
    0.0000000000000000E+00 
    2.0350886648013897E-01 
    3.6881901599210659E-01 
    4.4477832314150623E-01 
    3.4765666484420638E-01 
    4.5592462870454231E-01 
    5.1034229544100862E-01 
    5.9968050305777365E-01 
    5.2743443120956224E-01 
    5.6325209547609534E-01 
    6.1421000941724435E-01 
    7.7451585860058136E-01 
    7.3569823461766726E-01 
    7.0561969223240140E-01 
    7.4489704531775358E-01 
    6.9392880024558767E-01 
    6.4790487512314354E-01 
    6.1017331534153052E-01 
    6.6130818264799496E-01 
    6.3279600756536636E-01 
    5.7430111891700220E-01 
    5.4180739665774602E-01 
    6.1037690099069619E-01 
    7.2050612561760896E-01 
    6.8093572292859661E-01 
    6.6396695977556830E-01 
    7.0425858637246663E-01 
    1.1755266467605090E+00 
    1.1087546414140657E+00 
    1.0865404052024070E+00 
    1.1419916718319945E+00 
    1.0445389443058899E+00 
    9.8096934521709378E-01 
    9.7683138786507051E-01 
    1.0316770756549658E+00 
    1.0187061675020830E+00 
    9.7250155531067495E-01 
    9.6799384549287026E-01 
    1.0056380431762215E+00 
    1.1102179586460352E+00 
    1.0645961116560763E+00 
    1.0428650585895629E+00 
    1.0795619927974731E+00 
    9.1814455989579002E-01 
    8.5549931299754134E-01 
    8.6757613925713506E-01 
    9.2229482735966828E-01 
    7.9440993042353880E-01 
    7.3738737769703744E-01 
    7.6053745131942918E-01 
    8.1334595438255963E-01 
    8.3272150831648184E-01 
    7.8585975795649243E-01 
    8.1308792657243378E-01 
    8.5264701092565731E-01 
    9.2624822064933654E-01 
    8.7958251597885051E-01 
    8.9159660514339245E-01 
    9.3006463682590246E-01 
    1.0475957022921905E+00 
    1.0151464963013244E+00 
    9.8126453227059818E-01 
    1.0139424174672111E+00 
    9.8211694124018389E-01 
    9.4869802993065144E-01 
    9.1442870173826185E-01 
    9.4800153515850272E-01 
    9.1339201278321414E-01 
    8.7959757877146783E-01 
    8.4401133012767082E-01 
    8.7798620161095442E-01 
    9.8038417069458561E-01 
    9.4710889500006323E-01 
    9.1219939021393348E-01 
    9.4617004500438495E-01 
    1.2432685123585863E+00 
    1.1911250352086131E+00 
    1.2168691539747742E+00 
    1.2582888096546996E+00 
    1.1500141621084874E+00 
    1.1136965612866974E+00 
    1.1439917977061220E+00 
    1.1790087319937235E+00 
    1.2034964109306043E+00 
    1.1717356985054590E+00 
    1.1963795827667325E+00 
    1.2238872680804700E+00 
    1.2669406459116064E+00 
    1.2355330155086333E+00 
    1.2497385501789948E+00 
    1.2731157580647650E+00 
    1.0813977092479816E+00 
    1.0519670543230046E+00 
    1.0950177390856379E+00 
    1.1161196036093584E+00 
    1.0228750493373511E+00 
    9.9370171014254005E-01 
    1.0544472220032657E+00 
    1.0746068006493301E+00 
    1.1234071073807030E+00 
    1.1117549261350790E+00 
    1.1637882491134353E+00 
    1.1679494618276709E+00 
    1.1488009445112570E+00 
    1.1356577789458961E+00 
    1.1728763518517926E+00 
    1.1787040954285377E+00 
    1.2767948156600375E+00 
    1.2569731364592021E+00 
    1.2606928323122244E+00 
    1.2794050826649908E+00 
    1.2333592523337493E+00 
    1.2065354792178271E+00 
    1.2062287668572973E+00 
    1.2361267525174300E+00 
    1.2398291152079695E+00 
    1.2068949269673419E+00 
    1.2085275850747694E+00 
    1.2445349544046618E+00 
    1.2820942790540411E+00 
    1.2650767562594842E+00 
    1.2701328472210200E+00 
    1.2848697336232304E+00 
    7.0442138066637994E-01 
    6.6423555091628006E-01 
    6.8161629611923846E-01 
    7.2087967571819511E-01 
    6.1073961606780014E-01 
    5.4220495813297731E-01 
    5.7536684336964794E-01 
    6.3375389974380736E-01 
    6.6265347087353166E-01 
    6.1177167644291475E-01 
    6.4980433431238238E-01 
    6.9545074285883657E-01 
    7.4531889879471247E-01 
    7.0657541655567835E-01 
    7.3667978430862224E-01 
    7.7486936125197003E-01 
    4.5632345849579031E-01 
    3.4799338648326178E-01 
    4.4594186852065942E-01 
    5.1147053871059556E-01 
    2.0370830537461723E-01 
    0.0000000000000000E+00 
    2.7996474634439544E-01 
    3.6981860072396422E-01 
    4.9249928846057089E-01 
    4.5526921320817665E-01 
    5.7830754659716122E-01 
    5.8919205391148599E-01 
    5.6499097047698366E-01 
    5.2932706664298224E-01 
    6.0207909661456360E-01 
    6.1631853085088084E-01 
    8.0531444145359088E-01 
    7.6271504636505871E-01 
    7.8351374915801553E-01 
    8.3522991635187316E-01 
    7.1746865203940269E-01 
    6.6819353792927827E-01 
    6.6821512940955630E-01 
    7.2850054460961522E-01 
    7.4136914944713794E-01 
    6.7022160198226211E-01 
    6.7419457550723094E-01 
    7.5563700909871967E-01 
    8.6605593161747452E-01 
    8.0573292981164391E-01 
    8.2872268326644882E-01 
    8.9695354824968243E-01 
    1.2790256082457589E+00 
    1.3457459764298823E+00 
    1.3393426116442069E+00 
    1.2779090764713894E+00 
    1.4098980662867340E+00 
    1.4707319094253266E+00 
    1.4548526445945236E+00 
    1.3984999597677406E+00 
    1.3887633686682908E+00 
    1.4402861784975347E+00 
    1.4267828445084143E+00 
    1.3804738982882050E+00 
    1.2783422647971476E+00 
    1.3347058313252980E+00 
    1.3316542875268409E+00 
    1.2802367015379263E+00 
    1.5263726187982367E+00 
    1.5766278569777343E+00 
    1.5489650946925453E+00 
    1.5047181534798266E+00 
    1.6219931442522091E+00 
    1.6625998430762008E+00 
    1.6303760032244772E+00 
    1.5905996151711579E+00 
    1.5580772424854019E+00 
    1.5946430031319960E+00 
    1.5557874232970998E+00 
    1.5243241538450500E+00 
    1.4839622547861178E+00 
    1.5215437497625739E+00 
    1.4940712024551197E+00 
    1.4638280506060566E+00 
    1.2868126257552996E+00 
    1.3390340611100495E+00 
    1.3581125861295444E+00 
    1.2992701381221172E+00 
    1.3874269330431268E+00 
    1.4326834212779207E+00 
    1.4580361181953834E+00 
    1.4103346833222141E+00 
    1.4354818437016066E+00 
    1.4843523517874782E+00 
    1.5129973934366161E+00 
    1.4649718538896777E+00 
    1.3158842644915758E+00 
    1.3808420945020949E+00 
    1.4107743430810020E+00 
    1.3426319944615999E+00 
    1.2103478608770601E+00 
    1.1409720255656297E+00 
    1.1500149900849244E+00 
    1.2140829506336919E+00 
    1.0715188849479576E+00 
    1.0025470006875417E+00 
    1.0227760877066083E+00 
    1.0861287734851821E+00 
    1.1007638281065597E+00 
    1.0429378348292233E+00 
    1.0631562442228628E+00 
    1.1155256392943647E+00 
    1.2187325029436380E+00 
    1.1594007767005656E+00 
    1.1691137903620406E+00 
    1.2241669163313389E+00 
    9.3595141498808210E-01 
    8.7195176491731552E-01 
    9.1113691383783224E-01 
    9.6454278320686870E-01 
    8.0955231494972901E-01 
    7.4916218982433203E-01 
    8.0629727125546846E-01 
    8.5841784311454483E-01 
    9.0843853245845574E-01 
    8.6633245991001295E-01 
    9.2787705333217163E-01 
    9.5929366514072112E-01 
    9.9314578835846956E-01 
    9.5069874546884214E-01 
    9.9061829072470675E-01 
    1.0219045405879428E+00 
    1.2265343603215628E+00 
    1.1691893225190240E+00 
    1.1579366510972475E+00 
    1.2240845751493861E+00 
    1.1146382908221870E+00 
    1.0620080916892927E+00 
    1.0389276524951991E+00 
    1.0969832244749032E+00 
    1.0780027010562636E+00 
    1.0153918196260514E+00 
    9.9127969720450126E-01 
    1.0571858584367708E+00 
    1.2181810602477623E+00 
    1.1440850702749048E+00 
    1.1260204628733728E+00 
    1.2055268810006421E+00 
    1.3431695992958053E+00 
    1.4107996104588432E+00 
    1.3806065546395492E+00 
    1.3160543730385281E+00 
    1.4641171337850383E+00 
    1.5114160825067555E+00 
    1.4831011011298860E+00 
    1.4346970891584421E+00 
    1.4096163824443644E+00 
    1.4570371166329423E+00 
    1.4318935346675314E+00 
    1.3868003772459307E+00 
    1.2991068404026409E+00 
    1.3577198739584431E+00 
    1.3385635137676470E+00 
    1.2864308132928088E+00 
    1.5541692636579787E+00 
    1.5936573892943371E+00 
    1.5571992465459021E+00 
    1.5230542795455466E+00 
    1.6300835986158013E+00 
    1.6627530170924227E+00 
    1.6219639240825174E+00 
    1.5902081375432993E+00 
    1.5485540144985348E+00 
    1.5765187821141879E+00 
    1.5262506369553561E+00 
    1.5043548642236548E+00 
    1.4930652623857519E+00 
    1.5207998531973663E+00 
    1.4833623498012258E+00 
    1.4630410369458409E+00 
    1.2797308631131057E+00 
    1.3311503225614842E+00 
    1.3342642868978523E+00 
    1.2778627766757509E+00 
    1.3799044522832764E+00 
    1.4261219102860558E+00 
    1.4397705394576918E+00 