# vtk DataFile Version 2.0
Pressure Field Data 
ASCII 
DATASET UNSTRUCTURED_GRID 

POINTS 801 double 

    0.0000000000000000E+00     0.0000000000000000E+00     0.0000000000000000E+00 
    1.0000000000000000E+00     0.0000000000000000E+00     0.0000000000000000E+00 
    1.0000000000000000E+00     1.0000000000000000E+00     0.0000000000000000E+00 
    0.0000000000000000E+00     1.0000000000000000E+00     0.0000000000000000E+00 
    2.5000000000000000E-01     2.5000000000000000E-01     0.0000000000000000E+00 
    7.5000000000000000E-01     2.5000000000000000E-01     0.0000000000000000E+00 
    7.5000000000000000E-01     7.5000000000000000E-01     0.0000000000000000E+00 
    2.5000000000000000E-01     7.5000000000000000E-01     0.0000000000000000E+00 
    2.4999999999941941E-01     0.0000000000000000E+00     0.0000000000000000E+00 
    4.9999999999869399E-01     0.0000000000000000E+00     0.0000000000000000E+00 
    7.4999999999934697E-01     0.0000000000000000E+00     0.0000000000000000E+00 
    1.2499999999977940E-01     0.0000000000000000E+00     0.0000000000000000E+00 
    3.7499999999905670E-01     0.0000000000000000E+00     0.0000000000000000E+00 
    6.2499999999902045E-01     0.0000000000000000E+00     0.0000000000000000E+00 
    8.7499999999967348E-01     0.0000000000000000E+00     0.0000000000000000E+00 
    6.2499999999889699E-02     0.0000000000000000E+00     0.0000000000000000E+00 
    1.8749999999959940E-01     0.0000000000000000E+00     0.0000000000000000E+00 
    3.1249999999923811E-01     0.0000000000000000E+00     0.0000000000000000E+00 
    4.3749999999887529E-01     0.0000000000000000E+00     0.0000000000000000E+00 
    5.6249999999885725E-01     0.0000000000000000E+00     0.0000000000000000E+00 
    6.8749999999918376E-01     0.0000000000000000E+00     0.0000000000000000E+00 
    8.1249999999951017E-01     0.0000000000000000E+00     0.0000000000000000E+00 
    9.3749999999983680E-01     0.0000000000000000E+00     0.0000000000000000E+00 
    1.0000000000000000E+00     2.4999999999941941E-01     0.0000000000000000E+00 
    1.0000000000000000E+00     4.9999999999869399E-01     0.0000000000000000E+00 
    1.0000000000000000E+00     7.4999999999934697E-01     0.0000000000000000E+00 
    1.0000000000000000E+00     1.2499999999977940E-01     0.0000000000000000E+00 
    1.0000000000000000E+00     3.7499999999905670E-01     0.0000000000000000E+00 
    1.0000000000000000E+00     6.2499999999902045E-01     0.0000000000000000E+00 
    1.0000000000000000E+00     8.7499999999967348E-01     0.0000000000000000E+00 
    1.0000000000000000E+00     6.2499999999889699E-02     0.0000000000000000E+00 
    1.0000000000000000E+00     1.8749999999959940E-01     0.0000000000000000E+00 
    1.0000000000000000E+00     3.1249999999923811E-01     0.0000000000000000E+00 
    1.0000000000000000E+00     4.3749999999887529E-01     0.0000000000000000E+00 
    1.0000000000000000E+00     5.6249999999885725E-01     0.0000000000000000E+00 
    1.0000000000000000E+00     6.8749999999918376E-01     0.0000000000000000E+00 
    1.0000000000000000E+00     8.1249999999951017E-01     0.0000000000000000E+00 
    1.0000000000000000E+00     9.3749999999983680E-01     0.0000000000000000E+00 
    7.5000000000112044E-01     1.0000000000000000E+00     0.0000000000000000E+00 
    5.0000000000205913E-01     1.0000000000000000E+00     0.0000000000000000E+00 
    2.5000000000102962E-01     1.0000000000000000E+00     0.0000000000000000E+00 
    8.7499999999991362E-01     1.0000000000000000E+00     0.0000000000000000E+00 
    6.2499999999988309E-01     1.0000000000000000E+00     0.0000000000000000E+00 
    3.7499999999869987E-01     1.0000000000000000E+00     0.0000000000000000E+00 
    1.2499999999880820E-01     1.0000000000000000E+00     0.0000000000000000E+00 
    9.3749999999995681E-01     1.0000000000000000E+00     0.0000000000000000E+00 
    8.1250000000051703E-01     1.0000000000000000E+00     0.0000000000000000E+00 
    6.8750000000050182E-01     1.0000000000000000E+00     0.0000000000000000E+00 
    5.6250000000097111E-01     1.0000000000000000E+00     0.0000000000000000E+00 
    4.3750000000037947E-01     1.0000000000000000E+00     0.0000000000000000E+00 
    3.1249999999986477E-01     1.0000000000000000E+00     0.0000000000000000E+00 
    1.8749999999991890E-01     1.0000000000000000E+00     0.0000000000000000E+00 
    6.2499999999404102E-02     1.0000000000000000E+00     0.0000000000000000E+00 
    0.0000000000000000E+00     7.5000000000112044E-01     0.0000000000000000E+00 
    0.0000000000000000E+00     5.0000000000205913E-01     0.0000000000000000E+00 
    0.0000000000000000E+00     2.5000000000102962E-01     0.0000000000000000E+00 
    0.0000000000000000E+00     8.7499999999991362E-01     0.0000000000000000E+00 
    0.0000000000000000E+00     6.2499999999988309E-01     0.0000000000000000E+00 
    0.0000000000000000E+00     3.7499999999869987E-01     0.0000000000000000E+00 
    0.0000000000000000E+00     1.2499999999880820E-01     0.0000000000000000E+00 
    0.0000000000000000E+00     9.3749999999995681E-01     0.0000000000000000E+00 
    0.0000000000000000E+00     8.1250000000051703E-01     0.0000000000000000E+00 
    0.0000000000000000E+00     6.8750000000050182E-01     0.0000000000000000E+00 
    0.0000000000000000E+00     5.6250000000097111E-01     0.0000000000000000E+00 
    0.0000000000000000E+00     4.3750000000037947E-01     0.0000000000000000E+00 
    0.0000000000000000E+00     3.1249999999986477E-01     0.0000000000000000E+00 
    0.0000000000000000E+00     1.8749999999991890E-01     0.0000000000000000E+00 
    0.0000000000000000E+00     6.2499999999404102E-02     0.0000000000000000E+00 
    4.9999999999972200E-01     2.5000000000000000E-01     0.0000000000000000E+00 
    3.7500000000067490E-01     2.5000000000000000E-01     0.0000000000000000E+00 
    6.2500000000042988E-01     2.5000000000000000E-01     0.0000000000000000E+00 
    3.1250000000033751E-01     2.5000000000000000E-01     0.0000000000000000E+00 
    4.3750000000019851E-01     2.5000000000000000E-01     0.0000000000000000E+00 
    5.6250000000007594E-01     2.5000000000000000E-01     0.0000000000000000E+00 
    6.8750000000021494E-01     2.5000000000000000E-01     0.0000000000000000E+00 
    7.5000000000000000E-01     4.9999999999972200E-01     0.0000000000000000E+00 
    7.5000000000000000E-01     3.7500000000067490E-01     0.0000000000000000E+00 
    7.5000000000000000E-01     6.2500000000042988E-01     0.0000000000000000E+00 
    7.5000000000000000E-01     3.1250000000033751E-01     0.0000000000000000E+00 
    7.5000000000000000E-01     4.3750000000019851E-01     0.0000000000000000E+00 
    7.5000000000000000E-01     5.6250000000007594E-01     0.0000000000000000E+00 
    7.5000000000000000E-01     6.8750000000021494E-01     0.0000000000000000E+00 
    5.0000000000118039E-01     7.5000000000000000E-01     0.0000000000000000E+00 
    6.2500000000161415E-01     7.5000000000000000E-01     0.0000000000000000E+00 
    3.7500000000140910E-01     7.5000000000000000E-01     0.0000000000000000E+00 
    6.8750000000080713E-01     7.5000000000000000E-01     0.0000000000000000E+00 
    5.6250000000139733E-01     7.5000000000000000E-01     0.0000000000000000E+00 
    4.3750000000129469E-01     7.5000000000000000E-01     0.0000000000000000E+00 
    3.1250000000070460E-01     7.5000000000000000E-01     0.0000000000000000E+00 
    2.5000000000000000E-01     5.0000000000118039E-01     0.0000000000000000E+00 
    2.5000000000000000E-01     6.2500000000161415E-01     0.0000000000000000E+00 
    2.5000000000000000E-01     3.7500000000140910E-01     0.0000000000000000E+00 
    2.5000000000000000E-01     6.8750000000080713E-01     0.0000000000000000E+00 
    2.5000000000000000E-01     5.6250000000139733E-01     0.0000000000000000E+00 
    2.5000000000000000E-01     4.3750000000129469E-01     0.0000000000000000E+00 
    2.5000000000000000E-01     3.1250000000070460E-01     0.0000000000000000E+00 
    3.7499999999934702E-01     1.2500000000000000E-01     0.0000000000000000E+00 
    1.2500000000000000E-01     1.2500000000000000E-01     0.0000000000000000E+00 
    1.2500000000000000E-01     3.7500000000102962E-01     0.0000000000000000E+00 
    8.7500000000000000E-01     1.2500000000000000E-01     0.0000000000000000E+00 
    6.2499999999934697E-01     1.2500000000000000E-01     0.0000000000000000E+00 
    8.7500000000000000E-01     3.7499999999934702E-01     0.0000000000000000E+00 
    8.7500000000000000E-01     6.2499999999934697E-01     0.0000000000000000E+00 
    1.2500000000000000E-01     6.2500000000102962E-01     0.0000000000000000E+00 
    1.2500000000000000E-01     8.7500000000000000E-01     0.0000000000000000E+00 
    8.7500000000000000E-01     8.7500000000000000E-01     0.0000000000000000E+00 
    6.2500000000102962E-01     8.7500000000000000E-01     0.0000000000000000E+00 
    3.7500000000102962E-01     8.7500000000000000E-01     0.0000000000000000E+00 
    2.4999999999957681E-01     8.3333333333333329E-02     0.0000000000000000E+00 
    8.3333333333333329E-02     2.5000000000068640E-01     0.0000000000000000E+00 
    7.4999999999956468E-01     8.3333333333333329E-02     0.0000000000000000E+00 
    4.9999999999951827E-01     1.6666666666666671E-01     0.0000000000000000E+00 
    9.1666666666666674E-01     2.4999999999957681E-01     0.0000000000000000E+00 
    8.3333333333333337E-01     4.9999999999951827E-01     0.0000000000000000E+00 
    1.6666666666666671E-01     5.0000000000088307E-01     0.0000000000000000E+00 
    8.3333333333333329E-02     7.5000000000070155E-01     0.0000000000000000E+00 
    9.1666666666666674E-01     7.4999999999956468E-01     0.0000000000000000E+00 
    5.0000000000088307E-01     8.3333333333333348E-01     0.0000000000000000E+00 
    2.5000000000068640E-01     9.1666666666666674E-01     0.0000000000000000E+00 
    7.5000000000070155E-01     9.1666666666666674E-01     0.0000000000000000E+00 
[...]
CELL_DATA 768 
SCALARS Pressure double 1 
LOOKUP_TABLE default 

    3.0867179214217497E+00 
    2.9904973279620264E+00 
    2.9586635738664060E+00 
    3.0188493165077106E+00 
    2.9244597456132704E+00 
    2.8701190746894625E+00 
    2.8651148937463753E+00 
    2.9096879843182397E+00 
    2.8940646275910424E+00 
    2.8589747169609985E+00 
    2.8518587354458633E+00 
    2.8779337591478402E+00 
    2.9671471991363414E+00 
    2.9295410682527572E+00 
    2.9024023066278168E+00 
    2.9253803278537633E+00 
    2.8182637924669800E+00 
    2.7657644359169797E+00 
    2.7757313292793664E+00 
    2.8207922669247933E+00 
    2.7109252284225231E+00 
    2.6530144331708332E+00 
    2.6799223768678093E+00 
    2.7290035601162650E+00 
    2.7459297661542901E+00 
    2.7055581033099165E+00 
    2.7295299884242694E+00 
    2.7614279029030970E+00 
    2.8222813488946055E+00 
    2.7846505396455430E+00 
    2.7923487123518576E+00 
    2.8227272758998079E+00 
    2.8886720953061880E+00 
    2.8733560810884953E+00 
    2.8438360412574566E+00 
    2.8558729911590937E+00 
    2.8550333404735304E+00 
    2.8340389357632318E+00 
    2.8070869301753496E+00 
    2.8273333231944155E+00 
    2.8008363823360583E+00 
    2.7802516105750747E+00 
    2.7530496858145694E+00 
    2.7749792150939872E+00 
    2.8273509915824433E+00 
    2.8169439672168610E+00 
    2.7924416414297957E+00 
    2.8036345510135781E+00 
    3.0867663183423337E+00 
    3.0189132998932640E+00 
    2.9588798367774563E+00 
    2.9907049745016829E+00 
    2.9672245636183328E+00 
    2.9254596469384233E+00 
    2.9026070886911564E+00 
    2.9297503620421059E+00 
    2.8943658319872672E+00 
    2.8781852261094301E+00 
    2.8521295399425948E+00 
    2.8593025522041335E+00 
    2.9247850365349541E+00 
    2.9100041685251146E+00 
    2.8654897052237853E+00 
    2.8705032049916213E+00 
    2.8887544022305645E+00 
    2.8559318961207514E+00 
    2.8439618483788065E+00 
    2.8735471299881143E+00 
    2.8273469518902017E+00 
    2.8036127049808410E+00 
    2.7923362608193711E+00 
    2.8169466239915413E+00 
    2.8007784267041909E+00 
    2.7746868569795704E+00 
    2.7525712605205701E+00 
    2.7800701913323596E+00 
    2.8552490033314433E+00 
    2.8274403385784481E+00 
    2.8071360444865010E+00 
    2.8342303533917490E+00 
    2.8185761290667060E+00 
    2.8210854562527006E+00 
    2.7757206818518272E+00 
    2.7656961433505574E+00 
    2.8225295316220018E+00 
    2.8229104989897738E+00 
    2.7923373782325163E+00 
    2.7846372068404945E+00 
    2.7455703816555368E+00 
    2.7611256032256133E+00 
    2.7288711949390514E+00 
    2.7048049770805132E+00 
    2.7104045448597489E+00 
    2.7285716570338923E+00 
    2.6791072921205061E+00 
    2.6521389895753607E+00 
    2.5577129161245002E+00 
    2.4924221303857466E+00 
    2.4697139574143807E+00 
    2.5268147509078864E+00 
    2.4269308440464950E+00 
    2.3641091758111648E+00 
    2.3586498433951082E+00 
    2.4129006017061263E+00 
    2.3973766102592520E+00 
    2.3515819077480438E+00 
    2.3427634439865215E+00 
    2.3799326015594886E+00 
    2.4946019997415960E+00 
    2.4456347323539962E+00 
    2.4195716297545844E+00 
    2.4604210993893103E+00 
    2.3076689279363189E+00 
    2.2611219809821352E+00 
    2.2664187399187710E+00 
    2.3091385387662826E+00 
    2.2251512608502941E+00 
    2.2000394998446802E+00 
    2.2044347599813778E+00 
    2.2316563588320260E+00 
    2.2354643922229203E+00 
    2.2070859070233877E+00 
    2.2075362135144783E+00 
    2.2370731320954271E+00 
    2.3087961377371182E+00 
    2.2693395681780673E+00 
    2.2703594515177481E+00 
    2.3066998592657315E+00 
    2.4208132701575971E+00 
    2.3838433592113661E+00 
    2.3365558177221666E+00 
    2.3733398516784443E+00 
    2.3493773058393197E+00 
    2.3184004233071112E+00 
    2.2804130301976131E+00 
    2.3056815828093580E+00 
    2.2591983888278993E+00 
    2.2431092425020553E+00 
    2.2077176236856020E+00 
    2.2109102373862508E+00 
    2.3156688571382755E+00 
    2.2820880256619183E+00 
    2.2183972609148923E+00 
    2.2364000813059923E+00 
    2.6060808436259415E+00 
    2.5717568046198482E+00 
    2.6047140490108820E+00 
    2.6381129147170892E+00 
    2.5361446699458776E+00 
    2.4988554939072971E+00 
    2.5343283618161059E+00 
    2.5701900804170745E+00 
    2.6033923409037332E+00 
    2.5689779915987430E+00 
    2.6024405002345361E+00 
    2.6354481562966741E+00 
    2.6688665864307723E+00 
    2.6366590041945490E+00 
    2.6673224641650064E+00 
    2.6981011958387344E+00 
    2.4614869356967048E+00 
    2.4237912630760095E+00 
    2.4782027347669158E+00 
    2.5034333397646287E+00 
    2.3829299404460333E+00 
    2.3376285451415009E+00 
    2.4244213841880162E+00 
    2.4519287072570246E+00 
    2.5148606715163537E+00 
    2.5000323204049195E+00 
    2.5684426419882098E+00 
    2.5731607183490293E+00 
    2.5439923170470111E+00 
    2.5295604688267068E+00 
    2.5780308291035756E+00 
    2.5829092100082329E+00 
    2.7235374247005870E+00 
    2.6907146632479599E+00 
    2.7074994088069486E+00 
    2.7451331460393327E+00 
    2.6562657257289048E+00 
    2.6202093988201516E+00 
    2.6235977836586577E+00 
    2.6668897328778871E+00 
    2.6773325528345220E+00 
    2.6270507624379662E+00 
    2.6306279406981083E+00 
    2.6876695701237328E+00 
    2.7645767198005387E+00 
    2.7234491063897006E+00 
    2.7386349218784614E+00 
    2.7816956744465484E+00 
    2.1934865670238697E+00 
    2.1667965248927445E+00 
    2.1581221238849362E+00 
    2.1887228598348956E+00 
    2.1208578122490009E+00 
    2.0564305225813699E+00 
    2.0539995773335877E+00 
    2.1128860506075107E+00 
    2.1077238111052763E+00 
    2.0540671416594511E+00 
    2.0566410149407730E+00 
    2.1048085159305905E+00 
    2.1854421378670081E+00 
    2.1519616997055908E+00 
    2.1469870013766847E+00 
    2.1821051150213919E+00 
    1.9763887485322948E+00 
    1.8840502758399476E+00 
    1.9053560870157105E+00 
    1.9841480587061646E+00 
    1.7819714836891591E+00 
    1.6721417565559020E+00 
    1.7259297616929385E+00 
    1.8188791211074700E+00 
    1.8573223557974095E+00 
    1.7813969856844343E+00 
    1.8371809500462819E+00 
    1.8977770520685655E+00 
    1.9939934152860423E+00 
    1.9286377088513469E+00 
    1.9547113939414751E+00 
    2.0066440119827287E+00 
    2.1748244815402784E+00 
    2.1342550236341329E+00 
    2.1091335572524725E+00 
    2.1631586343492115E+00 
    2.0887899195572972E+00 
    2.0398654226675030E+00 
    1.9973371009874377E+00 
    2.0532588056575372E+00 
    2.0105775552698950E+00 
    1.9491385361748497E+00 
    1.8961756937578711E+00 
    1.9600930457489190E+00 
    2.1480991915524958E+00 
    2.0767327137133731E+00 
    2.0324284753740467E+00 
    2.1240878875124189E+00 
    2.0058350779458469E+00 
    1.9465517634227814E+00 
    1.8481900487635927E+00 
    1.8878141779226554E+00 
    1.8901880868472336E+00 
    1.8359631802045633E+00 
    1.7708831975519144E+00 
    1.8093525337281671E+00 
    1.7278406021705994E+00 
    1.7044639486823672E+00 
    1.6366144912953997E+00 
    1.6448469097307734E+00 
    1.7740142123651004E+00 
    1.7508387919434643E+00 
    1.6521328535988624E+00 
    1.6592609583220030E+00 
    1.7780177490932088E+00 
    1.7131752201551742E+00 
    1.6546936994661376E+00 
    1.7205789991572071E+00 
    1.6469802763023746E+00 
    1.5835712030377762E+00 
    1.5219646162572882E+00 
    1.5867175275462457E+00 
    1.5257009672548212E+00 
    1.4601399132492778E+00 
    1.3989666359408317E+00 
    1.4637879771747024E+00 
    1.6613071603157321E+00 
    1.5942572538903841E+00 
    1.5316837066304567E+00 
    1.6000723332343969E+00 
    1.5397026829443492E+00 
    1.5481516133665805E+00 
    1.4433268131859089E+00 
    1.4215111646027316E+00 
    1.5570862196043167E+00 
    1.5650127021900690E+00 
    1.4882687355986222E+00 
    1.4653943861817214E+00 
    1.3794460266591857E+00 
    1.4146813962585718E+00 
    1.3439948365074141E+00 
    1.2964745529323738E+00 
    1.3122218144441606E+00 
    1.3453522792367203E+00 
    1.2528610848596797E+00 
    1.2138479160716518E+00 
    2.7817010616431386E+00 
    2.7379990568707382E+00 
    2.7225611181395859E+00 
    2.7642395480314983E+00 
    2.6861494545276305E+00 
    2.6282860541672202E+00 
    2.6248140465689134E+00 
    2.6757298787408001E+00 
    2.6652326154903245E+00 
    2.6214441030893227E+00 
    2.6181532349155874E+00 
    2.6545842728478948E+00 
    2.7445247994077144E+00 
    2.7064099961071566E+00 
    2.6894770639896017E+00 
    2.7227097820364721E+00 
    2.5660546348616835E+00 
    2.4983902621254814E+00 
    2.5131147588206408E+00 
    2.5708690307503583E+00 
    2.4238358541194476E+00 
    2.3377690469081771E+00 
    2.3826710090639613E+00 
    2.4509881536380602E+00 
    2.4769781680301199E+00 
    2.4231095054672123E+00 
    2.4605462442393868E+00 
    2.5020789775866081E+00 
    2.5757868628664746E+00 
    2.5277146094494625E+00 
    2.5421588736783769E+00 
    2.5807681339304445E+00 
    2.6970763127608417E+00 
    2.6659101207378577E+00 
    2.6352363670882886E+00 
    2.6678039405311926E+00 
    2.6336854095519571E+00 
    2.6004398660921666E+00 
    2.5671941498726878E+00 
    2.6017341677638228E+00 
    2.5687540950548748E+00 
    2.5329179544584317E+00 
    2.4977478836380791E+00 
    2.5349402367939389E+00 
    2.6370582434176608E+00 
    2.6034456933170280E+00 
    2.5706006431085053E+00 
    2.6050674528088527E+00 
    2.5567084528217547E+00 
    2.5257735628973927E+00 
    2.4688393209015707E+00 
    2.4915259274401005E+00 
    2.4936048050315804E+00 
    2.4595654102674995E+00 
    2.4189027157070551E+00 
    2.4448321581705534E+00 
    2.3966762679332545E+00 
    2.3792975764032329E+00 
    2.3420434322949468E+00 
    2.3507681365925692E+00 
    2.4261169252215598E+00 
    2.4121083506013106E+00 
    2.3577421126009592E+00 
    2.3631199742399831E+00 
    2.4201608711065283E+00 
    2.3729999129970141E+00 
    2.3362144121931001E+00 
    2.3832998680070125E+00 
    2.3157504801001547E+00 
    2.2365119606396258E+00 
    2.2183149910913023E+00 
    2.2819381573137183E+00 
    2.2586409289024849E+00 
    2.2103333493039652E+00 
    2.2066598169277962E+00 
    2.2421420711174727E+00 
    2.3487922044885865E+00 
    2.3051268952149115E+00 
    2.2795788041401139E+00 
    2.3176552688319094E+00 
    2.3064835244388142E+00 
    2.3080273067437900E+00 
    2.2649814486356830E+00 
    2.2595090931826096E+00 
    2.3077638722587599E+00 
    2.3057607352012748E+00 
    2.2692419483413713E+00 
    2.2680521357085843E+00 
    2.2338691394909969E+00 
    2.2357163547730181E+00 
    2.2060593249525735E+00 
    2.2053720802754309E+00 
    2.2230634904925330E+00 
    2.2298295754493465E+00 
    2.2024415352851650E+00 
    2.1979218206688387E+00 
    1.4926363811640255E+00 
    1.3700905248721547E+00 
    1.3295332122227772E+00 
    1.4370977811762928E+00 
    1.2414350195377968E+00 
    1.1017275364174290E+00 
    1.0950541123162032E+00 
    1.2168119844128615E+00 
    1.1948117535535079E+00 
    1.0917966723003885E+00 
    1.0919068672401968E+00 
    1.1761213410707407E+00 
    1.3823839894574905E+00 
    1.2907235695083508E+00 
    1.2546793543747063E+00 
    1.3296640157700192E+00 
    9.4106831533945101E-01 
    7.3969684485287246E-01 
    7.9929188306633858E-01 
    9.5868899421513776E-01 
    4.5477791929869749E-01 
    0.0000000000000000E+00 
    3.2572608030738703E-01 
    5.9816637135452033E-01 
    7.2305753385654281E-01 
    5.6364169915580276E-01 
    7.4251767773309119E-01 
    8.3156953763044295E-01 
    9.8010100507858278E-01 
    8.5982964524849548E-01 
    9.1919322354195232E-01 
    1.0043286473049535E+00 
    1.2764606826483271E+00 
    1.2097458946733444E+00 
    1.1584351585666406E+00 
    1.2255233717562388E+00 
    1.1386347468059814E+00 
    1.0609187695030269E+00 
    9.9756977756216014E-01 
    1.0834381584403281E+00 
    1.0358294418829417E+00 
    9.3807116116183742E-01 
    8.8479238875306376E-01 
    9.9904073969672080E-01 
    1.1843104255029990E+00 
    1.1169735443479998E+00 
    1.0893476042226224E+00 
    1.1584091344271397E+00 
    2.0078613267596643E+00 
    1.8910260227179536E+00 
    1.8517214881727528E+00 
    1.9493724339743528E+00 
    1.7766786262812619E+00 
    1.6597846443279838E+00 
    1.6525831518928038E+00 
    1.7535886552366802E+00 
    1.7306284951912683E+00 
    1.6455089761588797E+00 
    1.6376764481801538E+00 
    1.7073418180483462E+00 
    1.8937325442017330E+00 
    1.8130873552031066E+00 
    1.7746856878832042E+00 
    1.8400933564885709E+00 
    1.5377160330829285E+00 
    1.4200185098202491E+00 
    1.4418528133016144E+00 
    1.5461648866222912E+00 
    1.3120804709310896E+00 
    1.2144764865076545E+00 
    1.2536082061608753E+00 
    1.3452222591069065E+00 
    1.3795461777265585E+00 
    1.2974341134538496E+00 
    1.3451904891234980E+00 
    1.4151891548240918E+00 
    1.5551749658807450E+00 
    1.4642551246739335E+00 
    1.4872074877161767E+00 
    1.5636220581510101E+00 
    1.7827079945843214E+00 
    1.7242178857861739E+00 
    1.6575388358261587E+00 
    1.7171012636965297E+00 
    1.6636645382221380E+00 
    1.6005264032558315E+00 
    1.5313695608317577E+00 
    1.5959460292829606E+00 
    1.5271194848437026E+00 
    1.4642494444153167E+00 
    1.4001508460049394E+00 
    1.4616067111598636E+00 
    1.6498921274811180E+00 
    1.5890736132587004E+00 
    1.5239778102871595E+00 
    1.5861503560447188E+00 
    2.1245649999333232E+00 
    2.0341541486760000E+00 
    2.0779491529399849E+00 
    2.1483004236915901E+00 
    1.9630313259563938E+00 
    1.9001107090536031E+00 
    1.9527766856409838E+00 
    2.0131226048717314E+00 
    2.0551165660330826E+00 
    2.0005161257267967E+00 
    2.0424552284047550E+00 
    2.0899997479426520E+00 
    2.1628353251183436E+00 
    2.1097431772742334E+00 
    2.1342940771210390E+00 
    2.1740740065503483E+00 
    1.8425839357297327E+00 
    1.7861627361132755E+00 
    1.8629883357397496E+00 
    1.9034144162903492E+00 
    1.7296426021011433E+00 
    1.6753536126358293E+00 
    1.7864492791491120E+00 
    1.8236789066729648E+00 
    1.9107484411461158E+00 
    1.8893696367080199E+00 
    1.9812986525768883E+00 
    1.9889749790222657E+00 
    1.9599198688445603E+00 
    1.9344393511811888E+00 
    1.9988725632599362E+00 
    2.0109572741888240E+00 
    2.1810862728803455E+00 
    2.1468999076992388E+00 
    2.1519090919893573E+00 
    2.1842321931280764E+00 
    2.1059766929881101E+00 
    2.0592409219499825E+00 
    2.0571521099086807E+00 
    2.1092035641315316E+00 
    2.1142232726693737E+00 
    2.0572260949782057E+00 
    2.0596737009210573E+00 
    2.1219701321274518E+00 
    2.1871822582365383E+00 
    2.1578123894517813E+00 
    2.1661227988558371E+00 
    2.1916641848492517E+00 
    1.1588447801750041E+00 
    1.0899554079868219E+00 
    1.1186211280330327E+00 
    1.1854946069777501E+00 
    9.9977606015794440E-01 
    8.8553890972153171E-01 
    9.4019082380536201E-01 
    1.0378688666182696E+00 
    1.0864648112755444E+00 
    1.0008828242248173E+00 
    1.0650365808019284E+00 
    1.1422885239476648E+00 
    1.2272347038390969E+00 
    1.1609249205820098E+00 
    1.2126576946528516E+00 
    1.2785132981646163E+00 
    7.4323086075684697E-01 
    5.6423800222671694E-01 
    7.2524684309573284E-01 
    8.3372376454221608E-01 
    3.2606761021058311E-01 
    0.0000000000000000E+00 
    4.5631866805749521E-01 
    6.0009359765334191E-01 
    8.0308403110200655E-01 
    7.4320946613461891E-01 
    9.4633090775712836E-01 
    9.6382511106264834E-01 
    9.2264635308362364E-01 
    8.6349976146083107E-01 
    9.8493383916076416E-01 
    1.0086848824817591E+00 
    1.3317817892866908E+00 
    1.2577336174286697E+00 
    1.2939113096898323E+00 
    1.3845963208946170E+00 
    1.1800837861018598E+00 
    1.0965188422097776E+00 
    1.0968619304817884E+00 
    1.1990839915957652E+00 
    1.2211642866911427E+00 
    1.1003902654195761E+00 
    1.1071260303141421E+00 
    1.2456813556901207E+00 
    1.4394067950943881E+00 
    1.3326722412905090E+00 
    1.3730502885366831E+00 
    1.4949725709753643E+00 
    2.1550731704689721E+00 
    2.2658041778529969E+00 
    2.2559579766383870E+00 
    2.1541342409201589E+00 
    2.3712910664991349E+00 
    2.4703413735882731E+00 
    2.4451202958518050E+00 
    2.3532361598126497E+00 
    2.3385297856679288E+00 
    2.4224847791766648E+00 
    2.4020157815929108E+00 
    2.3268051264181349E+00 
    2.1568402213222937E+00 
    2.2498486653694938E+00 
    2.2471526595893239E+00 
    2.1630144074554627E+00 
    2.5599376791742161E+00 
    2.6398671352482435E+00 
    2.5968590405363763E+00 
    2.5257847398115438E+00 
    2.7109428702411078E+00 
    2.7724510707489922E+00 
    2.7244975999807370E+00 
    2.6630528347597786E+00 
    2.6136699031394008E+00 
    2.6711604159589166E+00 
    2.6128223623988078E+00 
    2.5624110959835176E+00 
    2.4934420022302781E+00 
    2.5545704342068731E+00 
    2.5124343662995692E+00 
    2.4624348579838982E+00 
    2.1777809613031942E+00 
    2.2621696094230659E+00 
    2.2965151556909040E+00 
    2.2026810762467486E+00 
    2.3403789453296877E+00 
    2.4132947694272380E+00 
    2.4560980349539268E+00 
    2.3800550094555559E+00 
    2.4235403608346755E+00 
    2.5005808133386451E+00 
    2.5472814057137252E+00 
    2.4718552142678516E+00 
    2.2344574772091188E+00 
    2.3368713602978666E+00 
    2.3853452044695520E+00 
    2.2771318547781161E+00 
    2.0401712477758287E+00 
    1.9227192010666345E+00 
    1.9393564695449061E+00 
    2.0478057538144760E+00 
    1.8038375788359216E+00 
    1.6844978625466878E+00 
    1.7204393303157326E+00 
    1.8300375962866255E+00 
    1.8572103460261629E+00 
    1.7570122392509231E+00 
    1.7945926009894402E+00 
    1.8856087319934014E+00 
    2.0581496040631095E+00 
    1.9576441914163951E+00 
    1.9775889211364308E+00 
    2.0709683997712163E+00 
    1.5682502928432445E+00 
    1.4559414078280462E+00 
    1.5252118736370066E+00 
    1.6188957693237582E+00 
    1.3463239357291574E+00 
    1.2409801049691254E+00 
    1.3401732715318937E+00 
    1.4321834858235944E+00 
    1.5217472300101709E+00 
    1.4467942068644175E+00 
    1.5618069123317004E+00 
    1.6160023675332189E+00 
    1.6703183756409361E+00 
    1.5962832329654149E+00 
    1.6697448421588781E+00 
    1.7230464188024723E+00 
    2.0797175686927334E+00 
    1.9821102170509979E+00 
    1.9684944458614637E+00 
    2.0815765965147524E+00 
    1.8878700511054489E+00 
    1.7956133119740560E+00 
    1.7586028143951302E+00 
    1.8620280009197352E+00 
    1.8349215782149033E+00 
    1.7213070166009072E+00 
    1.6839041511418043E+00 
    1.8061160707153152E+00 
    2.0790711031364806E+00 
    1.9518284730433038E+00 
    1.9299312962456849E+00 
    2.0670394781011843E+00 
    2.2769273179591134E+00 
    2.3843354487341695E+00 
    2.3361902598124544E+00 
    2.2345725084089314E+00 
    2.4700237643218919E+00 
    2.5448532341498589E+00 
    2.4987321191792651E+00 
    2.4221871802746913E+00 
    2.3790661645382700E+00 
    2.4547185246759953E+00 
    2.4123072747017211E+00 
    2.3396993315656900E+00 
    2.2028438333469551E+00 
    2.2960647512468175E+00 
    2.2618607033729838E+00 
    2.1778792643807066E+00 
    2.6105071292254811E+00 
    2.6696754639988765E+00 
    2.6123906043968907E+00 
    2.5606155157703046E+00 
    2.7239086411524163E+00 
    2.7724854069608842E+00 
    2.7108115392353751E+00 
    2.6624091046012239E+00 
    2.5962507703596289E+00 
    2.6396747611869928E+00 
    2.5597586085396329E+00 
    2.5252921706615354E+00 
    2.5110602185428621E+00 
    2.5535321350037798E+00 
    2.4926586092200678E+00 
    2.4614234134300452E+00 
    2.1629411027025212E+00 
    2.2468507554199015E+00 
    2.2495572080286412E+00 
    2.1566644440743987E+00 
    2.3262617746794487E+00 
    2.4012476442238793E+00 
    2.4218795617762763E+00 