# vtk DataFile Version 2.0
Pressure Field Data 
ASCII 
DATASET UNSTRUCTURED_GRID 

POINTS 801 double 

    0.0000000000000000E+00     0.0000000000000000E+00     0.0000000000000000E+00 
    1.0000000000000000E+00     0.0000000000000000E+00     0.0000000000000000E+00 
    1.0000000000000000E+00     1.0000000000000000E+00     0.0000000000000000E+00 
    0.0000000000000000E+00     1.0000000000000000E+00     0.0000000000000000E+00 
    2.5000000000000000E-01     2.5000000000000000E-01     0.0000000000000000E+00 
    7.5000000000000000E-01     2.5000000000000000E-01     0.0000000000000000E+00 
    7.5000000000000000E-01     7.5000000000000000E-01     0.0000000000000000E+00 
    2.5000000000000000E-01     7.5000000000000000E-01     0.0000000000000000E+00 
    2.4999999999941941E-01     0.0000000000000000E+00     0.0000000000000000E+00 
    4.9999999999869399E-01     0.0000000000000000E+00     0.0000000000000000E+00 
    7.4999999999934697E-01     0.0000000000000000E+00     0.0000000000000000E+00 
    1.2499999999977940E-01     0.0000000000000000E+00     0.0000000000000000E+00 
    3.7499999999905670E-01     0.0000000000000000E+00     0.0000000000000000E+00 
    6.2499999999902045E-01     0.0000000000000000E+00     0.0000000000000000E+00 
    8.7499999999967348E-01     0.0000000000000000E+00     0.0000000000000000E+00 
    6.2499999999889699E-02     0.0000000000000000E+00     0.0000000000000000E+00 
    1.8749999999959940E-01     0.0000000000000000E+00     0.0000000000000000E+00 
    3.1249999999923811E-01     0.0000000000000000E+00     0.0000000000000000E+00 
    4.3749999999887529E-01     0.0000000000000000E+00     0.0000000000000000E+00 
    5.6249999999885725E-01     0.0000000000000000E+00     0.0000000000000000E+00 
    6.8749999999918376E-01     0.0000000000000000E+00     0.0000000000000000E+00 
    8.1249999999951017E-01     0.0000000000000000E+00     0.0000000000000000E+00 
    9.3749999999983680E-01     0.0000000000000000E+00     0.0000000000000000E+00 
    1.0000000000000000E+00     2.4999999999941941E-01     0.0000000000000000E+00 
    1.0000000000000000E+00     4.9999999999869399E-01     0.0000000000000000E+00 
    1.0000000000000000E+00     7.4999999999934697E-01     0.0000000000000000E+00 
    1.0000000000000000E+00     1.2499999999977940E-01     0.0000000000000000E+00 
    1.0000000000000000E+00     3.7499999999905670E-01     0.0000000000000000E+00 
    1.0000000000000000E+00     6.2499999999902045E-01     0.0000000000000000E+00 
    1.0000000000000000E+00     8.7499999999967348E-01     0.0000000000000000E+00 
    1.0000000000000000E+00     6.2499999999889699E-02     0.0000000000000000E+00 
    1.0000000000000000E+00     1.8749999999959940E-01     0.0000000000000000E+00 
    1.0000000000000000E+00     3.1249999999923811E-01     0.0000000000000000E+00 
    1.0000000000000000E+00     4.3749999999887529E-01     0.0000000000000000E+00 
    1.0000000000000000E+00     5.6249999999885725E-01     0.0000000000000000E+00 
    1.0000000000000000E+00     6.8749999999918376E-01     0.0000000000000000E+00 
    1.0000000000000000E+00     8.1249999999951017E-01     0.0000000000000000E+00 
    1.0000000000000000E+00     9.3749999999983680E-01     0.0000000000000000E+00 
    7.5000000000112044E-01     1.0000000000000000E+00     0.0000000000000000E+00 
    5.0000000000205913E-01     1.0000000000000000E+00     0.0000000000000000E+00 
    2.5000000000102962E-01     1.0000000000000000E+00     0.0000000000000000E+00 
    8.7499999999991362E-01     1.0000000000000000E+00     0.0000000000000000E+00 
    6.2499999999988309E-01     1.0000000000000000E+00     0.0000000000000000E+00 
    3.7499999999869987E-01     1.0000000000000000E+00     0.0000000000000000E+00 
    1.2499999999880820E-01     1.0000000000000000E+00     0.0000000000000000E+00 
    9.3749999999995681E-01     1.0000000000000000E+00     0.0000000000000000E+00 
    8.1250000000051703E-01     1.0000000000000000E+00     0.0000000000000000E+00 
    6.8750000000050182E-01     1.0000000000000000E+00     0.0000000000000000E+00 
    5.6250000000097111E-01     1.0000000000000000E+00     0.0000000000000000E+00 
    4.3750000000037947E-01     1.0000000000000000E+00     0.0000000000000000E+00 
    3.1249999999986477E-01     1.0000000000000000E+00     0.0000000000000000E+00 
    1.8749999999991890E-01     1.0000000000000000E+00     0.0000000000000000E+00 
    6.2499999999404102E-02     1.0000000000000000E+00     0.0000000000000000E+00 
    0.0000000000000000E+00     7.5000000000112044E-01     0.0000000000000000E+00 
    0.0000000000000000E+00     5.0000000000205913E-01     0.0000000000000000E+00 
    0.0000000000000000E+00     2.5000000000102962E-01     0.0000000000000000E+00 
    0.0000000000000000E+00     8.7499999999991362E-01     0.0000000000000000E+00 
    0.0000000000000000E+00     6.2499999999988309E-01     0.0000000000000000E+00 
    0.0000000000000000E+00     3.7499999999869987E-01     0.0000000000000000E+00 
    0.0000000000000000E+00     1.2499999999880820E-01     0.0000000000000000E+00 
    0.0000000000000000E+00     9.3749999999995681E-01     0.0000000000000000E+00 
    0.0000000000000000E+00     8.1250000000051703E-01     0.0000000000000000E+00 
    0.0000000000000000E+00     6.8750000000050182E-01     0.0000000000000000E+00 
    0.0000000000000000E+00     5.6250000000097111E-01     0.0000000000000000E+00 
    0.0000000000000000E+00     4.3750000000037947E-01     0.0000000000000000E+00 
    0.0000000000000000E+00     3.1249999999986477E-01     0.0000000000000000E+00 
    0.0000000000000000E+00     1.8749999999991890E-01     0.0000000000000000E+00 
    0.0000000000000000E+00     6.2499999999404102E-02     0.0000000000000000E+00 
    4.9999999999972200E-01     2.5000000000000000E-01     0.0000000000000000E+00 
    3.7500000000067490E-01     2.5000000000000000E-01     0.0000000000000000E+00 
    6.2500000000042988E-01     2.5000000000000000E-01     0.0000000000000000E+00 
    3.1250000000033751E-01     2.5000000000000000E-01     0.0000000000000000E+00 
    4.3750000000019851E-01     2.5000000000000000E-01     0.0000000000000000E+00 
    5.6250000000007594E-01     2.5000000000000000E-01     0.0000000000000000E+00 
    6.8750000000021494E-01     2.5000000000000000E-01     0.0000000000000000E+00 
    7.5000000000000000E-01     4.9999999999972200E-01     0.0000000000000000E+00 
    7.5000000000000000E-01     3.7500000000067490E-01     0.0000000000000000E+00 
    7.5000000000000000E-01     6.2500000000042988E-01     0.0000000000000000E+00 
    7.5000000000000000E-01     3.1250000000033751E-01     0.0000000000000000E+00 
    7.5000000000000000E-01     4.3750000000019851E-01     0.0000000000000000E+00 
    7.5000000000000000E-01     5.6250000000007594E-01     0.0000000000000000E+00 
    7.5000000000000000E-01     6.8750000000021494E-01     0.0000000000000000E+00 
    5.0000000000118039E-01     7.5000000000000000E-01     0.0000000000000000E+00 
    6.2500000000161415E-01     7.5000000000000000E-01     0.0000000000000000E+00 
    3.7500000000140910E-01     7.5000000000000000E-01     0.0000000000000000E+00 
    6.8750000000080713E-01     7.5000000000000000E-01     0.0000000000000000E+00 
    5.6250000000139733E-01     7.5000000000000000E-01     0.0000000000000000E+00 
    4.3750000000129469E-01     7.5000000000000000E-01     0.0000000000000000E+00 
    3.1250000000070460E-01     7.5000000000000000E-01     0.0000000000000000E+00 
    2.5000000000000000E-01     5.0000000000118039E-01     0.0000000000000000E+00 
    2.5000000000000000E-01     6.2500000000161415E-01     0.0000000000000000E+00 
    2.5000000000000000E-01     3.7500000000140910E-01     0.0000000000000000E+00 
    2.5000000000000000E-01     6.8750000000080713E-01     0.0000000000000000E+00 
    2.5000000000000000E-01     5.6250000000139733E-01     0.0000000000000000E+00 
    2.5000000000000000E-01     4.3750000000129469E-01     0.0000000000000000E+00 
    2.5000000000000000E-01     3.1250000000070460E-01     0.0000000000000000E+00 
    3.7499999999934702E-01     1.2500000000000000E-01     0.0000000000000000E+00 
    1.2500000000000000E-01     1.2500000000000000E-01     0.0000000000000000E+00 
    1.2500000000000000E-01     3.7500000000102962E-01     0.0000000000000000E+00 
    8.7500000000000000E-01     1.2500000000000000E-01     0.0000000000000000E+00 
    6.2499999999934697E-01     1.2500000000000000E-01     0.0000000000000000E+00 
    8.7500000000000000E-01     3.7499999999934702E-01     0.0000000000000000E+00 
    8.7500000000000000E-01     6.2499999999934697E-01     0.0000000000000000E+00 
    1.2500000000000000E-01     6.2500000000102962E-01     0.0000000000000000E+00 
    1.2500000000000000E-01     8.7500000000000000E-01     0.0000000000000000E+00 
    8.7500000000000000E-01     8.7500000000000000E-01     0.0000000000000000E+00 
    6.2500000000102962E-01     8.7500000000000000E-01     0.0000000000000000E+00 
    3.7500000000102962E-01     8.7500000000000000E-01     0.0000000000000000E+00 
    2.4999999999957681E-01     8.3333333333333329E-02     0.0000000000000000E+00 
    8.3333333333333329E-02     2.5000000000068640E-01     0.0000000000000000E+00 
    7.4999999999956468E-01     8.3333333333333329E-02     0.0000000000000000E+00 
    4.9999999999951827E-01     1.6666666666666671E-01     0.0000000000000000E+00 
    9.1666666666666674E-01     2.4999999999957681E-01     0.0000000000000000E+00 
    8.3333333333333337E-01     4.9999999999951827E-01     0.0000000000000000E+00 
    1.6666666666666671E-01     5.0000000000088307E-01     0.0000000000000000E+00 
    8.3333333333333329E-02     7.5000000000070155E-01     0.0000000000000000E+00 
    9.1666666666666674E-01     7.4999999999956468E-01     0.0000000000000000E+00 
    5.0000000000088307E-01     8.3333333333333348E-01     0.0000000000000000E+00 
    2.5000000000068640E-01     9.1666666666666674E-01     0.0000000000000000E+00 
    7.5000000000070155E-01     9.1666666666666674E-01     0.0000000000000000E+00 
[...]
CELL_DATA 768 
SCALARS Pressure double 1 
LOOKUP_TABLE default 

    2.2043373264113053E+00 
    2.1106389273428996E+00 
    2.0803813205849586E+00 
    2.1378066583622233E+00 
    2.0489632191823208E+00 
    2.0014428238515873E+00 
    1.9972127257818266E+00 
    2.0356434844456746E+00 
    2.0218684775166937E+00 
    1.9920790097662981E+00 
    1.9862074026489296E+00 
    2.0079934356340665E+00 
    2.0882382556132866E+00 
    2.0534207140900840E+00 
    2.0291481511079841E+00 
    2.0496352546189023E+00 
    1.9590652804115076E+00 
    1.9180811110872440E+00 
    1.9257686625576902E+00 
    1.9610746983837613E+00 
    1.8765545213713877E+00 
    1.8335646833405144E+00 
    1.8535329065047410E+00 
    1.8901821875762468E+00 
    1.9030465125421798E+00 
    1.8727180150213489E+00 
    1.8907999183965039E+00 
    1.9149111691703364E+00 
    1.9622611830665284E+00 
    1.9326923719892697E+00 
    1.9387012015933620E+00 
    1.9626252892833593E+00 
    2.0172531571599177E+00 
    2.0041245488001915E+00 
    1.9796623378484184E+00 
    1.9895877969481430E+00 
    1.9887873340076836E+00 
    1.9716569379320172E+00 
    1.9502251350414677E+00 
    1.9663054458561811E+00 
    1.9454025304468550E+00 
    1.9293908059300631E+00 
    1.9086660203226822E+00 
    1.9254743756472312E+00 
    1.9664230088714718E+00 
    1.9581030811346771E+00 
    1.9390046551216764E+00 
    1.9478196177688158E+00 
    2.2043829269600295E+00 
    2.1378679449983955E+00 
    2.0805962205879642E+00 
    2.1108419017119768E+00 
    2.0883116664372952E+00 
    2.0497081276450664E+00 
    2.0293470175320616E+00 
    2.0536294670147464E+00 
    2.0221873048677370E+00 
    2.0082656887866470E+00 
    1.9865175880476689E+00 
    1.9924390334126572E+00 
    2.0493035352239048E+00 
    2.0359775739272208E+00 
    1.9976130985479377E+00 
    2.0018531844183087E+00 
    2.0173269368542499E+00 
    1.9896486176950881E+00 
    1.9798092552820430E+00 
    2.0043095996121920E+00 
    1.9664481179137194E+00 
    1.9478528700394355E+00 
    1.9390242660325572E+00 
    1.9581763446881515E+00 
    1.9454559311905562E+00 
    1.9253695544699507E+00 
    1.9084195967292623E+00 
    1.9293577994229734E+00 
    1.9890259718099048E+00 
    1.9664690127445259E+00 
    1.9503584874797217E+00 
    1.9718972733798665E+00 
    1.9594089677884543E+00 
    1.9614031969630494E+00 
    1.9258695733327360E+00 
    1.9181435262187054E+00 
    1.9625537905196262E+00 
    1.9628644628522336E+00 
    1.9387928000578472E+00 
    1.9327868165473514E+00 
    1.9028934752730546E+00 
    1.9147900324120808E+00 
    1.8904249186437030E+00 
    1.8722973955022917E+00 
    1.8763132088883501E+00 
    1.8899900837352257E+00 
    1.8531001962385110E+00 
    1.8331229327774445E+00 
    1.7639619418684462E+00 
    1.7168258689801277E+00 
    1.7004714058344972E+00 
    1.7416215359921310E+00 
    1.6697702817289513E+00 
    1.6246834152234886E+00 
    1.6207573976710281E+00 
    1.6596815376531489E+00 
    1.6485096997700681E+00 
    1.6156861380061034E+00 
    1.6093774401417151E+00 
    1.6359632455057564E+00 
    1.7183341998238493E+00 
    1.6831184117906435E+00 
    1.6643266777218808E+00 
    1.6936088975556169E+00 
    1.5840139339975592E+00 
    1.5502654039405643E+00 
    1.5541826213597025E+00 
    1.5851161128142615E+00 
    1.5256383289806019E+00 
    1.5111327206014238E+00 
    1.5131382242235685E+00 
    1.5298703109140046E+00 
    1.5326697780347931E+00 
    1.5139959559966654E+00 
    1.5139713736567735E+00 
    1.5341875279121389E+00 
    1.5849494337272394E+00 
    1.5565719985304129E+00 
    1.5576312433924548E+00 
    1.5835455993522454E+00 
    1.6650262520733559E+00 
    1.6386490971661489E+00 
    1.6049238046691079E+00 
    1.6310171912828735E+00 
    1.6140794088669774E+00 
    1.5919808001360851E+00 
    1.5650012762644097E+00 
    1.5830073826207747E+00 
    1.5503312578399655E+00 
    1.5388104292716238E+00 
    1.5143618803867973E+00 
    1.5169375080930934E+00 
    1.5900515289997728E+00 
    1.5664475009968835E+00 
    1.5221507017295279E+00 
    1.5346709066711142E+00 
    1.7991834289146516E+00 
    1.7742339947450936E+00 
    1.7983063156601198E+00 
    1.8227284708800249E+00 
    1.7483579012432662E+00 
    1.7212502851568559E+00 
    1.7468830805480882E+00 
    1.7730799897595226E+00 
    1.7973619344210232E+00 
    1.7720980719517325E+00 
    1.7966479371711264E+00 
    1.8209846557241003E+00 
    1.8455180336058297E+00 
    1.8218101694574229E+00 
    1.8445320586081100E+00 
    1.8673410834556889E+00 
    1.6941517896028813E+00 
    1.6669263147164137E+00 
    1.7060031179762154E+00 
    1.7243653694141576E+00 
    1.6375293662745587E+00 
    1.6052510414418564E+00 
    1.6671221111935153E+00 
    1.6869375583165309E+00 
    1.7325688158153989E+00 
    1.7218552543306527E+00 
    1.7718732316205912E+00 
    1.7752386917262011E+00 
    1.7538010130915664E+00 
    1.7432511565437512E+00 
    1.7787326820529896E+00 
    1.7822835006776954E+00 
    1.8864690845906293E+00 
    1.8619974459609563E+00 
    1.8746120157793078E+00 
    1.9028257151565846E+00 
    1.8364424210158445E+00 
    1.8097834327438422E+00 
    1.8123391894231471E+00 
    1.8444006621780555E+00 
    1.8522464524794673E+00 
    1.8149601484930944E+00 
    1.8176563073538319E+00 
    1.8600046229656721E+00 
    1.9176649431567860E+00 
    1.8866483103966005E+00 
    1.8981438107968063E+00 
    1.9308515164677313E+00 
    1.5075483667439931E+00 
    1.4903764507511159E+00 
    1.4842969463476199E+00 
    1.5041248057229242E+00 
    1.4605003886191223E+00 
    1.4186084545943278E+00 
    1.4166752135194871E+00 
    1.4549079207834343E+00 
    1.4503246686426390E+00 
    1.4157942352349009E+00 
    1.4160017148088297E+00 
    1.4468541506862098E+00 
    1.5005083213454908E+00 
    1.4788132047783067E+00 
    1.4740728786454345E+00 
    1.4969383497785314E+00 
    1.3673579945900742E+00 
    1.3080718323023610E+00 
    1.3213244407566698E+00 
    1.3721208956358237E+00 
    1.2430942126210189E+00 
    1.1737867139927869E+00 
    1.2071603041552754E+00 
    1.2659856703812693E+00 
    1.2890127358241772E+00 
    1.2401875425964239E+00 
    1.2735256229353684E+00 
    1.3128792504467015E+00 
    1.3776288080596328E+00 
    1.3351719838597882E+00 
    1.3500164484431971E+00 
    1.3841468923964158E+00 
    1.4921070697162300E+00 
    1.4653157200811451E+00 
    1.4487534603250090E+00 
    1.4845853550736448E+00 
    1.4357282394348345E+00 
    1.4042803141853573E+00 
    1.3760816495591559E+00 
    1.4122826416497811E+00 
    1.3842751290669999E+00 
    1.3445254665109063E+00 
    1.3101606374733130E+00 
    1.3513092284018644E+00 
    1.4743736740906659E+00 
    1.4273103751689031E+00 
    1.3979128613852485E+00 
    1.4571626523462291E+00 
    1.3797798067771510E+00 
    1.3420360558711131E+00 
    1.2794798363521265E+00 
    1.3045385757045795E+00 
    1.3061909871040214E+00 
    1.2715392673019472E+00 
    1.2300647627580712E+00 
    1.2546876124185085E+00 
    1.2028785615461601E+00 
    1.1878920898371126E+00 
    1.1450086821158680E+00 
    1.1503413815751933E+00 
    1.2323094077864254E+00 
    1.2176483830665676E+00 
    1.1554588598623918E+00 
    1.1603510301758200E+00 
    1.2352933452468564E+00 
    1.1970470474216099E+00 
    1.1597826264634192E+00 
    1.1985292386713811E+00 
    1.1588241961880839E+00 
    1.1193070405066989E+00 
    1.0797413798566893E+00 
    1.1204475565755867E+00 
    1.0813035519728935E+00 
    1.0396614364812351E+00 
    9.9977761059579062E-01 
    1.0418497716920190E+00 
    1.1609431450227392E+00 
    1.1215690864547625E+00 
    1.0827509389772636E+00 
    1.1226238729174223E+00 
    1.0879628162176287E+00 
    1.0925705121843350E+00 
    1.0282963761525450E+00 
    1.0140868198326181E+00 
    1.0969503823859748E+00 
    1.1011446775098459E+00 
    1.0561755444007055E+00 
    1.0422314078744486E+00 
    9.8687909797452578E-01 
    1.0102293505317177E+00 
    9.6333046775937903E-01 
    9.3126092747918154E-01 
    9.4157058439811547E-01 
    9.6399488876528183E-01 
    9.0143407671658116E-01 
    8.7424521213893469E-01 
    1.9310221720291161E+00 
    1.8978131270647793E+00 
    1.8861079404599210E+00 
    1.9175557910372458E+00 
    1.8589494071284787E+00 
    1.8159419211108363E+00 
    1.8133971050733868E+00 
    1.8511454290312803E+00 
    1.8432964555961597E+00 
    1.8109188000006315E+00 
    1.8085006812342810E+00 
    1.8353675510284595E+00 
    1.9024965898777129E+00 
    1.8739164273613271E+00 
    1.8612077146322998E+00 
    1.8859687344463740E+00 
    1.7702142512774530E+00 
    1.7210042203205766E+00 
    1.7316547568959517E+00 
    1.7737311701014158E+00 
    1.6672627990891671E+00 
    1.6059393547520793E+00 
    1.6378951286925054E+00 
    1.6867658170703008E+00 
    1.7056183547427599E+00 
    1.6669981483401302E+00 
    1.6940018928599103E+00 
    1.7238666719372313E+00 
    1.7773515705109528E+00 
    1.7423094939908716E+00 
    1.7528886503446131E+00 
    1.7810397472641406E+00 
    1.8667143699766511E+00 
    1.8436562225339439E+00 
    1.8209909563582478E+00 
    1.8449061686270369E+00 
    1.8199138871320435E+00 
    1.7954782629267989E+00 
    1.7711792709339320E+00 
    1.7964515556381662E+00 
    1.7723954876556662E+00 
    1.7462935540939042E+00 
    1.7209204121146540E+00 
    1.7478853162624037E+00 
    1.8221744038859302E+00 
    1.7976605850109246E+00 
    1.7737212641579219E+00 
    1.7987095754768447E+00 
    1.7635707065157153E+00 
    1.7412572805962356E+00 
    1.7003073885826854E+00 
    1.7166115355397424E+00 
    1.7180586283753398E+00 
    1.6934992641910946E+00 
    1.6644003981286699E+00 
    1.6830460406472363E+00 
    1.6485888112632132E+00 
    1.6361350963919823E+00 
    1.6095782954680125E+00 
    1.6157769679528333E+00 
    1.6697133297819760E+00 
    1.6596636386115817E+00 
    1.6207527331516831E+00 
    1.6246054836698409E+00 
    1.6651258485620515E+00 
    1.6313657109633961E+00 
    1.6053697382594327E+00 
    1.6388807028014432E+00 
    1.5906192628264775E+00 
    1.5353531579768682E+00 
    1.5228823857902465E+00 
    1.5670522225299826E+00 
    1.5508972960249727E+00 
    1.5176035188211929E+00 
    1.5148401776739551E+00 
    1.5392258477231617E+00 
    1.6143713252323231E+00 
    1.5834510966295079E+00 
    1.5653612055880866E+00 
    1.5922569570441942E+00 
    1.5838828317121778E+00 
    1.5850557036582786E+00 
    1.5539438875850311E+00 
    1.5498803405179808E+00 
    1.5849829976641181E+00 
    1.5836950136628443E+00 
    1.5577774472730559E+00 
    1.5565088945294880E+00 
    1.5325109804114847E+00 
    1.5343020897322224E+00 
    1.5140985540034577E+00 
    1.5138287855551054E+00 
    1.5251090397562035E+00 
    1.5294985395294178E+00 
    1.5127161786718066E+00 
    1.5105916952796707E+00 
    1.0621978178706915E+00 
    9.8156099511770012E-01 
    9.5417647005599315E-01 
    1.0257492982533198E+00 
    8.9432028988971046E-01 
    7.9679438799201052E-01 
    7.9216794005276037E-01 
    8.7728006485471033E-01 
    8.6199482213314904E-01 
    7.9006442860547421E-01 
    7.9041939665863636E-01 
    8.4908198998290141E-01 
    9.8922918434142593E-01 
    9.2770974770021608E-01 
    9.0307639621954261E-01 
    9.5383265489931035E-01 
    6.8354126817026506E-01 
    5.3951887196685611E-01 
    5.8376558889401131E-01 
    6.9676879530450042E-01 
    3.3281446656670211E-01 
    0.0000000000000000E+00 
    2.4473887911829928E-01 
    4.4021859924594264E-01 
    5.2979439971150255E-01 
    4.1495397559733543E-01 
    5.4274375522994833E-01 
    6.0705155486539430E-01 
    7.1232120864725645E-01 
    6.2727242245906778E-01 
    6.6944323900990921E-01 
    7.2944361079385334E-01 
    9.1786298953218515E-01 
    8.7233881450867967E-01 
    8.3701412769641836E-01 
    8.8312700015561818E-01 
    8.2323510527560018E-01 
    7.6906886496215576E-01 
    7.2469087865427517E-01 
    7.8489318547373288E-01 
    7.5137822619210692E-01 
    6.8244109511407147E-01 
    6.4408081413427165E-01 
    7.2496914171745119E-01 
    8.5458525132659968E-01 
    8.0806338189134574E-01 
    7.8818535496478870E-01 
    8.3573206221623753E-01 
    1.3807817899508430E+00 
    1.3045121495710859E+00 
    1.2790892942792955E+00 
    1.3425810477904412E+00 
    1.2308636857505599E+00 
    1.1576676515358424E+00 
    1.1528648597975659E+00 
    1.2160735337464084E+00 
    1.2011707948730703E+00 
    1.1478661024855432E+00 
    1.1426918882821486E+00 
    1.1861760610327201E+00 
    1.3063288756710170E+00 
    1.2539662654889039E+00 
    1.2290863400801089E+00 
    1.2713098435240562E+00 
    1.0849163023465196E+00 
    1.0120771151891998E+00 
    1.0261478119643124E+00 
    1.0897316572211726E+00 
    9.4084008068614733E-01 
    8.7433616962553107E-01 
    9.0127587437715617E-01 
    9.6293602086996377E-01 
    9.8554814082409892E-01 
    9.3080682563878525E-01 
    9.6260341844573749E-01 
    1.0087934441556066E+00 
    1.0943374767935736E+00 
    1.0401392036217307E+00 
    1.0541363710639351E+00 
    1.0987866377864950E+00 
    1.2347279762064278E+00 
    1.1972888221269955E+00 
    1.1583232510221937E+00 
    1.1961710889501513E+00 
    1.1591168108736285E+00 
    1.1204214255430449E+00 
    1.0807193435540838E+00 
    1.1197299385088768E+00 
    1.0796849397076360E+00 
    1.0402528217902933E+00 
    9.9878296102545927E-01 
    1.0385512709009963E+00 
    1.1577891209937905E+00 
    1.1190261070711216E+00 
    1.0785824843423004E+00 
    1.1182845634878027E+00 
    1.4579483137278384E+00 
    1.3987015888228402E+00 
    1.4282387672700680E+00 
    1.4752216350613805E+00 
    1.3519338727763590E+00 
    1.3105444960341555E+00 
    1.3453781866779166E+00 
    1.3852260004735750E+00 
    1.4133862314928791E+00 
    1.3772775762636009E+00 
    1.4056070339582831E+00 
    1.4368751314621011E+00 
    1.4853851353805947E+00 
    1.4497635269366442E+00 
    1.4662336138089245E+00 
    1.4927558763140543E+00 
    1.2736680108158167E+00 
    1.2400185427830710E+00 
    1.2897013598265841E+00 
    1.3136535763205301E+00 
    1.2066275793148187E+00 
    1.1729114030993868E+00 
    1.2432474501430992E+00 
    1.2664550875509297E+00 
    1.3227161225012116E+00 
    1.3094274715060568E+00 
    1.3692269717590888E+00 
    1.3738909147208467E+00 
    1.3512524843529001E+00 
    1.3365033147484258E+00 
    1.3792639892161780E+00 
    1.3856150273656362E+00 
    1.4972722501222120E+00 
    1.4747712905882191E+00 
    1.4793216666473263E+00 
    1.5005598296982101E+00 
    1.4479309326497252E+00 
    1.4174046284231285E+00 
    1.4173115515397217E+00 
    1.4513806171450396E+00 
    1.4558671649861097E+00 
    1.4182998960583120E+00 
    1.4202937045077044E+00 
    1.4613627568429453E+00 
    1.5038961749221824E+00 
    1.4845965853280068E+00 
    1.4904715645907771E+00 
    1.5071259658793841E+00 
    8.3583652736178493E-01 
    7.8839714668116168E-01 
    8.0864873254559810E-01 
    8.5486222917979815E-01 
    7.2527302297092722E-01 
    6.4442231325529487E-01 
    6.8340897855760430E-01 
    7.5223276775148529E-01 
    7.8607055649926227E-01 
    7.2614968051307216E-01 
    7.7073033092925025E-01 
    8.2447500587629885E-01 
    8.8332801281742857E-01 
    8.3778527207538789E-01 
    8.7299558018563994E-01 
    9.1785169073394479E-01 
    5.4305325592313913E-01 
    4.1513880922869395E-01 
    5.3073344079029161E-01 
    6.0807031825474911E-01 
    2.4469423132512222E-01 
    0.0000000000000000E+00 
    3.3291710289752052E-01 
    4.4077119647520518E-01 
    5.8536633312435293E-01 
    5.4082569785341161E-01 
    6.8583779542767098E-01 
    6.9900060271659203E-01 
    6.7105113073029898E-01 
    6.2894515766298509E-01 
    7.1442638840743267E-01 
    7.3132205590497912E-01 
    9.5352608475414014E-01 
    9.0349448785193442E-01 
    9.2794307503908735E-01 
    9.8872065048555680E-01 
    8.5023803868932635E-01 
    7.9216096517846268E-01 
    7.9196873853689842E-01 
    8.6314055432988246E-01 
    8.7829255202927070E-01 
    7.9417639391003270E-01 
    7.9880625446632647E-01 
    8.9513297691232996E-01 
    1.0250447989276239E+00 
    9.5414637001628844E-01 
    9.8123994779330159E-01 
    1.0613162797409335E+00 
    1.4948877379420502E+00 
    1.5703501830112554E+00 
    1.5632259927736474E+00 
    1.4937630243883220E+00 
    1.6427701603294196E+00 
    1.7112941807365056E+00 
    1.6935128782440496E+00 
    1.6300107562906172E+00 
    1.6192119523871451E+00 
    1.6772738877878692E+00 
    1.6622845217226880E+00 
    1.6101190586777683E+00 
    1.4945291880578624E+00 
    1.5582066512644301E+00 
    1.5550735127855018E+00 
    1.4970697032101214E+00 
    1.7737990806387403E+00 
    1.8300697639134889E+00 
    1.7992831300384775E+00 
    1.7495995168228295E+00 
    1.8806487126850642E+00 
    1.9254439771100755E+00 
    1.8900792168812965E+00 
    1.8459114114554911E+00 
    1.8099155746371189E+00 
    1.8507337564223580E+00 
    1.8077468265091539E+00 
    1.7724738553197328E+00 
    1.7264582116699685E+00 
    1.7687985243951065E+00 
    1.7382519182018137E+00 
    1.7040469906527453E+00 
    1.5049881824029681E+00 
    1.5637733538967828E+00 
    1.5856805086948302E+00 
    1.5195861656420477E+00 
    1.6182534891835936E+00 
    1.6691679078243635E+00 
    1.6979611388570053E+00 
    1.6443845325096951E+00 
    1.6730565930703210E+00 
    1.7278619980076091E+00 
    1.7600521563973581E+00 
    1.7061299159115564E+00 
    1.5388796832007443E+00 
    1.6116943812640434E+00 
    1.6450604026936197E+00 
    1.5684849412455348E+00 
    1.4170689977167947E+00 
    1.3382914268131123E+00 
    1.3487262681192507E+00 
    1.4214715596593885E+00 
    1.2592460812807251E+00 
    1.1805410668628145E+00 
    1.2037847317809798E+00 
    1.2760384339129129E+00 
    1.2929744328152610E+00 
    1.2270411327574224E+00 
    1.2504348253812483E+00 
    1.3101561498882479E+00 
    1.4270613676769983E+00 
    1.3596873823072089E+00 
    1.3711423950002526E+00 
    1.4336792068760935E+00 
    1.1043187813350992E+00 
    1.0308260369153175E+00 
    1.0760634497333736E+00 
    1.1372221733095693E+00 
    9.5888753811146599E-01 
    8.8904035816297233E-01 
    9.5555257965554807E-01 
    1.0155212175123267E+00 
    1.0735039724142057E+00 
    1.0253889720160423E+00 
    1.0967994925168962E+00 
    1.1323812005747762E+00 
    1.1702087723054242E+00 
    1.1217838895484467E+00 
    1.1679245158884894E+00 
    1.2034188281446794E+00 
    1.4369396094240008E+00 
    1.3717470335507325E+00 
    1.3595922000130054E+00 
    1.4348653981285815E+00 
    1.3095901518368702E+00 
    1.2494873512162881E+00 
    1.2235352835462427E+00 
    1.2900016275888084E+00 
    1.2689958397774372E+00 
    1.1971059887140212E+00 
    1.1701385201413101E+00 
    1.2460955813076915E+00 
    1.4290271223884283E+00 
    1.3446262582617170E+00 
    1.3251632541894669E+00 
    1.4157888772890888E+00 
    1.5691734550798246E+00 
    1.6451867377092120E+00 
    1.6115180967361329E+00 
    1.5391422000245270E+00 
    1.7052994833604820E+00 
    1.7584119105135101E+00 
    1.7265647151602064E+00 
    1.6722805361594535E+00 
    1.6436596982402611E+00 
    1.6969238740892236E+00 
    1.6683456672016062E+00 
    1.6176111012004832E+00 
    1.5194633495925693E+00 
    1.5853114145497123E+00 
    1.5632997087940930E+00 
    1.5046075680606197E+00 
    1.8060384120000208E+00 
    1.8496807152480428E+00 
    1.8089814479681035E+00 
    1.7711360554171025E+00 
    1.8897580529918943E+00 
    1.9255943581891546E+00 
    1.8806115694551708E+00 
    1.8454901045370389E+00 
    1.7988436413761768E+00 
    1.8299506205088909E+00 
    1.7736676741311499E+00 
    1.7492125975469508E+00 
    1.7371934891238261E+00 
    1.7680094585359283E+00 
    1.7258227957621943E+00 
    1.7032193319117941E+00 
    1.4965375422415623E+00 
    1.5545484929066979E+00 
    1.5577388790517519E+00 
    1.4940155826846726E+00 
    1.6095256615182920E+00 
    1.6615916121107743E+00 
    1.6767290477478023E+00 