# vtk DataFile Version 2.0
Pressure Field Data 
ASCII 
DATASET UNSTRUCTURED_GRID 

POINTS 801 double 

    0.0000000000000000E+00     0.0000000000000000E+00     0.0000000000000000E+00 
    1.0000000000000000E+00     0.0000000000000000E+00     0.0000000000000000E+00 
    1.0000000000000000E+00     1.0000000000000000E+00     0.0000000000000000E+00 
    0.0000000000000000E+00     1.0000000000000000E+00     0.0000000000000000E+00 
    2.5000000000000000E-01     2.5000000000000000E-01     0.0000000000000000E+00 
    7.5000000000000000E-01     2.5000000000000000E-01     0.0000000000000000E+00 
    7.5000000000000000E-01     7.5000000000000000E-01     0.0000000000000000E+00 
    2.5000000000000000E-01     7.5000000000000000E-01     0.0000000000000000E+00 
    2.4999999999941941E-01     0.0000000000000000E+00     0.0000000000000000E+00 
    4.9999999999869399E-01     0.0000000000000000E+00     0.0000000000000000E+00 
    7.4999999999934697E-01     0.0000000000000000E+00     0.0000000000000000E+00 
    1.2499999999977940E-01     0.0000000000000000E+00     0.0000000000000000E+00 
    3.7499999999905670E-01     0.0000000000000000E+00     0.0000000000000000E+00 
    6.2499999999902045E-01     0.0000000000000000E+00     0.0000000000000000E+00 
    8.7499999999967348E-01     0.0000000000000000E+00     0.0000000000000000E+00 
    6.2499999999889699E-02     0.0000000000000000E+00     0.0000000000000000E+00 
    1.8749999999959940E-01     0.0000000000000000E+00     0.0000000000000000E+00 
    3.1249999999923811E-01     0.0000000000000000E+00     0.0000000000000000E+00 
    4.3749999999887529E-01     0.0000000000000000E+00     0.0000000000000000E+00 
    5.6249999999885725E-01     0.0000000000000000E+00     0.0000000000000000E+00 
    6.8749999999918376E-01     0.0000000000000000E+00     0.0000000000000000E+00 
    8.1249999999951017E-01     0.0000000000000000E+00     0.0000000000000000E+00 
    9.3749999999983680E-01     0.0000000000000000E+00     0.0000000000000000E+00 
    1.0000000000000000E+00     2.4999999999941941E-01     0.0000000000000000E+00 
    1.0000000000000000E+00     4.9999999999869399E-01     0.0000000000000000E+00 
    1.0000000000000000E+00     7.4999999999934697E-01     0.0000000000000000E+00 
    1.0000000000000000E+00     1.2499999999977940E-01     0.0000000000000000E+00 
    1.0000000000000000E+00     3.7499999999905670E-01     0.0000000000000000E+00 
    1.0000000000000000E+00     6.2499999999902045E-01     0.0000000000000000E+00 
    1.0000000000000000E+00     8.7499999999967348E-01     0.0000000000000000E+00 
    1.0000000000000000E+00     6.2499999999889699E-02     0.0000000000000000E+00 
    1.0000000000000000E+00     1.8749999999959940E-01     0.0000000000000000E+00 
    1.0000000000000000E+00     3.1249999999923811E-01     0.0000000000000000E+00 
    1.0000000000000000E+00     4.3749999999887529E-01     0.0000000000000000E+00 
    1.0000000000000000E+00     5.6249999999885725E-01     0.0000000000000000E+00 
    1.0000000000000000E+00     6.8749999999918376E-01     0.0000000000000000E+00 
    1.0000000000000000E+00     8.1249999999951017E-01     0.0000000000000000E+00 
    1.0000000000000000E+00     9.3749999999983680E-01     0.0000000000000000E+00 
    7.5000000000112044E-01     1.0000000000000000E+00     0.0000000000000000E+00 
    5.0000000000205913E-01     1.0000000000000000E+00     0.0000000000000000E+00 
    2.5000000000102962E-01     1.0000000000000000E+00     0.0000000000000000E+00 
    8.7499999999991362E-01     1.0000000000000000E+00     0.0000000000000000E+00 
    6.2499999999988309E-01     1.0000000000000000E+00     0.0000000000000000E+00 
    3.7499999999869987E-01     1.0000000000000000E+00     0.0000000000000000E+00 
    1.2499999999880820E-01     1.0000000000000000E+00     0.0000000000000000E+00 
    9.3749999999995681E-01     1.0000000000000000E+00     0.0000000000000000E+00 
    8.1250000000051703E-01     1.0000000000000000E+00     0.0000000000000000E+00 
    6.8750000000050182E-01     1.0000000000000000E+00     0.0000000000000000E+00 
    5.6250000000097111E-01     1.0000000000000000E+00     0.0000000000000000E+00 
    4.3750000000037947E-01     1.0000000000000000E+00     0.0000000000000000E+00 
    3.1249999999986477E-01     1.0000000000000000E+00     0.0000000000000000E+00 
    1.8749999999991890E-01     1.0000000000000000E+00     0.0000000000000000E+00 
    6.2499999999404102E-02     1.0000000000000000E+00     0.0000000000000000E+00 
    0.0000000000000000E+00     7.5000000000112044E-01     0.0000000000000000E+00 
    0.0000000000000000E+00     5.0000000000205913E-01     0.0000000000000000E+00 
    0.0000000000000000E+00     2.5000000000102962E-01     0.0000000000000000E+00 
    0.0000000000000000E+00     8.7499999999991362E-01     0.0000000000000000E+00 
    0.0000000000000000E+00     6.2499999999988309E-01     0.0000000000000000E+00 
    0.0000000000000000E+00     3.7499999999869987E-01     0.0000000000000000E+00 
    0.0000000000000000E+00     1.2499999999880820E-01     0.0000000000000000E+00 
    0.0000000000000000E+00     9.3749999999995681E-01     0.0000000000000000E+00 
    0.0000000000000000E+00     8.1250000000051703E-01     0.0000000000000000E+00 
    0.0000000000000000E+00     6.8750000000050182E-01     0.0000000000000000E+00 
    0.0000000000000000E+00     5.6250000000097111E-01     0.0000000000000000E+00 
    0.0000000000000000E+00     4.3750000000037947E-01     0.0000000000000000E+00 
    0.0000000000000000E+00     3.1249999999986477E-01     0.0000000000000000E+00 
    0.0000000000000000E+00     1.8749999999991890E-01     0.0000000000000000E+00 
    0.0000000000000000E+00     6.2499999999404102E-02     0.0000000000000000E+00 
    4.9999999999972200E-01     2.5000000000000000E-01     0.0000000000000000E+00 
    3.7500000000067490E-01     2.5000000000000000E-01     0.0000000000000000E+00 
    6.2500000000042988E-01     2.5000000000000000E-01     0.0000000000000000E+00 
    3.1250000000033751E-01     2.5000000000000000E-01     0.0000000000000000E+00 
    4.3750000000019851E-01     2.5000000000000000E-01     0.0000000000000000E+00 
    5.6250000000007594E-01     2.5000000000000000E-01     0.0000000000000000E+00 
    6.8750000000021494E-01     2.5000000000000000E-01     0.0000000000000000E+00 
    7.5000000000000000E-01     4.9999999999972200E-01     0.0000000000000000E+00 
    7.5000000000000000E-01     3.7500000000067490E-01     0.0000000000000000E+00 
    7.5000000000000000E-01     6.2500000000042988E-01     0.0000000000000000E+00 
    7.5000000000000000E-01     3.1250000000033751E-01     0.0000000000000000E+00 
    7.5000000000000000E-01     4.3750000000019851E-01     0.0000000000000000E+00 
    7.5000000000000000E-01     5.6250000000007594E-01     0.0000000000000000E+00 
    7.5000000000000000E-01     6.8750000000021494E-01     0.0000000000000000E+00 
    5.0000000000118039E-01     7.5000000000000000E-01     0.0000000000000000E+00 
    6.2500000000161415E-01     7.5000000000000000E-01     0.0000000000000000E+00 
    3.7500000000140910E-01     7.5000000000000000E-01     0.0000000000000000E+00 
    6.8750000000080713E-01     7.5000000000000000E-01     0.0000000000000000E+00 
    5.6250000000139733E-01     7.5000000000000000E-01     0.0000000000000000E+00 
    4.3750000000129469E-01     7.5000000000000000E-01     0.0000000000000000E+00 
    3.1250000000070460E-01     7.5000000000000000E-01     0.0000000000000000E+00 
    2.5000000000000000E-01     5.0000000000118039E-01     0.0000000000000000E+00 
    2.5000000000000000E-01     6.2500000000161415E-01     0.0000000000000000E+00 
    2.5000000000000000E-01     3.7500000000140910E-01     0.0000000000000000E+00 
    2.5000000000000000E-01     6.8750000000080713E-01     0.0000000000000000E+00 
    2.5000000000000000E-01     5.6250000000139733E-01     0.0000000000000000E+00 
    2.5000000000000000E-01     4.3750000000129469E-01     0.0000000000000000E+00 
    2.5000000000000000E-01     3.1250000000070460E-01     0.0000000000000000E+00 
    3.7499999999934702E-01     1.2500000000000000E-01     0.0000000000000000E+00 
    1.2500000000000000E-01     1.2500000000000000E-01     0.0000000000000000E+00 
    1.2500000000000000E-01     3.7500000000102962E-01     0.0000000000000000E+00 
    8.7500000000000000E-01     1.2500000000000000E-01     0.0000000000000000E+00 
    6.2499999999934697E-01     1.2500000000000000E-01     0.0000000000000000E+00 
    8.7500000000000000E-01     3.7499999999934702E-01     0.0000000000000000E+00 
    8.7500000000000000E-01     6.2499999999934697E-01     0.0000000000000000E+00 
    1.2500000000000000E-01     6.2500000000102962E-01     0.0000000000000000E+00 
    1.2500000000000000E-01     8.7500000000000000E-01     0.0000000000000000E+00 
    8.7500000000000000E-01     8.7500000000000000E-01     0.0000000000000000E+00 
    6.2500000000102962E-01     8.7500000000000000E-01     0.0000000000000000E+00 
    3.7500000000102962E-01     8.7500000000000000E-01     0.0000000000000000E+00 
    2.4999999999957681E-01     8.3333333333333329E-02     0.0000000000000000E+00 
    8.3333333333333329E-02     2.5000000000068640E-01     0.0000000000000000E+00 
    7.4999999999956468E-01     8.3333333333333329E-02     0.0000000000000000E+00 
    4.9999999999951827E-01     1.6666666666666671E-01     0.0000000000000000E+00 
    9.1666666666666674E-01     2.4999999999957681E-01     0.0000000000000000E+00 
    8.3333333333333337E-01     4.9999999999951827E-01     0.0000000000000000E+00 
    1.6666666666666671E-01     5.0000000000088307E-01     0.0000000000000000E+00 
    8.3333333333333329E-02     7.5000000000070155E-01     0.0000000000000000E+00 
    9.1666666666666674E-01     7.4999999999956468E-01     0.0000000000000000E+00 
    5.0000000000088307E-01     8.3333333333333348E-01     0.0000000000000000E+00 
    2.5000000000068640E-01     9.1666666666666674E-01     0.0000000000000000E+00 
    7.5000000000070155E-01     9.1666666666666674E-01     0.0000000000000000E+00 
[...]
CELL_DATA 768 
SCALARS Pressure double 1 
LOOKUP_TABLE default 

    2.0433262006606103E+00 
    1.9499824994502821E+00 
    1.9199409543523598E+00 
    1.9769841226659184E+00 
    1.8889138505791834E+00 
    1.8423451423402648E+00 
    1.8382227952566528E+00 
    1.8757920560792964E+00 
    1.8622683078108988E+00 
    1.8332280417889577E+00 
    1.8275261240779452E+00 
    1.8487007741829464E+00 
    1.9277026997517410E+00 
    1.8932711058447689E+00 
    1.8693868522662913E+00 
    1.8895253091851962E+00 
    1.8013232340827259E+00 
    1.7620201676200280E+00 
    1.7693680753915761E+00 
    1.8032555652075208E+00 
    1.7224590323210520E+00 
    1.6817051430855769E+00 
    1.7006227651977193E+00 
    1.7354193182891129E+00 
    1.7476712091552025E+00 
    1.7188288182576361E+00 
    1.7360167268237965E+00 
    1.7589861174075987E+00 
    1.8043933977354512E+00 
    1.7759906980533815E+00 
    1.7817413473908683E+00 
    1.8047372016729262E+00 
    1.8577335500029097E+00 
    1.8449147895011873E+00 
    1.8211565646798813E+00 
    1.8307769235945517E+00 
    1.8300054927861198E+00 
    1.8134325779260014E+00 
    1.7927875015351835E+00 
    1.8082582507225318E+00 
    1.7881512015354963E+00 
    1.7728158452585159E+00 
    1.7530308975505176E+00 
    1.7690744783716530E+00 
    1.8083620612902622E+00 
    1.8003490660996790E+00 
    1.7820196648137996E+00 
    1.7904796667906102E+00 
    2.0433714063735238E+00 
    1.9770449793399230E+00 
    1.9201556710601710E+00 
    1.9501848073297179E+00 
    1.9277756140598223E+00 
    1.8895974005044904E+00 
    1.8695857083590504E+00 
    1.8934804514660266E+00 
    1.8625917369063663E+00 
    1.8489781601812716E+00 
    1.8278457556156176E+00 
    1.8335968893199361E+00 
    1.8892566477731003E+00 
    1.8761300341294016E+00 
    1.8386312219001244E+00 
    1.8427634140902132E+00 
    1.8578063092421930E+00 
    1.8308384380077145E+00 
    1.8213080487524957E+00 
    1.8451000298909994E+00 
    1.8083918204748646E+00 
    1.7905211611519765E+00 
    1.7820590560770546E+00 
    1.8004341308020329E+00 
    1.7882247961928632E+00 
    1.7690021245487288E+00 
    1.7528274877075751E+00 
    1.7728116428984402E+00 
    1.8302499883557508E+00 
    1.8084334027845503E+00 
    1.7929388035246319E+00 
    1.8136843718575901E+00 
    1.8016789905393911E+00 
    1.8035961533313707E+00 
    1.7694923124232913E+00 
    1.7621081403021426E+00 
    1.8046987041935234E+00 
    1.8049901684083118E+00 
    1.7818550737331884E+00 
    1.7761081682234436E+00 
    1.7475560538094639E+00 
    1.7588999469006747E+00 
    1.7356930472877548E+00 
    1.7184632834717843E+00 
    1.7222626147526172E+00 
    1.7352681015940670E+00 
    1.7002477651873575E+00 
    1.6813246191718458E+00 
    1.6160338174888316E+00 
    1.5717035707941427E+00 
    1.5563534595696440E+00 
    1.5950286738541319E+00 
    1.5275147237286821E+00 
    1.4852123003568030E+00 
    1.4815454674769790E+00 
    1.5180620195739787E+00 
    1.5076134804119405E+00 
    1.4768211957450570E+00 
    1.4709528326933792E+00 
    1.4958968988269259E+00 
    1.5731699271497313E+00 
    1.5400929459999426E+00 
    1.5225114860609510E+00 
    1.5500008977361914E+00 
    1.4470589129240086E+00 
    1.4153682477694507E+00 
    1.4190794501069912E+00 
    1.4481125307715095E+00 
    1.3921678567775331E+00 
    1.3783642832285978E+00 
    1.3803570070717044E+00 
    1.3962083338036817E+00 
    1.3989301677749286E+00 
    1.3813261284376945E+00 
    1.3814854535579928E+00 
    1.4004703096861404E+00 
    1.4479935642030679E+00 
    1.4213791715167139E+00 
    1.4224504111899241E+00 
    1.4467309249924312E+00 
    1.5232536532212799E+00 
    1.4985001722954774E+00 
    1.4669756144229287E+00 
    1.4914610862742603E+00 
    1.4754423723114016E+00 
    1.4546939267833201E+00 
    1.4294454336669113E+00 
    1.4463880569353471E+00 
    1.4158474612866481E+00 
    1.4049343373103438E+00 
    1.3820436484744991E+00 
    1.3846417756947123E+00 
    1.4532136935864362E+00 
    1.4310396525855802E+00 
    1.3896929135040041E+00 
    1.4015904435929152E+00 
    1.6492350566666600E+00 
    1.6257343373321143E+00 
    1.6484431452232307E+00 
    1.6714832548926761E+00 
    1.6014083512911548E+00 
    1.5759716806994390E+00 
    1.6000765780088935E+00 
    1.6246941502649872E+00 
    1.6475899922746213E+00 
    1.6238094347607441E+00 
    1.6469450231150398E+00 
    1.6698936883464155E+00 
    1.6930537195996431E+00 
    1.6706465964693404E+00 
    1.6921423779475195E+00 
    1.7137427830735210E+00 
    1.5505880741938483E+00 
    1.5251172611471708E+00 
    1.5617681126170133E+00 
    1.5789602710652062E+00 
    1.4976348192445488E+00 
    1.4674688825174795E+00 
    1.5253989003995525E+00 
    1.5439297036638788E+00 
    1.5867392968234570E+00 
    1.5767105840830760E+00 
    1.6236939003993753E+00 
    1.6268406725341149E+00 
    1.6066266712807609E+00 
    1.5967422590059692E+00 
    1.6301082301410985E+00 
    1.6334316668051791E+00 
    1.7319107593049470E+00 
    1.7086948069846348E+00 
    1.7206673307577107E+00 
    1.7474758856142252E+00 
    1.6845149265272392E+00 
    1.6593494607147883E+00 
    1.6617757368848893E+00 
    1.6920540540813818E+00 
    1.6994882358631758E+00 
    1.6642600785474710E+00 
    1.6668108020368710E+00 
    1.7068411795490719E+00 
    1.7616236920658706E+00 
    1.7321030278859137E+00 
    1.7430384936321848E+00 
    1.7742248350957699E+00 
    1.3749388587714491E+00 
    1.3589122191021679E+00 
    1.3533499865365635E+00 
    1.3718093021332702E+00 
    1.3311689272013920E+00 
    1.2923746389041306E+00 
    1.2906551961832289E+00 
    1.3260704598889075E+00 
    1.3219885410772760E+00 
    1.2899636618590264E+00 
    1.2902961572736855E+00 
    1.3189502517558429E+00 
    1.3686345043482195E+00 
    1.3484476602447031E+00 
    1.3442517116075015E+00 
    1.3655279148074231E+00 
    1.2448872401449469E+00 
    1.1901136821658640E+00 
    1.2023957540268686E+00 
    1.2493332293307093E+00 
    1.1301619910119667E+00 
    1.0663182890650620E+00 
    1.0970851952878948E+00 
    1.1513107465814099E+00 
    1.1727035583429526E+00 
    1.1276600055191468E+00 
    1.1585685580969367E+00 
    1.1949107024875232E+00 
    1.2545644275473351E+00 
    1.2153294114603290E+00 
    1.2292225845403073E+00 
    1.2607659955595032E+00 
    1.3612421208162353E+00 
    1.3363003633767097E+00 
    1.3210751089345754E+00 
    1.3544439273351085E+00 
    1.3087743809980792E+00 
    1.2795364461222207E+00 
    1.2534792562589130E+00 
    1.2871370281657062E+00 
    1.2612529027218700E+00 
    1.2243136726665362E+00 
    1.1925531894037882E+00 
    1.2307607229209445E+00 
    1.3451171454963617E+00 
    1.3012886862182831E+00 
    1.2740832876431523E+00 
    1.3292061358310754E+00 
    1.2572988233070375E+00 
    1.2222561995003247E+00 
    1.1643436925730726E+00 
    1.1875537594290082E+00 
    1.1889943813772281E+00 
    1.1568595762383036E+00 
    1.1185631663717277E+00 
    1.1413740190162025E+00 
    1.0935507652602965E+00 
    1.0796747588387610E+00 
    1.0401931294048705E+00 
    1.0451455861788654E+00 
    1.1207756006867502E+00 
    1.1072196369399860E+00 
    1.0498912784876799E+00 
    1.0544144154945840E+00 
    1.1232768628529608E+00 
    1.0878527927356605E+00 
    1.0535747762467216E+00 
    1.0893821732711426E+00 
    1.0523850758930857E+00 
    1.0159724149643701E+00 
    9.7983068406024931E-01 
    1.0172262250873267E+00 
    9.8143073461084462E-01 
    9.4323812287273046E-01 
    9.0681314496280918E-01 
    9.4534930608446199E-01 
    1.0547789148665969E+00 
    1.0184871126177346E+00 
    9.8288811727688030E-01 
    1.0195525326532491E+00 
    9.8786315798262769E-01 
    9.9206632836129316E-01 
    9.3308471098981438E-01 
    9.2008374109870183E-01 
    9.9604618580959725E-01 
    9.9985442209215258E-01 
    9.5855829803040316E-01 
    9.4581807637811532E-01 
    8.9511516674904379E-01 
    9.1644657695129672E-01 
    8.7353898593384582E-01 
    8.4425937557802488E-01 
    8.5368929100073787E-01 
    8.7420130996901102E-01 
    8.1700230029364729E-01 
    7.9211061850110109E-01 
    1.7744191112637231E+00 
    1.7427602974985650E+00 
    1.7316247873626542E+00 
    1.7615515424404109E+00 
    1.7058741138088187E+00 
    1.6652133789651751E+00 
    1.6628124463430867E+00 
    1.6984791992318802E+00 
    1.6910440166230918E+00 
    1.6604677905497047E+00 
    1.6581750404574966E+00 
    1.6835354071477604E+00 
    1.7471956390532084E+00 
    1.7200421151911671E+00 
    1.7079824311632914E+00 
    1.7314696187681504E+00 
    1.6221497413781472E+00 
    1.5759400357209590E+00 
    1.5859111826078425E+00 
    1.6254473280513979E+00 
    1.5255869173951841E+00 
    1.4681932376590092E+00 
    1.4980376187112772E+00 
    1.5438130074911671E+00 
    1.5614453582026651E+00 
    1.5252326318718501E+00 
    1.5504892804448587E+00 
    1.5785278656656916E+00 
    1.6288401928200362E+00 
    1.5958905386372395E+00 
    1.6058040229320751E+00 
    1.6322965367792539E+00 
    1.7131840626781154E+00 
    1.6913513729987992E+00 
    1.6699101310813189E+00 
    1.6925099337138994E+00 
    1.6689210102881520E+00 
    1.6458797147418074E+00 
    1.6229806251382821E+00 
    1.6467693012141267E+00 
    1.6240877870482975E+00 
    1.5995588690728815E+00 
    1.5757033071104087E+00 
    1.6010070685359281E+00 
    1.6709968476631509E+00 
    1.6478727856478275E+00 
    1.6252946914583390E+00 
    1.6488289619736349E+00 
    1.6157110434029833E+00 
    1.5947344537796990E+00 
    1.5562531419238426E+00 
    1.5715538760410663E+00 
    1.5729600728383273E+00 
    1.5499461748612466E+00 
    1.5226344308591493E+00 
    1.5400791611554914E+00 
    1.5077458666574479E+00 
    1.4961157041375515E+00 
    1.4712012694190171E+00 
    1.4769676340872229E+00 
    1.5275186848035367E+00 
    1.5181033051062238E+00 
    1.4816031112444914E+00 
    1.4852012561968777E+00 
    1.5233963342777921E+00 
    1.4918438351065761E+00 
    1.4674538025788026E+00 
    1.4987723687564798E+00 
    1.4538164098600961E+00 
    1.4023277074888749E+00 
    1.3904673872975466E+00 
    1.4316774844477000E+00 
    1.4164446797506067E+00 
    1.3853405015098750E+00 
    1.3825580122997005E+00 
    1.4053876188695071E+00 
    1.4757743170747364E+00 
    1.4468650887182768E+00 
    1.4298441101173049E+00 
    1.4550126700341823E+00 
    1.4470031529120611E+00 
    1.4481215202994795E+00 
    1.4189258908391345E+00 
    1.4150798010284877E+00 
    1.4480885035923750E+00 
    1.4469323579771725E+00 
    1.4226506056094996E+00 
    1.4213863654179986E+00 
    1.3988511919382978E+00 
    1.4006429201905741E+00 
    1.3816715310085625E+00 
    1.3812413391997922E+00 
    1.3917485990961591E+00 
    1.3959334818611235E+00 
    1.3800380585261269E+00 
    1.3779371532159599E+00 
    9.6345069607890832E-01 
    8.8980229976266845E-01 
    8.6492054251067729E-01 
    9.3024447398401922E-01 
    8.1040912530069054E-01 
    7.2191067047947510E-01 
    7.1767385893295754E-01 
    7.9494025604800456E-01 
    7.8106810584066988E-01 
    7.1569201096476653E-01 
    7.1594909379706995E-01 
    7.6932378318186811E-01 
    8.9703285362775187E-01 
    8.4089293224051243E-01 
    8.1849476036172109E-01 
    8.6479939788652349E-01 
    6.1878465387649029E-01 
    4.8778277963994937E-01 
    5.2772702283524386E-01 
    6.3065514873063599E-01 
    3.0058096574824927E-01 
    0.0000000000000000E+00 
    2.1996571336543008E-01 
    3.9727936011588916E-01 
    4.7876985463488425E-01 
    3.7461741600861320E-01 
    4.9074796067344612E-01 
    5.4908111701115803E-01 
    6.4475194880766129E-01 
    5.6734284265813550E-01 
    6.0577234493569421E-01 
    6.6036236973129747E-01 
    8.3200877419020003E-01 
    7.9049973177238020E-01 
    7.5832219246777111E-01 
    8.0033298860771651E-01 
    7.4578320845940849E-01 
    6.9647303421312878E-01 
    6.5608056706987306E-01 
    7.1087604224360879E-01 
    6.8038260408224904E-01 
    6.1767185920176904E-01 
    5.8286209563874036E-01 
    6.5639582828674681E-01 
    7.7429053846046170E-01 
    7.3195202647423219E-01 
    7.1385360446295432E-01 
    7.5704394290363874E-01 
    1.2584525732008927E+00 
    1.1877742320404805E+00 
    1.1642449765232121E+00 
    1.2229942656914718E+00 
    1.1196991913069192E+00 
    1.0522164659999376E+00 
    1.0478084091376410E+00 
    1.1060516295689233E+00 
    1.0922945893941389E+00 
    1.0432076837308903E+00 
    1.0384347243837431E+00 
    1.0784451735113618E+00 
    1.1893778603336018E+00 
    1.1409993456001513E+00 
    1.1179824061700698E+00 
    1.1569321076105514E+00 
    9.8538106747364851E-01 
    9.1862973260365377E-01 
    9.3151115331169587E-01 
    9.8979815456640574E-01 
    8.5344663458214776E-01 
    7.9256834974998058E-01 
    8.1728308130390459E-01 
    8.7366693952564844E-01 
    8.9436014063423264E-01 
    8.4433053530627999E-01 
    8.7343007262167904E-01 
    9.1564354053787689E-01 
    9.9401571890180807E-01 
    9.4432290105322447E-01 
    9.5715054733792271E-01 
    9.9809621092202017E-01 
    1.1230883749261960E+00 
    1.0886115271050572E+00 
    1.0526797769133456E+00 
    1.0874513185083112E+00 
    1.0534981648240833E+00 
    1.0179473840180639E+00 
    9.8150381022930677E-01 
    1.0172665934806862E+00 
    9.8048329700680481E-01 
    9.4442521652737665E-01 
    9.0650119303344356E-01 
    9.4281944205995472E-01 
    1.0519359880056032E+00 
    1.0164527536835120E+00 
    9.7937063072338204E-01 
    1.0156323449005504E+00 
    1.3300875480579015E+00 
    1.2750028030756222E+00 
    1.3022963159742713E+00 
    1.3460241296998166E+00 
    1.2315535902182957E+00 
    1.1931480805628956E+00 
    1.2252913549143460E+00 
    1.2623020665987770E+00 
    1.2882822474983966E+00 
    1.2547234833345238E+00 
    1.2808616644685584E+00 
    1.3099256285666865E+00 
    1.3552773269399041E+00 
    1.3221190366907989E+00 
    1.3372320068801817E+00 
    1.3619174303221284E+00 
    1.1589783612028244E+00 
    1.1278359453403008E+00 
    1.1735566699543631E+00 
    1.1958341227897806E+00 
    1.0970199026368381E+00 
    1.0660390478642412E+00 
    1.1306212319755298E+00 
    1.1519949128422358E+00 
    1.2037882485886782E+00 
    1.1914727556079319E+00 
    1.2466334025164487E+00 
    1.2510097492082477E+00 
    1.2305072852119745E+00 
    1.2166817332050932E+00 
    1.2561433989137094E+00 
    1.2622172272216607E+00 
    1.3659071239003517E+00 
    1.3449703378115423E+00 
    1.3489893889646614E+00 
    1.3687538649586641E+00 
    1.3200206084296655E+00 
    1.2916704901867198E+00 
    1.2914245116888963E+00 
    1.3230309297642655E+00 
    1.3270232164716202E+00 
    1.2921987052602701E+00 
    1.2939643049399736E+00 
    1.3320389256331133E+00 
    1.3716723202981491E+00 
    1.3537044344967559E+00 
    1.3590843149705001E+00 
    1.3746248836747581E+00 
    7.5727886627593155E-01 
    7.1415599228962212E-01 
    7.3277479369166532E-01 
    7.7486461130608997E-01 
    6.5678696695660321E-01 
    5.8329878667825252E-01 
    6.1886052241319900E-01 
    6.8145603915011810E-01 
    7.1241618170263599E-01 
    6.5787643832510467E-01 
    6.9861703151103260E-01 
    7.4754535024604118E-01 
    8.0098479344528817E-01 
    7.5949088148999977E-01 
    7.9171878448796762E-01 
    8.3258924450889171E-01 
    4.9119045333053329E-01 
    3.7500150014890499E-01 
    4.8008587059168895E-01 
    5.5035581373757947E-01 
    2.2021070034338919E-01 
    0.0000000000000000E+00 
    3.0136095073953839E-01 
    3.9841472322096227E-01 
    5.2993124754588328E-01 
    4.8975855383445244E-01 
    6.2180165546850130E-01 
    6.3357636442261389E-01 
    6.0773733683964226E-01 
    5.6948031838453261E-01 
    6.4745636433758802E-01 
    6.6274304295242181E-01 
    8.6519306885658409E-01 
    8.1961833698181508E-01 
    8.4195374666952794E-01 
    8.9727290917282254E-01 
    7.7114300905446798E-01 
    7.1829581982597079E-01 
    7.1829477236777195E-01 
    7.8300293930974652E-01 
    7.9685759067844364E-01 
    7.2045464551855765E-01 
    7.2474811005578588E-01 
    8.1220218314056902E-01 
    9.3032356813289008E-01 
    8.6582505890257644E-01 
    8.9048281710901123E-01 
    9.6336477514177876E-01 
    1.3663414418930295E+00 
    1.4366733850918603E+00 
    1.4299576585752298E+00 
    1.3652015997603182E+00 
    1.5042426470806998E+00 
    1.5682554482865356E+00 
    1.5515819431045834E+00 
    1.4922712032293572E+00 
    1.4820836815677554E+00 
    1.5363153451371683E+00 
    1.5221881017458585E+00 
    1.4734492782292310E+00 
    1.3657499883297974E+00 
    1.4251465590962089E+00 
    1.4220439528777156E+00 
    1.3678878176754963E+00 
    1.6267330224096197E+00 
    1.6794731864452423E+00 
    1.6505126741004714E+00 
    1.6040195358826561E+00 
    1.7269905373882755E+00 
    1.7693204901361352E+00 
    1.7357956047211140E+00 
    1.6942096069277655E+00 
    1.6602454158128559E+00 
    1.6985658905259713E+00 
    1.6579969763497369E+00 
    1.6249599389881655E+00 
    1.5822700129407044E+00 
    1.6218179856127897E+00 
    1.5930664117862487E+00 
    1.5611860621855675E+00 
    1.3749966889507970E+00 
    1.4299549499101021E+00 
    1.4501950943228459E+00 
    1.3883217352661439E+00 
    1.4808811216880231E+00 
    1.5284885826084438E+00 
    1.5552624496628196E+00 
    1.5051182258928837E+00 
    1.5317225554992464E+00 
    1.5830607415425317E+00 
    1.6131722649271441E+00 
    1.5626972906451930E+00 
    1.4060314961768234E+00 
    1.4742797535706549E+00 
    1.5056361755765360E+00 
    1.4339603255092421E+00 
    1.2939117188933493E+00 
    1.2206648665784958E+00 
    1.2302964287623479E+00 
    1.2979363386396445E+00 
    1.1472700899176458E+00 
    1.0743086717047925E+00 
    1.0957929899018171E+00 
    1.1627940302794701E+00 
    1.1783832032689576E+00 
    1.1172334462780067E+00 
    1.1387559163844727E+00 
    1.1941404053210014E+00 
    1.3029810905166246E+00 
    1.2403385646872627E+00 
    1.2507692440360840E+00 
    1.3089041915252342E+00 
    1.0037811406903097E+00 
    9.3592152586171651E-01 
    9.7760315737420400E-01 
    1.0341587324254911E+00 
    8.6966261259253175E-01 
    8.0546980362469589E-01 
    8.6644802358163286E-01 
    9.2172092669414329E-01 
    9.7498408882715504E-01 
    9.3045284371544013E-01 
    9.9598071130671695E-01 
    1.0290941383442525E+00 
    1.0645651968725163E+00 
    1.0196858140482952E+00 
    1.0621410800110567E+00 
    1.0951464754966540E+00 
    1.3116342222492670E+00 
    1.2510570715572829E+00 
    1.2394212957440094E+00 
    1.3093272583409152E+00 
    1.1933806939873486E+00 
    1.1376875457316877E+00 
    1.1134257255146893E+00 
    1.1749221929305425E+00 
    1.1550946115067973E+00 
    1.0886964313040333E+00 
    1.0634050185469868E+00 
    1.1334032328468682E+00 
    1.3034317607598835E+00 
    1.2250924297975299E+00 
    1.2064311502573517E+00 
    1.2905191108147853E+00 
    1.4347029120864603E+00 
    1.5058157516660524E+00 
    1.4741828764979845E+00 
    1.4063849065554443E+00 
    1.5619429838562473E+00 
    1.6116396504314958E+00 
    1.5818622625974945E+00 
    1.5310318351090044E+00 
    1.5044848264568689E+00 
    1.5543171662994220E+00 
    1.5277514993667753E+00 
    1.4803301898998840E+00 
    1.3883142971014308E+00 
    1.4499225604343771E+00 
    1.4295852113231999E+00 
    1.3747420284217033E+00 
    1.6564002154116182E+00 
    1.6975977894610208E+00 
    1.6593859303480198E+00 
    1.6237184845547630E+00 
    1.7355229452019274E+00 
    1.7694879832979811E+00 
    1.7269690538846694E+00 
    1.6938327556363968E+00 
    1.6501138433354885E+00 
    1.6793685973670376E+00 
    1.6266145416019449E+00 
    1.6036685665908115E+00 
    1.5920931551334909E+00 
    1.6210944777998386E+00 
    1.5816924154051530E+00 
    1.5604343771725904E+00 
    1.3674776821430994E+00 
    1.4216170902890211E+00 
    1.4247570790635244E+00 
    1.3653363456571135E+00 
    1.4729391086513299E+00 
    1.5215699993304979E+00 
    1.5358274610134932E+00 