# vtk DataFile Version 2.0
Pressure Field Data 
ASCII 
DATASET UNSTRUCTURED_GRID 

POINTS 801 double 

    0.0000000000000000E+00     0.0000000000000000E+00     0.0000000000000000E+00 
    1.0000000000000000E+00     0.0000000000000000E+00     0.0000000000000000E+00 
    1.0000000000000000E+00     1.0000000000000000E+00     0.0000000000000000E+00 
    0.0000000000000000E+00     1.0000000000000000E+00     0.0000000000000000E+00 
    2.5000000000000000E-01     2.5000000000000000E-01     0.0000000000000000E+00 
    7.5000000000000000E-01     2.5000000000000000E-01     0.0000000000000000E+00 
    7.5000000000000000E-01     7.5000000000000000E-01     0.0000000000000000E+00 
    2.5000000000000000E-01     7.5000000000000000E-01     0.0000000000000000E+00 
    2.4999999999941941E-01     0.0000000000000000E+00     0.0000000000000000E+00 
    4.9999999999869399E-01     0.0000000000000000E+00     0.0000000000000000E+00 
    7.4999999999934697E-01     0.0000000000000000E+00     0.0000000000000000E+00 
    1.2499999999977940E-01     0.0000000000000000E+00     0.0000000000000000E+00 
    3.7499999999905670E-01     0.0000000000000000E+00     0.0000000000000000E+00 
    6.2499999999902045E-01     0.0000000000000000E+00     0.0000000000000000E+00 
    8.7499999999967348E-01     0.0000000000000000E+00     0.0000000000000000E+00 
    6.2499999999889699E-02     0.0000000000000000E+00     0.0000000000000000E+00 
    1.8749999999959940E-01     0.0000000000000000E+00     0.0000000000000000E+00 
    3.1249999999923811E-01     0.0000000000000000E+00     0.0000000000000000E+00 
    4.3749999999887529E-01     0.0000000000000000E+00     0.0000000000000000E+00 
    5.6249999999885725E-01     0.0000000000000000E+00     0.0000000000000000E+00 
    6.8749999999918376E-01     0.0000000000000000E+00     0.0000000000000000E+00 
    8.1249999999951017E-01     0.0000000000000000E+00     0.0000000000000000E+00 
    9.3749999999983680E-01     0.0000000000000000E+00     0.0000000000000000E+00 
    1.0000000000000000E+00     2.4999999999941941E-01     0.0000000000000000E+00 
    1.0000000000000000E+00     4.9999999999869399E-01     0.0000000000000000E+00 
    1.0000000000000000E+00     7.4999999999934697E-01     0.0000000000000000E+00 
    1.0000000000000000E+00     1.2499999999977940E-01     0.0000000000000000E+00 
    1.0000000000000000E+00     3.7499999999905670E-01     0.0000000000000000E+00 
    1.0000000000000000E+00     6.2499999999902045E-01     0.0000000000000000E+00 
    1.0000000000000000E+00     8.7499999999967348E-01     0.0000000000000000E+00 
    1.0000000000000000E+00     6.2499999999889699E-02     0.0000000000000000E+00 
    1.0000000000000000E+00     1.8749999999959940E-01     0.0000000000000000E+00 
    1.0000000000000000E+00     3.1249999999923811E-01     0.0000000000000000E+00 
    1.0000000000000000E+00     4.3749999999887529E-01     0.0000000000000000E+00 
    1.0000000000000000E+00     5.6249999999885725E-01     0.0000000000000000E+00 
    1.0000000000000000E+00     6.8749999999918376E-01     0.0000000000000000E+00 
    1.0000000000000000E+00     8.1249999999951017E-01     0.0000000000000000E+00 
    1.0000000000000000E+00     9.3749999999983680E-01     0.0000000000000000E+00 
    7.5000000000112044E-01     1.0000000000000000E+00     0.0000000000000000E+00 
    5.0000000000205913E-01     1.0000000000000000E+00     0.0000000000000000E+00 
    2.5000000000102962E-01     1.0000000000000000E+00     0.0000000000000000E+00 
    8.7499999999991362E-01     1.0000000000000000E+00     0.0000000000000000E+00 
    6.2499999999988309E-01     1.0000000000000000E+00     0.0000000000000000E+00 
    3.7499999999869987E-01     1.0000000000000000E+00     0.0000000000000000E+00 
    1.2499999999880820E-01     1.0000000000000000E+00     0.0000000000000000E+00 
    9.3749999999995681E-01     1.0000000000000000E+00     0.0000000000000000E+00 
    8.1250000000051703E-01     1.0000000000000000E+00     0.0000000000000000E+00 
    6.8750000000050182E-01     1.0000000000000000E+00     0.0000000000000000E+00 
    5.6250000000097111E-01     1.0000000000000000E+00     0.0000000000000000E+00 
    4.3750000000037947E-01     1.0000000000000000E+00     0.0000000000000000E+00 
    3.1249999999986477E-01     1.0000000000000000E+00     0.0000000000000000E+00 
    1.8749999999991890E-01     1.0000000000000000E+00     0.0000000000000000E+00 
    6.2499999999404102E-02     1.0000000000000000E+00     0.0000000000000000E+00 
    0.0000000000000000E+00     7.5000000000112044E-01     0.0000000000000000E+00 
    0.0000000000000000E+00     5.0000000000205913E-01     0.0000000000000000E+00 
    0.0000000000000000E+00     2.5000000000102962E-01     0.0000000000000000E+00 
    0.0000000000000000E+00     8.7499999999991362E-01     0.0000000000000000E+00 
    0.0000000000000000E+00     6.2499999999988309E-01     0.0000000000000000E+00 
    0.0000000000000000E+00     3.7499999999869987E-01     0.0000000000000000E+00 
    0.0000000000000000E+00     1.2499999999880820E-01     0.0000000000000000E+00 
    0.0000000000000000E+00     9.3749999999995681E-01     0.0000000000000000E+00 
    0.0000000000000000E+00     8.1250000000051703E-01     0.0000000000000000E+00 
    0.0000000000000000E+00     6.8750000000050182E-01     0.0000000000000000E+00 
    0.0000000000000000E+00     5.6250000000097111E-01     0.0000000000000000E+00 
    0.0000000000000000E+00     4.3750000000037947E-01     0.0000000000000000E+00 
    0.0000000000000000E+00     3.1249999999986477E-01     0.0000000000000000E+00 
    0.0000000000000000E+00     1.8749999999991890E-01     0.0000000000000000E+00 
    0.0000000000000000E+00     6.2499999999404102E-02     0.0000000000000000E+00 
    4.9999999999972200E-01     2.5000000000000000E-01     0.0000000000000000E+00 
    3.7500000000067490E-01     2.5000000000000000E-01     0.0000000000000000E+00 
    6.2500000000042988E-01     2.5000000000000000E-01     0.0000000000000000E+00 
    3.1250000000033751E-01     2.5000000000000000E-01     0.0000000000000000E+00 
    4.3750000000019851E-01     2.5000000000000000E-01     0.0000000000000000E+00 
    5.6250000000007594E-01     2.5000000000000000E-01     0.0000000000000000E+00 
    6.8750000000021494E-01     2.5000000000000000E-01     0.0000000000000000E+00 
    7.5000000000000000E-01     4.9999999999972200E-01     0.0000000000000000E+00 
    7.5000000000000000E-01     3.7500000000067490E-01     0.0000000000000000E+00 
    7.5000000000000000E-01     6.2500000000042988E-01     0.0000000000000000E+00 
    7.5000000000000000E-01     3.1250000000033751E-01     0.0000000000000000E+00 
    7.5000000000000000E-01     4.3750000000019851E-01     0.0000000000000000E+00 
    7.5000000000000000E-01     5.6250000000007594E-01     0.0000000000000000E+00 
    7.5000000000000000E-01     6.8750000000021494E-01     0.0000000000000000E+00 
    5.0000000000118039E-01     7.5000000000000000E-01     0.0000000000000000E+00 
    6.2500000000161415E-01     7.5000000000000000E-01     0.0000000000000000E+00 
    3.7500000000140910E-01     7.5000000000000000E-01     0.0000000000000000E+00 
    6.8750000000080713E-01     7.5000000000000000E-01     0.0000000000000000E+00 
    5.6250000000139733E-01     7.5000000000000000E-01     0.0000000000000000E+00 
    4.3750000000129469E-01     7.5000000000000000E-01     0.0000000000000000E+00 
    3.1250000000070460E-01     7.5000000000000000E-01     0.0000000000000000E+00 
    2.5000000000000000E-01     5.0000000000118039E-01     0.0000000000000000E+00 
    2.5000000000000000E-01     6.2500000000161415E-01     0.0000000000000000E+00 
    2.5000000000000000E-01     3.7500000000140910E-01     0.0000000000000000E+00 
    2.5000000000000000E-01     6.8750000000080713E-01     0.0000000000000000E+00 
    2.5000000000000000E-01     5.6250000000139733E-01     0.0000000000000000E+00 
    2.5000000000000000E-01     4.3750000000129469E-01     0.0000000000000000E+00 
    2.5000000000000000E-01     3.1250000000070460E-01     0.0000000000000000E+00 
    3.7499999999934702E-01     1.2500000000000000E-01     0.0000000000000000E+00 
    1.2500000000000000E-01     1.2500000000000000E-01     0.0000000000000000E+00 
    1.2500000000000000E-01     3.7500000000102962E-01     0.0000000000000000E+00 
    8.7500000000000000E-01     1.2500000000000000E-01     0.0000000000000000E+00 
    6.2499999999934697E-01     1.2500000000000000E-01     0.0000000000000000E+00 
    8.7500000000000000E-01     3.7499999999934702E-01     0.0000000000000000E+00 
    8.7500000000000000E-01     6.2499999999934697E-01     0.0000000000000000E+00 
    1.2500000000000000E-01     6.2500000000102962E-01     0.0000000000000000E+00 
    1.2500000000000000E-01     8.7500000000000000E-01     0.0000000000000000E+00 
    8.7500000000000000E-01     8.7500000000000000E-01     0.0000000000000000E+00 
    6.2500000000102962E-01     8.7500000000000000E-01     0.0000000000000000E+00 
    3.7500000000102962E-01     8.7500000000000000E-01     0.0000000000000000E+00 
    2.4999999999957681E-01     8.3333333333333329E-02     0.0000000000000000E+00 
    8.3333333333333329E-02     2.5000000000068640E-01     0.0000000000000000E+00 
    7.4999999999956468E-01     8.3333333333333329E-02     0.0000000000000000E+00 
    4.9999999999951827E-01     1.6666666666666671E-01     0.0000000000000000E+00 
    9.1666666666666674E-01     2.4999999999957681E-01     0.0000000000000000E+00 
    8.3333333333333337E-01     4.9999999999951827E-01     0.0000000000000000E+00 
    1.6666666666666671E-01     5.0000000000088307E-01     0.0000000000000000E+00 
    8.3333333333333329E-02     7.5000000000070155E-01     0.0000000000000000E+00 
    9.1666666666666674E-01     7.4999999999956468E-01     0.0000000000000000E+00 
    5.0000000000088307E-01     8.3333333333333348E-01     0.0000000000000000E+00 
    2.5000000000068640E-01     9.1666666666666674E-01     0.0000000000000000E+00 
    7.5000000000070155E-01     9.1666666666666674E-01     0.0000000000000000E+00 
[...]
CELL_DATA 768 
SCALARS Pressure double 1 
LOOKUP_TABLE default 

    2.4321612270153685E+00 
    2.3379720061375311E+00 
    2.3074122421154835E+00 
    2.3653684115751350E+00 
    2.2754559075554850E+00 
    2.2266145925651584E+00 
    2.2222338823444270E+00 
    2.2618576033171802E+00 
    2.2477282165345414E+00 
    2.2169057113939541E+00 
    2.2107957730604393E+00 
    2.2334209069685795E+00 
    2.3153938152203191E+00 
    2.2800403945066972E+00 
    2.2552201297718399E+00 
    2.2761880684415141E+00 
    2.1823726313344873E+00 
    2.1390988190927152E+00 
    2.1472460088588514E+00 
    2.1844869335914927E+00 
    2.0949016732458876E+00 
    2.0488845791330519E+00 
    2.0702690854895889E+00 
    2.1094315306860887E+00 
    2.1231220315814543E+00 
    2.0907735121469608E+00 
    2.1100601948230922E+00 
    2.1357270153544277E+00 
    2.1857377596990983E+00 
    2.1545753314831879E+00 
    2.1609298230967879E+00 
    2.1861248787076013E+00 
    2.2429746843458669E+00 
    2.2294231160389884E+00 
    2.2039810289501083E+00 
    2.2143163853613825E+00 
    2.2135021174430412E+00 
    2.1956114298900431E+00 
    2.1730986973600595E+00 
    2.1900048296616919E+00 
    2.1680079057405783E+00 
    2.1510834708500250E+00 
    2.1290756269770887E+00 
    2.1469149464451873E+00 
    2.1901077258221560E+00 
    2.1813825824767621E+00 
    2.1612290110393957E+00 
    2.1705082340245148E+00 
    2.4322062026151579E+00 
    2.3654273481119290E+00 
    2.3076129634023506E+00 
    2.3381647690282441E+00 
    2.3154635985575247E+00 
    2.2762565708214515E+00 
    2.2554001934193431E+00 
    2.2802316449199749E+00 
    2.2480079397779700E+00 
    2.2336513511749194E+00 
    2.2110395477617262E+00 
    2.2172004472157734E+00 
    2.2757647742652116E+00 
    2.2621556588730991E+00 
    2.2225706883560394E+00 
    2.2269626011729735E+00 
    2.2430426742786360E+00 
    2.2143656422656526E+00 
    2.2040884654446025E+00 
    2.2295844466410162E+00 
    2.1901104001742224E+00 
    2.1705031200519023E+00 
    2.1611543992315894E+00 
    2.1813927392839148E+00 
    2.1679587047286919E+00 
    2.1466675493398131E+00 
    2.1286450061148239E+00 
    2.1509100645692083E+00 
    2.2136913229017057E+00 
    2.1900962988169392E+00 
    2.1731280880706856E+00 
    2.1957751502744709E+00 
    2.1826167207546479E+00 
    2.1847184243813040E+00 
    2.1471998212692260E+00 
    2.1390019751795748E+00 
    2.1859356017967539E+00 
    2.1862715946220206E+00 
    2.1608948801048813E+00 
    2.1545323594514425E+00 
    2.1227785726351982E+00 
    2.1354360481555030E+00 
    2.1094648802425424E+00 
    2.0901032111681226E+00 
    2.0944262115823622E+00 
    2.1090279625559640E+00 
    2.0695577665830043E+00 
    2.0481333182736141E+00 
    1.9739927145863676E+00 
    1.9231029924384551E+00 
    1.9054048186790704E+00 
    1.9498582732365792E+00 
    1.8722315608741975E+00 
    1.8234674026968023E+00 
    1.8191983772763241E+00 
    1.8612965133686816E+00 
    1.8491628894709808E+00 
    1.8136679653682368E+00 
    1.8067800131224570E+00 
    1.8355186808665902E+00 
    1.9246523593209783E+00 
    1.8865911111073721E+00 
    1.8661894053142820E+00 
    1.8978464848425314E+00 
    1.7795266569336037E+00 
    1.7431932163055792E+00 
    1.7473443226420917E+00 
    1.7806858836348043E+00 
    1.7169542172665992E+00 
    1.7017948441453761E+00 
    1.7036903340077616E+00 
    1.7213317004821322E+00 
    1.7241298062302599E+00 
    1.7042267689950295E+00 
    1.7037986639807221E+00 
    1.7255415308830682E+00 
    1.7804500662682716E+00 
    1.7498195123225628E+00 
    1.7508397205561952E+00 
    1.7788564678812919E+00 
    1.8668362391737450E+00 
    1.8383175240627343E+00 
    1.8017229201180014E+00 
    1.8299292595049255E+00 
    1.8117607292505284E+00 
    1.7878988974972621E+00 
    1.7586779074333589E+00 
    1.7780659393647760E+00 
    1.7426270114445923E+00 
    1.7303241561837328E+00 
    1.7038722298322491E+00 
    1.7063947781525670E+00 
    1.7854270816089737E+00 
    1.7599513250375654E+00 
    1.7118207922202850E+00 
    1.7251469157084343E+00 
    2.0119273193415577E+00 
    1.9850226115539371E+00 
    2.0109192170583783E+00 
    2.0372127812596093E+00 
    1.9570564635726357E+00 
    1.9277059830949681E+00 
    1.9553716690197647E+00 
    1.9836955429205667E+00 
    2.0098323407392233E+00 
    1.9825651357322631E+00 
    2.0090110973631310E+00 
    2.0352268846653310E+00 
    2.0616400187086188E+00 
    2.0361663291454692E+00 
    2.0605371445666836E+00 
    2.0849894046807580E+00 
    1.8983268460695335E+00 
    1.8687924652542105E+00 
    1.9110588507017838E+00 
    1.9309779636438984E+00 
    1.8368965985493986E+00 
    1.8018741682376893E+00 
    1.8688666304686274E+00 
    1.8903707504165057E+00 
    1.9397270578305561E+00 
    1.9281007562525483E+00 
    1.9821628102306761E+00 
    1.9858255347724425E+00 
    1.9627671050810718E+00 
    1.9513202364360009E+00 
    1.9896300636460591E+00 
    1.9934945685493992E+00 
    2.1054121036019922E+00 
    2.0792325741549846E+00 
    2.0927124964279851E+00 
    2.1228369518411578E+00 
    2.0518096659431242E+00 
    2.0231269846469022E+00 
    2.0258509623098200E+00 
    2.0603296325733735E+00 
    2.0687288719947423E+00 
    2.0286514691383863E+00 
    2.0315414413450421E+00 
    2.0770340194440333E+00 
    2.1386085918609434E+00 
    2.1055595508805487E+00 
    2.1178120112026568E+00 
    2.1525828318836107E+00 
    1.6980457916085423E+00 
    1.6791355236882257E+00 
    1.6722783447719332E+00 
    1.6941430859508604E+00 
    1.6459995295304148E+00 
    1.5994811733101986E+00 
    1.5973536505740780E+00 
    1.6397341966178924E+00 
    1.6344771464235945E+00 
    1.5963392993527497E+00 
    1.5964912342096782E+00 
    1.6304221549961737E+00 
    1.6897677701575391E+00 
    1.6659057646337290E+00 
    1.6603221665227166E+00 
    1.6853838476911693E+00 
    1.5429907256114936E+00 
    1.4778650106627345E+00 
    1.4925161603520158E+00 
    1.5483229899768129E+00 
    1.4065984974286545E+00 
    1.3306304223944325E+00 
    1.3672864413066468E+00 
    1.4318261735569220E+00 
    1.4571193401728735E+00 
    1.4035083772640013E+00 
    1.4400475608584458E+00 
    1.4832670688764167E+00 
    1.5544052245911193E+00 
    1.5077617500834737E+00 
    1.5240224028787586E+00 
    1.5615028603756278E+00 
    1.6797095479369599E+00 
    1.6504240122762006E+00 
    1.6320985306474425E+00 
    1.6712092915208763E+00 
    1.6180213461720230E+00 
    1.5835419353682481E+00 
    1.5525704483260705E+00 
    1.5922154038580696E+00 
    1.5614719647201656E+00 
    1.5179421206979027E+00 
    1.4802216436943569E+00 
    1.5253142743233932E+00 
    1.6598587675679612E+00 
    1.6085209925513293E+00 
    1.5762909807114645E+00 
    1.6409739853762899E+00 
    1.5563968904275678E+00 
    1.5151035931345265E+00 
    1.4464244223289229E+00 
    1.4739309919863295E+00 
    1.4758211855343379E+00 
    1.4377881652100974E+00 
    1.3921170253501214E+00 
    1.4191909473882538E+00 
    1.3620485529072655E+00 
    1.3455440293236689E+00 
    1.2980588485969622E+00 
    1.3039358240439134E+00 
    1.3944476910172476E+00 
    1.3783079119265542E+00 
    1.3095796465751479E+00 
    1.3149801169589295E+00 
    1.3979841371482451E+00 
    1.3560112704945220E+00 
    1.3146787689921031E+00 
    1.3574057436546649E+00 
    1.3140433762167232E+00 
    1.2701239095069750E+00 
    1.2256658532160538E+00 
    1.2710958675249284E+00 
    1.2274173052972548E+00 
    1.1810012556680425E+00 
    1.1365657145078076E+00 
    1.1834817380593594E+00 
    1.3157905162655656E+00 
    1.2721787315416078E+00 
    1.2290002236101729E+00 
    1.2732730437177471E+00 
    1.2347418045166965E+00 
    1.2398606487576551E+00 
    1.1685191906094838E+00 
    1.1527691099461146E+00 
    1.2447305880388184E+00 
    1.2494023002549375E+00 
    1.1994437699041849E+00 
    1.1839653588800994E+00 
    1.1224286261578464E+00 
    1.1483150075904802E+00 
    1.0960646618195289E+00 
    1.0606005988893634E+00 
    1.0723422889144016E+00 
    1.0971205711699648E+00 
    1.0277746252100064E+00 
    9.9792350766353433E-01 
    2.1526401534542572E+00 
    2.1172756317582575E+00 
    2.1047834173448110E+00 
    2.1383424049753845E+00 
    2.0756740601904493E+00 
    2.0294342636240037E+00 
    2.0266931321035084E+00 
    2.0673077293060564E+00 
    2.0588923052421850E+00 
    2.0240351179692264E+00 
    2.0214501523617923E+00 
    2.0503900852909469E+00 
    2.1223105926522257E+00 
    2.0917533217619044E+00 
    2.0781534692751529E+00 
    2.1046774687046956E+00 
    1.9800585409893339E+00 
    1.9267746794503342E+00 
    1.9383467479340755E+00 
    1.9838762115419322E+00 
    1.8684721006628240E+00 
    1.8019171566777470E+00 
    1.8366788546386528E+00 
    1.8896917002727560E+00 
    1.9101905786034523E+00 
    1.8683303795677737E+00 
    1.8976825199398877E+00 
    1.9300181915837227E+00 
    1.9878115523625555E+00 
    1.9499215644767844E+00 
    1.9614106304056469E+00 
    1.9918221519388817E+00 
    2.0840913904388043E+00 
    2.0593397061186578E+00 
    2.0349977495169105E+00 
    2.0607275215661121E+00 
    2.0337882442126483E+00 
    2.0074353677258512E+00 
    1.9812248211974601E+00 
    2.0085329546008404E+00 
    1.9826011575991480E+00 
    1.9543455904689524E+00 
    1.9269115805150856E+00 
    1.9561452168917606E+00 
    2.0363272831701895E+00 
    2.0099001391800004E+00 
    1.9841043958286890E+00 
    2.0110891762301732E+00 
    1.9731868111078519E+00 
    1.9490452205897963E+00 
    1.9047378111930080E+00 
    1.9224088047320951E+00 
    1.9238998620046650E+00 
    1.8972357836546179E+00 
    1.8657214645538214E+00 
    1.8859958847811313E+00 
    1.8486692862997935E+00 
    1.8351044102096223E+00 
    1.8063468487741692E+00 
    1.8131259187254869E+00 
    1.8716255002678925E+00 
    1.8607159018222419E+00 
    1.8185603285273193E+00 
    1.8227565096621188E+00 
    1.8664002018513111E+00 
    1.8296890324134494E+00 
    1.8015376070187317E+00 
    1.8379719380336890E+00 
    1.7853299620497813E+00 
    1.7250631249960362E+00 
    1.7117590994255940E+00 
    1.7598492485525334E+00 
    1.7424591170046344E+00 
    1.7062643857556590E+00 
    1.7035525347905860E+00 
    1.7299810953335686E+00 
    1.8114343198612937E+00 
    1.7778387923350938E+00 
    1.7583284657853548E+00 
    1.7875137558365355E+00 
    1.7786788065182833E+00 
    1.7799185046317190E+00 
    1.7463258616502368E+00 
    1.7420093211078584E+00 
    1.7797869289149983E+00 
    1.7783182835030176E+00 
    1.7502475999987728E+00 
    1.7489982647716968E+00 
    1.7231633381086862E+00 
    1.7248721616534590E+00 
    1.7031104349518600E+00 
    1.7032250944458687E+00 
    1.7155775369759179E+00 
    1.7201324014202140E+00 
    1.7024128250335784E+00 
    1.7003830701644145E+00 
    1.2059966214564861E+00 
    1.1151667374830931E+00 
    1.0848353476657633E+00 
    1.1653347207608167E+00 
    1.0172288311389699E+00 
    9.0894117708326017E-01 
    9.0407840779481086E-01 
    9.9868997624058842E-01 
    9.8218764062500796E-01 
    9.0210518132468964E-01 
    9.0285104055336729E-01 
    9.6822435577738786E-01 
    1.1246169201421168E+00 
    1.0556409667494537E+00 
    1.0284987479265433E+00 
    1.0852411915489057E+00 
    7.8378407384724347E-01 
    6.2231897844862649E-01 
    6.7205474339103999E-01 
    7.9839077476355558E-01 
    3.8586511170980786E-01 
    0.0000000000000000E+00 
    2.8418057586875362E-01 
    5.0916427569104361E-01 
    6.1081800502372852E-01 
    4.7919777506453876E-01 
    6.2493542721598105E-01 
    6.9819574676530627E-01 
    8.1588785977960676E-01 
    7.2095136962851936E-01 
    7.6834150584943905E-01 
    8.3514461394317829E-01 
    1.0453673915088877E+00 
    9.9457075614566515E-01 
    9.5569205648955768E-01 
    1.0070815338432411E+00 
    9.3980806540706907E-01 
    8.7942453131497855E-01 
    8.3026226519777568E-01 
    8.9753922712797540E-01 
    8.6058030686474429E-01 
    7.8318938042229769E-01 
    7.3999782472542008E-01 
    8.3124788036596020E-01 
    9.7582974768578523E-01 
    9.2397766616112720E-01 
    9.0213842465999028E-01 
    9.5528201777855015E-01 
    1.5563986774696101E+00 
    1.4728175717238703E+00 
    1.4449170936695792E+00 
    1.5145870149691760E+00 
    1.3918932561988202E+00 
    1.3112557388613981E+00 
    1.3059197699743568E+00 
    1.3756090227935547E+00 
    1.3591738609740249E+00 
    1.3003551891366183E+00 
    1.2945833642195479E+00 
    1.3425991104882637E+00 
    1.4748315821397155E+00 
    1.4172992136728308E+00 
    1.3898906668517541E+00 
    1.4363442304387961E+00 
    1.2307989114696269E+00 
    1.1500816371716200E+00 
    1.1656282046821780E+00 
    1.2360948178202493E+00 
    1.0711452936322243E+00 
    9.9773574523607278E-01 
    1.0273111056982345E+00 
    1.0955360292021279E+00 
    1.1204765705338569E+00 
    1.0597696339494911E+00 
    1.0948046469365091E+00 
    1.1461270662932812E+00 
    1.2411458060277125E+00 
    1.1810590630922477E+00 
    1.1964883115823099E+00 
    1.2460100382517270E+00 
    1.3960930954235640E+00 
    1.3548353602603083E+00 
    1.3118245003117308E+00 
    1.3536738352794035E+00 
    1.3126922395121854E+00 
    1.2699153848619651E+00 
    1.2258936231831397E+00 
    1.2690913135216699E+00 
    1.2246407204220184E+00 
    1.1809292936904376E+00 
    1.1347838307186717E+00 
    1.1788190033109900E+00 
    1.3114647135234554E+00 
    1.2683455367412888E+00 
    1.2232540879054528E+00 
    1.2676006363475909E+00 
    1.6408642863883474E+00 
    1.5760898733073512E+00 
    1.6085074317956127E+00 
    1.6598326635293794E+00 
    1.5248767650590227E+00 
    1.4794553548721943E+00 
    1.5177125578048656E+00 
    1.5614220321374641E+00 
    1.5923729427149613E+00 
    1.5527556065439836E+00 
    1.5839237441903946E+00 
    1.6182764287969789E+00 
    1.6711650582795752E+00 
    1.6322184101746759E+00 
    1.6504905763973881E+00 
    1.6795365007491427E+00 
    1.4389279357893032E+00 
    1.4019408691094146E+00 
    1.4565278376274935E+00 
    1.4828662051444879E+00 
    1.3652319919438729E+00 
    1.3281723702903532E+00 
    1.4052706294658599E+00 
    1.4308786870374581E+00 
    1.4926274856631108E+00 
    1.4778010160328741E+00 
    1.5437462839784808E+00 
    1.5490406705026374E+00 
    1.5241765422993228E+00 
    1.5079406917659155E+00 
    1.5550344573583510E+00 
    1.5619826499912643E+00 
    1.6848916957388795E+00 
    1.6601788350486084E+00 
    1.6655741141535110E+00 
    1.6889839008745722E+00 
    1.6306292543733962E+00 
    1.5969785570411454E+00 
    1.5969488177668041E+00 
    1.6346764596237964E+00 
    1.6398500913702565E+00 
    1.5980810575198861E+00 
    1.6002773309435474E+00 
    1.6460308468621414E+00 
    1.6930617620921271E+00 
    1.6717327526312638E+00 
    1.6783753982793630E+00 
    1.6967551354739137E+00 
    9.5528984581732546E-01 
    9.0232530175828762E-01 
    9.2457194363960093E-01 
    9.7598918146876801E-01 
    8.3160353486672434E-01 
    7.4044328200827836E-01 
    7.8441832613577189E-01 
    8.6159770651412093E-01 
    8.9898097744983774E-01 
    8.3211614002407908E-01 
    8.8151015462845017E-01 
    9.4129493540592601E-01 
    1.0071570308683502E+00 
    9.5654683507171245E-01 
    9.9523604468879190E-01 
    1.0450925494566248E+00 
    6.2536283322187414E-01 
    4.7944360762765953E-01 
    6.1212000797343880E-01 
    6.9953368180066267E-01 
    2.8400743841839410E-01 
    0.0000000000000000E+00 
    3.8596185935515293E-01 
    5.0996360975573385E-01 
    6.7425029052905094E-01 
    6.2398853891318673E-01 
    7.8657787333072682E-01 
    8.0124382632687563E-01 
    7.7044462216102627E-01 
    7.2321710034921072E-01 
    8.1861255174139147E-01 
    8.3757288192903490E-01 
    1.0844224610976529E+00 
    1.0287652963129497E+00 
    1.0556440086532637E+00 
    1.1233322197674136E+00 
    9.6954930496016767E-01 
    9.0499113859410174E-01 
    9.0446373937075597E-01 
    9.8356318493379580E-01 
    1.0000696944631344E+00 
    9.0663307276686333E-01 
    9.1157695480225498E-01 
    1.0184956239363454E+00 
    1.1635808874465077E+00 
    1.0845089076873360E+00 
    1.1144426474107871E+00 
    1.2038670027443232E+00 
    1.6792460801162388E+00 
    1.7614675967317908E+00 
    1.7538269033643321E+00 
    1.6781680112539472E+00 
    1.8402893941591603E+00 
    1.9147819643561448E+00 
    1.8955478867309519E+00 
    1.8265068559670679E+00 
    1.8149103704780589E+00 
    1.8780284913671335E+00 
    1.8618989732990865E+00 
    1.8052152791661991E+00 
    1.6792403295533198E+00 
    1.7485469164875089E+00 
    1.7453814156652432E+00 
    1.6823264818049446E+00 
    1.9826348397202820E+00 
    2.0436158383415117E+00 
    2.0104016582939499E+00 
    1.9564730916961781E+00 
    2.0983046548426660E+00 
    2.1464469089036924E+00 
    2.1085858183201873E+00 
    2.0609457363889008E+00 
    2.0222219234650609E+00 
    2.0663684853966249E+00 
    2.0201110493844112E+00 
    1.9818864775765543E+00 
    1.9314883658216324E+00 
    1.9775315404764624E+00 
    1.9445894610467422E+00 
    1.9073148644787736E+00 
    1.6913241993873123E+00 
    1.7551220805914105E+00 
    1.7792154421352626E+00 
    1.7076085542694983E+00 
    1.8142718664333988E+00 
    1.8695457019288615E+00 
    1.9009931553026551E+00 
    1.8428848308533159E+00 
    1.8742576121376997E+00 
    1.9336527126363077E+00 
    1.9685591688217696E+00 
    1.9100532492596265E+00 
    1.7289954395106670E+00 
    1.8077503449365098E+00 
    1.8437201700635621E+00 
    1.7607929582207444E+00 
    1.5942975227729397E+00 
    1.5082507751634335E+00 
    1.5196957786335343E+00 
    1.5991481856159511E+00 
    1.4217898812758665E+00 
    1.3355653624627382E+00 
    1.3610733412174785E+00 
    1.4402041886922385E+00 
    1.4588563301051587E+00 
    1.3866593103781932E+00 
    1.4124532029432937E+00 
    1.4778524800320199E+00 
    1.6053962023711086E+00 
    1.5318097135384809E+00 
    1.5445512201469509E+00 
    1.6128619198256768E+00 
    1.2519168790259141E+00 
    1.1711251161573717E+00 
    1.2209143168343561E+00 
    1.2880724207420626E+00 
    1.0919044983911619E+00 
    1.0149138073398198E+00 
    1.0883052649251175E+00 
    1.1543301732522917E+00 
    1.2183331811186138E+00 
    1.1655285412158971E+00 
    1.2444923263754089E+00 
    1.2833439946996759E+00 
    1.3243758791384199E+00 
    1.2713011631947244E+00 
    1.3221870971513101E+00 
    1.3609703625731415E+00 
    1.6167531232339465E+00 
    1.5455138142784961E+00 
    1.5326237843180910E+00 
    1.6149250486885058E+00 
    1.4774893065945192E+00 
    1.4116199113976906E+00 
    1.3834120637454721E+00 
    1.4563695605317812E+00 
    1.4337689312009154E+00 
    1.3547132392213324E+00 
    1.3255007051714693E+00 
    1.4092264685777527E+00 
    1.6091167717727235E+00 
    1.5167735852155257E+00 
    1.4962059383999828E+00 
    1.5954039370103945E+00 
    1.7607942469050630E+00 
    1.8432973053762929E+00 
    1.8070468555208183E+00 
    1.7286047861825040E+00 
    1.9087568713926757E+00 
    1.9664919546695179E+00 
    1.9319612913689559E+00 
    1.8730369921879810E+00 
    1.8417446795220567E+00 
    1.8995943830328588E+00 
    1.8683965668946827E+00 
    1.8132539371343752E+00 
    1.7068863724566161E+00 
    1.7783552602909443E+00 
    1.7542078909441408E+00 
    1.6904166024473894E+00 
    2.0180281921120913E+00 
    2.0650274927989134E+00 
    2.0210329794379351E+00 
    1.9802125784920739E+00 
    2.1080791596978639E+00 
    2.1465170078875793E+00 
    2.0982049381311141E+00 
    2.0603633978398741E+00 
    2.0098211645549191E+00 
    2.0434452066237792E+00 
    1.9824603784735160E+00 
    1.9559633053452465E+00 
    1.9432278578970024E+00 
    1.9765166903377906E+00 
    1.9306530111176812E+00 
    1.9062144845914721E+00 
    1.6813596595694515E+00 
    1.7444914660023922E+00 
    1.7478114340549005E+00 
    1.6784046283128831E+00 
    1.8043095487187708E+00 
    1.8609326865230100E+00 
    1.8772846320670489E+00 