# vtk DataFile Version 2.0
Pressure Field Data 
ASCII 
DATASET UNSTRUCTURED_GRID 

POINTS 801 double 

    0.0000000000000000E+00     0.0000000000000000E+00     0.0000000000000000E+00 
    1.0000000000000000E+00     0.0000000000000000E+00     0.0000000000000000E+00 
    1.0000000000000000E+00     1.0000000000000000E+00     0.0000000000000000E+00 
    0.0000000000000000E+00     1.0000000000000000E+00     0.0000000000000000E+00 
    2.5000000000000000E-01     2.5000000000000000E-01     0.0000000000000000E+00 
    7.5000000000000000E-01     2.5000000000000000E-01     0.0000000000000000E+00 
    7.5000000000000000E-01     7.5000000000000000E-01     0.0000000000000000E+00 
    2.5000000000000000E-01     7.5000000000000000E-01     0.0000000000000000E+00 
    2.4999999999941941E-01     0.0000000000000000E+00     0.0000000000000000E+00 
    4.9999999999869399E-01     0.0000000000000000E+00     0.0000000000000000E+00 
    7.4999999999934697E-01     0.0000000000000000E+00     0.0000000000000000E+00 
    1.2499999999977940E-01     0.0000000000000000E+00     0.0000000000000000E+00 
    3.7499999999905670E-01     0.0000000000000000E+00     0.0000000000000000E+00 
    6.2499999999902045E-01     0.0000000000000000E+00     0.0000000000000000E+00 
    8.7499999999967348E-01     0.0000000000000000E+00     0.0000000000000000E+00 
    6.2499999999889699E-02     0.0000000000000000E+00     0.0000000000000000E+00 
    1.8749999999959940E-01     0.0000000000000000E+00     0.0000000000000000E+00 
    3.1249999999923811E-01     0.0000000000000000E+00     0.0000000000000000E+00 
    4.3749999999887529E-01     0.0000000000000000E+00     0.0000000000000000E+00 
    5.6249999999885725E-01     0.0000000000000000E+00     0.0000000000000000E+00 
    6.8749999999918376E-01     0.0000000000000000E+00     0.0000000000000000E+00 
    8.1249999999951017E-01     0.0000000000000000E+00     0.0000000000000000E+00 
    9.3749999999983680E-01     0.0000000000000000E+00     0.0000000000000000E+00 
    1.0000000000000000E+00     2.4999999999941941E-01     0.0000000000000000E+00 
    1.0000000000000000E+00     4.9999999999869399E-01     0.0000000000000000E+00 
    1.0000000000000000E+00     7.4999999999934697E-01     0.0000000000000000E+00 
    1.0000000000000000E+00     1.2499999999977940E-01     0.0000000000000000E+00 
    1.0000000000000000E+00     3.7499999999905670E-01     0.0000000000000000E+00 
    1.0000000000000000E+00     6.2499999999902045E-01     0.0000000000000000E+00 
    1.0000000000000000E+00     8.7499999999967348E-01     0.0000000000000000E+00 
    1.0000000000000000E+00     6.2499999999889699E-02     0.0000000000000000E+00 
    1.0000000000000000E+00     1.8749999999959940E-01     0.0000000000000000E+00 
    1.0000000000000000E+00     3.1249999999923811E-01     0.0000000000000000E+00 
    1.0000000000000000E+00     4.3749999999887529E-01     0.0000000000000000E+00 
    1.0000000000000000E+00     5.6249999999885725E-01     0.0000000000000000E+00 
    1.0000000000000000E+00     6.8749999999918376E-01     0.0000000000000000E+00 
    1.0000000000000000E+00     8.1249999999951017E-01     0.0000000000000000E+00 
    1.0000000000000000E+00     9.3749999999983680E-01     0.0000000000000000E+00 
    7.5000000000112044E-01     1.0000000000000000E+00     0.0000000000000000E+00 
    5.0000000000205913E-01     1.0000000000000000E+00     0.0000000000000000E+00 
    2.5000000000102962E-01     1.0000000000000000E+00     0.0000000000000000E+00 
    8.7499999999991362E-01     1.0000000000000000E+00     0.0000000000000000E+00 
    6.2499999999988309E-01     1.0000000000000000E+00     0.0000000000000000E+00 
    3.7499999999869987E-01     1.0000000000000000E+00     0.0000000000000000E+00 
    1.2499999999880820E-01     1.0000000000000000E+00     0.0000000000000000E+00 
    9.3749999999995681E-01     1.0000000000000000E+00     0.0000000000000000E+00 
    8.1250000000051703E-01     1.0000000000000000E+00     0.0000000000000000E+00 
    6.8750000000050182E-01     1.0000000000000000E+00     0.0000000000000000E+00 
    5.6250000000097111E-01     1.0000000000000000E+00     0.0000000000000000E+00 
    4.3750000000037947E-01     1.0000000000000000E+00     0.0000000000000000E+00 
    3.1249999999986477E-01     1.0000000000000000E+00     0.0000000000000000E+00 
    1.8749999999991890E-01     1.0000000000000000E+00     0.0000000000000000E+00 
    6.2499999999404102E-02     1.0000000000000000E+00     0.0000000000000000E+00 
    0.0000000000000000E+00     7.5000000000112044E-01     0.0000000000000000E+00 
    0.0000000000000000E+00     5.0000000000205913E-01     0.0000000000000000E+00 
    0.0000000000000000E+00     2.5000000000102962E-01     0.0000000000000000E+00 
    0.0000000000000000E+00     8.7499999999991362E-01     0.0000000000000000E+00 
    0.0000000000000000E+00     6.2499999999988309E-01     0.0000000000000000E+00 
    0.0000000000000000E+00     3.7499999999869987E-01     0.0000000000000000E+00 
    0.0000000000000000E+00     1.2499999999880820E-01     0.0000000000000000E+00 
    0.0000000000000000E+00     9.3749999999995681E-01     0.0000000000000000E+00 
    0.0000000000000000E+00     8.1250000000051703E-01     0.0000000000000000E+00 
    0.0000000000000000E+00     6.8750000000050182E-01     0.0000000000000000E+00 
    0.0000000000000000E+00     5.6250000000097111E-01     0.0000000000000000E+00 
    0.0000000000000000E+00     4.3750000000037947E-01     0.0000000000000000E+00 
    0.0000000000000000E+00     3.1249999999986477E-01     0.0000000000000000E+00 
    0.0000000000000000E+00     1.8749999999991890E-01     0.0000000000000000E+00 
    0.0000000000000000E+00     6.2499999999404102E-02     0.0000000000000000E+00 
    4.9999999999972200E-01     2.5000000000000000E-01     0.0000000000000000E+00 
    3.7500000000067490E-01     2.5000000000000000E-01     0.0000000000000000E+00 
    6.2500000000042988E-01     2.5000000000000000E-01     0.0000000000000000E+00 
    3.1250000000033751E-01     2.5000000000000000E-01     0.0000000000000000E+00 
    4.3750000000019851E-01     2.5000000000000000E-01     0.0000000000000000E+00 
    5.6250000000007594E-01     2.5000000000000000E-01     0.0000000000000000E+00 
    6.8750000000021494E-01     2.5000000000000000E-01     0.0000000000000000E+00 
    7.5000000000000000E-01     4.9999999999972200E-01     0.0000000000000000E+00 
    7.5000000000000000E-01     3.7500000000067490E-01     0.0000000000000000E+00 
    7.5000000000000000E-01     6.2500000000042988E-01     0.0000000000000000E+00 
    7.5000000000000000E-01     3.1250000000033751E-01     0.0000000000000000E+00 
    7.5000000000000000E-01     4.3750000000019851E-01     0.0000000000000000E+00 
    7.5000000000000000E-01     5.6250000000007594E-01     0.0000000000000000E+00 
    7.5000000000000000E-01     6.8750000000021494E-01     0.0000000000000000E+00 
    5.0000000000118039E-01     7.5000000000000000E-01     0.0000000000000000E+00 
    6.2500000000161415E-01     7.5000000000000000E-01     0.0000000000000000E+00 
    3.7500000000140910E-01     7.5000000000000000E-01     0.0000000000000000E+00 
    6.8750000000080713E-01     7.5000000000000000E-01     0.0000000000000000E+00 
    5.6250000000139733E-01     7.5000000000000000E-01     0.0000000000000000E+00 
    4.3750000000129469E-01     7.5000000000000000E-01     0.0000000000000000E+00 
    3.1250000000070460E-01     7.5000000000000000E-01     0.0000000000000000E+00 
    2.5000000000000000E-01     5.0000000000118039E-01     0.0000000000000000E+00 
    2.5000000000000000E-01     6.2500000000161415E-01     0.0000000000000000E+00 
    2.5000000000000000E-01     3.7500000000140910E-01     0.0000000000000000E+00 
    2.5000000000000000E-01     6.8750000000080713E-01     0.0000000000000000E+00 
    2.5000000000000000E-01     5.6250000000139733E-01     0.0000000000000000E+00 
    2.5000000000000000E-01     4.3750000000129469E-01     0.0000000000000000E+00 
    2.5000000000000000E-01     3.1250000000070460E-01     0.0000000000000000E+00 
    3.7499999999934702E-01     1.2500000000000000E-01     0.0000000000000000E+00 
    1.2500000000000000E-01     1.2500000000000000E-01     0.0000000000000000E+00 
    1.2500000000000000E-01     3.7500000000102962E-01     0.0000000000000000E+00 
    8.7500000000000000E-01     1.2500000000000000E-01     0.0000000000000000E+00 
    6.2499999999934697E-01     1.2500000000000000E-01     0.0000000000000000E+00 
    8.7500000000000000E-01     3.7499999999934702E-01     0.0000000000000000E+00 
    8.7500000000000000E-01     6.2499999999934697E-01     0.0000000000000000E+00 
    1.2500000000000000E-01     6.2500000000102962E-01     0.0000000000000000E+00 
    1.2500000000000000E-01     8.7500000000000000E-01     0.0000000000000000E+00 
    8.7500000000000000E-01     8.7500000000000000E-01     0.0000000000000000E+00 
    6.2500000000102962E-01     8.7500000000000000E-01     0.0000000000000000E+00 
    3.7500000000102962E-01     8.7500000000000000E-01     0.0000000000000000E+00 
    2.4999999999957681E-01     8.3333333333333329E-02     0.0000000000000000E+00 
    8.3333333333333329E-02     2.5000000000068640E-01     0.0000000000000000E+00 
    7.4999999999956468E-01     8.3333333333333329E-02     0.0000000000000000E+00 
    4.9999999999951827E-01     1.6666666666666671E-01     0.0000000000000000E+00 
    9.1666666666666674E-01     2.4999999999957681E-01     0.0000000000000000E+00 
    8.3333333333333337E-01     4.9999999999951827E-01     0.0000000000000000E+00 
    1.6666666666666671E-01     5.0000000000088307E-01     0.0000000000000000E+00 
    8.3333333333333329E-02     7.5000000000070155E-01     0.0000000000000000E+00 
    9.1666666666666674E-01     7.4999999999956468E-01     0.0000000000000000E+00 
    5.0000000000088307E-01     8.3333333333333348E-01     0.0000000000000000E+00 
    2.5000000000068640E-01     9.1666666666666674E-01     0.0000000000000000E+00 
    7.5000000000070155E-01     9.1666666666666674E-01     0.0000000000000000E+00 
[...]
CELL_DATA 768 
SCALARS Pressure double 1 
LOOKUP_TABLE default 

    3.0586824800374353E+00 
    2.9626224165053796E+00 
    2.9308912326453518E+00 
    2.9908987691747484E+00 
    2.8968678007099475E+00 
    2.8429664658115184E+00 
    2.8380119160131181E+00 
    2.8821900909580367E+00 
    2.8666867697697023E+00 
    2.8319370380743090E+00 
    2.8249026164961459E+00 
    2.8507031912947949E+00 
    2.9393355133878263E+00 
    2.9019100850931685E+00 
    2.8749588287441816E+00 
    2.8977757685147143E+00 
    2.7917147272482752E+00 
    2.7399454555852674E+00 
    2.7497694114772546E+00 
    2.7942112290990808E+00 
    2.6859437054164732E+00 
    2.6289667065508064E+00 
    2.6554365255947179E+00 
    2.7037427321467460E+00 
    2.7204154538968983E+00 
    2.6806677742354506E+00 
    2.7042739200717887E+00 
    2.7356882885700835E+00 
    2.7956828559787952E+00 
    2.7585646588473640E+00 
    2.7661588248588469E+00 
    2.7961259837712316E+00 
    2.8613490999073647E+00 
    2.8461742480266703E+00 
    2.8169809213631334E+00 
    2.8288817679577738E+00 
    2.8280425632475361E+00 
    2.8072942959592422E+00 
    2.7806959001251532E+00 
    2.8006786699959410E+00 
    2.7745400140492453E+00 
    2.7542420427844161E+00 
    2.7274453212031555E+00 
    2.7490587213573430E+00 
    2.8007044170421440E+00 
    2.7904319242671303E+00 
    2.7662763801491979E+00 
    2.7773182173376458E+00 
    3.0587302265542986E+00 
    2.9909616330263660E+00 
    2.9311028890957216E+00 
    2.9628263876458201E+00 
    2.9394111992151091E+00 
    2.8978529013526462E+00 
    2.8751570599634828E+00 
    2.9021138560678721E+00 
    2.8669779753074276E+00 
    2.8509443191530877E+00 
    2.8251578415770635E+00 
    2.8322488287214869E+00 
    2.8971847394168915E+00 
    2.8824970362920315E+00 
    2.8383703943018559E+00 
    2.8433346680672225E+00 
    2.8614285679880025E+00 
    2.8289374197545376E+00 
    2.8170973646315067E+00 
    2.8463573203754278E+00 
    2.8006972105538090E+00 
    2.7772912040296003E+00 
    2.7661568386966335E+00 
    2.7904240332840899E+00 
    2.7744640981632211E+00 
    2.7487448633373113E+00 
    2.7269389650149116E+00 
    2.7540356450952532E+00 
    2.8282458976498552E+00 
    2.8007705506153928E+00 
    2.7807234107452352E+00 
    2.8074682408506857E+00 
    2.7920009800695973E+00 
    2.7944794515767644E+00 
    2.7497277097708617E+00 
    2.7398449019289930E+00 
    2.7959077136547585E+00 
    2.7962878754436278E+00 
    2.7661215093922045E+00 
    2.7585228371352808E+00 
    2.7200239707976759E+00 
    2.7353568144299367E+00 
    2.7035842880274323E+00 
    2.6798809660874592E+00 
    2.6853860097769076E+00 
    2.7032763689310966E+00 
    2.6545837275617448E+00 
    2.6280482398540457E+00 
    2.5352744027551104E+00 
    2.4711537366578868E+00 
    2.4488403266133907E+00 
    2.5048990066629040E+00 
    2.4068849304255227E+00 
    2.3452780567437088E+00 
    2.3399186221382648E+00 
    2.3931038262722741E+00 
    2.3778485102262898E+00 
    2.3329796238653420E+00 
    2.3243243261288695E+00 
    2.3607094319367063E+00 
    2.4732132659876180E+00 
    2.4251664626701253E+00 
    2.3995427486894445E+00 
    2.4395884949597972E+00 
    2.2899803221697255E+00 
    2.2445262215472983E+00 
    2.2496662576438151E+00 
    2.2914228517151636E+00 
    2.2103008159556374E+00 
    2.1865802336553548E+00 
    2.1906187690021954E+00 
    2.2162911516391204E+00 
    2.2197668127394761E+00 
    2.1927317069312400E+00 
    2.1927779715647775E+00 
    2.2212371839066765E+00 
    2.2910948270463738E+00 
    2.2525411263341151E+00 
    2.2535682415383702E+00 
    2.2890438598521161E+00 
    2.4006472630917615E+00 
    2.3644535504480904E+00 
    2.3180858238353323E+00 
    2.3540038098787996E+00 
    2.3307372015179180E+00 
    2.3004629321676293E+00 
    2.2633642379122052E+00 
    2.2879837034716863E+00 
    2.2426649924617452E+00 
    2.2270704343448098E+00 
    2.1927651235830612E+00 
    2.1958097020375256E+00 
    2.2973397727431522E+00 
    2.2647718107063244E+00 
    2.2028408516261844E+00 
    2.2201455056600290E+00 
    2.5828147528924643E+00 
    2.5490495614367013E+00 
    2.5814267329070497E+00 
    2.6143023832773697E+00 
    2.5139950249787928E+00 
    2.4772866044412045E+00 
    2.5121025345296037E+00 
    2.5474232684479277E+00 
    2.5800525325701398E+00 
    2.5461435486819779E+00 
    2.5790552707423844E+00 
    2.6115883625627947E+00 
    2.6445512224398144E+00 
    2.6128319870732790E+00 
    2.6430039595673667E+00 
    2.6733253005262290E+00 
    2.4405050232218102E+00 
    2.4033700527152924E+00 
    2.4567572526452990E+00 
    2.4816653857356603E+00 
    2.3630491524798449E+00 
    2.3185856966482459E+00 
    2.4035744861191488E+00 
    2.4307547125277265E+00 
    2.4927122947352922E+00 
    2.4780660972033992E+00 
    2.5454783212336691E+00 
    2.5501343855667136E+00 
    2.5215133909952958E+00 
    2.5072488135026805E+00 
    2.5549535256958209E+00 
    2.5597917307229627E+00 
    2.6983766348070692E+00 
    2.6660370136259899E+00 
    2.6825737319117344E+00 
    2.7196559877742268E+00 
    2.6320792193012341E+00 
    2.5965351250057500E+00 
    2.5998538164498370E+00 
    2.6425393293012753E+00 
    2.6528331230379680E+00 
    2.6032484635060800E+00 
    2.6067740221630094E+00 
    2.6630273622073721E+00 
    2.7388223977806603E+00 
    2.6982968801176930E+00 
    2.7132692416547770E+00 
    2.7557016544310540E+00 
    2.1801921625433085E+00 
    2.1543577709462309E+00 
    2.1460614554463606E+00 
    2.1755873157118151E+00 
    2.1100473109103772E+00 
    2.0474838288885358E+00 
    2.0451496188498912E+00 
    2.1024061446682571E+00 
    2.0974328232992256E+00 
    2.0452605255039655E+00 
    2.0474739051624824E+00 
    2.0940938323311342E+00 
    2.1722406469439015E+00 
    2.1400532846328009E+00 
    2.1346586051642640E+00 
    2.1683685459277284E+00 
    1.9695018184661617E+00 
    1.8791528601530119E+00 
    1.9001051007690772E+00 
    1.9771293740584641E+00 
    1.7789053033093321E+00 
    1.6708385942669113E+00 
    1.7239207342699612E+00 
    1.8152122133075987E+00 
    1.8534415049471833E+00 
    1.7787528564328698E+00 
    1.8334538234202189E+00 
    1.8930490692809880E+00 
    1.9870248965937971E+00 
    1.9233893832389097E+00 
    1.9486405963095499E+00 
    1.9992597017090923E+00 
    2.1609770276604858E+00 
    2.1219135022208975E+00 
    2.0975919518834329E+00 
    2.1496674962826510E+00 
    2.0781528000553680E+00 
    2.0308301256513190E+00 
    1.9891594831388502E+00 
    2.0435817311259750E+00 
    2.0021869316338781E+00 
    1.9421115941034039E+00 
    1.8903673488690900E+00 
    1.9532089886062440E+00 
    2.1351174541511329E+00 
    2.0664533838051855E+00 
    2.0240080097092621E+00 
    2.1119723272396156E+00 
    1.9988598959247172E+00 
    1.9409160323602226E+00 
    1.8440349117947092E+00 
    1.8833881760790121E+00 
    1.8849814593030541E+00 
    1.8313693614676394E+00 
    1.7673007203284126E+00 
    1.8053123795169821E+00 
    1.7249493623420373E+00 
    1.7019880610514126E+00 
    1.6356395797631198E+00 
    1.6435604105472308E+00 
    1.7708914648273413E+00 
    1.7478380830888478E+00 
    1.6511540896021759E+00 
    1.6586690781970235E+00 
    1.7750412925427321E+00 
    1.7119080614937983E+00 
    1.6550469283984515E+00 
    1.7182729416573774E+00 
    1.6465089074167738E+00 
    1.5832138406314049E+00 
    1.5222755466030908E+00 
    1.5884296460054164E+00 
    1.5293801509727030E+00 
    1.4607061188443757E+00 
    1.3994030265413713E+00 
    1.4682942368353598E+00 
    1.6601444423692859E+00 
    1.5970153289846913E+00 
    1.5374389705821463E+00 
    1.6009775714983154E+00 
    1.5438131783350122E+00 
    1.5525787788227077E+00 
    1.4475832388034695E+00 
    1.4243460778743970E+00 
    1.5610803335562093E+00 
    1.5680394609728083E+00 
    1.4958162697665758E+00 
    1.4720313343651212E+00 
    1.3807332034375470E+00 
    1.4179683178088813E+00 
    1.3438926177841219E+00 
    1.2962531765136047E+00 
    1.3123452891881848E+00 
    1.3457377348066795E+00 
    1.2526999832028316E+00 
    1.2136990070893066E+00 
    2.7556908420666111E+00 
    2.7126047889923535E+00 
    2.6973783319901954E+00 
    2.7384630536364076E+00 
    2.6614728863627461E+00 
    2.6043965883613023E+00 
    2.6009842539877237E+00 
    2.6511995649087789E+00 
    2.6408595077194001E+00 
    2.5976842041185106E+00 
    2.5944696610166238E+00 
    2.6303821802883114E+00 
    2.7190206719877232E+00 
    2.6814551490715384E+00 
    2.6647737303121475E+00 
    2.6975194911251195E+00 
    2.5430383650592208E+00 
    2.4763530337101947E+00 
    2.4908976456851746E+00 
    2.5478010484766864E+00 
    2.4027938754653686E+00 
    2.3184891657076081E+00 
    2.3625590243651406E+00 
    2.4296581686853203E+00 
    2.4554166033438793E+00 
    2.4025254335947790E+00 
    2.4394465303079027E+00 
    2.4802250116840758E+00 
    2.5526831021133409E+00 
    2.5053468233898495E+00 
    2.5196356428259374E+00 
    2.5576335585944712E+00 
    2.6722712799109591E+00 
    2.6415703196933586E+00 
    2.6113844631786414E+00 
    2.6434558723115957E+00 
    2.6098140128228797E+00 
    2.5770440286204943E+00 
    2.5443309649823376E+00 
    2.5783737467738614E+00 
    2.5459460824250892E+00 
    2.5106327597047438E+00 
    2.4760948857160350E+00 
    2.5127276801540073E+00 
    2.6132071852704217E+00 
    2.5801192151407415E+00 
    2.5478388570650994E+00 
    2.5817504166635894E+00 
    2.5342066273995179E+00 
    2.5037872357991260E+00 
    2.4478775263259354E+00 
    2.4701753714292813E+00 
    2.4721342884887898E+00 
    2.4386338339138405E+00 
    2.3987731728768322E+00 
    2.4242692752877746E+00 
    2.3770516523371796E+00 
    2.3599860582564203E+00 
    2.3235285787500208E+00 
    2.3320745261930220E+00 
    2.4059738803252873E+00 
    2.3922138868795439E+00 
    2.3389108812162682E+00 
    2.3441869025772029E+00 
    2.3998756386007600E+00 
    2.3535309074499651E+00 
    2.3176711437769812E+00 
    2.3638130088255971E+00 
    2.2972986731550149E+00 
    2.2204816902562245E+00 
    2.2028474446872401E+00 
    2.2645786603235689E+00 
    2.2420943561703468E+00 
    2.1952234126232675E+00 
    2.1916529349629341E+00 
    2.2260829051115150E+00 
    2.3300860646011454E+00 
    2.2873997751835642E+00 
    2.2625053550520762E+00 
    2.2996693990413930E+00 
    2.2886688300595166E+00 
    2.2901972743744121E+00 
    2.2480799509265523E+00 
    2.2427473523808761E+00 
    2.2899701130438372E+00 
    2.2880405376420749E+00 
    2.2523924967785818E+00 
    2.2511457361410501E+00 
    2.2180704214748141E+00 
    2.2198279172209574E+00 
    2.1911827439188585E+00 
    2.1908311978399762E+00 
    2.2080614396469058E+00 
    2.2143278688326240E+00 
    2.1883796474872566E+00 
    2.1841650690477628E+00 
    1.4927220977041367E+00 
    1.3702824298216689E+00 
    1.3297411261152059E+00 
    1.4373904420682246E+00 
    1.2415704106069396E+00 
    1.1017994771175121E+00 
    1.0951167740301060E+00 
    1.2169302290093946E+00 
    1.1948959776585955E+00 
    1.0918430697083270E+00 
    1.0919308627395712E+00 
    1.1761565820321009E+00 
    1.3827036557718420E+00 
    1.2908880458636725E+00 
    1.2547458562343088E+00 
    1.3298201919099799E+00 
    9.4110013493575750E-01 
    7.3970816864957423E-01 
    7.9930390248330752E-01 
    9.5871847953729084E-01 
    4.5478051363733263E-01 
    0.0000000000000000E+00 
    3.2572713926914404E-01 
    5.9817030214062483E-01 
    7.2306077407014202E-01 
    5.6364363928873251E-01 
    7.4251752942581173E-01 
    8.3156830351622613E-01 
    9.8012334383433286E-01 
    8.5983859345613656E-01 
    9.1919448479381982E-01 
    1.0043385659536714E+00 
    1.2763614655414228E+00 
    1.2097007623560048E+00 
    1.1583636312138301E+00 
    1.2253823471650280E+00 
    1.1386175993151852E+00 
    1.0609162516437443E+00 
    9.9755870154737381E-01 
    1.0834054565014277E+00 
    1.0357963213399251E+00 
    9.3805908633439683E-01 
    8.8478381801811989E-01 
    9.9901358946036523E-01 
    1.1841976792188191E+00 
    1.1169067270166988E+00 
    1.0892903017175477E+00 
    1.1583124318955369E+00 
    1.9997237566501258E+00 
    1.8846376600074992E+00 
    1.8456135984905913E+00 
    1.9420632438464294E+00 
    1.7722559138799312E+00 
    1.6592980272091733E+00 
    1.6518808583057254E+00 
    1.7494159892076693E+00 
    1.7267114045330474E+00 
    1.6445629903426353E+00 
    1.6369638055323257E+00 
    1.7039719542446263E+00 
    1.8867414627085999E+00 
    1.8072720032625980E+00 
    1.7695666141636259E+00 
    1.8337361618970851E+00 
    1.5427113369828080E+00 
    1.4225770062860257E+00 
    1.4456750704606265E+00 
    1.5517161001657891E+00 
    1.3119813761666854E+00 
    1.2143545370348716E+00 
    1.2534941574078269E+00 
    1.3453234939540542E+00 
    1.3802550634105970E+00 
    1.2973576665546562E+00 
    1.3452543259827652E+00 
    1.4175352333989337E+00 
    1.5608482785284410E+00 
    1.4702690825924447E+00 
    1.4949180872167858E+00 
    1.5686706917503512E+00 
    1.7779720499352758E+00 
    1.7207937449915136E+00 
    1.6582174865044610E+00 
    1.7153742838855135E+00 
    1.6622474528259792E+00 
    1.6024821195944816E+00 
    1.5384331179582500E+00 
    1.5994463790542377E+00 
    1.5312110685899476E+00 
    1.4685613348036528E+00 
    1.4006612009561963E+00 
    1.4622380151863794E+00 
    1.6500693167491594E+00 
    1.5915403343061991E+00 
    1.5243760504171713E+00 
    1.5860317187638870E+00 
    2.1124932606005378E+00 
    2.0247577810179069E+00 
    2.0669623134544790E+00 
    2.1352477422219596E+00 
    1.9547246642458094E+00 
    1.8927053999481973E+00 
    1.9444285573869626E+00 
    2.0035786807201657E+00 
    2.0444983297482482E+00 
    1.9912958770201699E+00 
    2.0324505953646788E+00 
    2.0785413722003101E+00 
    2.1491913863825354E+00 
    2.0976475928660281E+00 
    2.1214604721380739E+00 
    2.1600176690284316E+00 
    1.8367857191132853E+00 
    1.7823496824576366E+00 
    1.8573687653042710E+00 
    1.8965376221296228E+00 
    1.7274565770432950E+00 
    1.6740895812641587E+00 
    1.7826738104948368E+00 
    1.8190148926520899E+00 
    1.9039975513121759E+00 
    1.8831395064483996E+00 
    1.9729975188801532E+00 
    1.9804930139133912E+00 
    1.9520339954351040E+00 
    1.9272612652650563E+00 
    1.9903771960318459E+00 
    2.0022022024452348E+00 
    2.1670119452789613E+00 
    2.1339355277263929E+00 
    2.1392780572202725E+00 
    2.1706234188819540E+00 
    2.0943796657517675E+00 
    2.0490410860822337E+00 
    2.0472762634449064E+00 
    2.0979906156441510E+00 
    2.1028780294035938E+00 
    2.0473116452450677E+00 
    2.0496607033053311E+00 
    2.1103387359549872E+00 
    2.1736541172840145E+00 
    2.1451068781575611E+00 
    2.1531232139193857E+00 
    2.1780077347763100E+00 
    1.1587625239760919E+00 
    1.0899092436213484E+00 
    1.1185897340371260E+00 
    1.1854277646801115E+00 
    9.9975577328730081E-01 
    8.8553387315057408E-01 
    9.4019202872453345E-01 
    1.0378586671313559E+00 
    1.0864739029669197E+00 
    1.0008966733244280E+00 
    1.0650716231732564E+00 
    1.1423299921870655E+00 
    1.2272007745920657E+00 
    1.1609201759189003E+00 
    1.2127031210891133E+00 
    1.2785557918646104E+00 
    7.4323265414396822E-01 
    5.6424123904715806E-01 
    7.2525642402968360E-01 
    8.3373103575815832E-01 
    3.2606992403723722E-01 
    0.0000000000000000E+00 
    4.5632520892701184E-01 
    6.0010277674373502E-01 
    8.0310709250747792E-01 
    7.4323070140264691E-01 
    9.4637999305767329E-01 
    9.6387380959007074E-01 
    9.2266473585836650E-01 
    8.6352237388932329E-01 
    9.8497885431941734E-01 
    1.0087222096571724E+00 
    1.3320146965539148E+00 
    1.2578726432513809E+00 
    1.2941178414257997E+00 
    1.3849313377546983E+00 
    1.1801746534362407E+00 
    1.0965811487328956E+00 
    1.0969403554386783E+00 
    1.1992107957041909E+00 
    1.2213149123658891E+00 
    1.1004799020682050E+00 
    1.1072225048282589E+00 
    1.2458452392870554E+00 
    1.4396952365150848E+00 
    1.3329023148977395E+00 
    1.3732709178233704E+00 
    1.4951379203196642E+00 
    2.1420987907155595E+00 
    2.2503668585185208E+00 
    2.2407454637423583E+00 
    2.1412228454968329E+00 
    2.3535353128762408E+00 
    2.4504601688387986E+00 
    2.4257523981706313E+00 
    2.3358609314700671E+00 
    2.3214385495467726E+00 
    2.4035510965686897E+00 
    2.3834493720498910E+00 
    2.3099100168289928E+00 
    2.1439117573749229E+00 
    2.2347625933791768E+00 
    2.2320964312628786E+00 
    2.1499742750425512E+00 
    2.5381994083253088E+00 
    2.6165388667720464E+00 
    2.5743319409349064E+00 
    2.5047171995696633E+00 
    2.6862708954862251E+00 
    2.7467086175140198E+00 
    2.6995333348263904E+00 
    2.6392182226191951E+00 
    2.5906559030082033E+00 
    2.6470073725716978E+00 
    2.5895290756018752E+00 
    2.5402257157206201E+00 
    2.4729836285911801E+00 
    2.5327984274907496E+00 
    2.4913929523385967E+00 
    2.4425388375127577E+00 
    2.1643920183559757E+00 
    2.2466972208073392E+00 
    2.2800957475614796E+00 
    2.1886485984832831E+00 
    2.3230813155793872E+00 
    2.3943837443870928E+00 
    2.4361259953705519E+00 
    2.3617039099812804E+00 
    2.4039840969386530E+00 
    2.4794836837229912E+00 
    2.5250297472054890E+00 
    2.4509698635945987E+00 
    2.2195665346028570E+00 
    2.3192718604460785E+00 
    2.3663400195078146E+00 
    2.2611852265041281E+00 
    2.0297111265295005E+00 
    1.9148015177146749E+00 
    1.9311637452808592E+00 
    2.0371983049327476E+00 
    1.7983474659811189E+00 
    1.6811572575709239E+00 
    1.7167223830153033E+00 
    1.8241851846166519E+00 
    1.8510197528855561E+00 
    1.7529820300722876E+00 
    1.7901246113434515E+00 
    1.8789637437202913E+00 
    2.0473453825577050E+00 
    1.9491672560908582E+00 
    1.9687307596792789E+00 
    2.0598722886919303E+00 
    1.5665448511753348E+00 
    1.4552827026160062E+00 
    1.5244227731224571E+00 
    1.6168499529355222E+00 
    1.3461284835873841E+00 
    1.2408464977596012E+00 
    1.3401880089276585E+00 
    1.4321345154100140E+00 
    1.5225921583390880E+00 
    1.4488951192857065E+00 
    1.5656194195179645E+00 
    1.6171764942386977E+00 
    1.6680343922944334E+00 
    1.5956163402551591E+00 
    1.6688060167236960E+00 
    1.7203472589417907E+00 
    2.0683778864053468E+00 
    1.9731425665131455E+00 
    1.9598128378694986E+00 
    2.0701692515556775E+00 
    1.8812276685667844E+00 
    1.7912981098810157E+00 
    1.7554233286486651E+00 
    1.8560193039899548E+00 
    1.8294542737153217E+00 
    1.7192924071911218E+00 
    1.6830117951337931E+00 
    1.8010348318033187E+00 
    2.0677947718477512E+00 
    1.9434810275691472E+00 
    1.9220978478268560E+00 
    2.0563773656026507E+00 
    2.2607506088201368E+00 
    2.3652106472759034E+00 
    2.3183861622533657E+00 
    2.2192852814746398E+00 
    2.4491144766757542E+00 
    2.5225792005190675E+00 
    2.4775808722211292E+00 
    2.4025381251662683E+00 
    2.3605837320461074E+00 
    2.4346676966157985E+00 
    2.3933012441810906E+00 
    2.3222548470690496E+00 
    2.1884087977178535E+00 
    2.2794113264196523E+00 
    2.2461611648361508E+00 
    2.1641453573202827E+00 
    2.5871896701119428E+00 
    2.6454938002716277E+00 
    2.5893456742459744E+00 
    2.5383909168136620E+00 
    2.6989198500480218E+00 
    2.7467319156616945E+00 
    2.6861317784875944E+00 
    2.6385534213372646E+00 
    2.5737024186506368E+00 
    2.6163400263439720E+00 
    2.5380133799989100E+00 
    2.5042001255050312E+00 
    2.4899653030815871E+00 
    2.5317235564078495E+00 
    2.4721560681374908E+00 
    2.4414616914554159E+00 
    2.1496458401680605E+00 
    2.2316130233169340E+00 
    2.2343471004081308E+00 
    2.1435685462380261E+00 
    2.3092410987153706E+00 
    2.3825960905763659E+00 
    2.4028876631709428E+00 