# vtk DataFile Version 2.0
Pressure Field Data 
ASCII 
DATASET UNSTRUCTURED_GRID 

POINTS 801 double 

    0.0000000000000000E+00     0.0000000000000000E+00     0.0000000000000000E+00 
    1.0000000000000000E+00     0.0000000000000000E+00     0.0000000000000000E+00 
    1.0000000000000000E+00     1.0000000000000000E+00     0.0000000000000000E+00 
    0.0000000000000000E+00     1.0000000000000000E+00     0.0000000000000000E+00 
    2.5000000000000000E-01     2.5000000000000000E-01     0.0000000000000000E+00 
    7.5000000000000000E-01     2.5000000000000000E-01     0.0000000000000000E+00 
    7.5000000000000000E-01     7.5000000000000000E-01     0.0000000000000000E+00 
    2.5000000000000000E-01     7.5000000000000000E-01     0.0000000000000000E+00 
    2.4999999999941941E-01     0.0000000000000000E+00     0.0000000000000000E+00 
    4.9999999999869399E-01     0.0000000000000000E+00     0.0000000000000000E+00 
    7.4999999999934697E-01     0.0000000000000000E+00     0.0000000000000000E+00 
    1.2499999999977940E-01     0.0000000000000000E+00     0.0000000000000000E+00 
    3.7499999999905670E-01     0.0000000000000000E+00     0.0000000000000000E+00 
    6.2499999999902045E-01     0.0000000000000000E+00     0.0000000000000000E+00 
    8.7499999999967348E-01     0.0000000000000000E+00     0.0000000000000000E+00 
    6.2499999999889699E-02     0.0000000000000000E+00     0.0000000000000000E+00 
    1.8749999999959940E-01     0.0000000000000000E+00     0.0000000000000000E+00 
    3.1249999999923811E-01     0.0000000000000000E+00     0.0000000000000000E+00 
    4.3749999999887529E-01     0.0000000000000000E+00     0.0000000000000000E+00 
    5.6249999999885725E-01     0.0000000000000000E+00     0.0000000000000000E+00 
    6.8749999999918376E-01     0.0000000000000000E+00     0.0000000000000000E+00 
    8.1249999999951017E-01     0.0000000000000000E+00     0.0000000000000000E+00 
    9.3749999999983680E-01     0.0000000000000000E+00     0.0000000000000000E+00 
    1.0000000000000000E+00     2.4999999999941941E-01     0.0000000000000000E+00 
    1.0000000000000000E+00     4.9999999999869399E-01     0.0000000000000000E+00 
    1.0000000000000000E+00     7.4999999999934697E-01     0.0000000000000000E+00 
    1.0000000000000000E+00     1.2499999999977940E-01     0.0000000000000000E+00 
    1.0000000000000000E+00     3.7499999999905670E-01     0.0000000000000000E+00 
    1.0000000000000000E+00     6.2499999999902045E-01     0.0000000000000000E+00 
    1.0000000000000000E+00     8.7499999999967348E-01     0.0000000000000000E+00 
    1.0000000000000000E+00     6.2499999999889699E-02     0.0000000000000000E+00 
    1.0000000000000000E+00     1.8749999999959940E-01     0.0000000000000000E+00 
    1.0000000000000000E+00     3.1249999999923811E-01     0.0000000000000000E+00 
    1.0000000000000000E+00     4.3749999999887529E-01     0.0000000000000000E+00 
    1.0000000000000000E+00     5.6249999999885725E-01     0.0000000000000000E+00 
    1.0000000000000000E+00     6.8749999999918376E-01     0.0000000000000000E+00 
    1.0000000000000000E+00     8.1249999999951017E-01     0.0000000000000000E+00 
    1.0000000000000000E+00     9.3749999999983680E-01     0.0000000000000000E+00 
    7.5000000000112044E-01     1.0000000000000000E+00     0.0000000000000000E+00 
    5.0000000000205913E-01     1.0000000000000000E+00     0.0000000000000000E+00 
    2.5000000000102962E-01     1.0000000000000000E+00     0.0000000000000000E+00 
    8.7499999999991362E-01     1.0000000000000000E+00     0.0000000000000000E+00 
    6.2499999999988309E-01     1.0000000000000000E+00     0.0000000000000000E+00 
    3.7499999999869987E-01     1.0000000000000000E+00     0.0000000000000000E+00 
    1.2499999999880820E-01     1.0000000000000000E+00     0.0000000000000000E+00 
    9.3749999999995681E-01     1.0000000000000000E+00     0.0000000000000000E+00 
    8.1250000000051703E-01     1.0000000000000000E+00     0.0000000000000000E+00 
    6.8750000000050182E-01     1.0000000000000000E+00     0.0000000000000000E+00 
    5.6250000000097111E-01     1.0000000000000000E+00     0.0000000000000000E+00 
    4.3750000000037947E-01     1.0000000000000000E+00     0.0000000000000000E+00 
    3.1249999999986477E-01     1.0000000000000000E+00     0.0000000000000000E+00 
    1.8749999999991890E-01     1.0000000000000000E+00     0.0000000000000000E+00 
    6.2499999999404102E-02     1.0000000000000000E+00     0.0000000000000000E+00 
    0.0000000000000000E+00     7.5000000000112044E-01     0.0000000000000000E+00 
    0.0000000000000000E+00     5.0000000000205913E-01     0.0000000000000000E+00 
    0.0000000000000000E+00     2.5000000000102962E-01     0.0000000000000000E+00 
    0.0000000000000000E+00     8.7499999999991362E-01     0.0000000000000000E+00 
    0.0000000000000000E+00     6.2499999999988309E-01     0.0000000000000000E+00 
    0.0000000000000000E+00     3.7499999999869987E-01     0.0000000000000000E+00 
    0.0000000000000000E+00     1.2499999999880820E-01     0.0000000000000000E+00 
    0.0000000000000000E+00     9.3749999999995681E-01     0.0000000000000000E+00 
    0.0000000000000000E+00     8.1250000000051703E-01     0.0000000000000000E+00 
    0.0000000000000000E+00     6.8750000000050182E-01     0.0000000000000000E+00 
    0.0000000000000000E+00     5.6250000000097111E-01     0.0000000000000000E+00 
    0.0000000000000000E+00     4.3750000000037947E-01     0.0000000000000000E+00 
    0.0000000000000000E+00     3.1249999999986477E-01     0.0000000000000000E+00 
    0.0000000000000000E+00     1.8749999999991890E-01     0.0000000000000000E+00 
    0.0000000000000000E+00     6.2499999999404102E-02     0.0000000000000000E+00 
    4.9999999999972200E-01     2.5000000000000000E-01     0.0000000000000000E+00 
    3.7500000000067490E-01     2.5000000000000000E-01     0.0000000000000000E+00 
    6.2500000000042988E-01     2.5000000000000000E-01     0.0000000000000000E+00 
    3.1250000000033751E-01     2.5000000000000000E-01     0.0000000000000000E+00 
    4.3750000000019851E-01     2.5000000000000000E-01     0.0000000000000000E+00 
    5.6250000000007594E-01     2.5000000000000000E-01     0.0000000000000000E+00 
    6.8750000000021494E-01     2.5000000000000000E-01     0.0000000000000000E+00 
    7.5000000000000000E-01     4.9999999999972200E-01     0.0000000000000000E+00 
    7.5000000000000000E-01     3.7500000000067490E-01     0.0000000000000000E+00 
    7.5000000000000000E-01     6.2500000000042988E-01     0.0000000000000000E+00 
    7.5000000000000000E-01     3.1250000000033751E-01     0.0000000000000000E+00 
    7.5000000000000000E-01     4.3750000000019851E-01     0.0000000000000000E+00 
    7.5000000000000000E-01     5.6250000000007594E-01     0.0000000000000000E+00 
    7.5000000000000000E-01     6.8750000000021494E-01     0.0000000000000000E+00 
    5.0000000000118039E-01     7.5000000000000000E-01     0.0000000000000000E+00 
    6.2500000000161415E-01     7.5000000000000000E-01     0.0000000000000000E+00 
    3.7500000000140910E-01     7.5000000000000000E-01     0.0000000000000000E+00 
    6.8750000000080713E-01     7.5000000000000000E-01     0.0000000000000000E+00 
    5.6250000000139733E-01     7.5000000000000000E-01     0.0000000000000000E+00 
    4.3750000000129469E-01     7.5000000000000000E-01     0.0000000000000000E+00 
    3.1250000000070460E-01     7.5000000000000000E-01     0.0000000000000000E+00 
    2.5000000000000000E-01     5.0000000000118039E-01     0.0000000000000000E+00 
    2.5000000000000000E-01     6.2500000000161415E-01     0.0000000000000000E+00 
    2.5000000000000000E-01     3.7500000000140910E-01     0.0000000000000000E+00 
    2.5000000000000000E-01     6.8750000000080713E-01     0.0000000000000000E+00 
    2.5000000000000000E-01     5.6250000000139733E-01     0.0000000000000000E+00 
    2.5000000000000000E-01     4.3750000000129469E-01     0.0000000000000000E+00 
    2.5000000000000000E-01     3.1250000000070460E-01     0.0000000000000000E+00 
    3.7499999999934702E-01     1.2500000000000000E-01     0.0000000000000000E+00 
    1.2500000000000000E-01     1.2500000000000000E-01     0.0000000000000000E+00 
    1.2500000000000000E-01     3.7500000000102962E-01     0.0000000000000000E+00 
    8.7500000000000000E-01     1.2500000000000000E-01     0.0000000000000000E+00 
    6.2499999999934697E-01     1.2500000000000000E-01     0.0000000000000000E+00 
    8.7500000000000000E-01     3.7499999999934702E-01     0.0000000000000000E+00 
    8.7500000000000000E-01     6.2499999999934697E-01     0.0000000000000000E+00 
    1.2500000000000000E-01     6.2500000000102962E-01     0.0000000000000000E+00 
    1.2500000000000000E-01     8.7500000000000000E-01     0.0000000000000000E+00 
    8.7500000000000000E-01     8.7500000000000000E-01     0.0000000000000000E+00 
    6.2500000000102962E-01     8.7500000000000000E-01     0.0000000000000000E+00 
    3.7500000000102962E-01     8.7500000000000000E-01     0.0000000000000000E+00 
    2.4999999999957681E-01     8.3333333333333329E-02     0.0000000000000000E+00 
    8.3333333333333329E-02     2.5000000000068640E-01     0.0000000000000000E+00 
    7.4999999999956468E-01     8.3333333333333329E-02     0.0000000000000000E+00 
    4.9999999999951827E-01     1.6666666666666671E-01     0.0000000000000000E+00 
    9.1666666666666674E-01     2.4999999999957681E-01     0.0000000000000000E+00 
    8.3333333333333337E-01     4.9999999999951827E-01     0.0000000000000000E+00 
    1.6666666666666671E-01     5.0000000000088307E-01     0.0000000000000000E+00 
    8.3333333333333329E-02     7.5000000000070155E-01     0.0000000000000000E+00 
    9.1666666666666674E-01     7.4999999999956468E-01     0.0000000000000000E+00 
    5.0000000000088307E-01     8.3333333333333348E-01     0.0000000000000000E+00 
    2.5000000000068640E-01     9.1666666666666674E-01     0.0000000000000000E+00 
    7.5000000000070155E-01     9.1666666666666674E-01     0.0000000000000000E+00 
[...]
CELL_DATA 768 
SCALARS Pressure double 1 
LOOKUP_TABLE default 

    2.6573026915540878E+00 
    2.5626810022087358E+00 
    2.5318529729356185E+00 
    2.5902795881578804E+00 
    2.4994230131897184E+00 
    2.4494142405638391E+00 
    2.4449003854261733E+00 
    2.4855765968975856E+00 
    2.4711314650147127E+00 
    2.4393999546521656E+00 
    2.4330780313380318E+00 
    2.4564395824919263E+00 
    2.5399411118332371E+00 
    2.5041134845142485E+00 
    2.4788056265940059E+00 
    2.5001973758668203E+00 
    2.4035373716595423E+00 
    2.3582690298756117E+00 
    2.3668139069432503E+00 
    2.4057426363061989E+00 
    2.3117515591829445E+00 
    2.2631199100445372E+00 
    2.2857215840998912E+00 
    2.3270605486050564E+00 
    2.3414635442594154E+00 
    2.3073597621802850E+00 
    2.3276833590267740E+00 
    2.3547066181079579E+00 
    2.4070479814844878E+00 
    2.3744926895335658E+00 
    2.3811440458010207E+00 
    2.4074521031995051E+00 
    2.4662462223146462E+00 
    2.4523222685493842E+00 
    2.4260140789440165E+00 
    2.4367084247612247E+00 
    2.4358895646781327E+00 
    2.4173339053385665E+00 
    2.3938720502220572E+00 
    2.4114975675072978E+00 
    2.3885395031587655E+00 
    2.3708220043979433E+00 
    2.3476918393967634E+00 
    2.3664252414174594E+00 
    2.4115797858710168E+00 
    2.4025006619484754E+00 
    2.3814204324736399E+00 
    2.3911043274254191E+00 
    2.6573471869748833E+00 
    2.5903365358890604E+00 
    2.5320418997613867E+00 
    2.5628652817530315E+00 
    2.5400079340787163E+00 
    2.5002624825640729E+00 
    2.4789712794336585E+00 
    2.5042907979154756E+00 
    2.4713808262262136E+00 
    2.4566382892313019E+00 
    2.4332725034220486E+00 
    2.4396460231210955E+00 
    2.4997062170389821E+00 
    2.4858460288880857E+00 
    2.4451896458192763E+00 
    2.4497153766441628E+00 
    2.4663099462426428E+00 
    2.4367492966005586E+00 
    2.4260928254282712E+00 
    2.4524661253182360E+00 
    2.4115658742061932E+00 
    2.3910709929630332E+00 
    2.3812770877679061E+00 
    2.4024648437243168E+00 
    2.3884162583569806E+00 
    2.3660745971182227E+00 
    2.3471294136531400E+00 
    2.3705483252086461E+00 
    2.4360423405429921E+00 
    2.4115368336486811E+00 
    2.3938269642323968E+00 
    2.4174418738058057E+00 
    2.4037109653461703E+00 
    2.4059051823304043E+00 
    2.3666636259336249E+00 
    2.3580592072176056E+00 
    2.4071780490845631E+00 
    2.4075323473995480E+00 
    2.3810191775481058E+00 
    2.3743523333484076E+00 
    2.3409850682848239E+00 
    2.3542950508600908E+00 
    2.3269312837325247E+00 
    2.3065116243020896E+00 
    2.3111089895527726E+00 
    2.3265065682421828E+00 
    2.2848105803466794E+00 
    2.2621454588310508E+00 
    2.1836981829418147E+00 
    2.1296147646974815E+00 
    2.1107795692148521E+00 
    2.1580355981837211E+00 
    2.0755026008239583E+00 
    2.0236048316456392E+00 
    2.0190555173345364E+00 
    2.0638571110706305E+00 
    2.0509312306552081E+00 
    2.0131616220908168E+00 
    2.0058269083484741E+00 
    2.0364031690272646E+00 
    2.1312098579821992E+00 
    2.0907447567391091E+00 
    2.0690242509930772E+00 
    2.1026799165847949E+00 
    1.9768479210610341E+00 
    1.9382574009093687E+00 
    1.9426402460717167E+00 
    1.9780756751492141E+00 
    1.9105798291411684E+00 
    1.8944811113065376E+00 
    1.8964125482752978E+00 
    1.9151289750297049E+00 
    1.9179801453612033E+00 
    1.8968280484575144E+00 
    1.8962209511181978E+00 
    1.9193904344906674E+00 
    1.9778183071271509E+00 
    1.9452418905501623E+00 
    1.9463066424179762E+00 
    1.9761173042428992E+00 
    2.0697045084215224E+00 
    2.0393806010867657E+00 
    2.0004703127859447E+00 
    2.0304735254205051E+00 
    2.0111301666198704E+00 
    1.9857383261231822E+00 
    1.9546453935337422E+00 
    1.9752917853716305E+00 
    1.9375769676724663E+00 
    1.9244557876777744E+00 
    1.8962431416732508E+00 
    1.8989607237719088E+00 
    1.9831173119070458E+00 
    1.9560237043727775E+00 
    1.9047501163024823E+00 
    1.9188503072587224E+00 
    2.2239512433121948E+00 
    2.1953701658713562E+00 
    2.2228190896736062E+00 
    2.2507239174092697E+00 
    2.1656275626020629E+00 
    2.1344046925347859E+00 
    2.1637785341775668E+00 
    2.1938904505324346E+00 
    2.2215981701153411E+00 
    2.1926333577353820E+00 
    2.2206780714413981E+00 
    2.2484995994298318E+00 
    2.2765515082133962E+00 
    2.2495509772389162E+00 
    2.2753313837596427E+00 
    2.3012100502412292E+00 
    2.1031677675747953E+00 
    2.0717800399305113E+00 
    2.1166607626264953E+00 
    2.1378420346000029E+00 
    2.0378784488096713E+00 
    2.0006420549479040E+00 
    2.0717844489201926E+00 
    2.0946586715747872E+00 
    2.1470536976703167E+00 
    2.1346778329113443E+00 
    2.1920737486906692E+00 
    2.1959874588420885E+00 
    2.1715847622303830E+00 
    2.1593978551437534E+00 
    2.2000564142555668E+00 
    2.2041884808423728E+00 
    2.3227482663385297E+00 
    2.2950826538378100E+00 
    2.3093073187971633E+00 
    2.3410973398508759E+00 
    2.2660428306946723E+00 
    2.2356246060923795E+00 
    2.2384870177777785E+00 
    2.2750410735734126E+00 
    2.2839134098524081E+00 
    2.2414363562840327E+00 
    2.2444896409982591E+00 
    2.2926891253744484E+00 
    2.3576779278350135E+00 
    2.3228547720590536E+00 
    2.3357638701923080E+00 
    2.3723372091142001E+00 
    1.8903370321857915E+00 
    1.8692224158674966E+00 
    1.8619642872063626E+00 
    1.8860173514071474E+00 
    1.8331911147851807E+00 
    1.7838080738297095E+00 
    1.7818358537767205E+00 
    1.8268509229351955E+00 
    1.8216249755599034E+00 
    1.7810289952783593E+00 
    1.7813562404257273E+00 
    1.8175361247284283E+00 
    1.8812464408673004E+00 
    1.8553410097198162E+00 
    1.8495189272149357E+00 
    1.8764727573163804E+00 
    1.7238628406485927E+00 
    1.6541179875294063E+00 
    1.6700001980274781E+00 
    1.7296818977937451E+00 
    1.5782560168893067E+00 
    1.4982621053729577E+00 
    1.5369548887234621E+00 
    1.6052883700364733E+00 
    1.6326850491532137E+00 
    1.5756267501295589E+00 
    1.6146074156716104E+00 
    1.6607039369127226E+00 
    1.7364434488382141E+00 
    1.6866682723054012E+00 
    1.7041454624799082E+00 
    1.7441007162060491E+00 
    1.8703968316707347E+00 
    1.8390672106166255E+00 
    1.8196231274336021E+00 
    1.8613895748896665E+00 
    1.8044570359615277E+00 
    1.7676625140584783E+00 
    1.7346881262459914E+00 
    1.7770277394366665E+00 
    1.7442932718828794E+00 
    1.6977835444943541E+00 
    1.6575345759896807E+00 
    1.7057353045855881E+00 
    1.8493573237795315E+00 
    1.7945584465726800E+00 
    1.7602172782634928E+00 
    1.8292923276122128E+00 
    1.7389405338968345E+00 
    1.6948492414947876E+00 
    1.6214200936521492E+00 
    1.6508525050855516E+00 
    1.6528534972388145E+00 
    1.6121683140625422E+00 
    1.5632412255531938E+00 
    1.5922557991744772E+00 
    1.5310223791828792E+00 
    1.5132676755527565E+00 
    1.4623113946739823E+00 
    1.4687290245826616E+00 
    1.5657905308705220E+00 
    1.5484857646252215E+00 
    1.4748666990413397E+00 
    1.4806957113394197E+00 
    1.5696028891502680E+00 
    1.5247683516150639E+00 
    1.4801256350660403E+00 
    1.5260255772262881E+00 
    1.4796423037466746E+00 
    1.4320186298352251E+00 
    1.3831840430147730E+00 
    1.4329543222336090E+00 
    1.3857304620683735E+00 
    1.3350134688384683E+00 
    1.2878089982977072E+00 
    1.3387395003128324E+00 
    1.4812634005111740E+00 
    1.4342439321813001E+00 
    1.3879058389634829E+00 
    1.4355942469168925E+00 
    1.3949843563245410E+00 
    1.4003535677623817E+00 
    1.3244232492377161E+00 
    1.3078390711434111E+00 
    1.4053757021283255E+00 
    1.4101552883437558E+00 
    1.3565713867080589E+00 
    1.3404967635959388E+00 
    1.2747898569901215E+00 
    1.3016637605051724E+00 
    1.2452802793674951E+00 
    1.2083522244366947E+00 
    1.2222833853702302E+00 
    1.2484157112878531E+00 
    1.1740985960104271E+00 
    1.1426277524812642E+00 
    2.3723107845831741E+00 
    2.3350771310368597E+00 
    2.3219078890343319E+00 
    2.3572967303251078E+00 
    2.2911110801009440E+00 
    2.2421099080284428E+00 
    2.2392029475154764E+00 
    2.2822646878141484E+00 
    2.2733682876029127E+00 
    2.2363949134749328E+00 
    2.2336708573338910E+00 
    2.2643803568108680E+00 
    2.3404281095697783E+00 
    2.3081592156370618E+00 
    2.2937980581231763E+00 
    2.3218461385301352E+00 
    2.1896606687985014E+00 
    2.1329958337441277E+00 
    2.1453267496538575E+00 
    2.1937296599431191E+00 
    2.0709482316566934E+00 
    2.0001386251708757E+00 
    2.0371600826052685E+00 
    2.0935660816799553E+00 
    2.1154047686421769E+00 
    2.0708656011491180E+00 
    2.1021202168336792E+00 
    2.1365217355762676E+00 
    2.1979294470871920E+00 
    2.1576595886335403E+00 
    2.1698995406219561E+00 
    2.2022110400518558E+00 
    2.3001190097367976E+00 
    2.2739058439682824E+00 
    2.2481323010866352E+00 
    2.2754242950783543E+00 
    2.2468011995881390E+00 
    2.2188149670916317E+00 
    2.1909866252768895E+00 
    2.2200200286884963E+00 
    2.1924941244306013E+00 
    2.1624235543751733E+00 
    2.1332498847801067E+00 
    2.1643863543159885E+00 
    2.2495985928077107E+00 
    2.2215282776569443E+00 
    2.1941516935513721E+00 
    2.2228464677660371E+00 
    2.1825838357969669E+00 
    2.1568841950109894E+00 
    2.1097229212033817E+00 
    2.1285528617428060E+00 
    2.1300916633200404E+00 
    2.1016729086116346E+00 
    2.0681213177554989E+00 
    2.0897390214763085E+00 
    2.0499784884025738E+00 
    2.0355129171989996E+00 
    2.0048747024624736E+00 
    2.0121037093429148E+00 
    2.0744616556742659E+00 
    2.0628284534561994E+00 
    2.0179016914500187E+00 
    2.0223783495670071E+00 
    2.0688251542992706E+00 
    2.0297348386978080E+00 
    1.9997580847756566E+00 
    2.0385571967532612E+00 
    1.9824751217614998E+00 
    1.9181929185419140E+00 
    1.9040863818224401E+00 
    1.9553482696243820E+00 
    1.9368124006068441E+00 
    1.8982120726504945E+00 
    1.8952985463922658E+00 
    1.9235003591872994E+00 
    2.0102926254368683E+00 
    1.9745090009984538E+00 
    1.9537124589705017E+00 
    1.9848069828511863E+00 
    1.9754116663670673E+00 
    1.9767281203741653E+00 
    1.9409852974664357E+00 
    1.9364206442633898E+00 
    1.9765828108607482E+00 
    1.9750129203394577E+00 
    1.9451103901449767E+00 
    1.9438015891286617E+00 
    1.9163613640879804E+00 
    1.9180891947166434E+00 
    1.8948831697306143E+00 
    1.8951477552984488E+00 
    1.9085086899832333E+00 
    1.9132574701021372E+00 
    1.8944202748204759E+00 
    1.8923274466862892E+00 
    1.3603163395930657E+00 
    1.2605222637465092E+00 
    1.2286102665503260E+00 
    1.3164711469415973E+00 
    1.1546009352887452E+00 
    1.0372189072845914E+00 
    1.0318595408345324E+00 
    1.1351766426905012E+00 
    1.1180797647517677E+00 
    1.0299717108965738E+00 
    1.0312459775472467E+00 
    1.1036933285753969E+00 
    1.2733659144137974E+00 
    1.1982071780285279E+00 
    1.1698878533580659E+00 
    1.2318733956826640E+00 
    8.9782273416247271E-01 
    7.1567413710723660E-01 
    7.7119076810194165E-01 
    9.1376502285085337E-01 
    4.4475961980079248E-01 
    0.0000000000000000E+00 
    3.2245310741555733E-01 
    5.8444506057394363E-01 
    7.0050532156961531E-01 
    5.4652647324826242E-01 
    7.1364856199824311E-01 
    7.9981588729029263E-01 
    9.3383816582765700E-01 
    8.2676821910654974E-01 
    8.8044196730823332E-01 
    9.5573855924464113E-01 
    1.1900891464534051E+00 
    1.1341628897324165E+00 
    1.0927024801356320E+00 
    1.1500324643109898E+00 
    1.0733230527253093E+00 
    1.0056663149018397E+00 
    9.5061096797095601E-01 
    1.0270606097446089E+00 
    9.8598147592975516E-01 
    8.9682096116611210E-01 
    8.4620812144691160E-01 
    9.5225791439789509E-01 
    1.1174371945029231E+00 
    1.0587898209529174E+00 
    1.0348591189365730E+00 
    1.0960115065590523E+00 
    1.7384404922601098E+00 
    1.6492717314304166E+00 
    1.6194329292165022E+00 
    1.6938377706731007E+00 
    1.5627528626350846E+00 
    1.4764564180954243E+00 
    1.4706655655683301E+00 
    1.5452772589534378E+00 
    1.5275902471304781E+00 
    1.4645919214687648E+00 
    1.4582869158317351E+00 
    1.5097351700246642E+00 
    1.6513331011155996E+00 
    1.5898336953506929E+00 
    1.5604221837611809E+00 
    1.6101273698951439E+00 
    1.3905294620239887E+00 
    1.3047242305171081E+00 
    1.3211378418404152E+00 
    1.3960966171148153E+00 
    1.2207495379722086E+00 
    1.1423562987463320E+00 
    1.1734495158019977E+00 
    1.2465269576976186E+00 
    1.2726199878516338E+00 
    1.2073264837547613E+00 
    1.2439601279609571E+00 
    1.2993572074371078E+00 
    1.4013426733274383E+00 
    1.3372897436672673E+00 
    1.3533651236463078E+00 
    1.4063534411177023E+00 
    1.5670449640460853E+00 
    1.5228095624897049E+00 
    1.4766232432568192E+00 
    1.5217290855546655E+00 
    1.4775820102762898E+00 
    1.4317603574429345E+00 
    1.3844742322488077E+00 
    1.4306670489151061E+00 
    1.3826365678707524E+00 
    1.3360404567654514E+00 
    1.2860618775992840E+00 
    1.3327665408172658E+00 
    1.4764827284135003E+00 
    1.4296998806928578E+00 
    1.3804988532958780E+00 
    1.4290141633817450E+00 
    1.8286158683403775E+00 
    1.7594445263762255E+00 
    1.7939322745567090E+00 
    1.8487207474934300E+00 
    1.7047184949739591E+00 
    1.6561515145711767E+00 
    1.6969119865605431E+00 
    1.7436305617340568E+00 
    1.7765656843833864E+00 
    1.7342218864475010E+00 
    1.7674051603544854E+00 
    1.8041036897407936E+00 
    1.8607305216597261E+00 
    1.8191322555593570E+00 
    1.8385241577203411E+00 
    1.8696029061407753E+00 
    1.6128288522545977E+00 
    1.5734322173022284E+00 
    1.6314594701112239E+00 
    1.6596281977625611E+00 
    1.5344696704135190E+00 
    1.4954668120768904E+00 
    1.5768688191858187E+00 
    1.6039253805364975E+00 
    1.6693973197282546E+00 
    1.6534650445038559E+00 
    1.7238202878919289E+00 
    1.7296068101972497E+00 
    1.7035993065565993E+00 
    1.6861062494159620E+00 
    1.7363392732218479E+00 
    1.7438962792793484E+00 
    1.8753302932610687E+00 
    1.8487471091912289E+00 
    1.8543566149133144E+00 
    1.8797781216170308E+00 
    1.8171390871079294E+00 
    1.7812166855574116E+00 
    1.7810026204217584E+00 
    1.8212209111225472E+00 
    1.8263338440832528E+00 
    1.7819061235383928E+00 
    1.7839238220824198E+00 
    1.8325569546741647E+00 
    1.8842073789987628E+00 
    1.8607210760722033E+00 
    1.8677294822193555E+00 
    1.8882947743825962E+00 
    1.0958950278251209E+00 
    1.0347115707378303E+00 
    1.0588022929170868E+00 
    1.1173778936911472E+00 
    9.5225639058736444E-01 
    8.4639195695931901E-01 
    8.9737340723356540E-01 
    9.8625263406273633E-01 
    1.0277407683424644E+00 
    9.5164519129488234E-01 
    1.0069956359364145E+00 
    1.0742044536067219E+00 
    1.1498159913417381E+00 
    1.0930064170860530E+00 
    1.1344993657657172E+00 
    1.1897101099210563E+00 
    7.1386276578639218E-01 
    5.4652912562927847E-01 
    7.0097393801032049E-01 
    8.0050829351397423E-01 
    3.2227157440208470E-01 
    0.0000000000000000E+00 
    4.4360204320351854E-01 
    5.8427920194510397E-01 
    7.7240959468973824E-01 
    7.1615822994197320E-01 
    9.0028136015953275E-01 
    9.1612426273652969E-01 
    8.8169324365203705E-01 
    8.2810435758369605E-01 
    9.3586997206992872E-01 
    9.5734098813525959E-01 
    1.2311955653876410E+00 
    1.1701425988761116E+00 
    1.1983439466175019E+00 
    1.2722521560754725E+00 
    1.1046326802891426E+00 
    1.0327389639413458E+00 
    1.0317427938579495E+00 
    1.1191796214071148E+00 
    1.1362601138436870E+00 
    1.0338410185333460E+00 
    1.0391968461672465E+00 
    1.1554577663628833E+00 
    1.3148361741900734E+00 
    1.2284321274518279E+00 
    1.2599609402071748E+00 
    1.3581857859837883E+00 
    1.8691411895949765E+00 
    1.9566253377843004E+00 
    1.9485336806072717E+00 
    1.8680359455044333E+00 
    2.0404687021186696E+00 
    2.1196797319264649E+00 
    2.0992637124792339E+00 
    2.0258439658805680E+00 
    2.0135569481032887E+00 
    2.0806798261315587E+00 
    2.0635788899489960E+00 
    2.0033018649269700E+00 
    1.8692391138671720E+00 
    1.9429688771545606E+00 
    1.9396690825311171E+00 
    1.8726094675825786E+00 
    2.1917987832845660E+00 
    2.2565774293590590E+00 
    2.2213597640084450E+00 
    2.1640366281945798E+00 
    2.3146242849704768E+00 
    2.3655546445502345E+00 
    2.3255348907772824E+00 
    2.2750633344904503E+00 
    2.2340388559433411E+00 
    2.2808419375829239E+00 
    2.2317944182217642E+00 
    2.1912661929228063E+00 
    2.1375303706011568E+00 
    2.1865059474557063E+00 
    2.1515613099631294E+00 
    2.1118858648306920E+00 
    1.8822972816770522E+00 
    1.9501093073870439E+00 
    1.9758132179344021E+00 
    1.8997590379099758E+00 
    2.0129944250409455E+00 
    2.0717599555635786E+00 
    2.1052501688737570E+00 
    2.0434831357269392E+00 
    2.0769036743012026E+00 
    2.1400327016181659E+00 
    2.1770139823397012E+00 
    2.1147512472505232E+00 
    1.9226638639600078E+00 
    2.0062307333849398E+00 
    2.0441443744178791E+00 
    1.9560641779717527E+00 
    1.7787037945773039E+00 
    1.6871016947854154E+00 
    1.6992640298692248E+00 
    1.7838542485904663E+00 
    1.5950476191251568E+00 
    1.5032525581166514E+00 
    1.5303599213810957E+00 
    1.6146174028328624E+00 
    1.6344537656813007E+00 
    1.5575557308803476E+00 
    1.5850003692558758E+00 
    1.6546893593070156E+00 
    1.7905156524811718E+00 
    1.7121567850941235E+00 
    1.7257536980152290E+00 
    1.7985071442977536E+00 
    1.4142261383606192E+00 
    1.3282705160779600E+00 
    1.3811607574174656E+00 
    1.4526448058731822E+00 
    1.2440245960951977E+00 
    1.1622068615753640E+00 
    1.2401640794159610E+00 
    1.3103289209413984E+00 
    1.3782631073358869E+00 
    1.3220742530146368E+00 
    1.4058906402034981E+00 
    1.4473467437320537E+00 
    1.4912242503414705E+00 
    1.4346857840773464E+00 
    1.4887905653247591E+00 
    1.5301478087581764E+00 
    1.8027404121487036E+00 
    1.7268512048076132E+00 
    1.7132484289941610E+00 
    1.8009495360008381E+00 
    1.6543418076768053E+00 
    1.5841157631702052E+00 
    1.5540513014707202E+00 
    1.6319009471501782E+00 
    1.6079181196141392E+00 
    1.5234582534982930E+00 
    1.4923362448355140E+00 
    1.5819516916668859E+00 
    1.7950095584151045E+00 
    1.6965698038194692E+00 
    1.6750024487095552E+00 
    1.7807547007975775E+00 
    1.9555141169992525E+00 
    2.0432697798325035E+00 
    2.0051528239043890E+00 
    1.9218293406068212E+00 
    2.1131047893102970E+00 
    2.1746538454552371E+00 
    2.1380781182028228E+00 
    2.0753763999446555E+00 
    2.0420760507752393E+00 
    2.1036182375165877E+00 
    2.0704077014879210E+00 
    2.0117487007078299E+00 
    1.8986731945324509E+00 
    1.9746404373464892E+00 
    1.9489349876627562E+00 
    1.8810909690751081E+00 
    2.2294576405090858E+00 
    2.2792995154738471E+00 
    2.2326757657775067E+00 
    2.1893681057049061E+00 
    2.3248951427347522E+00 
    2.3655662634602117E+00 
    2.3144793044183167E+00 
    2.2743678981825517E+00 
    2.2206837576169045E+00 
    2.2563708053504556E+00 
    2.1915959584159679E+00 
    2.1634473205133125E+00 
    2.1500025512099739E+00 
    2.1853415402688166E+00 
    2.1365678283247735E+00 
    2.1106136874924166E+00 
    1.8714025793080391E+00 
    1.9385712505253883E+00 
    1.9420828674739612E+00 
    1.8682251790497248E+00 
    2.0022124095821883E+00 
    2.0624464531544455E+00 
    2.0798149997028466E+00 