# vtk DataFile Version 2.0
Pressure Field Data 
ASCII 
DATASET UNSTRUCTURED_GRID 

POINTS 801 double 

    0.0000000000000000E+00     0.0000000000000000E+00     0.0000000000000000E+00 
    1.0000000000000000E+00     0.0000000000000000E+00     0.0000000000000000E+00 
    1.0000000000000000E+00     1.0000000000000000E+00     0.0000000000000000E+00 
    0.0000000000000000E+00     1.0000000000000000E+00     0.0000000000000000E+00 
    2.5000000000000000E-01     2.5000000000000000E-01     0.0000000000000000E+00 
    7.5000000000000000E-01     2.5000000000000000E-01     0.0000000000000000E+00 
    7.5000000000000000E-01     7.5000000000000000E-01     0.0000000000000000E+00 
    2.5000000000000000E-01     7.5000000000000000E-01     0.0000000000000000E+00 
    2.4999999999941941E-01     0.0000000000000000E+00     0.0000000000000000E+00 
    4.9999999999869399E-01     0.0000000000000000E+00     0.0000000000000000E+00 
    7.4999999999934697E-01     0.0000000000000000E+00     0.0000000000000000E+00 
    1.2499999999977940E-01     0.0000000000000000E+00     0.0000000000000000E+00 
    3.7499999999905670E-01     0.0000000000000000E+00     0.0000000000000000E+00 
    6.2499999999902045E-01     0.0000000000000000E+00     0.0000000000000000E+00 
    8.7499999999967348E-01     0.0000000000000000E+00     0.0000000000000000E+00 
    6.2499999999889699E-02     0.0000000000000000E+00     0.0000000000000000E+00 
    1.8749999999959940E-01     0.0000000000000000E+00     0.0000000000000000E+00 
    3.1249999999923811E-01     0.0000000000000000E+00     0.0000000000000000E+00 
    4.3749999999887529E-01     0.0000000000000000E+00     0.0000000000000000E+00 
    5.6249999999885725E-01     0.0000000000000000E+00     0.0000000000000000E+00 
    6.8749999999918376E-01     0.0000000000000000E+00     0.0000000000000000E+00 
    8.1249999999951017E-01     0.0000000000000000E+00     0.0000000000000000E+00 
    9.3749999999983680E-01     0.0000000000000000E+00     0.0000000000000000E+00 
    1.0000000000000000E+00     2.4999999999941941E-01     0.0000000000000000E+00 
    1.0000000000000000E+00     4.9999999999869399E-01     0.0000000000000000E+00 
    1.0000000000000000E+00     7.4999999999934697E-01     0.0000000000000000E+00 
    1.0000000000000000E+00     1.2499999999977940E-01     0.0000000000000000E+00 
    1.0000000000000000E+00     3.7499999999905670E-01     0.0000000000000000E+00 
    1.0000000000000000E+00     6.2499999999902045E-01     0.0000000000000000E+00 
    1.0000000000000000E+00     8.7499999999967348E-01     0.0000000000000000E+00 
    1.0000000000000000E+00     6.2499999999889699E-02     0.0000000000000000E+00 
    1.0000000000000000E+00     1.8749999999959940E-01     0.0000000000000000E+00 
    1.0000000000000000E+00     3.1249999999923811E-01     0.0000000000000000E+00 
    1.0000000000000000E+00     4.3749999999887529E-01     0.0000000000000000E+00 
    1.0000000000000000E+00     5.6249999999885725E-01     0.0000000000000000E+00 
    1.0000000000000000E+00     6.8749999999918376E-01     0.0000000000000000E+00 
    1.0000000000000000E+00     8.1249999999951017E-01     0.0000000000000000E+00 
    1.0000000000000000E+00     9.3749999999983680E-01     0.0000000000000000E+00 
    7.5000000000112044E-01     1.0000000000000000E+00     0.0000000000000000E+00 
    5.0000000000205913E-01     1.0000000000000000E+00     0.0000000000000000E+00 
    2.5000000000102962E-01     1.0000000000000000E+00     0.0000000000000000E+00 
    8.7499999999991362E-01     1.0000000000000000E+00     0.0000000000000000E+00 
    6.2499999999988309E-01     1.0000000000000000E+00     0.0000000000000000E+00 
    3.7499999999869987E-01     1.0000000000000000E+00     0.0000000000000000E+00 
    1.2499999999880820E-01     1.0000000000000000E+00     0.0000000000000000E+00 
    9.3749999999995681E-01     1.0000000000000000E+00     0.0000000000000000E+00 
    8.1250000000051703E-01     1.0000000000000000E+00     0.0000000000000000E+00 
    6.8750000000050182E-01     1.0000000000000000E+00     0.0000000000000000E+00 
    5.6250000000097111E-01     1.0000000000000000E+00     0.0000000000000000E+00 
    4.3750000000037947E-01     1.0000000000000000E+00     0.0000000000000000E+00 
    3.1249999999986477E-01     1.0000000000000000E+00     0.0000000000000000E+00 
    1.8749999999991890E-01     1.0000000000000000E+00     0.0000000000000000E+00 
    6.2499999999404102E-02     1.0000000000000000E+00     0.0000000000000000E+00 
    0.0000000000000000E+00     7.5000000000112044E-01     0.0000000000000000E+00 
    0.0000000000000000E+00     5.0000000000205913E-01     0.0000000000000000E+00 
    0.0000000000000000E+00     2.5000000000102962E-01     0.0000000000000000E+00 
    0.0000000000000000E+00     8.7499999999991362E-01     0.0000000000000000E+00 
    0.0000000000000000E+00     6.2499999999988309E-01     0.0000000000000000E+00 
    0.0000000000000000E+00     3.7499999999869987E-01     0.0000000000000000E+00 
    0.0000000000000000E+00     1.2499999999880820E-01     0.0000000000000000E+00 
    0.0000000000000000E+00     9.3749999999995681E-01     0.0000000000000000E+00 
    0.0000000000000000E+00     8.1250000000051703E-01     0.0000000000000000E+00 
    0.0000000000000000E+00     6.8750000000050182E-01     0.0000000000000000E+00 
    0.0000000000000000E+00     5.6250000000097111E-01     0.0000000000000000E+00 
    0.0000000000000000E+00     4.3750000000037947E-01     0.0000000000000000E+00 
    0.0000000000000000E+00     3.1249999999986477E-01     0.0000000000000000E+00 
    0.0000000000000000E+00     1.8749999999991890E-01     0.0000000000000000E+00 
    0.0000000000000000E+00     6.2499999999404102E-02     0.0000000000000000E+00 
    4.9999999999972200E-01     2.5000000000000000E-01     0.0000000000000000E+00 
    3.7500000000067490E-01     2.5000000000000000E-01     0.0000000000000000E+00 
    6.2500000000042988E-01     2.5000000000000000E-01     0.0000000000000000E+00 
    3.1250000000033751E-01     2.5000000000000000E-01     0.0000000000000000E+00 
    4.3750000000019851E-01     2.5000000000000000E-01     0.0000000000000000E+00 
    5.6250000000007594E-01     2.5000000000000000E-01     0.0000000000000000E+00 
    6.8750000000021494E-01     2.5000000000000000E-01     0.0000000000000000E+00 
    7.5000000000000000E-01     4.9999999999972200E-01     0.0000000000000000E+00 
    7.5000000000000000E-01     3.7500000000067490E-01     0.0000000000000000E+00 
    7.5000000000000000E-01     6.2500000000042988E-01     0.0000000000000000E+00 
    7.5000000000000000E-01     3.1250000000033751E-01     0.0000000000000000E+00 
    7.5000000000000000E-01     4.3750000000019851E-01     0.0000000000000000E+00 
    7.5000000000000000E-01     5.6250000000007594E-01     0.0000000000000000E+00 
    7.5000000000000000E-01     6.8750000000021494E-01     0.0000000000000000E+00 
    5.0000000000118039E-01     7.5000000000000000E-01     0.0000000000000000E+00 
    6.2500000000161415E-01     7.5000000000000000E-01     0.0000000000000000E+00 
    3.7500000000140910E-01     7.5000000000000000E-01     0.0000000000000000E+00 
    6.8750000000080713E-01     7.5000000000000000E-01     0.0000000000000000E+00 
    5.6250000000139733E-01     7.5000000000000000E-01     0.0000000000000000E+00 
    4.3750000000129469E-01     7.5000000000000000E-01     0.0000000000000000E+00 
    3.1250000000070460E-01     7.5000000000000000E-01     0.0000000000000000E+00 
    2.5000000000000000E-01     5.0000000000118039E-01     0.0000000000000000E+00 
    2.5000000000000000E-01     6.2500000000161415E-01     0.0000000000000000E+00 
    2.5000000000000000E-01     3.7500000000140910E-01     0.0000000000000000E+00 
    2.5000000000000000E-01     6.8750000000080713E-01     0.0000000000000000E+00 
    2.5000000000000000E-01     5.6250000000139733E-01     0.0000000000000000E+00 
    2.5000000000000000E-01     4.3750000000129469E-01     0.0000000000000000E+00 
    2.5000000000000000E-01     3.1250000000070460E-01     0.0000000000000000E+00 
    3.7499999999934702E-01     1.2500000000000000E-01     0.0000000000000000E+00 
    1.2500000000000000E-01     1.2500000000000000E-01     0.0000000000000000E+00 
    1.2500000000000000E-01     3.7500000000102962E-01     0.0000000000000000E+00 
    8.7500000000000000E-01     1.2500000000000000E-01     0.0000000000000000E+00 
    6.2499999999934697E-01     1.2500000000000000E-01     0.0000000000000000E+00 
    8.7500000000000000E-01     3.7499999999934702E-01     0.0000000000000000E+00 
    8.7500000000000000E-01     6.2499999999934697E-01     0.0000000000000000E+00 
    1.2500000000000000E-01     6.2500000000102962E-01     0.0000000000000000E+00 
    1.2500000000000000E-01     8.7500000000000000E-01     0.0000000000000000E+00 
    8.7500000000000000E-01     8.7500000000000000E-01     0.0000000000000000E+00 
    6.2500000000102962E-01     8.7500000000000000E-01     0.0000000000000000E+00 
    3.7500000000102962E-01     8.7500000000000000E-01     0.0000000000000000E+00 
    2.4999999999957681E-01     8.3333333333333329E-02     0.0000000000000000E+00 
    8.3333333333333329E-02     2.5000000000068640E-01     0.0000000000000000E+00 
    7.4999999999956468E-01     8.3333333333333329E-02     0.0000000000000000E+00 
    4.9999999999951827E-01     1.6666666666666671E-01     0.0000000000000000E+00 
    9.1666666666666674E-01     2.4999999999957681E-01     0.0000000000000000E+00 
    8.3333333333333337E-01     4.9999999999951827E-01     0.0000000000000000E+00 
    1.6666666666666671E-01     5.0000000000088307E-01     0.0000000000000000E+00 
    8.3333333333333329E-02     7.5000000000070155E-01     0.0000000000000000E+00 
    9.1666666666666674E-01     7.4999999999956468E-01     0.0000000000000000E+00 
    5.0000000000088307E-01     8.3333333333333348E-01     0.0000000000000000E+00 
    2.5000000000068640E-01     9.1666666666666674E-01     0.0000000000000000E+00 
    7.5000000000070155E-01     9.1666666666666674E-01     0.0000000000000000E+00 
[...]
CELL_DATA 768 
SCALARS Pressure double 1 
LOOKUP_TABLE default 

    2.0814571348973145E+00 
    1.9880282677936794E+00 
    1.9579351499877544E+00 
    2.0150700143959335E+00 
    1.9268138605418290E+00 
    1.8800169484002114E+00 
    1.8758689274223441E+00 
    1.9136449463275875E+00 
    1.9000615042152655E+00 
    1.8708411029116558E+00 
    1.8650988617595485E+00 
    1.8864208410650150E+00 
    1.9657205017777943E+00 
    1.9311962857199556E+00 
    1.9072198469556172E+00 
    1.9274422871994292E+00 
    1.8386691387758543E+00 
    1.7989605150859040E+00 
    1.8063905515295273E+00 
    1.8406201051607243E+00 
    1.7589247973623685E+00 
    1.7176307482419009E+00 
    1.7368025051659040E+00 
    1.7720464791506987E+00 
    1.7844466401666104E+00 
    1.7552455013434225E+00 
    1.7726498875453656E+00 
    1.7958948101289909E+00 
    1.8417698742207103E+00 
    1.8130861347730056E+00 
    1.8188995707458782E+00 
    1.8421190060555948E+00 
    1.8955103425588171E+00 
    1.8826164421827694E+00 
    1.8586899594369348E+00 
    1.8683849932651455E+00 
    1.8676035843876038E+00 
    1.8508959247452250E+00 
    1.8300616077912850E+00 
    1.8456801114369255E+00 
    1.8253816639091311E+00 
    1.8098821104581821E+00 
    1.7898704762205504E+00 
    1.8060996942814114E+00 
    1.8457911606267510E+00 
    1.8377022214887928E+00 
    1.8191876753046896E+00 
    1.8277359495734462E+00 
    2.0815026119147704E+00 
    2.0151314236674471E+00 
    1.9581521402835784E+00 
    1.9882324464592214E+00 
    1.9657942068109830E+00 
    1.9275154177940073E+00 
    1.9074216759165703E+00 
    1.9314081280048556E+00 
    1.9003890543764730E+00 
    1.8867024959947525E+00 
    1.8654246610762464E+00 
    1.8712162826324032E+00 
    1.9271604521410621E+00 
    1.9139868578675185E+00 
    1.8762838029141056E+00 
    1.8804415393423248E+00 
    1.8955844708946255E+00 
    1.8684480005741910E+00 
    1.8588455438102427E+00 
    1.8828053231965483E+00 
    1.8458222965797360E+00 
    1.8277796160079276E+00 
    1.8192325966644955E+00 
    1.8377917271091619E+00 
    1.8254620282536205E+00 
    1.8060346151021411E+00 
    1.7896760579995739E+00 
    1.8098866547637509E+00 
    1.8678531907015556E+00 
    1.8458612754478483E+00 
    1.8302209992866589E+00 
    1.8511545432044418E+00 
    1.8390351471222650E+00 
    1.8409705026245806E+00 
    1.8065271031798624E+00 
    1.7990616234410219E+00 
    1.8420843240405615E+00 
    1.8423802253403938E+00 
    1.8190230046761449E+00 
    1.8132145888114937E+00 
    1.7843438066455450E+00 
    1.7958191579632827E+00 
    1.7723370392797622E+00 
    1.7548934827896925E+00 
    1.7587439835332135E+00 
    1.7719093413877873E+00 
    1.7364440211334053E+00 
    1.7172695718416739E+00 
    1.6510082231093621E+00 
    1.6059981271539223E+00 
    1.5904048148021019E+00 
    1.6296800184986442E+00 
    1.5611136382412900E+00 
    1.5181336851498812E+00 
    1.5144040647903159E+00 
    1.5515067576297741E+00 
    1.5408831520418473E+00 
    1.5095959641388934E+00 
    1.5036212729305549E+00 
    1.5289657943470227E+00 
    1.6074758564193421E+00 
    1.5738800019238623E+00 
    1.5560057958921512E+00 
    1.5839305943724682E+00 
    1.4793646787035453E+00 
    1.4471650477193165E+00 
    1.4509289491695267E+00 
    1.4804308609207428E+00 
    1.4236024502368292E+00 
    1.4096075673043202E+00 
    1.4116118862090228E+00 
    1.4276955672508462E+00 
    1.4304423932655055E+00 
    1.4125648994057933E+00 
    1.4126900944502343E+00 
    1.4319826846281207E+00 
    1.4803013263362945E+00 
    1.4532531947914114E+00 
    1.4543242778363532E+00 
    1.4790055856727318E+00 
    1.5567391091048404E+00 
    1.5315907366511456E+00 
    1.4995315179109490E+00 
    1.5244088810141356E+00 
    1.5081644380902948E+00 
    1.4870856919665676E+00 
    1.4614142061433344E+00 
    1.4786187915449898E+00 
    1.4475569275831093E+00 
    1.4364911165093888E+00 
    1.4132164570339285E+00 
    1.4158159592850525E+00 
    1.4855011091125314E+00 
    1.4629772361316846E+00 
    1.4209116779514483E+00 
    1.4329649836243394E+00 
    1.6846984906634590E+00 
    1.6608476332313369E+00 
    1.6838868458583545E+00 
    1.7072607106921753E+00 
    1.6361471359842008E+00 
    1.6103067494768801E+00 
    1.6347821105378750E+00 
    1.6597811082995075E+00 
    1.6830126886215853E+00 
    1.6588739665276540E+00 
    1.6823518026680357E+00 
    1.7056356215875925E+00 
    1.7291263549768745E+00 
    1.7064052586549696E+00 
    1.7281978311886697E+00 
    1.7500899545270092E+00 
    1.5845085104164987E+00 
    1.5586127842331829E+00 
    1.5958525062218658E+00 
    1.6133273465006448E+00 
    1.5306657635443770E+00 
    1.4999862297187188E+00 
    1.5588750158664246E+00 
    1.5777171890731698E+00 
    1.6212106383119760E+00 
    1.6110164368870281E+00 
    1.6587339473056619E+00 
    1.6619333183743035E+00 
    1.6414222974372201E+00 
    1.6313775295462809E+00 
    1.6652552179543803E+00 
    1.6686331494350148E+00 
    1.7684903987634726E+00 
    1.7449712716362642E+00 
    1.7570993160758390E+00 
    1.7842473400450689E+00 
    1.7204593641773358E+00 
    1.6949332514821112E+00 
    1.6973911796717975E+00 
    1.7281000963612811E+00 
    1.7356339945662742E+00 
    1.6999088092214103E+00 
    1.7024948372492994E+00 
    1.7430850286642339E+00 
    1.7985629440857522E+00 
    1.7686805084751993E+00 
    1.7797516745534399E+00 
    1.8113065017653516E+00 
    1.4061376840863251E+00 
    1.3898322682047970E+00 
    1.3841498850751119E+00 
    1.4029404719346175E+00 
    1.3615778820697855E+00 
    1.3220453684353271E+00 
    1.3202782832870552E+00 
    1.3563654400370300E+00 
    1.3521716161186090E+00 
    1.3195466484129006E+00 
    1.3198549548609364E+00 
    1.3490385350522673E+00 
    1.3996702001040497E+00 
    1.3791180223037773E+00 
    1.3748030252224626E+00 
    1.3964650755459851E+00 
    1.2736613683789391E+00 
    1.2178259520351009E+00 
    1.2303345631364084E+00 
    1.2781825533771611E+00 
    1.1566870031458016E+00 
    1.0915331384074660E+00 
    1.1229206295331327E+00 
    1.1782443681266530E+00 
    1.2000213745711226E+00 
    1.1540761133770714E+00 
    1.1855613500928837E+00 
    1.2226234409531069E+00 
    1.2834834137961610E+00 
    1.2434851084147249E+00 
    1.2576085311343381E+00 
    1.2897673067038242E+00 
    1.3920576404899057E+00 
    1.3666661178624342E+00 
    1.3511239745721708E+00 
    1.3850917209582458E+00 
    1.3386405330962639E+00 
    1.3088686717269755E+00 
    1.2823007047337116E+00 
    1.3165720928479190E+00 
    1.2901793191705220E+00 
    1.2525634993409633E+00 
    1.2201787883093220E+00 
    1.2590930381649204E+00 
    1.3755559259589685E+00 
    1.3309413487675668E+00 
    1.3032090928723534E+00 
    1.3593336245510688E+00 
    1.2861009085948996E+00 
    1.2504052689144418E+00 
    1.1913757143330432E+00 
    1.2150308471268900E+00 
    1.2165207972309586E+00 
    1.1837826891034355E+00 
    1.1447248820163733E+00 
    1.1679684124747434E+00 
    1.1191911121360116E+00 
    1.1050513973433103E+00 
    1.0647588487092090E+00 
    1.0698003886042808E+00 
    1.1469446187847514E+00 
    1.1331233849811548E+00 
    1.0746348432904205E+00 
    1.0792467261082295E+00 
    1.1495648167718830E+00 
    1.1134680136210717E+00 
    1.0784756163801568E+00 
    1.1149831867750040E+00 
    1.0773388274391658E+00 
    1.0401898536937439E+00 
    1.0032454181260797E+00 
    1.0414164634266496E+00 
    1.0048291376469922E+00 
    9.6582659558887463E-01 
    9.2857475297581926E-01 
    9.6794662167867007E-01 
    1.0796681091868403E+00 
    1.0426445804403566E+00 
    1.0062805654029372E+00 
    1.0437051837242841E+00 
    1.0113103079712973E+00 
    1.0156088397113070E+00 
    9.5537681781038553E-01 
    9.4209071115492371E-01 
    1.0196830262815431E+00 
    1.0235831917042666E+00 
    9.8141792925553362E-01 
    9.6839347668607834E-01 
    9.1659448700554913E-01 
    9.3840015168856095E-01 
    8.9454819629825821E-01 
    8.6461536518874182E-01 
    8.7425626696775183E-01 
    8.9521760709033615E-01 
    8.3675820036224802E-01 
    8.1133191115108594E-01 
    1.8115073304793070E+00 
    1.7794810937815877E+00 
    1.7682102235377426E+00 
    1.7984980564987956E+00 
    1.7421248887053522E+00 
    1.7009054023748791E+00 
    1.6984701407216343E+00 
    1.7346325655397645E+00 
    1.7270987501632546E+00 
    1.6960934829809511E+00 
    1.6937706174757619E+00 
    1.7194898459070163E+00 
    1.7839752421359114E+00 
    1.7564827168162978E+00 
    1.7442684535476847E+00 
    1.7680585623371090E+00 
    1.6572067065292366E+00 
    1.6102804797198740E+00 
    1.6204138086752786E+00 
    1.6605565288516781E+00 
    1.5591165973373169E+00 
    1.5007799782844800E+00 
    1.5311306631433215E+00 
    1.5776480960402619E+00 
    1.5955719509585156E+00 
    1.5587825882178707E+00 
    1.5844570707098740E+00 
    1.6129327426625006E+00 
    1.6640034365247542E+00 
    1.6305541776165207E+00 
    1.6406262296701695E+00 
    1.6675147690692727E+00 
    1.7495423009801121E+00 
    1.7274179956818592E+00 
    1.7056847899657117E+00 
    1.7285978320681030E+00 
    1.7046752276220845E+00 
    1.6813017106603072E+00 
    1.6580684260214686E+00 
    1.6822107587461348E+00 
    1.6592009119365447E+00 
    1.6342968375146794E+00 
    1.6100782263113078E+00 
    1.6357783954057752E+00 
    1.7067939839231288E+00 
    1.6833387392488350E+00 
    1.6604353565829302E+00 
    1.6843164543464668E+00 
    1.6507158900290644E+00 
    1.6294200235550074E+00 
    1.5903480191500687E+00 
    1.6058886712742169E+00 
    1.6073055857784966E+00 
    1.5839226532387272E+00 
    1.5561825324135965E+00 
    1.5739142063236988E+00 
    1.5410714034137900E+00 
    1.5292443691701831E+00 
    1.5039345046274006E+00 
    1.5098040472661258E+00 
    1.5611676386516755E+00 
    1.5516003923929484E+00 
    1.5145207909955620E+00 
    1.5181798672282656E+00 
    1.5569368813495441E+00 
    1.5248557438305546E+00 
    1.5000795219534506E+00 
    1.5319238155324291E+00 
    1.4861766208342317E+00 
    1.4337822064724559E+00 
    1.4217716148349657E+00 
    1.4636930717007621E+00 
    1.4482354831097088E+00 
    1.4166028718077668E+00 
    1.4138179144914640E+00 
    1.4370260565146289E+00 
    1.5085621519557930E+00 
    1.4791696203782327E+00 
    1.4618888509190728E+00 
    1.4874739200910354E+00 
    1.4793721745552018E+00 
    1.4805042899055709E+00 
    1.4508421892563608E+00 
    1.4469413704425742E+00 
    1.4804626127660045E+00 
    1.4792758681942351E+00 
    1.4545980986971574E+00 
    1.4533302622702400E+00 
    1.4304357163219792E+00 
    1.4322326613790706E+00 
    1.4129572950695348E+00 
    1.4125553772337247E+00 
    1.4232494138142597E+00 
    1.4274893182926913E+00 
    1.4113633475098211E+00 
    1.4092487413759436E+00 
    9.8657573026971157E-01 
    9.1125463583278099E-01 
    8.8578295055306089E-01 
    9.5260974522997621E-01 
    8.2998477796157510E-01 
    7.3932621255562658E-01 
    7.3498295935884084E-01 
    8.1413459933521948E-01 
    7.9992261277035881E-01 
    7.3297171812460382E-01 
    7.3327500355771513E-01 
    7.8791211614125323E-01 
    9.1861606048248956E-01 
    8.6117670512821842E-01 
    8.3824794401682579E-01 
    8.8562432915340294E-01 
    6.3382565275759006E-01 
    4.9988182257985475E-01 
    5.4081053417305325E-01 
    6.4600432125016582E-01 
    3.0817571139645716E-01 
    0.0000000000000000E+00 
    2.2579903964606637E-01 
    4.0736316251600868E-01 
    4.9071682138078598E-01 
    3.8409649143852120E-01 
    5.0295186015602145E-01 
    5.6264812005878906E-01 
    6.6044699721836042E-01 
    5.8131593958631178E-01 
    6.2063004284239609E-01 
    6.7644214146422987E-01 
    8.5208227330850661E-01 
    8.0961203131228554E-01 
    7.7670868507304358E-01 
    8.1969520605475021E-01 
    7.6384578241349632E-01 
    7.1338670068033916E-01 
    6.7209425867021044E-01 
    7.2815536458885166E-01 
    6.9698051557643725E-01 
    6.3282183626161415E-01 
    5.9721543647277608E-01 
    6.7246177856863376E-01 
    7.9308028440395606E-01 
    7.4975362010662239E-01 
    7.3126965507602348E-01 
    7.7548152664979730E-01 
    1.2873428533816458E+00 
    1.2153308581943665E+00 
    1.1913518506126355E+00 
    1.2512299054297560E+00 
    1.1459330953917599E+00 
    1.0771001478123172E+00 
    1.0725980144431579E+00 
    1.1320151228025999E+00 
    1.1179876838870444E+00 
    1.0679034945221271E+00 
    1.0630402746041148E+00 
    1.1038711792240226E+00 
    1.2169857964627402E+00 
    1.1676610286360467E+00 
    1.1442046810274920E+00 
    1.1839297924932131E+00 
    1.0088662452360160E+00 
    9.4066886498679347E-01 
    9.5383522908408480E-01 
    1.0133774785394207E+00 
    8.7404137332258935E-01 
    8.1180983609474133E-01 
    8.3706883106785279E-01 
    8.9471427921371793E-01 
    9.1587067776290609E-01 
    8.6472042307798591E-01 
    8.9447272007503620E-01 
    9.3762673982698519E-01 
    1.0176879568905561E+00 
    9.6693036944770805E-01 
    9.8004066181185734E-01 
    1.0218603061704170E+00 
    1.1494437483143569E+00 
    1.1142671309204746E+00 
    1.0776272602195061E+00 
    1.1131249995540229E+00 
    1.0784331103949196E+00 
    1.0421386753167337E+00 
    1.0049292172759374E+00 
    1.0414638073572933E+00 
    1.0039165926655811E+00 
    9.6705262072148834E-01 
    9.2829579445016930E-01 
    9.6544570404377983E-01 
    1.0769410323443271E+00 
    1.0406843711807656E+00 
    1.0028298079915889E+00 
    1.0399043888051962E+00 
    1.3603019095808535E+00 
    1.3042200608736085E+00 
    1.3320463560300400E+00 
    1.3765549670417412E+00 
    1.2599776732213883E+00 
    1.2208627958218066E+00 
    1.2536438268701546E+00 
    1.2913299797688467E+00 
    1.3178251500660143E+00 
    1.2836582024814400E+00 
    1.3103117772033670E+00 
    1.3399023161323693E+00 
    1.3860199359960184E+00 
    1.3522703134090011E+00 
    1.3677002480198859E+00 
    1.3928268552537451E+00 
    1.1860558323965520E+00 
    1.1543280064946442E+00 
    1.2009797681667960E+00 
    1.2236505952621644E+00 
    1.1229153717386380E+00 
    1.0913033115768043E+00 
    1.1572314512335735E+00 
    1.1790276292370083E+00 
    1.2318608737234169E+00 
    1.2193210947792610E+00 
    1.2755549108834099E+00 
    1.2800006427705906E+00 
    1.2590114104302754E+00 
    1.2449644094980468E+00 
    1.2851960905467890E+00 
    1.2913433480334948E+00 
    1.3969320257549445E+00 
    1.3756199017255657E+00 
    1.3797533771058996E+00 
    1.3998708807539157E+00 
    1.3502186948790054E+00 
    1.3213502030334379E+00 
    1.3211338517696531E+00 
    1.3533239626625666E+00 
    1.3574253704385708E+00 
    1.3219528589788219E+00 
    1.3237685930123686E+00 
    1.3625509514722096E+00 
    1.4028785295430570E+00 
    1.3845918266066211E+00 
    1.3900857236194670E+00 
    1.4058942286174370E+00 
    7.7572935698305379E-01 
    7.3159183148599027E-01 
    7.5062475081826829E-01 
    7.9368855682742012E-01 
    6.7287000610622461E-01 
    5.9765439712979274E-01 
    6.3403998324217137E-01 
    6.9810576356498710E-01 
    7.2976070280770156E-01 
    6.7394566802230960E-01 
    7.1560320199653271E-01 
    7.6568039776396979E-01 
    8.2038816250356894E-01 
    7.7793357693965193E-01 
    8.1088846076241061E-01 
    8.5270496800406104E-01 
    5.0338554622314691E-01 
    3.8446659229092212E-01 
    4.9202021356480879E-01 
    5.6393412421419964E-01 
    2.2602428821374820E-01 
    0.0000000000000000E+00 
    3.0886021565460980E-01 
    4.0843220428840238E-01 
    5.4299194876496626E-01 
    5.0180640832359014E-01 
    6.3684917530101537E-01 
    6.4896001588639485E-01 
    6.2263740425934000E-01 
    5.8347589814771383E-01 
    6.6321492675489147E-01 
    6.7888955829137121E-01 
    8.8605854515414528E-01 
    8.3942785720205126E-01 
    8.6229301090711641E-01 
    9.1889968501207853E-01 
    7.8981151290761320E-01 
    7.3570782348396790E-01 
    7.3566754318176641E-01 
    8.0194488706256406E-01 
    8.1614387243768727E-01 
    7.3784688316475722E-01 
    7.4222957174962911E-01 
    8.3187586125359869E-01 
    9.5274243681948834E-01 
    8.8674578320210751E-01 
    9.1199730687131308E-01 
    9.8655152061893470E-01 
    1.3966882190793768E+00 
    1.4682524281228986E+00 
    1.4614310686885399E+00 
    1.3955420765806841E+00 
    1.5369869236476259E+00 
    1.6020833489267530E+00 
    1.5851393035786316E+00 
    1.5248204611287695E+00 
    1.5144800830691429E+00 
    1.5696344804409392E+00 
    1.5552952919217056E+00 
    1.5057293778480259E+00 
    1.3961325943096268E+00 
    1.4565621421961015E+00 
    1.4534443678576987E+00 
    1.3983571732139861E+00 
    1.6615277976377429E+00 
    1.7151148960625859E+00 
    1.6857119547461152E+00 
    1.6384534152002532E+00 
    1.7633659229186673E+00 
    1.8062850703955013E+00 
    1.7723153733908468E+00 
    1.7301116606075959E+00 
    1.6956559625391066E+00 
    1.7345747994182730E+00 
    1.6934218893124351E+00 
    1.6598485859481833E+00 
    1.6163654768850324E+00 
    1.6565833888235306E+00 
    1.6273963582913040E+00 
    1.5949583383467243E+00 
    1.4056517628891254E+00 
    1.4615385925316817E+00 
    1.4821756458237163E+00 
    1.4192759240432449E+00 
    1.5133254819768958E+00 
    1.5617325407399247E+00 
    1.5889904695095041E+00 
    1.5380156620520189E+00 
    1.5651159645930914E+00 
    1.6172932979476442E+00 
    1.6479039745925717E+00 
    1.5965953436203293E+00 
    1.4373616303271917E+00 
    1.5067220772656584E+00 
    1.5385620391638217E+00 
    1.4656924319611531E+00 
    1.3229764946521732E+00 
    1.2484052896035573E+00 
    1.2582399808320466E+00 
    1.3271015806993400E+00 
    1.1736591487043908E+00 
    1.0993261045094451E+00 
    1.1212435800518510E+00 
    1.1894982941179655E+00 
    1.2054185637633168E+00 
    1.1431274950901043E+00 
    1.1651034751284499E+00 
    1.2215225022664888E+00 
    1.3322847860851701E+00 
    1.2685105136777308E+00 
    1.2791920950749462E+00 
    1.3383798058083090E+00 
    1.0274418654405340E+00 
    9.5824453132810872E-01 
    1.0007922407977490E+00 
    1.0584370780745747E+00 
    8.9064098172308126E-01 
    8.2511452723261969E-01 
    8.8743541635963641E-01 
    9.4381096062416592E-01 
    9.9820954855477118E-01 
    9.5283823645350563E-01 
    1.0197664370420023E+00 
    1.0534585322543057E+00 
    1.0894697244773572E+00 
    1.0437533853049654E+00 
    1.0870927556437355E+00 
    1.1206848524161115E+00 
    1.3412398328899227E+00 
    1.2795590037245004E+00 
    1.2678002679459250E+00 
    1.3389890893229066E+00 
    1.2208129117717803E+00 
    1.1640684086144113E+00 
    1.1394079022554069E+00 
    1.2020871189568583E+00 
    1.1819789102611864E+00 
    1.1142772152873883E+00 
    1.0885901348659339E+00 
    1.1599980294634173E+00 
    1.3331051634939357E+00 
    1.2533176583363510E+00 
    1.2344616471948651E+00 
    1.3201119252380491E+00 
    1.4665064276284763E+00 
    1.5387962069220089E+00 
    1.5066733108460679E+00 
    1.4377777301326247E+00 
    1.5958772861269823E+00 
    1.6463896397152367E+00 
    1.6161138414385228E+00 
    1.5644583737058577E+00 
    1.5374115524822642E+00 
    1.5880640005473570E+00 
    1.5610135254315640E+00 
    1.5128001165652518E+00 
    1.4193209812189060E+00 
    1.4819440651093359E+00 
    1.4612025756884384E+00 
    1.4054392023703628E+00 
    1.6918334695590502E+00 
    1.7336130016018048E+00 
    1.6948030846911140E+00 
    1.6586175173662923E+00 
    1.7720492985362444E+00 
    1.8064571511561360E+00 
    1.7633469724596005E+00 
    1.7297398104503927E+00 
    1.6853173423010275E+00 
    1.7150118127151228E+00 
    1.6614105025555959E+00 
    1.6381066392887489E+00 
    1.6264346221792714E+00 
    1.6558670159785738E+00 
    1.6157955008846694E+00 
    1.5942187848471354E+00 
    1.3979781614127291E+00 
    1.4530428796537100E+00 
    1.4561895738081700E+00 
    1.3957400158619071E+00 
    1.5052389495021963E+00 
    1.5546916353003868E+00 
    1.5691558968131887E+00 