# vtk DataFile Version 2.0
Pressure Field Data 
ASCII 
DATASET UNSTRUCTURED_GRID 

POINTS 801 double 

    0.0000000000000000E+00     0.0000000000000000E+00     0.0000000000000000E+00 
    1.0000000000000000E+00     0.0000000000000000E+00     0.0000000000000000E+00 
    1.0000000000000000E+00     1.0000000000000000E+00     0.0000000000000000E+00 
    0.0000000000000000E+00     1.0000000000000000E+00     0.0000000000000000E+00 
    2.5000000000000000E-01     2.5000000000000000E-01     0.0000000000000000E+00 
    7.5000000000000000E-01     2.5000000000000000E-01     0.0000000000000000E+00 
    7.5000000000000000E-01     7.5000000000000000E-01     0.0000000000000000E+00 
    2.5000000000000000E-01     7.5000000000000000E-01     0.0000000000000000E+00 
    2.4999999999941941E-01     0.0000000000000000E+00     0.0000000000000000E+00 
    4.9999999999869399E-01     0.0000000000000000E+00     0.0000000000000000E+00 
    7.4999999999934697E-01     0.0000000000000000E+00     0.0000000000000000E+00 
    1.2499999999977940E-01     0.0000000000000000E+00     0.0000000000000000E+00 
    3.7499999999905670E-01     0.0000000000000000E+00     0.0000000000000000E+00 
    6.2499999999902045E-01     0.0000000000000000E+00     0.0000000000000000E+00 
    8.7499999999967348E-01     0.0000000000000000E+00     0.0000000000000000E+00 
    6.2499999999889699E-02     0.0000000000000000E+00     0.0000000000000000E+00 
    1.8749999999959940E-01     0.0000000000000000E+00     0.0000000000000000E+00 
    3.1249999999923811E-01     0.0000000000000000E+00     0.0000000000000000E+00 
    4.3749999999887529E-01     0.0000000000000000E+00     0.0000000000000000E+00 
    5.6249999999885725E-01     0.0000000000000000E+00     0.0000000000000000E+00 
    6.8749999999918376E-01     0.0000000000000000E+00     0.0000000000000000E+00 
    8.1249999999951017E-01     0.0000000000000000E+00     0.0000000000000000E+00 
    9.3749999999983680E-01     0.0000000000000000E+00     0.0000000000000000E+00 
    1.0000000000000000E+00     2.4999999999941941E-01     0.0000000000000000E+00 
    1.0000000000000000E+00     4.9999999999869399E-01     0.0000000000000000E+00 
    1.0000000000000000E+00     7.4999999999934697E-01     0.0000000000000000E+00 
    1.0000000000000000E+00     1.2499999999977940E-01     0.0000000000000000E+00 
    1.0000000000000000E+00     3.7499999999905670E-01     0.0000000000000000E+00 
    1.0000000000000000E+00     6.2499999999902045E-01     0.0000000000000000E+00 
    1.0000000000000000E+00     8.7499999999967348E-01     0.0000000000000000E+00 
    1.0000000000000000E+00     6.2499999999889699E-02     0.0000000000000000E+00 
    1.0000000000000000E+00     1.8749999999959940E-01     0.0000000000000000E+00 
    1.0000000000000000E+00     3.1249999999923811E-01     0.0000000000000000E+00 
    1.0000000000000000E+00     4.3749999999887529E-01     0.0000000000000000E+00 
    1.0000000000000000E+00     5.6249999999885725E-01     0.0000000000000000E+00 
    1.0000000000000000E+00     6.8749999999918376E-01     0.0000000000000000E+00 
    1.0000000000000000E+00     8.1249999999951017E-01     0.0000000000000000E+00 
    1.0000000000000000E+00     9.3749999999983680E-01     0.0000000000000000E+00 
    7.5000000000112044E-01     1.0000000000000000E+00     0.0000000000000000E+00 
    5.0000000000205913E-01     1.0000000000000000E+00     0.0000000000000000E+00 
    2.5000000000102962E-01     1.0000000000000000E+00     0.0000000000000000E+00 
    8.7499999999991362E-01     1.0000000000000000E+00     0.0000000000000000E+00 
    6.2499999999988309E-01     1.0000000000000000E+00     0.0000000000000000E+00 
    3.7499999999869987E-01     1.0000000000000000E+00     0.0000000000000000E+00 
    1.2499999999880820E-01     1.0000000000000000E+00     0.0000000000000000E+00 
    9.3749999999995681E-01     1.0000000000000000E+00     0.0000000000000000E+00 
    8.1250000000051703E-01     1.0000000000000000E+00     0.0000000000000000E+00 
    6.8750000000050182E-01     1.0000000000000000E+00     0.0000000000000000E+00 
    5.6250000000097111E-01     1.0000000000000000E+00     0.0000000000000000E+00 
    4.3750000000037947E-01     1.0000000000000000E+00     0.0000000000000000E+00 
    3.1249999999986477E-01     1.0000000000000000E+00     0.0000000000000000E+00 
    1.8749999999991890E-01     1.0000000000000000E+00     0.0000000000000000E+00 
    6.2499999999404102E-02     1.0000000000000000E+00     0.0000000000000000E+00 
    0.0000000000000000E+00     7.5000000000112044E-01     0.0000000000000000E+00 
    0.0000000000000000E+00     5.0000000000205913E-01     0.0000000000000000E+00 
    0.0000000000000000E+00     2.5000000000102962E-01     0.0000000000000000E+00 
    0.0000000000000000E+00     8.7499999999991362E-01     0.0000000000000000E+00 
    0.0000000000000000E+00     6.2499999999988309E-01     0.0000000000000000E+00 
    0.0000000000000000E+00     3.7499999999869987E-01     0.0000000000000000E+00 
    0.0000000000000000E+00     1.2499999999880820E-01     0.0000000000000000E+00 
    0.0000000000000000E+00     9.3749999999995681E-01     0.0000000000000000E+00 
    0.0000000000000000E+00     8.1250000000051703E-01     0.0000000000000000E+00 
    0.0000000000000000E+00     6.8750000000050182E-01     0.0000000000000000E+00 
    0.0000000000000000E+00     5.6250000000097111E-01     0.0000000000000000E+00 
    0.0000000000000000E+00     4.3750000000037947E-01     0.0000000000000000E+00 
    0.0000000000000000E+00     3.1249999999986477E-01     0.0000000000000000E+00 
    0.0000000000000000E+00     1.8749999999991890E-01     0.0000000000000000E+00 
    0.0000000000000000E+00     6.2499999999404102E-02     0.0000000000000000E+00 
    4.9999999999972200E-01     2.5000000000000000E-01     0.0000000000000000E+00 
    3.7500000000067490E-01     2.5000000000000000E-01     0.0000000000000000E+00 
    6.2500000000042988E-01     2.5000000000000000E-01     0.0000000000000000E+00 
    3.1250000000033751E-01     2.5000000000000000E-01     0.0000000000000000E+00 
    4.3750000000019851E-01     2.5000000000000000E-01     0.0000000000000000E+00 
    5.6250000000007594E-01     2.5000000000000000E-01     0.0000000000000000E+00 
    6.8750000000021494E-01     2.5000000000000000E-01     0.0000000000000000E+00 
    7.5000000000000000E-01     4.9999999999972200E-01     0.0000000000000000E+00 
    7.5000000000000000E-01     3.7500000000067490E-01     0.0000000000000000E+00 
    7.5000000000000000E-01     6.2500000000042988E-01     0.0000000000000000E+00 
    7.5000000000000000E-01     3.1250000000033751E-01     0.0000000000000000E+00 
    7.5000000000000000E-01     4.3750000000019851E-01     0.0000000000000000E+00 
    7.5000000000000000E-01     5.6250000000007594E-01     0.0000000000000000E+00 
    7.5000000000000000E-01     6.8750000000021494E-01     0.0000000000000000E+00 
    5.0000000000118039E-01     7.5000000000000000E-01     0.0000000000000000E+00 
    6.2500000000161415E-01     7.5000000000000000E-01     0.0000000000000000E+00 
    3.7500000000140910E-01     7.5000000000000000E-01     0.0000000000000000E+00 
    6.8750000000080713E-01     7.5000000000000000E-01     0.0000000000000000E+00 
    5.6250000000139733E-01     7.5000000000000000E-01     0.0000000000000000E+00 
    4.3750000000129469E-01     7.5000000000000000E-01     0.0000000000000000E+00 
    3.1250000000070460E-01     7.5000000000000000E-01     0.0000000000000000E+00 
    2.5000000000000000E-01     5.0000000000118039E-01     0.0000000000000000E+00 
    2.5000000000000000E-01     6.2500000000161415E-01     0.0000000000000000E+00 
    2.5000000000000000E-01     3.7500000000140910E-01     0.0000000000000000E+00 
    2.5000000000000000E-01     6.8750000000080713E-01     0.0000000000000000E+00 
    2.5000000000000000E-01     5.6250000000139733E-01     0.0000000000000000E+00 
    2.5000000000000000E-01     4.3750000000129469E-01     0.0000000000000000E+00 
    2.5000000000000000E-01     3.1250000000070460E-01     0.0000000000000000E+00 
    3.7499999999934702E-01     1.2500000000000000E-01     0.0000000000000000E+00 
    1.2500000000000000E-01     1.2500000000000000E-01     0.0000000000000000E+00 
    1.2500000000000000E-01     3.7500000000102962E-01     0.0000000000000000E+00 
    8.7500000000000000E-01     1.2500000000000000E-01     0.0000000000000000E+00 
    6.2499999999934697E-01     1.2500000000000000E-01     0.0000000000000000E+00 
    8.7500000000000000E-01     3.7499999999934702E-01     0.0000000000000000E+00 
    8.7500000000000000E-01     6.2499999999934697E-01     0.0000000000000000E+00 
    1.2500000000000000E-01     6.2500000000102962E-01     0.0000000000000000E+00 
    1.2500000000000000E-01     8.7500000000000000E-01     0.0000000000000000E+00 
    8.7500000000000000E-01     8.7500000000000000E-01     0.0000000000000000E+00 
    6.2500000000102962E-01     8.7500000000000000E-01     0.0000000000000000E+00 
    3.7500000000102962E-01     8.7500000000000000E-01     0.0000000000000000E+00 
    2.4999999999957681E-01     8.3333333333333329E-02     0.0000000000000000E+00 
    8.3333333333333329E-02     2.5000000000068640E-01     0.0000000000000000E+00 
    7.4999999999956468E-01     8.3333333333333329E-02     0.0000000000000000E+00 
    4.9999999999951827E-01     1.6666666666666671E-01     0.0000000000000000E+00 
    9.1666666666666674E-01     2.4999999999957681E-01     0.0000000000000000E+00 
    8.3333333333333337E-01     4.9999999999951827E-01     0.0000000000000000E+00 
    1.6666666666666671E-01     5.0000000000088307E-01     0.0000000000000000E+00 
    8.3333333333333329E-02     7.5000000000070155E-01     0.0000000000000000E+00 
    9.1666666666666674E-01     7.4999999999956468E-01     0.0000000000000000E+00 
    5.0000000000088307E-01     8.3333333333333348E-01     0.0000000000000000E+00 
    2.5000000000068640E-01     9.1666666666666674E-01     0.0000000000000000E+00 
    7.5000000000070155E-01     9.1666666666666674E-01     0.0000000000000000E+00 
[...]
CELL_DATA 768 
SCALARS Pressure double 1 
LOOKUP_TABLE default 

    1.9050072111518896E+00 
    1.8119749556025415E+00 
    1.7821216335844450E+00 
    1.8388301288813971E+00 
    1.7514395875913098E+00 
    1.7057046221278815E+00 
    1.7016756594591587E+00 
    1.7384889359817759E+00 
    1.7251817226820509E+00 
    1.6968014198328718E+00 
    1.6912467322492033E+00 
    1.7118804574161552E+00 
    1.7897962726165555E+00 
    1.7557022287421600E+00 
    1.7321527450867980E+00 
    1.7519844106547406E+00 
    1.6658782797554867E+00 
    1.6280723809020017E+00 
    1.6351165509977272E+00 
    1.6677421514371540E+00 
    1.5902673861210601E+00 
    1.5515137730244515E+00 
    1.5694888398895837E+00 
    1.6026295032703708E+00 
    1.6143316822915867E+00 
    1.5868159441183454E+00 
    1.6032009863999137E+00 
    1.6251524826721861E+00 
    1.6688359983908163E+00 
    1.6414691956624854E+00 
    1.6469870736642018E+00 
    1.6691595511592896E+00 
    1.7207029524555784E+00 
    1.7081597363037180E+00 
    1.6850169634161245E+00 
    1.6943626370953275E+00 
    1.6936309643013678E+00 
    1.6775538799790395E+00 
    1.6576045570634672E+00 
    1.6725299184550251E+00 
    1.6531264829971763E+00 
    1.6383985988156002E+00 
    1.6194500882952467E+00 
    1.6348059793574585E+00 
    1.6726030026285825E+00 
    1.6648705314725059E+00 
    1.6472222129563527E+00 
    1.6553553061121307E+00 
    1.9050514374511114E+00 
    1.8388889999870202E+00 
    1.7823281928516033E+00 
    1.8121705626141718E+00 
    1.7898663358834612E+00 
    1.7520527782071695E+00 
    1.7323410817136515E+00 
    1.7559026284189940E+00 
    1.7254906977199924E+00 
    1.7121430861953211E+00 
    1.6915454057105723E+00 
    1.6971486612892466E+00 
    1.7517687635864407E+00 
    1.7388128791366830E+00 
    1.7020618317579053E+00 
    1.7061009057861396E+00 
    1.7207708228029082E+00 
    1.6944189300672057E+00 
    1.6851542737824527E+00 
    1.7083321342892586E+00 
    1.6726281526125955E+00 
    1.6553894714508730E+00 
    1.6472431858654042E+00 
    1.6649406348209186E+00 
    1.6531777461146406E+00 
    1.6347103855380898E+00 
    1.6192189947311184E+00 
    1.6383663030015776E+00 
    1.6938578374254076E+00 
    1.6726847504807809E+00 
    1.6577290826416575E+00 
    1.6777826510861293E+00 
    1.6661999760134496E+00 
    1.6680500939250014E+00 
    1.6352009815514805E+00 
    1.6281182149801845E+00 
    1.6691108163323634E+00 
    1.6693849787303654E+00 
    1.6470691294995270E+00 
    1.6415510189999571E+00 
    1.6141777847525354E+00 
    1.6250331205059969E+00 
    1.6028447038709936E+00 
    1.5864094662297119E+00 
    1.5900220347910365E+00 
    1.6024340695955470E+00 
    1.5690632518022158E+00 
    1.5510737013803728E+00 
    1.4893730035155475E+00 
    1.4475722422983011E+00 
    1.4331264561765749E+00 
    1.4695677742982112E+00 
    1.4059768398972887E+00 
    1.3662081733612839E+00 
    1.3627746395747982E+00 
    1.3970979958014966E+00 
    1.3872996400099165E+00 
    1.3583606142012070E+00 
    1.3528852324505665E+00 
    1.3763278294702643E+00 
    1.4489909821551203E+00 
    1.4178474209872218E+00 
    1.4013522514261396E+00 
    1.4272174981391919E+00 
    1.3303699780228606E+00 
    1.3006131621685988E+00 
    1.3041171659405799E+00 
    1.3313731990897186E+00 
    1.2788202158172062E+00 
    1.2658155536362750E+00 
    1.2677300369763616E+00 
    1.2826419106409919E+00 
    1.2852476307849634E+00 
    1.2687160477545250E+00 
    1.2689624209662196E+00 
    1.2867646906955488E+00 
    1.3312886857754567E+00 
    1.3063136935140192E+00 
    1.3073730038072928E+00 
    1.3301433534145193E+00 
    1.4021190828161227E+00 
    1.3788412154675431E+00 
    1.3493084334575860E+00 
    1.3723256397577261E+00 
    1.3571640559718439E+00 
    1.3376583612996071E+00 
    1.3139966199049706E+00 
    1.3299451975725995E+00 
    1.3013569968511456E+00 
    1.2910374477309663E+00 
    1.2696020553668987E+00 
    1.2721629974102659E+00 
    1.3365374709179962E+00 
    1.3156804731066354E+00 
    1.2770222473267443E+00 
    1.2883157522316779E+00 
    1.5207577566133539E+00 
    1.4985554662467622E+00 
    1.5200357055532023E+00 
    1.5418396056138879E+00 
    1.4756179977266297E+00 
    1.4516778838133999E+00 
    1.4744040134412564E+00 
    1.4976083255042598E+00 
    1.5192564236176973E+00 
    1.4968025816460384E+00 
    1.5186676019902188E+00 
    1.5403750375308265E+00 
    1.5623140866265137E+00 
    1.5410689860670410E+00 
    1.5614631977315130E+00 
    1.5819844550717426E+00 
    1.4278316398085205E+00 
    1.4039379493195647E+00 
    1.4383960151826891E+00 
    1.4545413390948267E+00 
    1.3781833001152570E+00 
    1.3499321390624848E+00 
    1.4042844799552436E+00 
    1.4216585791442520E+00 
    1.4619265546370896E+00 
    1.4525107553727574E+00 
    1.4967699736837519E+00 
    1.4997229288267460E+00 
    1.4806151742233822E+00 
    1.4713232080025340E+00 
    1.5027906336269243E+00 
    1.5059138418847244E+00 
    1.5992903407396506E+00 
    1.5771956770394586E+00 
    1.5885912505019839E+00 
    1.6141444163708585E+00 
    1.5542446423182743E+00 
    1.5304146875345470E+00 
    1.5327223303102826E+00 
    1.5614062391780310E+00 
    1.5684702314631862E+00 
    1.5350822848262986E+00 
    1.5375015242045709E+00 
    1.5754593610796310E+00 
    1.6276703936379611E+00 
    1.5994874987901915E+00 
    1.6099201485735017E+00 
    1.6397440432458803E+00 
    1.2625832668448567E+00 
    1.2476155864630172E+00 
    1.2424793267101013E+00 
    1.2596911649991172E+00 
    1.2217764250161443E+00 
    1.1856944040002277E+00 
    1.1841330853260792E+00 
    1.2170793990362088E+00 
    1.2133675392297956E+00 
    1.1835589860379347E+00 
    1.1839466132851104E+00 
    1.2106308694437788E+00 
    1.2568208730282393E+00 
    1.2380087566523703E+00 
    1.2342015590742086E+00 
    1.2540296585539521E+00 
    1.1415244153023638E+00 
    1.0906627332930412E+00 
    1.1021004081494197E+00 
    1.1456801782083024E+00 
    1.0350428242289824E+00 
    9.7588468287436181E-01 
    1.0044417416334790E+00 
    1.0547038748015918E+00 
    1.0746526558815759E+00 
    1.0328926656454307E+00 
    1.0616553646599580E+00 
    1.0953621386829451E+00 
    1.1506218947468676E+00 
    1.1141984017783244E+00 
    1.1272000181171040E+00 
    1.1564805070271063E+00 
    1.2501537477459537E+00 
    1.2268982543716391E+00 
    1.2128190736817683E+00 
    1.2439443807264430E+00 
    1.2012425079127327E+00 
    1.1740002402256347E+00 
    1.1498177476027878E+00 
    1.1811796298612707E+00 
    1.1571624697873724E+00 
    1.1227527818788035E+00 
    1.0932840263924151E+00 
    1.1288552596594248E+00 
    1.2353681147494768E+00 
    1.1944811368961075E+00 
    1.1692140379253846E+00 
    1.2205959390483567E+00 
    1.1536178829462465E+00 
    1.1210046665213955E+00 
    1.0672160445661567E+00 
    1.0887780874313431E+00 
    1.0900607799314324E+00 
    1.0601687600930276E+00 
    1.0246600215625030E+00 
    1.0458692207846787E+00 
    1.0015401894058864E+00 
    9.8863568296800086E-01 
    9.5210060232614724E-01 
    9.5672688903145042E-01 
    1.0268145098236423E+00 
    1.0142364285414387E+00 
    9.6114444627377693E-01 
    9.6534026788383387E-01 
    1.0289347406947764E+00 
    9.9598665232489492E-01 
    9.6428072951767074E-01 
    9.9753866427094762E-01 
    9.6293516630529596E-01 
    9.2913722714009883E-01 
    8.9585488654349743E-01 
    9.3050321229142396E-01 
    8.9754131859107378E-01 
    8.6221920341852154E-01 
    8.2875820689428492E-01 
    8.6432706735977460E-01 
    9.6551799564434104E-01 
    9.3187121996049738E-01 
    8.9902458471052271E-01 
    9.3295530557995532E-01 
    9.0381170144615464E-01 
    9.0767333426923236E-01 
    8.5319692181256512E-01 
    8.4122046289127073E-01 
    9.1131453947000307E-01 
    9.1478885042366631E-01 
    8.7661656979198777E-01 
    8.6490805752483613E-01 
    8.1812954085942968E-01 
    8.3774265651403690E-01 
    7.9819441536493063E-01 
    7.7128129899437947E-01 
    7.7999077312838094E-01 
    7.9888723901010705E-01 
    7.4620097690226084E-01 
    7.2323459543952751E-01 
    1.6399160045814463E+00 
    1.6096187480448136E+00 
    1.5989862214032073E+00 
    1.6275748647994275E+00 
    1.5744760549954122E+00 
    1.5358895229154277E+00 
    1.5336162548822616E+00 
    1.5674432482133347E+00 
    1.5603750824950848E+00 
    1.5313911819220574E+00 
    1.5292115101094055E+00 
    1.5532400983462613E+00 
    1.6138393267646995E+00 
    1.5879420413713472E+00 
    1.5764573977349148E+00 
    1.5988220628174690E+00 
    1.4951835659807784E+00 
    1.4516369357833785E+00 
    1.4610061763506423E+00 
    1.4982876646459595E+00 
    1.4043020283363778E+00 
    1.3504305202466542E+00 
    1.3783867488900878E+00 
    1.4213928334620647E+00 
    1.4379428315663327E+00 
    1.4038807402971918E+00 
    1.4275837191841461E+00 
    1.4539926554388691E+00 
    1.5014809970490417E+00 
    1.4703887854991309E+00 
    1.4797150204199463E+00 
    1.5047346717291803E+00 
    1.5813941814501520E+00 
    1.5606423322481606E+00 
    1.5402869350091957E+00 
    1.5617252009885885E+00 
    1.5393706647939152E+00 
    1.5175622388363363E+00 
    1.4959062661374307E+00 
    1.5183822940223952E+00 
    1.4969231364705469E+00 
    1.4737870762376446E+00 
    1.4512849902651668E+00 
    1.4751163067239161E+00 
    1.5412936029982747E+00 
    1.5193985030258914E+00 
    1.4980320409346382E+00 
    1.5202778466593283E+00 
    1.4889559598177589E+00 
    1.4691672774735118E+00 
    1.4328889890337630E+00 
    1.4472960910543766E+00 
    1.4486572200415733E+00 
    1.4270147932096962E+00 
    1.4013036532680867E+00 
    1.4176816479815628E+00 
    1.3872539556015373E+00 
    1.3763555666601723E+00 
    1.3529262887103350E+00 
    1.3583104509976598E+00 
    1.4058221062367047E+00 
    1.3969730323664482E+00 
    1.3626444460996749E+00 
    1.3660157399254291E+00 
    1.4020859372702421E+00 
    1.3725016926183446E+00 
    1.3495605048377708E+00 
    1.3789180543370507E+00 
    1.3369023361473269E+00 
    1.2887881130348116E+00 
    1.2775130045220759E+00 
    1.3160628036586750E+00 
    1.3016889395301483E+00 
    1.2725714993216937E+00 
    1.2698325261871006E+00 
    1.2912258451857777E+00 
    1.3572847891868367E+00 
    1.3301835098853785E+00 
    1.3141501119761281E+00 
    1.3377540191662727E+00 
    1.3301131521929290E+00 
    1.3311769962790945E+00 
    1.3037513645484160E+00 
    1.3001198831307315E+00 
    1.3311719394998083E+00 
    1.3301245084821449E+00 
    1.3073370164767502E+00 
    1.3060979633024419E+00 
    1.2849378829226656E+00 
    1.2866886096563581E+00 
    1.2688868810486214E+00 
    1.2683903438749138E+00 
    1.2781919592894997E+00 
    1.2821494793907002E+00 
    1.2671872904286259E+00 
    1.2651717134911047E+00 
    8.8050957868491553E-01 
    8.1274757412673282E-01 
    7.8995696729274312E-01 
    8.4999630537987825E-01 
    7.3990579056885586E-01 
    6.5899992857727030E-01 
    6.5513385834374216E-01 
    7.2578373535948659E-01 
    7.1313374211288194E-01 
    6.5331022715723652E-01 
    6.5351097867178576E-01 
    7.0240149646984540E-01 
    8.1957399716907597E-01 
    7.6799305907990323E-01 
    7.4750802279869932E-01 
    7.9005549526741981E-01 
    5.6468641113753881E-01 
    4.4482744979464511E-01 
    4.8113649090234101E-01 
    5.7543748708130238E-01 
    2.7384896114330415E-01 
    0.0000000000000000E+00 
    1.9939440641418790E-01 
    3.6165481903472474E-01 
    4.3620710245049837E-01 
    3.4087614342040273E-01 
    4.4714849141634100E-01 
    5.0056631978649946E-01 
    5.8827171080900542E-01 
    5.1734836763518799E-01 
    5.5250805365562272E-01 
    6.0253607887153737E-01 
    7.5997368124502440E-01 
    7.2183667876318580E-01 
    6.9229486025899190E-01 
    7.3087737657898577E-01 
    6.8081395708931480E-01 
    6.3562197402284804E-01 
    5.9857303371575055E-01 
    6.4878018383021308E-01 
    6.2078085522791771E-01 
    5.6335342662146015E-01 
    5.3145449717198567E-01 
    5.9876872717124263E-01 
    7.0691105462603676E-01 
    6.6804635454181116E-01 
    6.5137182522992587E-01 
    6.9093040420824636E-01 
    1.1544635492115050E+00 
    1.0887153707814154E+00 
    1.0668456553525676E+00 
    1.1214343058850353E+00 
    1.0255078426794095E+00 
    9.6295691633714531E-01 
    9.5888903174450879E-01 
    1.0128510126820289E+00 
    1.0000856056063130E+00 
    9.5462977027056994E-01 
    9.5019198975540742E-01 
    9.8722232733031323E-01 
    1.0901453663578300E+00 
    1.0452426463837463E+00 
    1.0238492972607600E+00 
    1.0599606169074711E+00 
    9.0117012287055642E-01 
    8.3957884274267081E-01 
    8.5145036752827474E-01 
    9.0525175944980596E-01 
    7.7953022672541272E-01 
    7.2348161721612447E-01 
    7.4623569981188853E-01 
    7.9814105026819515E-01 
    8.1718204999717525E-01 
    7.7112039773938224E-01 
    7.9787477883583335E-01 
    8.3676232710375520E-01 
    9.0913739301628516E-01 
    8.6325116983363104E-01 
    8.7505773686839727E-01 
    9.1288663451955265E-01 
    1.0284883569256502E+00 
    9.9656356509433741E-01 
    9.6321522734309772E-01 
    9.9535608256220254E-01 
    9.6407357287541817E-01 
    9.3120648880585677E-01 
    8.9750003125144628E-01 
    9.3050774256673541E-01 
    8.9646156010844980E-01 
    8.6324743039917051E-01 
    8.2825798646395199E-01 
    8.6164035027566499E-01 
    9.6230806045874018E-01 
    9.2959713703665170E-01 
    8.9525446349060056E-01 
    9.2863731571222696E-01 
    1.2211820476898543E+00 
    1.1698141189884956E+00 
    1.1951545609107679E+00 
    1.2359645647410205E+00 
    1.1293201015344816E+00 
    1.0935536268304007E+00 
    1.1233680810695663E+00 
    1.1578579496251669E+00 
    1.1819577211489050E+00 
    1.1506725692670743E+00 
    1.1749279775141468E+00 
    1.2020240425274411E+00 
    1.2444628067973520E+00 
    1.2135181564596917E+00 
    1.2274900983137973E+00 
    1.2505207931814297E+00 
    1.0617493869681500E+00 
    1.0327724826460776E+00 
    1.0751310098728999E+00 
    1.0959166274236611E+00 
    1.0041305042389372E+00 
    9.7542046867754451E-01 
    1.0351832929817690E+00 
    1.0550275752742215E+00 
    1.1030462209254308E+00 
    1.0915702500454638E+00 
    1.1427864604786675E+00 
    1.1468883125785181E+00 
    1.1280786181412616E+00 
    1.1151215794533846E+00 
    1.1517547880824139E+00 
    1.1575110608921650E+00 
    1.2541234994989499E+00 
    1.2345976709086401E+00 
    1.2382452274586080E+00 
    1.2566776609839525E+00 
    1.2113378875712646E+00 
    1.1849173887571056E+00 
    1.1846014958546942E+00 
    1.2140489554551455E+00 
    1.2176814903686917E+00 
    1.1852452849579584E+00 
    1.1868462045523647E+00 
    1.2223084753029028E+00 
    1.2593131105582822E+00 
    1.2425485681717021E+00 
    1.2475220443283153E+00 
    1.2620436098440415E+00 
    6.9108910309724703E-01 
    6.5163667729560781E-01 
    6.6871246608866686E-01 
    7.0727063950652769E-01 
    5.9912574811065400E-01 
    5.3184478218393538E-01 
    5.6439986273546938E-01 
    6.2172099193059072E-01 
    6.5009662713483574E-01 
    6.0013956208734476E-01 
    6.3747903311216414E-01 
    6.8230046678786793E-01 
    7.3128214996857688E-01 
    6.9322704110477573E-01 
    7.2279346617667595E-01 
    7.6031375017059499E-01 
    4.4753904241460879E-01 
    3.4120733335362768E-01 
    4.3735156026062816E-01 
    5.0167301019346200E-01 
    1.9959575591145320E-01 
    0.0000000000000000E+00 
    2.7461178267623587E-01 
    3.6265290074762357E-01 
    4.8306555457375566E-01 
    4.4657772091792786E-01 
    5.6729907974402871E-01 
    5.7796703355312484E-01 
    5.5421126653152664E-01 
    5.1920045494459810E-01 
    5.9061109602365058E-01 
    6.0459582280438207E-01 
    7.9021933296308422E-01 
    7.4836185558217316E-01 
    7.6877829739731585E-01 
    8.1959702398095113E-01 
    7.0391858267865048E-01 
    6.5553562211067506E-01 
    6.5555379283493720E-01 
    7.1474004472159658E-01 
    7.2736190987308103E-01 
    6.5751687650705704E-01 
    6.6141030967451442E-01 
    7.4136315161112809E-01 
    8.4986711556769434E-01 
    7.9058742164073226E-01 
    8.1316257980423956E-01 
    8.8022182633456070E-01 
    1.2567701021286257E+00 
    1.3225453744683866E+00 
    1.3162221631786599E+00 
    1.2556579050607857E+00 
    1.3858027698260047E+00 
    1.4458040356878572E+00 
    1.4301315309771576E+00 
    1.3745533644738561E+00 
    1.3649336567177772E+00 
    1.4157472787133949E+00 
    1.4024063625170069E+00 
    1.3567336021952496E+00 
    1.2560600916661044E+00 
    1.3116298888450337E+00 
    1.3085910952385273E+00 
    1.2578908265059738E+00 
    1.5007015787961273E+00 
    1.5503057452477236E+00 
    1.5229814727504898E+00 
    1.4793232528402385E+00 
    1.5951072128981316E+00 
    1.6352637774799950E+00 
    1.6033781264948901E+00 
    1.5640753548880251E+00 
    1.5319292012679269E+00 
    1.5680352337263663E+00 
    1.5296270038239295E+00 
    1.4985763437334867E+00 
    1.4588264488586518E+00 
    1.4958923641362663E+00 
    1.4687537351191087E+00 
    1.4389399822828246E+00 
    1.2643278397916897E+00 
    1.3158315077799290E+00 
    1.3346053282247656E+00 
    1.2765588912626635E+00 
    1.3635606100962541E+00 
    1.4082014804619105E+00 
    1.4331812296622648E+00 
    1.3861193979369657E+00 
    1.4108838524582656E+00 
    1.4591084699321895E+00 
    1.4873685812251409E+00 
    1.4399835334303113E+00 
    1.2928866577383411E+00 
    1.3569789904482581E+00 
    1.3865361813355477E+00 
    1.3193234176304651E+00 
    1.1890766576399887E+00 
    1.1207123782022610E+00 
    1.1296064063121944E+00 
    1.1927403154355602E+00 
    1.0522876096058347E+00 
    9.8435434007030154E-01 
    1.0042627940103726E+00 
    1.0666645256992133E+00 
    1.0810564875650419E+00 
    1.0240976904389310E+00 
    1.0439821481575986E+00 
    1.0955643718122892E+00 
    1.1972915022815942E+00 
    1.1388261808953830E+00 
    1.1483573571840338E+00 
    1.2026034720401337E+00 
    9.1877990822038202E-01 
    8.5578038086238883E-01 
    8.9432955677501014E-01 
    9.4691503551163991E-01 
    7.9437801664710328E-01 
    7.3496636561363993E-01 
    7.9113061115092387E-01 
    8.4243321368066304E-01 
    8.9162616412468054E-01 
    8.5015516169443361E-01 
    9.1067624065907082E-01 
    9.4164456472368474E-01 
    9.7505637342186158E-01 
    9.3324653304044147E-01 
    9.7251432432553420E-01 
    1.0033471610659088E+00 
    1.2048816808091671E+00 
    1.1483832750810230E+00 
    1.1372374129035263E+00 
    1.2024006746954579E+00 
    1.0946495146184323E+00 
    1.0428186926006118E+00 
    1.0200525844973525E+00 
    1.0772109159283902E+00 
    1.0584588944907620E+00 
    9.9683485542974870E-01 
    9.7303715107580502E-01 
    1.0378775342720135E+00 
    1.1965019477349987E+00 
    1.1235179179771171E+00 
    1.1056162114119881E+00 
    1.1839210346062006E+00 
    1.3198332895186997E+00 
    1.3865424654571905E+00 
    1.3567276404322481E+00 
    1.2930336746854221E+00 
    1.4391204050835964E+00 
    1.4857891880923610E+00 
    1.4578571106373202E+00 
    1.4100913360807934E+00 
    1.3853944669179408E+00 
    1.4321808911857434E+00 
    1.4074094416351224E+00 
    1.3629283420412128E+00 
    1.2763778258652541E+00 
    1.3342001393416532E+00 
    1.3153515447343631E+00 
    1.2639331644544165E+00 
    1.5280147493672267E+00 
    1.5670533949086505E+00 
    1.5310540316048391E+00 
    1.4973097427436164E+00 
    1.6030859469614207E+00 
    1.6354156073612887E+00 
    1.5950777816836397E+00 
    1.5636847996703058E+00 
    1.5225714567465263E+00 
    1.5501969871578785E+00 
    1.5005799726913807E+00 
    1.4789606274350660E+00 
    1.4677492248894513E+00 
    1.4951502153600786E+00 
    1.4582272458680290E+00 
    1.4381529901571810E+00 
    1.2573768600928752E+00 
    1.3080809444194974E+00 
    1.3111848896095442E+00 
    1.2555759806472533E+00 
    1.3561602583123111E+00 
    1.4017439072060949E+00 
    1.4152312272530492E+00 