# vtk DataFile Version 2.0
Pressure Field Data 
ASCII 
DATASET UNSTRUCTURED_GRID 

POINTS 801 double 

    0.0000000000000000E+00     0.0000000000000000E+00     0.0000000000000000E+00 
    1.0000000000000000E+00     0.0000000000000000E+00     0.0000000000000000E+00 
    1.0000000000000000E+00     1.0000000000000000E+00     0.0000000000000000E+00 
    0.0000000000000000E+00     1.0000000000000000E+00     0.0000000000000000E+00 
    2.5000000000000000E-01     2.5000000000000000E-01     0.0000000000000000E+00 
    7.5000000000000000E-01     2.5000000000000000E-01     0.0000000000000000E+00 
    7.5000000000000000E-01     7.5000000000000000E-01     0.0000000000000000E+00 
    2.5000000000000000E-01     7.5000000000000000E-01     0.0000000000000000E+00 
    2.4999999999941941E-01     0.0000000000000000E+00     0.0000000000000000E+00 
    4.9999999999869399E-01     0.0000000000000000E+00     0.0000000000000000E+00 
    7.4999999999934697E-01     0.0000000000000000E+00     0.0000000000000000E+00 
    1.2499999999977940E-01     0.0000000000000000E+00     0.0000000000000000E+00 
    3.7499999999905670E-01     0.0000000000000000E+00     0.0000000000000000E+00 
    6.2499999999902045E-01     0.0000000000000000E+00     0.0000000000000000E+00 
    8.7499999999967348E-01     0.0000000000000000E+00     0.0000000000000000E+00 
    6.2499999999889699E-02     0.0000000000000000E+00     0.0000000000000000E+00 
    1.8749999999959940E-01     0.0000000000000000E+00     0.0000000000000000E+00 
    3.1249999999923811E-01     0.0000000000000000E+00     0.0000000000000000E+00 
    4.3749999999887529E-01     0.0000000000000000E+00     0.0000000000000000E+00 
    5.6249999999885725E-01     0.0000000000000000E+00     0.0000000000000000E+00 
    6.8749999999918376E-01     0.0000000000000000E+00     0.0000000000000000E+00 
    8.1249999999951017E-01     0.0000000000000000E+00     0.0000000000000000E+00 
    9.3749999999983680E-01     0.0000000000000000E+00     0.0000000000000000E+00 
    1.0000000000000000E+00     2.4999999999941941E-01     0.0000000000000000E+00 
    1.0000000000000000E+00     4.9999999999869399E-01     0.0000000000000000E+00 
    1.0000000000000000E+00     7.4999999999934697E-01     0.0000000000000000E+00 
    1.0000000000000000E+00     1.2499999999977940E-01     0.0000000000000000E+00 
    1.0000000000000000E+00     3.7499999999905670E-01     0.0000000000000000E+00 
    1.0000000000000000E+00     6.2499999999902045E-01     0.0000000000000000E+00 
    1.0000000000000000E+00     8.7499999999967348E-01     0.0000000000000000E+00 
    1.0000000000000000E+00     6.2499999999889699E-02     0.0000000000000000E+00 
    1.0000000000000000E+00     1.8749999999959940E-01     0.0000000000000000E+00 
    1.0000000000000000E+00     3.1249999999923811E-01     0.0000000000000000E+00 
    1.0000000000000000E+00     4.3749999999887529E-01     0.0000000000000000E+00 
    1.0000000000000000E+00     5.6249999999885725E-01     0.0000000000000000E+00 
    1.0000000000000000E+00     6.8749999999918376E-01     0.0000000000000000E+00 
    1.0000000000000000E+00     8.1249999999951017E-01     0.0000000000000000E+00 
    1.0000000000000000E+00     9.3749999999983680E-01     0.0000000000000000E+00 
    7.5000000000112044E-01     1.0000000000000000E+00     0.0000000000000000E+00 
    5.0000000000205913E-01     1.0000000000000000E+00     0.0000000000000000E+00 
    2.5000000000102962E-01     1.0000000000000000E+00     0.0000000000000000E+00 
    8.7499999999991362E-01     1.0000000000000000E+00     0.0000000000000000E+00 
    6.2499999999988309E-01     1.0000000000000000E+00     0.0000000000000000E+00 
    3.7499999999869987E-01     1.0000000000000000E+00     0.0000000000000000E+00 
    1.2499999999880820E-01     1.0000000000000000E+00     0.0000000000000000E+00 
    9.3749999999995681E-01     1.0000000000000000E+00     0.0000000000000000E+00 
    8.1250000000051703E-01     1.0000000000000000E+00     0.0000000000000000E+00 
    6.8750000000050182E-01     1.0000000000000000E+00     0.0000000000000000E+00 
    5.6250000000097111E-01     1.0000000000000000E+00     0.0000000000000000E+00 
    4.3750000000037947E-01     1.0000000000000000E+00     0.0000000000000000E+00 
    3.1249999999986477E-01     1.0000000000000000E+00     0.0000000000000000E+00 
    1.8749999999991890E-01     1.0000000000000000E+00     0.0000000000000000E+00 
    6.2499999999404102E-02     1.0000000000000000E+00     0.0000000000000000E+00 
    0.0000000000000000E+00     7.5000000000112044E-01     0.0000000000000000E+00 
    0.0000000000000000E+00     5.0000000000205913E-01     0.0000000000000000E+00 
    0.0000000000000000E+00     2.5000000000102962E-01     0.0000000000000000E+00 
    0.0000000000000000E+00     8.7499999999991362E-01     0.0000000000000000E+00 
    0.0000000000000000E+00     6.2499999999988309E-01     0.0000000000000000E+00 
    0.0000000000000000E+00     3.7499999999869987E-01     0.0000000000000000E+00 
    0.0000000000000000E+00     1.2499999999880820E-01     0.0000000000000000E+00 
    0.0000000000000000E+00     9.3749999999995681E-01     0.0000000000000000E+00 
    0.0000000000000000E+00     8.1250000000051703E-01     0.0000000000000000E+00 
    0.0000000000000000E+00     6.8750000000050182E-01     0.0000000000000000E+00 
    0.0000000000000000E+00     5.6250000000097111E-01     0.0000000000000000E+00 
    0.0000000000000000E+00     4.3750000000037947E-01     0.0000000000000000E+00 
    0.0000000000000000E+00     3.1249999999986477E-01     0.0000000000000000E+00 
    0.0000000000000000E+00     1.8749999999991890E-01     0.0000000000000000E+00 
    0.0000000000000000E+00     6.2499999999404102E-02     0.0000000000000000E+00 
    4.9999999999972200E-01     2.5000000000000000E-01     0.0000000000000000E+00 
    3.7500000000067490E-01     2.5000000000000000E-01     0.0000000000000000E+00 
    6.2500000000042988E-01     2.5000000000000000E-01     0.0000000000000000E+00 
    3.1250000000033751E-01     2.5000000000000000E-01     0.0000000000000000E+00 
    4.3750000000019851E-01     2.5000000000000000E-01     0.0000000000000000E+00 
    5.6250000000007594E-01     2.5000000000000000E-01     0.0000000000000000E+00 
    6.8750000000021494E-01     2.5000000000000000E-01     0.0000000000000000E+00 
    7.5000000000000000E-01     4.9999999999972200E-01     0.0000000000000000E+00 
    7.5000000000000000E-01     3.7500000000067490E-01     0.0000000000000000E+00 
    7.5000000000000000E-01     6.2500000000042988E-01     0.0000000000000000E+00 
    7.5000000000000000E-01     3.1250000000033751E-01     0.0000000000000000E+00 
    7.5000000000000000E-01     4.3750000000019851E-01     0.0000000000000000E+00 
    7.5000000000000000E-01     5.6250000000007594E-01     0.0000000000000000E+00 
    7.5000000000000000E-01     6.8750000000021494E-01     0.0000000000000000E+00 
    5.0000000000118039E-01     7.5000000000000000E-01     0.0000000000000000E+00 
    6.2500000000161415E-01     7.5000000000000000E-01     0.0000000000000000E+00 
    3.7500000000140910E-01     7.5000000000000000E-01     0.0000000000000000E+00 
    6.8750000000080713E-01     7.5000000000000000E-01     0.0000000000000000E+00 
    5.6250000000139733E-01     7.5000000000000000E-01     0.0000000000000000E+00 
    4.3750000000129469E-01     7.5000000000000000E-01     0.0000000000000000E+00 
    3.1250000000070460E-01     7.5000000000000000E-01     0.0000000000000000E+00 
    2.5000000000000000E-01     5.0000000000118039E-01     0.0000000000000000E+00 
    2.5000000000000000E-01     6.2500000000161415E-01     0.0000000000000000E+00 
    2.5000000000000000E-01     3.7500000000140910E-01     0.0000000000000000E+00 
    2.5000000000000000E-01     6.8750000000080713E-01     0.0000000000000000E+00 
    2.5000000000000000E-01     5.6250000000139733E-01     0.0000000000000000E+00 
    2.5000000000000000E-01     4.3750000000129469E-01     0.0000000000000000E+00 
    2.5000000000000000E-01     3.1250000000070460E-01     0.0000000000000000E+00 
    3.7499999999934702E-01     1.2500000000000000E-01     0.0000000000000000E+00 
    1.2500000000000000E-01     1.2500000000000000E-01     0.0000000000000000E+00 
    1.2500000000000000E-01     3.7500000000102962E-01     0.0000000000000000E+00 
    8.7500000000000000E-01     1.2500000000000000E-01     0.0000000000000000E+00 
    6.2499999999934697E-01     1.2500000000000000E-01     0.0000000000000000E+00 
    8.7500000000000000E-01     3.7499999999934702E-01     0.0000000000000000E+00 
    8.7500000000000000E-01     6.2499999999934697E-01     0.0000000000000000E+00 
    1.2500000000000000E-01     6.2500000000102962E-01     0.0000000000000000E+00 
    1.2500000000000000E-01     8.7500000000000000E-01     0.0000000000000000E+00 
    8.7500000000000000E-01     8.7500000000000000E-01     0.0000000000000000E+00 
    6.2500000000102962E-01     8.7500000000000000E-01     0.0000000000000000E+00 
    3.7500000000102962E-01     8.7500000000000000E-01     0.0000000000000000E+00 
    2.4999999999957681E-01     8.3333333333333329E-02     0.0000000000000000E+00 
    8.3333333333333329E-02     2.5000000000068640E-01     0.0000000000000000E+00 
    7.4999999999956468E-01     8.3333333333333329E-02     0.0000000000000000E+00 
    4.9999999999951827E-01     1.6666666666666671E-01     0.0000000000000000E+00 
    9.1666666666666674E-01     2.4999999999957681E-01     0.0000000000000000E+00 
    8.3333333333333337E-01     4.9999999999951827E-01     0.0000000000000000E+00 
    1.6666666666666671E-01     5.0000000000088307E-01     0.0000000000000000E+00 
    8.3333333333333329E-02     7.5000000000070155E-01     0.0000000000000000E+00 
    9.1666666666666674E-01     7.4999999999956468E-01     0.0000000000000000E+00 
    5.0000000000088307E-01     8.3333333333333348E-01     0.0000000000000000E+00 
    2.5000000000068640E-01     9.1666666666666674E-01     0.0000000000000000E+00 
    7.5000000000070155E-01     9.1666666666666674E-01     0.0000000000000000E+00 
[...]
CELL_DATA 768 
SCALARS Pressure double 1 
LOOKUP_TABLE default 

    2.7739968150312131E+00 
    2.6791548820389570E+00 
    2.6481880179071391E+00 
    2.7068544545067206E+00 
    2.6155188273774272E+00 
    2.5649160777034026E+00 
    2.5603335861219385E+00 
    2.6015442834445617E+00 
    2.5869350595175646E+00 
    2.5547434864003260E+00 
    2.5483103360515735E+00 
    2.5720425564310179E+00 
    2.6563251298579273E+00 
    2.6202566229740145E+00 
    2.5946937613065195E+00 
    2.6162986553641896E+00 
    2.5182125079372519E+00 
    2.4719411448238255E+00 
    2.4806842416508155E+00 
    2.5204625499677729E+00 
    2.4242609996237956E+00 
    2.3743245390516856E+00 
    2.3975313243759739E+00 
    2.4399582132076114E+00 
    2.4547149020311543E+00 
    2.4197319517828375E+00 
    2.4405689766831236E+00 
    2.4682732951355755E+00 
    2.5217930370142891E+00 
    2.4885357591270028E+00 
    2.4953321346627746E+00 
    2.5222020380674808E+00 
    2.5819610894450404E+00 
    2.5678533854093408E+00 
    2.5410990574520045E+00 
    2.5519651350066255E+00 
    2.5511665251786777E+00 
    2.5322790501854358E+00 
    2.5083363284735771E+00 
    2.5263180730866872E+00 
    2.5028725532038130E+00 
    2.4847639894165545E+00 
    2.4610690212435982E+00 
    2.4802433240939119E+00 
    2.5263599844844791E+00 
    2.5171178985869798E+00 
    2.4955686456744277E+00 
    2.5054350932330061E+00 
    2.7740397591182768E+00 
    2.7069071131295885E+00 
    2.6483545950121559E+00 
    2.6793224256388237E+00 
    2.6563854490274026E+00 
    2.6163555456992711E+00 
    2.5948292235688819E+00 
    2.6204070156321140E+00 
    2.5871287463118291E+00 
    2.5721820532293171E+00 
    2.5484124971898527E+00 
    2.5548980305009210E+00 
    2.6157560599784264E+00 
    2.6017622243435254E+00 
    2.5605330461460660E+00 
    2.5651294769065656E+00 
    2.5820138784550410E+00 
    2.5519884132441146E+00 
    2.5411212462231125E+00 
    2.5679593665966625E+00 
    2.5263171746972772E+00 
    2.5053530186252972E+00 
    2.4953044801818569E+00 
    2.5169987363858701E+00 
    2.5026151438773327E+00 
    2.4797134232585711E+00 
    2.4602758947827881E+00 
    2.4843080852398813E+00 
    2.5512488253905263E+00 
    2.5262590603354527E+00 
    2.5081510517012937E+00 
    2.5322812005855915E+00 
    2.5182426864842240E+00 
    2.5204862463924149E+00 
    2.4803302861361853E+00 
    2.4715108415832567E+00 
    2.5217892031164366E+00 
    2.5221541464689197E+00 
    2.4950365398561809E+00 
    2.4882077959941311E+00 
    2.4539855563756769E+00 
    2.4676406761970187E+00 
    2.4395392448507591E+00 
    2.4185621647687063E+00 
    2.4233059001068122E+00 
    2.4391230333651190E+00 
    2.3962533489528939E+00 
    2.3729359720379648E+00 
    2.2926522431993770E+00 
    2.2369849860117439E+00 
    2.2175896511641642E+00 
    2.2662337861757482E+00 
    2.1812659808430004E+00 
    2.1278159401050152E+00 
    2.1231334844128784E+00 
    2.1692732615725974E+00 
    2.1559662140904576E+00 
    2.1170708140945784E+00 
    2.1095303337273208E+00 
    2.1410185531436969E+00 
    2.2386147394737370E+00 
    2.1969605416731515E+00 
    2.1746071765297077E+00 
    2.2092532097591224E+00 
    2.0796694437616430E+00 
    2.0399670157324716E+00 
    2.0444776925258439E+00 
    2.0809382341712528E+00 
    2.0115166478610109E+00 
    1.9945814625619205E+00 
    1.9967041915875932E+00 
    2.0162112248275448E+00 
    2.0191263768164749E+00 
    1.9972359879118278E+00 
    1.9966437605661298E+00 
    2.0205514001970428E+00 
    2.0806821421778339E+00 
    2.0471562438417488E+00 
    2.0482564160597496E+00 
    2.0789425810800748E+00 
    2.1753354927197779E+00 
    2.1441106369690472E+00 
    2.1040646392541369E+00 
    2.1349701756396953E+00 
    2.1150147468925420E+00 
    2.0888593906924942E+00 
    2.0568507906795359E+00 
    2.0781254032958900E+00 
    2.0392824864977230E+00 
    2.0257616537190075E+00 
    1.9966804353522336E+00 
    1.9994798020259403E+00 
    2.0861799105903116E+00 
    2.0582787186061697E+00 
    2.0054123929420622E+00 
    2.0198670335263795E+00 
    2.3340557632539221E+00 
    2.3046427719843043E+00 
    2.3328604971631899E+00 
    2.3615660139898158E+00 
    2.2740279165818018E+00 
    2.2419010714109811E+00 
    2.2721169096716474E+00 
    2.3030937858952250E+00 
    2.3315747442316535E+00 
    2.3017845290505492E+00 
    2.3306085541563939E+00 
    2.3592163166135824E+00 
    2.3880868203778856E+00 
    2.3603257522095822E+00 
    2.3868018771252375E+00 
    2.4133929116438719E+00 
    2.2097773063146047E+00 
    2.1774981222880503E+00 
    2.2236631176078454E+00 
    2.2454449681946658E+00 
    2.1426124050095252E+00 
    2.1042699808287622E+00 
    2.1774794643767197E+00 
    2.2010257955699322E+00 
    2.2548938720163023E+00 
    2.2421545153378957E+00 
    2.3011535674319616E+00 
    2.3051897986938488E+00 
    2.2801374343529970E+00 
    2.2675988149711723E+00 
    2.3093876969043663E+00 
    2.3136487407716442E+00 
    2.4354832672454965E+00 
    2.4070744670600406E+00 
    2.4216665148333201E+00 
    2.4542896404667522E+00 
    2.3772315352797491E+00 
    2.3459606863594136E+00 
    2.3488895529386524E+00 
    2.3864636381317235E+00 
    2.3955675268473064E+00 
    2.3519097664667119E+00 
    2.3550416194905766E+00 
    2.4045747364613987E+00 
    2.4712693774415411E+00 
    2.4355598022689406E+00 
    2.4487938181334759E+00 
    2.4862645840542736E+00 
    1.9900847788865315E+00 
    1.9681931451844512E+00 
    1.9609875045263163E+00 
    1.9857162709678600E+00 
    1.9315746739139859E+00 
    1.8807000874919995E+00 
    1.8786989411872412E+00 
    1.9252168302644934E+00 
    1.9199128160893262E+00 
    1.8778940750843069E+00 
    1.8782135956948329E+00 
    1.9156071050444357E+00 
    1.9810496281780650E+00 
    1.9544634047740506E+00 
    1.9485305673567923E+00 
    1.9762541232596571E+00 
    1.8183180818345395E+00 
    1.7464470973538997E+00 
    1.7629945038725396E+00 
    1.8244676038386023E+00 
    1.6674933579121531E+00 
    1.5834573787091260E+00 
    1.6240841257303027E+00 
    1.6957957896998268E+00 
    1.7245178768433631E+00 
    1.6648809079841917E+00 
    1.7054464943609458E+00 
    1.7534410351267440E+00 
    1.8317944074987795E+00 
    1.7804841931545110E+00 
    1.7984835817928069E+00 
    1.8397467953154667E+00 
    1.9700320025109672E+00 
    1.9377482134372785E+00 
    1.9176436173428852E+00 
    1.9607288055165639E+00 
    1.9020495864192628E+00 
    1.8640540784441397E+00 
    1.8299767829162714E+00 
    1.8736835516413224E+00 
    1.8397926739751016E+00 
    1.7917437282591877E+00 
    1.7499499317039118E+00 
    1.7998234814465415E+00 
    1.9482764503278176E+00 
    1.8917081803465248E+00 
    1.8561524963267064E+00 
    1.9275260989645884E+00 
    1.8340883317316008E+00 
    1.7884938444577203E+00 
    1.7124545899399675E+00 
    1.7429397298488540E+00 
    1.7450187077031143E+00 
    1.7028255832339771E+00 
    1.6520258315238325E+00 
    1.6821964579007009E+00 
    1.6188124919350357E+00 
    1.6002722471663904E+00 
    1.5477241333812342E+00 
    1.5546036836764592E+00 
    1.6549262129311015E+00 
    1.6369874507604520E+00 
    1.5611177381235812E+00 
    1.5672100124729325E+00 
    1.6585613322708825E+00 
    1.6117225074124377E+00 
    1.5653281351921040E+00 
    1.6132714412769582E+00 
    1.5638921865869895E+00 
    1.5136899048831221E+00 
    1.4634148269529834E+00 
    1.5156784547145770E+00 
    1.4671233269809090E+00 
    1.4139766521325334E+00 
    1.3652623985447658E+00 
    1.4187931923069057E+00 
    1.5669447444905853E+00 
    1.5179321013441953E+00 
    1.4702564690754369E+00 
    1.5198950266733962E+00 
    1.4789019514894028E+00 
    1.4843944068263439E+00 
    1.4053732392528484E+00 
    1.3880722189371615E+00 
    1.4893618381119464E+00 
    1.4939334492690646E+00 
    1.4381680707983582E+00 
    1.4218852632879850E+00 
    1.3526406927171704E+00 
    1.3804967686636949E+00 
    1.3207301113818348E+00 
    1.2816716968657407E+00 
    1.2975649388865467E+00 
    1.3251171146874010E+00 
    1.2454011175530499E+00 
    1.2117078163876309E+00 
    2.4860932015976704E+00 
    2.4478588694392283E+00 
    2.4343310841769070E+00 
    2.4706935181473848E+00 
    2.4026447340440305E+00 
    2.3522070377393174E+00 
    2.3492139141085238E+00 
    2.3935473614922897E+00 
    2.3844001364163669E+00 
    2.3463274423617642E+00 
    2.3435295723360992E+00 
    2.3751584726824224E+00 
    2.4533790401060482E+00 
    2.4202039308564065E+00 
    2.4054429083421063E+00 
    2.4342950111914803E+00 
    2.2981763118568797E+00 
    2.2397784203419739E+00 
    2.2524966209878974E+00 
    2.3023730976335304E+00 
    2.1757992843335479E+00 
    2.1027694178341148E+00 
    2.1409689275970738E+00 
    2.1991368056935103E+00 
    2.2216574399408198E+00 
    2.1757304859174917E+00 
    2.2079527419872198E+00 
    2.2434257543314948E+00 
    2.3067063809004664E+00 
    2.2652128575144497E+00 
    2.2778305248095236E+00 
    2.3111235565288650E+00 
    2.4119670683533232E+00 
    2.3849850944138322E+00 
    2.3584612177001523E+00 
    2.3865731098889142E+00 
    2.3570685032368766E+00 
    2.3282352080124205E+00 
    2.2995662284607756E+00 
    2.3294902056306519E+00 
    2.3011312458235058E+00 
    2.2701273625115732E+00 
    2.2400475132965219E+00 
    2.2721598258190103E+00 
    2.3599993916462365E+00 
    2.3310677749759470E+00 
    2.3028632176373911E+00 
    2.3324531189699798E+00 
    2.2909543822897085E+00 
    2.2644418380608609E+00 
    2.2157912054203264E+00 
    2.2352228407077779E+00 
    2.2367966413456792E+00 
    2.2074802753197833E+00 
    2.1728685101423655E+00 
    2.1951687812197647E+00 
    2.1541424380146248E+00 
    2.1392245780625050E+00 
    2.1076101056087011E+00 
    2.1150592390250558E+00 
    2.1794061436178493E+00 
    2.1674006753448878E+00 
    2.1210364135579693E+00 
    2.1256540718534800E+00 
    2.1736104953884849E+00 
    2.1333015382601346E+00 
    2.1023700065461228E+00 
    2.1423829928496820E+00 
    2.0845299663337649E+00 
    2.0181183386760471E+00 
    2.0036125419794777E+00 
    2.0565439014436540E+00 
    2.0374181478425766E+00 
    1.9975685174711666E+00 
    1.9945659258744910E+00 
    2.0236818423140126E+00 
    2.1132176329914261E+00 
    2.0763119686634868E+00 
    2.0548471626051628E+00 
    2.0869173438633104E+00 
    2.0771986603773023E+00 
    2.0785604272564919E+00 
    2.0417211799955770E+00 
    2.0370172692602759E+00 
    2.0784176360942102E+00 
    2.0768071933198149E+00 
    2.0459718024784008E+00 
    2.0446230549524742E+00 
    2.0163652387267690E+00 
    2.0181143448339047E+00 
    1.9941285160459128E+00 
    1.9943645286601035E+00 
    2.0082729991358832E+00 
    2.0131861978445298E+00 
    1.9934926144607952E+00 
    1.9911808715951487E+00 
    1.4387496031307458E+00 
    1.3355560694482744E+00 
    1.3023972535239221E+00 
    1.3937758756650538E+00 
    1.2248733808379630E+00 
    1.1003506914429937E+00 
    1.0950340142989310E+00 
    1.2042612983429022E+00 
    1.1863490647370765E+00 
    1.0934259329226135E+00 
    1.0946169391525375E+00 
    1.1709368103264628E+00 
    1.3495798769611074E+00 
    1.2707290272811453E+00 
    1.2408194776223378E+00 
    1.3063292591273885E+00 
    9.5308395582399985E-01 
    7.6016458571686807E-01 
    8.1882898420414141E-01 
    9.7015615729173765E-01 
    4.7407532841243299E-01 
    0.0000000000000000E+00 
    3.4430201966338675E-01 
    6.2086578615003607E-01 
    7.4509943507942611E-01 
    5.8337279095993277E-01 
    7.6025460529425604E-01 
    8.5031538554962416E-01 
    9.9171268363625442E-01 
    8.7844198823086539E-01 
    9.3521531947673742E-01 
    1.0149016799590220E+00 
    1.2619149857790926E+00 
    1.2023993897231982E+00 
    1.1573731019590205E+00 
    1.2188513722688079E+00 
    1.1381204215743146E+00 
    1.0670979772573639E+00 
    1.0085417470020404E+00 
    1.0882408249990390E+00 
    1.0436720186204018E+00 
    9.5154891580925438E-01 
    8.9856957148849992E-01 
    1.0074778445734860E+00 
    1.1834402128462800E+00 
    1.1198251803585546E+00 
    1.0929080671888949E+00 
    1.1595647336199462E+00 
    1.8323405648363076E+00 
    1.7400258581156638E+00 
    1.7090933004701327E+00 
    1.7861720380308870E+00 
    1.6504894539319213E+00 
    1.5614743088173126E+00 
    1.5554393769952999E+00 
    1.6323679249437371E+00 
    1.6139852532039720E+00 
    1.5490477840724928E+00 
    1.5423370543232808E+00 
    1.5953845764052281E+00 
    1.7420972283067921E+00 
    1.6783618075886964E+00 
    1.6477856460448546E+00 
    1.6993069102507470E+00 
    1.4727426167401969E+00 
    1.3829594199308399E+00 
    1.4001215679863459E+00 
    1.4784760801504282E+00 
    1.2939352411656564E+00 
    1.2091916434114727E+00 
    1.2423903457720864E+00 
    1.3210440274871247E+00 
    1.3482469572516744E+00 
    1.2782954476073143E+00 
    1.3170821663329040E+00 
    1.3760864025882822E+00 
    1.4837414248719958E+00 
    1.4167770114707225E+00 
    1.4331892509658104E+00 
    1.4886268348845590E+00 
    1.6544738489669573E+00 
    1.6086435064065348E+00 
    1.5605028088237689E+00 
    1.6071687806913608E+00 
    1.5619351161181247E+00 
    1.5146903223863561E+00 
    1.4653268872329290E+00 
    1.5130621142106497E+00 
    1.4627739780420581E+00 
    1.4143739901263075E+00 
    1.3614273831818602E+00 
    1.4102377424881758E+00 
    1.5595222360311287E+00 
    1.5113418039837689E+00 
    1.4596534641795338E+00 
    1.5096684949569865E+00 
    1.9256581732623015E+00 
    1.8540896822056685E+00 
    1.8897751570960728E+00 
    1.9464218338637267E+00 
    1.7974150540938341E+00 
    1.7470595001324078E+00 
    1.7893563873659690E+00 
    1.8377266174813176E+00 
    1.8718262077754602E+00 
    1.8280132442769497E+00 
    1.8623291228465775E+00 
    1.9003310596050174E+00 
    1.9588510185650332E+00 
    1.9158552955789578E+00 
    1.9359353766539953E+00 
    1.9680310514030683E+00 
    1.7020624617948932E+00 
    1.6609838204409526E+00 
    1.7215839489766009E+00 
    1.7507538976547812E+00 
    1.6199855633979237E+00 
    1.5792957347386531E+00 
    1.6643405299182528E+00 
    1.6926636503412091E+00 
    1.7607868065106074E+00 
    1.7441709623244104E+00 
    1.8167387423637076E+00 
    1.8228455169030853E+00 
    1.7963684275056031E+00 
    1.7783189897945810E+00 
    1.8301318350349172E+00 
    1.8380136652816994E+00 
    1.9739140712326892E+00 
    1.9465216750678536E+00 
    1.9522727523610899E+00 
    1.9783812600559809E+00 
    1.9138720950057684E+00 
    1.8766108406356354E+00 
    1.8763742745557603E+00 
    1.9181841335828376E+00 
    1.9234052999845481E+00 
    1.8772814464565277E+00 
    1.8793719602782732E+00 
    1.9296917767960831E+00 
    1.9826677367470831E+00 
    1.9585405396102806E+00 
    1.9654937117921576E+00 
    1.9867830269995854E+00 
    1.1587099293586278E+00 
    1.0928850081916717E+00 
    1.1194765661459825E+00 
    1.1816574113762941E+00 
    1.0079702261442458E+00 
    8.9937538566750741E-01 
    9.5323898874776558E-01 
    1.0445942092118936E+00 
    1.0889767401596422E+00 
    1.0104205214771058E+00 
    1.0685919829733197E+00 
    1.1383533348382722E+00 
    1.2166865487630982E+00 
    1.1566952601057139E+00 
    1.2012113155066275E+00 
    1.2593735391555927E+00 
    7.6138795468081100E-01 
    5.8457536557389878E-01 
    7.4853454570435896E-01 
    8.5282426382402676E-01 
    3.4485831905273351E-01 
    0.0000000000000000E+00 
    4.7660506381594320E-01 
    6.2473635856239129E-01 
    8.2338798226957444E-01 
    7.6463623737585207E-01 
    9.5675229114899019E-01 
    9.7373009456698689E-01 
    9.3799263574563985E-01 
    8.8221378509539627E-01 
    9.9480558186692625E-01 
    1.0171378054605640E+00 
    1.3033321327263241E+00 
    1.2391153655782776E+00 
    1.2688482651298938E+00 
    1.3464700000622951E+00 
    1.1707447778172027E+00 
    1.0958978424958947E+00 
    1.0950669059477025E+00 
    1.1861898945919349E+00 
    1.2041835547817057E+00 
    1.0971896640498984E+00 
    1.1026969266845943E+00 
    1.2245517275542712E+00 
    1.3906533021595378E+00 
    1.3004317301662534E+00 
    1.3332596641814791E+00 
    1.4352983451876400E+00 
    1.9673936732095905E+00 
    2.0576612144672941E+00 
    2.0494067462332106E+00 
    1.9663742421359798E+00 
    2.1441472405685227E+00 
    2.2258308853713196E+00 
    2.2048405679945846E+00 
    2.1291374436403285E+00 
    2.1165560599007347E+00 
    2.1857524549724276E+00 
    2.1682053215636024E+00 
    2.1060854458099447E+00 
    1.9677597538166438E+00 
    2.0437797516049394E+00 
    2.0405053158490891E+00 
    1.9713956276738094E+00 
    2.3001797178482355E+00 
    2.3669396328063108E+00 
    2.3307216074211969E+00 
    2.2716230504644117E+00 
    2.4267366930169301E+00 
    2.4791232689736331E+00 
    2.4380263762103174E+00 
    2.3860745694638923E+00 
    2.3439065796433978E+00 
    2.3921004593624389E+00 
    2.3416813162407304E+00 
    2.2999371666527337E+00 
    2.2443708916764287E+00 
    2.2948858237782583E+00 
    2.2589622217059424E+00 
    2.2180165676456558E+00 
    1.9815516413588208E+00 
    2.0514013402367364E+00 
    2.0780264770166355E+00 
    1.9997251631038584E+00 
    2.1161816743853938E+00 
    2.1767184495711072E+00 
    2.2113091346256231E+00 
    2.1477077872040651E+00 
    2.1822561853574971E+00 
    2.2472321889175548E+00 
    2.2853324184440105E+00 
    2.2212436448639048E+00 
    2.0235132549763235E+00 
    2.1095069281681211E+00 
    2.1485281095937423E+00 
    2.0578516344885673E+00 
    1.8739333186220064E+00 
    1.7793181772261044E+00 
    1.7918184025731210E+00 
    1.8791872939355854E+00 
    1.6841677619594630E+00 
    1.5891722448567267E+00 
    1.6171902311873163E+00 
    1.7043417680078921E+00 
    1.7248373974502629E+00 
    1.6453420096359479E+00 
    1.6737565729827408E+00 
    1.7457654166807737E+00 
    1.8860429884224732E+00 
    1.8051177054665721E+00 
    1.8191727777821862E+00 
    1.8943053513692607E+00 
    1.4968400631393277E+00 
    1.4073774501374818E+00 
    1.4625109622249610E+00 
    1.5366841805973894E+00 
    1.3192047028107849E+00 
    1.2328306679957370E+00 
    1.3156654272252355E+00 
    1.3888482905367612E+00 
    1.4598311653200886E+00 
    1.4016894686935648E+00 
    1.4890101958851059E+00 
    1.5316621237267429E+00 
    1.5767119330980346E+00 
    1.5182178780458884E+00 
    1.5743846395352539E+00 
    1.6170669231782553E+00 
    1.8987168022716314E+00 
    1.8203372904976303E+00 
    1.8063430699084206E+00 
    1.8969487240716978E+00 
    1.7454321234280854E+00 
    1.6728763132541649E+00 
    1.6418604172701252E+00 
    1.7222851757738877E+00 
    1.6975445365222621E+00 
    1.6103133596410275E+00 
    1.5782372471538952E+00 
    1.6707566186120448E+00 
    1.8909572342609822E+00 
    1.7892034492070026E+00 
    1.7670780042683889E+00 
    1.8764616906353158E+00 
    2.0562496849082867E+00 
    2.1467769198754030E+00 
    2.1076230472137052E+00 
    2.0217076066286279E+00 
    2.2188950580015003E+00 
    2.2824157790018322E+00 
    2.2447554854210257E+00 
    2.1800769449205983E+00 
    2.1457040648278296E+00 
    2.2091928352162244E+00 
    2.1749231455288722E+00 
    2.1144014049852498E+00 
    1.9977622975289626E+00 
    2.0761248069606095E+00 
    2.0495839385796200E+00 
    1.9795772264021527E+00 
    2.3389060256605099E+00 
    2.3902271943144768E+00 
    2.3422432703621534E+00 
    2.2976297407487487E+00 
    2.4371655543973798E+00 
    2.4790339966259438E+00 
    2.4265160220340629E+00 
    2.3851881336429988E+00 
    2.3298772410848398E+00 
    2.3666722560815190E+00 
    2.2999256992129764E+00 
    2.2708830432083262E+00 
    2.2570224525027740E+00 
    2.2934473023569439E+00 
    2.2431575565375854E+00 
    2.2163916232505421E+00 
    1.9695540201615453E+00 
    2.0388798404873736E+00 
    2.0425102854026069E+00 
    1.9662723340839603E+00 
    2.1045569875666761E+00 
    2.1667058660882779E+00 
    2.1846272397814444E+00 