# vtk DataFile Version 2.0
Pressure Field Data 
ASCII 
DATASET UNSTRUCTURED_GRID 

POINTS 801 double 

    0.0000000000000000E+00     0.0000000000000000E+00     0.0000000000000000E+00 
    1.0000000000000000E+00     0.0000000000000000E+00     0.0000000000000000E+00 
    1.0000000000000000E+00     1.0000000000000000E+00     0.0000000000000000E+00 
    0.0000000000000000E+00     1.0000000000000000E+00     0.0000000000000000E+00 
    2.5000000000000000E-01     2.5000000000000000E-01     0.0000000000000000E+00 
    7.5000000000000000E-01     2.5000000000000000E-01     0.0000000000000000E+00 
    7.5000000000000000E-01     7.5000000000000000E-01     0.0000000000000000E+00 
    2.5000000000000000E-01     7.5000000000000000E-01     0.0000000000000000E+00 
    2.4999999999941941E-01     0.0000000000000000E+00     0.0000000000000000E+00 
    4.9999999999869399E-01     0.0000000000000000E+00     0.0000000000000000E+00 
    7.4999999999934697E-01     0.0000000000000000E+00     0.0000000000000000E+00 
    1.2499999999977940E-01     0.0000000000000000E+00     0.0000000000000000E+00 
    3.7499999999905670E-01     0.0000000000000000E+00     0.0000000000000000E+00 
    6.2499999999902045E-01     0.0000000000000000E+00     0.0000000000000000E+00 
    8.7499999999967348E-01     0.0000000000000000E+00     0.0000000000000000E+00 
    6.2499999999889699E-02     0.0000000000000000E+00     0.0000000000000000E+00 
    1.8749999999959940E-01     0.0000000000000000E+00     0.0000000000000000E+00 
    3.1249999999923811E-01     0.0000000000000000E+00     0.0000000000000000E+00 
    4.3749999999887529E-01     0.0000000000000000E+00     0.0000000000000000E+00 
    5.6249999999885725E-01     0.0000000000000000E+00     0.0000000000000000E+00 
    6.8749999999918376E-01     0.0000000000000000E+00     0.0000000000000000E+00 
    8.1249999999951017E-01     0.0000000000000000E+00     0.0000000000000000E+00 
    9.3749999999983680E-01     0.0000000000000000E+00     0.0000000000000000E+00 
    1.0000000000000000E+00     2.4999999999941941E-01     0.0000000000000000E+00 
    1.0000000000000000E+00     4.9999999999869399E-01     0.0000000000000000E+00 
    1.0000000000000000E+00     7.4999999999934697E-01     0.0000000000000000E+00 
    1.0000000000000000E+00     1.2499999999977940E-01     0.0000000000000000E+00 
    1.0000000000000000E+00     3.7499999999905670E-01     0.0000000000000000E+00 
    1.0000000000000000E+00     6.2499999999902045E-01     0.0000000000000000E+00 
    1.0000000000000000E+00     8.7499999999967348E-01     0.0000000000000000E+00 
    1.0000000000000000E+00     6.2499999999889699E-02     0.0000000000000000E+00 
    1.0000000000000000E+00     1.8749999999959940E-01     0.0000000000000000E+00 
    1.0000000000000000E+00     3.1249999999923811E-01     0.0000000000000000E+00 
    1.0000000000000000E+00     4.3749999999887529E-01     0.0000000000000000E+00 
    1.0000000000000000E+00     5.6249999999885725E-01     0.0000000000000000E+00 
    1.0000000000000000E+00     6.8749999999918376E-01     0.0000000000000000E+00 
    1.0000000000000000E+00     8.1249999999951017E-01     0.0000000000000000E+00 
    1.0000000000000000E+00     9.3749999999983680E-01     0.0000000000000000E+00 
    7.5000000000112044E-01     1.0000000000000000E+00     0.0000000000000000E+00 
    5.0000000000205913E-01     1.0000000000000000E+00     0.0000000000000000E+00 
    2.5000000000102962E-01     1.0000000000000000E+00     0.0000000000000000E+00 
    8.7499999999991362E-01     1.0000000000000000E+00     0.0000000000000000E+00 
    6.2499999999988309E-01     1.0000000000000000E+00     0.0000000000000000E+00 
    3.7499999999869987E-01     1.0000000000000000E+00     0.0000000000000000E+00 
    1.2499999999880820E-01     1.0000000000000000E+00     0.0000000000000000E+00 
    9.3749999999995681E-01     1.0000000000000000E+00     0.0000000000000000E+00 
    8.1250000000051703E-01     1.0000000000000000E+00     0.0000000000000000E+00 
    6.8750000000050182E-01     1.0000000000000000E+00     0.0000000000000000E+00 
    5.6250000000097111E-01     1.0000000000000000E+00     0.0000000000000000E+00 
    4.3750000000037947E-01     1.0000000000000000E+00     0.0000000000000000E+00 
    3.1249999999986477E-01     1.0000000000000000E+00     0.0000000000000000E+00 
    1.8749999999991890E-01     1.0000000000000000E+00     0.0000000000000000E+00 
    6.2499999999404102E-02     1.0000000000000000E+00     0.0000000000000000E+00 
    0.0000000000000000E+00     7.5000000000112044E-01     0.0000000000000000E+00 
    0.0000000000000000E+00     5.0000000000205913E-01     0.0000000000000000E+00 
    0.0000000000000000E+00     2.5000000000102962E-01     0.0000000000000000E+00 
    0.0000000000000000E+00     8.7499999999991362E-01     0.0000000000000000E+00 
    0.0000000000000000E+00     6.2499999999988309E-01     0.0000000000000000E+00 
    0.0000000000000000E+00     3.7499999999869987E-01     0.0000000000000000E+00 
    0.0000000000000000E+00     1.2499999999880820E-01     0.0000000000000000E+00 
    0.0000000000000000E+00     9.3749999999995681E-01     0.0000000000000000E+00 
    0.0000000000000000E+00     8.1250000000051703E-01     0.0000000000000000E+00 
    0.0000000000000000E+00     6.8750000000050182E-01     0.0000000000000000E+00 
    0.0000000000000000E+00     5.6250000000097111E-01     0.0000000000000000E+00 
    0.0000000000000000E+00     4.3750000000037947E-01     0.0000000000000000E+00 
    0.0000000000000000E+00     3.1249999999986477E-01     0.0000000000000000E+00 
    0.0000000000000000E+00     1.8749999999991890E-01     0.0000000000000000E+00 
    0.0000000000000000E+00     6.2499999999404102E-02     0.0000000000000000E+00 
    4.9999999999972200E-01     2.5000000000000000E-01     0.0000000000000000E+00 
    3.7500000000067490E-01     2.5000000000000000E-01     0.0000000000000000E+00 
    6.2500000000042988E-01     2.5000000000000000E-01     0.0000000000000000E+00 
    3.1250000000033751E-01     2.5000000000000000E-01     0.0000000000000000E+00 
    4.3750000000019851E-01     2.5000000000000000E-01     0.0000000000000000E+00 
    5.6250000000007594E-01     2.5000000000000000E-01     0.0000000000000000E+00 
    6.8750000000021494E-01     2.5000000000000000E-01     0.0000000000000000E+00 
    7.5000000000000000E-01     4.9999999999972200E-01     0.0000000000000000E+00 
    7.5000000000000000E-01     3.7500000000067490E-01     0.0000000000000000E+00 
    7.5000000000000000E-01     6.2500000000042988E-01     0.0000000000000000E+00 
    7.5000000000000000E-01     3.1250000000033751E-01     0.0000000000000000E+00 
    7.5000000000000000E-01     4.3750000000019851E-01     0.0000000000000000E+00 
    7.5000000000000000E-01     5.6250000000007594E-01     0.0000000000000000E+00 
    7.5000000000000000E-01     6.8750000000021494E-01     0.0000000000000000E+00 
    5.0000000000118039E-01     7.5000000000000000E-01     0.0000000000000000E+00 
    6.2500000000161415E-01     7.5000000000000000E-01     0.0000000000000000E+00 
    3.7500000000140910E-01     7.5000000000000000E-01     0.0000000000000000E+00 
    6.8750000000080713E-01     7.5000000000000000E-01     0.0000000000000000E+00 
    5.6250000000139733E-01     7.5000000000000000E-01     0.0000000000000000E+00 
    4.3750000000129469E-01     7.5000000000000000E-01     0.0000000000000000E+00 
    3.1250000000070460E-01     7.5000000000000000E-01     0.0000000000000000E+00 
    2.5000000000000000E-01     5.0000000000118039E-01     0.0000000000000000E+00 
    2.5000000000000000E-01     6.2500000000161415E-01     0.0000000000000000E+00 
    2.5000000000000000E-01     3.7500000000140910E-01     0.0000000000000000E+00 
    2.5000000000000000E-01     6.8750000000080713E-01     0.0000000000000000E+00 
    2.5000000000000000E-01     5.6250000000139733E-01     0.0000000000000000E+00 
    2.5000000000000000E-01     4.3750000000129469E-01     0.0000000000000000E+00 
    2.5000000000000000E-01     3.1250000000070460E-01     0.0000000000000000E+00 
    3.7499999999934702E-01     1.2500000000000000E-01     0.0000000000000000E+00 
    1.2500000000000000E-01     1.2500000000000000E-01     0.0000000000000000E+00 
    1.2500000000000000E-01     3.7500000000102962E-01     0.0000000000000000E+00 
    8.7500000000000000E-01     1.2500000000000000E-01     0.0000000000000000E+00 
    6.2499999999934697E-01     1.2500000000000000E-01     0.0000000000000000E+00 
    8.7500000000000000E-01     3.7499999999934702E-01     0.0000000000000000E+00 
    8.7500000000000000E-01     6.2499999999934697E-01     0.0000000000000000E+00 
    1.2500000000000000E-01     6.2500000000102962E-01     0.0000000000000000E+00 
    1.2500000000000000E-01     8.7500000000000000E-01     0.0000000000000000E+00 
    8.7500000000000000E-01     8.7500000000000000E-01     0.0000000000000000E+00 
    6.2500000000102962E-01     8.7500000000000000E-01     0.0000000000000000E+00 
    3.7500000000102962E-01     8.7500000000000000E-01     0.0000000000000000E+00 
    2.4999999999957681E-01     8.3333333333333329E-02     0.0000000000000000E+00 
    8.3333333333333329E-02     2.5000000000068640E-01     0.0000000000000000E+00 
    7.4999999999956468E-01     8.3333333333333329E-02     0.0000000000000000E+00 
    4.9999999999951827E-01     1.6666666666666671E-01     0.0000000000000000E+00 
    9.1666666666666674E-01     2.4999999999957681E-01     0.0000000000000000E+00 
    8.3333333333333337E-01     4.9999999999951827E-01     0.0000000000000000E+00 
    1.6666666666666671E-01     5.0000000000088307E-01     0.0000000000000000E+00 
    8.3333333333333329E-02     7.5000000000070155E-01     0.0000000000000000E+00 
    9.1666666666666674E-01     7.4999999999956468E-01     0.0000000000000000E+00 
    5.0000000000088307E-01     8.3333333333333348E-01     0.0000000000000000E+00 
    2.5000000000068640E-01     9.1666666666666674E-01     0.0000000000000000E+00 
    7.5000000000070155E-01     9.1666666666666674E-01     0.0000000000000000E+00 
[...]
CELL_DATA 768 
SCALARS Pressure double 1 
LOOKUP_TABLE default 

    2.9489420037735767E+00 
    2.8534093131053293E+00 
    2.8220120067140337E+00 
    2.8814363513696009E+00 
    2.7885788076514366E+00 
    2.7361125177156485E+00 
    2.7313198582714189E+00 
    2.7742075373554269E+00 
    2.7590943779101798E+00 
    2.7254569647985654E+00 
    2.7186863372092152E+00 
    2.7435881906837816E+00 
    2.8303243981842656E+00 
    2.7934899148846406E+00 
    2.7671462446027282E+00 
    2.7894355410542468E+00 
    2.6868348858520381E+00 
    2.6374511422855091E+00 
    2.6468081292616854E+00 
    2.6892258283537558E+00 
    2.5861834596543689E+00 
    2.5322437561433500E+00 
    2.5573041422541385E+00 
    2.6030750898661119E+00 
    2.6189220451248727E+00 
    2.5812285441812430E+00 
    2.6036435539138072E+00 
    2.6334573838356787E+00 
    2.6906385226665921E+00 
    2.6551970470637323E+00 
    2.6624488643324620E+00 
    2.6910698145119056E+00 
    2.7539216431123510E+00 
    2.7392110364357261E+00 
    2.7110814710144626E+00 
    2.7225320687486696E+00 
    2.7217069781855168E+00 
    2.7017664252217846E+00 
    2.6763241011010273E+00 
    2.6954396719975295E+00 
    2.6704738141026012E+00 
    2.6511223718282193E+00 
    2.6256676730904114E+00 
    2.6462317929873267E+00 
    2.6954756515565728E+00 
    2.6856519180145844E+00 
    2.6626327812392976E+00 
    2.6731642917686416E+00 
    2.9489874804555134E+00 
    2.8814945306882032E+00 
    2.8222027173665492E+00 
    2.8535965557179699E+00 
    2.8303929331376585E+00 
    2.7895031355825011E+00 
    2.7673142591566608E+00 
    2.7936683223175414E+00 
    2.7593378631566221E+00 
    2.7437787278922161E+00 
    2.7188638260419515E+00 
    2.7256899470109510E+00 
    2.7888573721637142E+00 
    2.7744712209975444E+00 
    2.7315994074411982E+00 
    2.7364041076501855E+00 
    2.7539883199481991E+00 
    2.7225713990075366E+00 
    2.7111494344679952E+00 
    2.7393561972099199E+00 
    2.6954490311102695E+00 
    2.6731057566119762E+00 
    2.6624308377118293E+00 
    2.6855835738654985E+00 
    2.6702983785336589E+00 
    2.6457943234970811E+00 
    2.6249988711760794E+00 
    2.6507786512181122E+00 
    2.7218489052369366E+00 
    2.6954520630299417E+00 
    2.6762382406381211E+00 
    2.7018514791714989E+00 
    2.6869905837916428E+00 
    2.6893690882744026E+00 
    2.6466005463962587E+00 
    2.6371747755991417E+00 
    2.6907458025479687E+00 
    2.6911228162153624E+00 
    2.6622736486316327E+00 
    2.6550030637989641E+00 
    2.6183457846691334E+00 
    2.6329608669625184E+00 
    2.6027634684864376E+00 
    2.5802277159206448E+00 
    2.5854059742479922E+00 
    2.6024064190517322E+00 
    2.5562120405106956E+00 
    2.5310571581008565E+00 
    2.4437191158310543E+00 
    2.3832390319294450E+00 
    2.3621660162290712E+00 
    2.4150264279893006E+00 
    2.3226525320054194E+00 
    2.2645566990851047E+00 
    2.2594867442685493E+00 
    2.3096304517640260E+00 
    2.2952015700428108E+00 
    2.2529271925190240E+00 
    2.2447616287426291E+00 
    2.2790050131141002E+00 
    2.3850553398563901E+00 
    2.3397790371905485E+00 
    2.3155512117440962E+00 
    2.3532412358680177E+00 
    2.2123751705556232E+00 
    2.1695958111432097E+00 
    2.1744000204088740E+00 
    2.2137457976549935E+00 
    2.1388252056980219E+00 
    2.1188131189356429E+00 
    2.1218403675424740E+00 
    2.1438994964313260E+00 
    2.1468804900482041E+00 
    2.1228416724361145E+00 
    2.1221170230643804E+00 
    2.1481828642701348E+00 
    2.2134605789863837E+00 
    2.1771843726311051E+00 
    2.1782566830858641E+00 
    2.2115580311424763E+00 
    2.3164746239263825E+00 
    2.2824543083419084E+00 
    2.2388386747927607E+00 
    2.2725493634533347E+00 
    2.2507628813137175E+00 
    2.2223065372577344E+00 
    2.1874908404987350E+00 
    2.2105952531905615E+00 
    2.1681967853555189E+00 
    2.1536302857539442E+00 
    2.1218778076567575E+00 
    2.1246452879606088E+00 
    2.2191693286932299E+00 
    2.1887785285700718E+00 
    2.1308203015905560E+00 
    2.1463098030070689E+00 
    2.4886203841450532E+00 
    2.4567000761479769E+00 
    2.4872692191576733E+00 
    2.5183855936773734E+00 
    2.4235052369339223E+00 
    2.3887311652187675E+00 
    2.4215329711313300E+00 
    2.4550302949786502E+00 
    2.4858599143947679E+00 
    2.4536668410773710E+00 
    2.4848189726368330E+00 
    2.5157268281916449E+00 
    2.5470238534982035E+00 
    2.5169686633614705E+00 
    2.5455551576871587E+00 
    2.5743072873283968E+00 
    2.3539599165122604E+00 
    2.3189315721820241E+00 
    2.3691253867149857E+00 
    2.3927022447548110E+00 
    2.2809338394564032E+00 
    2.2390548016117151E+00 
    2.3188917324756391E+00 
    2.3445406620453775E+00 
    2.4029632604130726E+00 
    2.3891224121115724E+00 
    2.4529198527151301E+00 
    2.4573179732940398E+00 
    2.4302895025599298E+00 
    2.4167371445949808E+00 
    2.4618881585846877E+00 
    2.4665061639526886E+00 
    2.5980919697392961E+00 
    2.5674116237497455E+00 
    2.5831238977151587E+00 
    2.6183153845567424E+00 
    2.5351620660139282E+00 
    2.5013842852184376E+00 
    2.5045217385743888E+00 
    2.5450985638247841E+00 
    2.5548948231687416E+00 
    2.5077524885063927E+00 
    2.5111134808708662E+00 
    2.5645962609383703E+00 
    2.6365475676409580E+00 
    2.5980761053286510E+00 
    2.6123146654960014E+00 
    2.6526178138936829E+00 
    2.1132238074335126E+00 
    2.0893986772303603E+00 
    2.0817352093771495E+00 
    2.1089231689933032E+00 
    2.0486519798464924E+00 
    1.9919565575719349E+00 
    1.9898775116730274E+00 
    2.0417282828311190E+00 
    2.0366936523862340E+00 
    1.9897076147144224E+00 
    1.9906616738691627E+00 
    2.0324405843774933E+00 
    2.1049300365014529E+00 
    2.0753239784814665E+00 
    2.0690152748431387E+00 
    2.0997485986123139E+00 
    1.9221552177314309E+00 
    1.8409601174865171E+00 
    1.8598283589223157E+00 
    1.9290375490194132E+00 
    1.7507097330712622E+00 
    1.6527242454441060E+00 
    1.7017198198451515E+00 
    1.7835514826923269E+00 
    1.8172422461607212E+00 
    1.7498337205151508E+00 
    1.7972200176039590E+00 
    1.8512089762807875E+00 
    1.9379131407851917E+00 
    1.8803470952563914E+00 
    1.9017031007659930E+00 
    1.9478551195968088E+00 
    2.0926120149954062E+00 
    2.0569411214934719E+00 
    2.0345428908785492E+00 
    2.0820664194152605E+00 
    2.0173853592965676E+00 
    1.9750998871021421E+00 
    1.9372000255907222E+00 
    1.9858624761155579E+00 
    1.9482834352621601E+00 
    1.8946490012011661E+00 
    1.8481559000511472E+00 
    1.9042335373814445E+00 
    2.0680930496968966E+00 
    2.0057543150419188E+00 
    1.9666933611374973E+00 
    2.0452850814470396E+00 
    1.9430102796666540E+00 
    1.8927915642880730E+00 
    1.8091927865540316E+00 
    1.8435306443405666E+00 
    1.8439965482694383E+00 
    1.7956503588273283E+00 
    1.7384119679055130E+00 
    1.7740949461106654E+00 
    1.7015539309433920E+00 
    1.6787947651481312E+00 
    1.6167442433848125E+00 
    1.6253709573499269E+00 
    1.7448633373609861E+00 
    1.7237278624950683E+00 
    1.6338644634049115E+00 
    1.6415911043564244E+00 
    1.7443844907435839E+00 
    1.6897281412760485E+00 
    1.6367970580309146E+00 
    1.6928786613885445E+00 
    1.6317436511797649E+00 
    1.5707981279347139E+00 
    1.5148005572026346E+00 
    1.5773838413806338E+00 
    1.5218519951359455E+00 
    1.4591211175690861E+00 
    1.4041960470234562E+00 
    1.4658118039043286E+00 
    1.6392022735646401E+00 
    1.5816897632829170E+00 
    1.5255851128157611E+00 
    1.5837910804158311E+00 
    1.5345909632367210E+00 
    1.5411523090317425E+00 
    1.4468588914822698E+00 
    1.4259126761013685E+00 
    1.5471430699730215E+00 
    1.5528510022811080E+00 
    1.4873472544767268E+00 
    1.4671940656050921E+00 
    1.3875245249338914E+00 
    1.4210010889793436E+00 
    1.3535967201943153E+00 
    1.3074434632820311E+00 
    1.3198955649723396E+00 
    1.3537040000311316E+00 
    1.2616291862689069E+00 
    1.2197518969501893E+00 
    2.6525124710768861E+00 
    2.6114861681664374E+00 
    2.5969721279687690E+00 
    2.6360599339579180E+00 
    2.5628179488226306E+00 
    2.5084722151128269E+00 
    2.5052414661817850E+00 
    2.5530349908808287E+00 
    2.5432005591909292E+00 
    2.5021316578869737E+00 
    2.4991154358737009E+00 
    2.5332561609156063E+00 
    2.6175188739459627E+00 
    2.5818048116514780E+00 
    2.5659391618475973E+00 
    2.5970450057946350E+00 
    2.4501563923702481E+00 
    2.3869874226328598E+00 
    2.4007701265145993E+00 
    2.4546939818333531E+00 
    2.3175297125822292E+00 
    2.2380182823464554E+00 
    2.2796641467989724E+00 
    2.3429122648739336E+00 
    2.3673247866298635E+00 
    2.3174531783636581E+00 
    2.3523828643686664E+00 
    2.3908676018819461E+00 
    2.4593718110979554E+00 
    2.4145153026770263E+00 
    2.4281311561617547E+00 
    2.4641300435267164E+00 
    2.5730434064158381E+00 
    2.5439072418439079E+00 
    2.5152860186902002E+00 
    2.5456927097418554E+00 
    2.5137463634602031E+00 
    2.4826026340851080E+00 
    2.4516072835125575E+00 
    2.4839494428101014E+00 
    2.4532622730293419E+00 
    2.4197306934491172E+00 
    2.3871131426535568E+00 
    2.4218697540183398E+00 
    2.5170202309008913E+00 
    2.4856799371593077E+00 
    2.4551509829590792E+00 
    2.4872418729784713E+00 
    2.4422767851784961E+00 
    2.4135042753461984E+00 
    2.3606968765628307E+00 
    2.3817881100218563E+00 
    2.3835210772446520E+00 
    2.3517662872918730E+00 
    2.3141793995081947E+00 
    2.3383342652242689E+00 
    2.2937869741774288E+00 
    2.2776350968999899E+00 
    2.2433095162096373E+00 
    2.2513743334176546E+00 
    2.3211707008645872E+00 
    2.3081499294449137E+00 
    2.2578396463983803E+00 
    2.2628359806037630E+00 
    2.3150808310043050E+00 
    2.2713063616446623E+00 
    2.2376469204305991E+00 
    2.2811347745760964E+00 
    2.2181439901982345E+00 
    2.1454874443182472E+00 
    2.1298210074602526E+00 
    2.1876833253203776E+00 
    2.1669116884662416E+00 
    2.1233481756746539E+00 
    2.1202715231173341E+00 
    2.1520822326926088E+00 
    2.2494269178067325E+00 
    2.2093070832601245E+00 
    2.1860122915000000E+00 
    2.2208570120786142E+00 
    2.2104058281485632E+00 
    2.2118669330679284E+00 
    2.1721677596378131E+00 
    2.1671769390178643E+00 
    2.2116925835793988E+00 
    2.2099195390101212E+00 
    2.1764881763712083E+00 
    2.1751678908300995E+00 
    2.1446435845668694E+00 
    2.1462620175696974E+00 
    2.1200932136568413E+00 
    2.1204640019771976E+00 
    2.1361058942851723E+00 
    2.1414065413313046E+00 
    2.1191025642978047E+00 
    2.1158596092140556E+00 
    1.4847100356978715E+00 
    1.3670703504029915E+00 
    1.3282666541034720E+00 
    1.4329747795399277E+00 
    1.2404453755488161E+00 
    1.1012819436474457E+00 
    1.0947078496920801E+00 
    1.2162705731802999E+00 
    1.1947521245607742E+00 
    1.0915874941143329E+00 
    1.0918739257100312E+00 
    1.1768675536391706E+00 
    1.3834595923273039E+00 
    1.2921924802994029E+00 
    1.2595598369567835E+00 
    1.3364951247890628E+00 
    9.4075491555877655E-01 
    7.3947612402010054E-01 
    7.9907463852292882E-01 
    9.5840624558469467E-01 
    4.5467971953848396E-01 
    0.0000000000000000E+00 
    3.2571540221371975E-01 
    5.9806121851215199E-01 
    7.2296600426551549E-01 
    5.6365637394890022E-01 
    7.4257970884212665E-01 
    8.3151218970422225E-01 
    9.7987764581914660E-01 
    8.5963945836753486E-01 
    9.1902472222322973E-01 
    1.0041875050696372E+00 
    1.2872311934812652E+00 
    1.2163534541613832E+00 
    1.1626812727835560E+00 
    1.2358009009586484E+00 
    1.1396736165254890E+00 
    1.0608952911717140E+00 
    9.9734847211471100E-01 
    1.0834424906142792E+00 
    1.0357454264355568E+00 
    9.3801255447512921E-01 
    8.8493393311961532E-01 
    9.9935441416228654E-01 
    1.1899507299847927E+00 
    1.1184620531584690E+00 
    1.0905321154669287E+00 
    1.1617313915621033E+00 
    1.9431689362098412E+00 
    1.8425836373433730E+00 
    1.8078533530770233E+00 
    1.8925380522834871E+00 
    1.7421250958294787E+00 
    1.6379009598175527E+00 
    1.6302015651514057E+00 
    1.7208278893709796E+00 
    1.6985099648757327E+00 
    1.6219228863856934E+00 
    1.6137254734360860E+00 
    1.6759570165183779E+00 
    1.8432561625367647E+00 
    1.7723180866004176E+00 
    1.7363664807517905E+00 
    1.7944623608916430E+00 
    1.5316079621756742E+00 
    1.4249630680763685E+00 
    1.4458433852957551E+00 
    1.5383527799217953E+00 
    1.3202413708709744E+00 
    1.2206007419734521E+00 
    1.2627799344437041E+00 
    1.3541435919269669E+00 
    1.3881618500331852E+00 
    1.3092105614897758E+00 
    1.3558092850478760E+00 
    1.4218983689036049E+00 
    1.5446933730166703E+00 
    1.4664487417012015E+00 
    1.4867310849822872E+00 
    1.5508163129990213E+00 
    1.7430409808076270E+00 
    1.6908155487411629E+00 
    1.6351290429153273E+00 
    1.6886421820344768E+00 
    1.6367586093116384E+00 
    1.5815647588876904E+00 
    1.5246494298407152E+00 
    1.5802196793477301E+00 
    1.5222558838450448E+00 
    1.4665720149748542E+00 
    1.4064948995931996E+00 
    1.4613368724723623E+00 
    1.6317378015897621E+00 
    1.5774408779189359E+00 
    1.5166037102336305E+00 
    1.5719613769284637E+00 
    2.0447838715516373E+00 
    1.9663181256109490E+00 
    2.0050290837892706E+00 
    2.0672104807627933E+00 
    1.9037054303303274E+00 
    1.8473789673116952E+00 
    1.8939747650551615E+00 
    1.9476442245856456E+00 
    1.9849737756751360E+00 
    1.9365280216176741E+00 
    1.9742973545747937E+00 
    2.0162766199867819E+00 
    2.0808384566230997E+00 
    2.0335220984452125E+00 
    2.0555979414691872E+00 
    2.0910766295633576E+00 
    1.7964998514417101E+00 
    1.7494339304736797E+00 
    1.8173050936734298E+00 
    1.8507456733832346E+00 
    1.7016391320616300E+00 
    1.6531693710512807E+00 
    1.7510814263993892E+00 
    1.7838424286462624E+00 
    1.8602887778281731E+00 
    1.8415086397554452E+00 
    1.9225689846708440E+00 
    1.9293155319145070E+00 
    1.9012931465575555E+00 
    1.8804550867162768E+00 
    1.9378819503381157E+00 
    1.9473726845064230E+00 
    2.0978474305740891E+00 
    2.0673791294353658E+00 
    2.0734849097234620E+00 
    2.1026896576342788E+00 
    2.0311584798437639E+00 
    1.9898420142040036E+00 
    1.9891039347198978E+00 
    2.0354278286041874E+00 
    2.0404352854609433E+00 
    1.9895252647553248E+00 
    1.9917063794749019E+00 
    2.0472992816348530E+00 
    2.1062995413797245E+00 
    2.0796788958675410E+00 
    2.0871432585455656E+00 
    2.1103753332836437E+00 
    1.1622606991170958E+00 
    1.0912943511224382E+00 
    1.1204539683072761E+00 
    1.1913379122206240E+00 
    1.0002675050102556E+00 
    8.8581606389315104E-01 
    9.4055077111325114E-01 
    1.0382708803428806E+00 
    1.0871403698173177E+00 
    1.0013183353319437E+00 
    1.0658574736114912E+00 
    1.1441945940762328E+00 
    1.2381141329483962E+00 
    1.1656236997671647E+00 
    1.2203024927339570E+00 
    1.2906043281351631E+00 
    7.4340776306410239E-01 
    5.6434757487730380E-01 
    7.2552008913547328E-01 
    8.3404127612564971E-01 
    3.2612292368742279E-01 
    0.0000000000000000E+00 
    4.5648216599988678E-01 
    6.0031420984742689E-01 
    8.0349542390748285E-01 
    7.4357841137593061E-01 
    9.4688902892864646E-01 
    9.6440646584551570E-01 
    9.2309559939364916E-01 
    8.6393496044718510E-01 
    9.8555465848689650E-01 
    1.0093527993490985E+00 
    1.3401925275156381E+00 
    1.2640294836303889E+00 
    1.2965846637715319E+00 
    1.3869472661430837E+00 
    1.1817868054969245E+00 
    1.0973952731648300E+00 
    1.0975591258607993E+00 
    1.1998035726118172E+00 
    1.2212929841091196E+00 
    1.1009414066067433E+00 
    1.1075620897502685E+00 
    1.2453234916342273E+00 
    1.4356128565697386E+00 
    1.3320864299194721E+00 
    1.3702593187257093E+00 
    1.4864578349580106E+00 
    2.0828053304125764E+00 
    2.1826294134554507E+00 
    2.1736597958399608E+00 
    2.0819172890448043E+00 
    2.2779754419299154E+00 
    2.3677861295631324E+00 
    2.3447880378615178E+00 
    2.2615362328369777E+00 
    2.2479512785959730E+00 
    2.3239975443104890E+00 
    2.3050322439802531E+00 
    2.2368797329851606E+00 
    2.0840778728649667E+00 
    2.1678552583176733E+00 
    2.1649019355326651E+00 
    2.0890671025498118E+00 
    2.4493253606413603E+00 
    2.5223579001178877E+00 
    2.4828487321192414E+00 
    2.4180908362329974E+00 
    2.5875959913396414E+00 
    2.6444432337669355E+00 
    2.5999086051068554E+00 
    2.5433765672342292E+00 
    2.4976046983752114E+00 
    2.5501854507975152E+00 
    2.4956700226050019E+00 
    2.4499665521235188E+00 
    2.3883793494643597E+00 
    2.4438507922302204E+00 
    2.4048618665380586E+00 
    2.3597608386510709E+00 
    2.1014323877787233E+00 
    2.1776866026076354E+00 
    2.2076989799885829E+00 
    2.1225668896988590E+00 
    2.2485232702073374E+00 
    2.3147526256061277E+00 
    2.3530364966228015E+00 
    2.2836571336141502E+00 
    2.3220953549510712E+00 
    2.3927814422365752E+00 
    2.4346708478833494E+00 
    2.3650359861831181E+00 
    2.1496176558389353E+00 
    2.2429394499630311E+00 
    2.2857593010474671E+00 
    2.1870017969377371E+00 
    1.9792398004866307E+00 
    1.8736853940278069E+00 
    1.8884221841043742E+00 
    1.9857758012829492E+00 
    1.7668434857845692E+00 
    1.6593344358713584E+00 
    1.6919454103313178E+00 
    1.7903549660474105E+00 
    1.8146195051019496E+00 
    1.7249858087343308E+00 
    1.7585711793877112E+00 
    1.8397016011046525E+00 
    1.9945365234234063E+00 
    1.9044898915496633E+00 
    1.9217693932344306E+00 
    2.0052165818981948E+00 
    1.5539322278137508E+00 
    1.4509458146603931E+00 
    1.5158932557799460E+00 
    1.6004811489163318E+00 
    1.3485204966023707E+00 
    1.2472332576526366E+00 
    1.3469104497699635E+00 
    1.4313770133962678E+00 
    1.5154498918259458E+00 
    1.4494993638073115E+00 
    1.5531222568727270E+00 
    1.6003274894073574E+00 
    1.6473903395019649E+00 
    1.5814790697468923E+00 
    1.6475935378882873E+00 
    1.6948105227480594E+00 
    2.0118614201159088E+00 
    1.9249478228490247E+00 
    1.9116654618669047E+00 
    2.0118331989924663E+00 
    1.8411686037996651E+00 
    1.7592038741548901E+00 
    1.7260227134209456E+00 
    1.8175104028939941E+00 
    1.7926044024257586E+00 
    1.6925580142919532E+00 
    1.6588820858393785E+00 
    1.7660703262247368E+00 
    2.0071291528883894E+00 
    1.8952741028710460E+00 
    1.8736963401471571E+00 
    1.9927806775360439E+00 
    2.1859237178817228E+00 
    2.2842630371993131E+00 
    2.2415105580747112E+00 
    2.1485437861846433E+00 
    2.3628907770287797E+00 
    2.4319589150802123E+00 
    2.3905643063933462E+00 
    2.3202445137255303E+00 
    2.2820592630930547E+00 
    2.3512232688520012E+00 
    2.3132898294817035E+00 
    2.2471865489162117E+00 
    2.1214151774566083E+00 
    2.2063596850551206E+00 
    2.1764632429510269E+00 
    2.1002574862622447E+00 
    2.4930911984905402E+00 
    2.5484646823460064E+00 
    2.4960970114879846E+00 
    2.4478748259620562E+00 
    2.5991481721323648E+00 
    2.6444009538136459E+00 
    2.5874087815796925E+00 
    2.5425837687600312E+00 
    2.4820998521962907E+00 
    2.5221199110751069E+00 
    2.4491024834011967E+00 
    2.4174540030657443E+00 
    2.4031590159276472E+00 
    2.4425778794522079E+00 
    2.3873461522859336E+00 
    2.3583921093780247E+00 
    2.0879237342189669E+00 
    2.1638085990554776E+00 
    2.1669877375855271E+00 
    2.0831240463976397E+00 
    2.2357544544289452E+00 
    2.3038370955153549E+00 
    2.3230909812560214E+00 