# vtk DataFile Version 2.0
Pressure Field Data 
ASCII 
DATASET UNSTRUCTURED_GRID 

POINTS 801 double 

    0.0000000000000000E+00     0.0000000000000000E+00     0.0000000000000000E+00 
    1.0000000000000000E+00     0.0000000000000000E+00     0.0000000000000000E+00 
    1.0000000000000000E+00     1.0000000000000000E+00     0.0000000000000000E+00 
    0.0000000000000000E+00     1.0000000000000000E+00     0.0000000000000000E+00 
    2.5000000000000000E-01     2.5000000000000000E-01     0.0000000000000000E+00 
    7.5000000000000000E-01     2.5000000000000000E-01     0.0000000000000000E+00 
    7.5000000000000000E-01     7.5000000000000000E-01     0.0000000000000000E+00 
    2.5000000000000000E-01     7.5000000000000000E-01     0.0000000000000000E+00 
    2.4999999999941941E-01     0.0000000000000000E+00     0.0000000000000000E+00 
    4.9999999999869399E-01     0.0000000000000000E+00     0.0000000000000000E+00 
    7.4999999999934697E-01     0.0000000000000000E+00     0.0000000000000000E+00 
    1.2499999999977940E-01     0.0000000000000000E+00     0.0000000000000000E+00 
    3.7499999999905670E-01     0.0000000000000000E+00     0.0000000000000000E+00 
    6.2499999999902045E-01     0.0000000000000000E+00     0.0000000000000000E+00 
    8.7499999999967348E-01     0.0000000000000000E+00     0.0000000000000000E+00 
    6.2499999999889699E-02     0.0000000000000000E+00     0.0000000000000000E+00 
    1.8749999999959940E-01     0.0000000000000000E+00     0.0000000000000000E+00 
    3.1249999999923811E-01     0.0000000000000000E+00     0.0000000000000000E+00 
    4.3749999999887529E-01     0.0000000000000000E+00     0.0000000000000000E+00 
    5.6249999999885725E-01     0.0000000000000000E+00     0.0000000000000000E+00 
    6.8749999999918376E-01     0.0000000000000000E+00     0.0000000000000000E+00 
    8.1249999999951017E-01     0.0000000000000000E+00     0.0000000000000000E+00 
    9.3749999999983680E-01     0.0000000000000000E+00     0.0000000000000000E+00 
    1.0000000000000000E+00     2.4999999999941941E-01     0.0000000000000000E+00 
    1.0000000000000000E+00     4.9999999999869399E-01     0.0000000000000000E+00 
    1.0000000000000000E+00     7.4999999999934697E-01     0.0000000000000000E+00 
    1.0000000000000000E+00     1.2499999999977940E-01     0.0000000000000000E+00 
    1.0000000000000000E+00     3.7499999999905670E-01     0.0000000000000000E+00 
    1.0000000000000000E+00     6.2499999999902045E-01     0.0000000000000000E+00 
    1.0000000000000000E+00     8.7499999999967348E-01     0.0000000000000000E+00 
    1.0000000000000000E+00     6.2499999999889699E-02     0.0000000000000000E+00 
    1.0000000000000000E+00     1.8749999999959940E-01     0.0000000000000000E+00 
    1.0000000000000000E+00     3.1249999999923811E-01     0.0000000000000000E+00 
    1.0000000000000000E+00     4.3749999999887529E-01     0.0000000000000000E+00 
    1.0000000000000000E+00     5.6249999999885725E-01     0.0000000000000000E+00 
    1.0000000000000000E+00     6.8749999999918376E-01     0.0000000000000000E+00 
    1.0000000000000000E+00     8.1249999999951017E-01     0.0000000000000000E+00 
    1.0000000000000000E+00     9.3749999999983680E-01     0.0000000000000000E+00 
    7.5000000000112044E-01     1.0000000000000000E+00     0.0000000000000000E+00 
    5.0000000000205913E-01     1.0000000000000000E+00     0.0000000000000000E+00 
    2.5000000000102962E-01     1.0000000000000000E+00     0.0000000000000000E+00 
    8.7499999999991362E-01     1.0000000000000000E+00     0.0000000000000000E+00 
    6.2499999999988309E-01     1.0000000000000000E+00     0.0000000000000000E+00 
    3.7499999999869987E-01     1.0000000000000000E+00     0.0000000000000000E+00 
    1.2499999999880820E-01     1.0000000000000000E+00     0.0000000000000000E+00 
    9.3749999999995681E-01     1.0000000000000000E+00     0.0000000000000000E+00 
    8.1250000000051703E-01     1.0000000000000000E+00     0.0000000000000000E+00 
    6.8750000000050182E-01     1.0000000000000000E+00     0.0000000000000000E+00 
    5.6250000000097111E-01     1.0000000000000000E+00     0.0000000000000000E+00 
    4.3750000000037947E-01     1.0000000000000000E+00     0.0000000000000000E+00 
    3.1249999999986477E-01     1.0000000000000000E+00     0.0000000000000000E+00 
    1.8749999999991890E-01     1.0000000000000000E+00     0.0000000000000000E+00 
    6.2499999999404102E-02     1.0000000000000000E+00     0.0000000000000000E+00 
    0.0000000000000000E+00     7.5000000000112044E-01     0.0000000000000000E+00 
    0.0000000000000000E+00     5.0000000000205913E-01     0.0000000000000000E+00 
    0.0000000000000000E+00     2.5000000000102962E-01     0.0000000000000000E+00 
    0.0000000000000000E+00     8.7499999999991362E-01     0.0000000000000000E+00 
    0.0000000000000000E+00     6.2499999999988309E-01     0.0000000000000000E+00 
    0.0000000000000000E+00     3.7499999999869987E-01     0.0000000000000000E+00 
    0.0000000000000000E+00     1.2499999999880820E-01     0.0000000000000000E+00 
    0.0000000000000000E+00     9.3749999999995681E-01     0.0000000000000000E+00 
    0.0000000000000000E+00     8.1250000000051703E-01     0.0000000000000000E+00 
    0.0000000000000000E+00     6.8750000000050182E-01     0.0000000000000000E+00 
    0.0000000000000000E+00     5.6250000000097111E-01     0.0000000000000000E+00 
    0.0000000000000000E+00     4.3750000000037947E-01     0.0000000000000000E+00 
    0.0000000000000000E+00     3.1249999999986477E-01     0.0000000000000000E+00 
    0.0000000000000000E+00     1.8749999999991890E-01     0.0000000000000000E+00 
    0.0000000000000000E+00     6.2499999999404102E-02     0.0000000000000000E+00 
    4.9999999999972200E-01     2.5000000000000000E-01     0.0000000000000000E+00 
    3.7500000000067490E-01     2.5000000000000000E-01     0.0000000000000000E+00 
    6.2500000000042988E-01     2.5000000000000000E-01     0.0000000000000000E+00 
    3.1250000000033751E-01     2.5000000000000000E-01     0.0000000000000000E+00 
    4.3750000000019851E-01     2.5000000000000000E-01     0.0000000000000000E+00 
    5.6250000000007594E-01     2.5000000000000000E-01     0.0000000000000000E+00 
    6.8750000000021494E-01     2.5000000000000000E-01     0.0000000000000000E+00 
    7.5000000000000000E-01     4.9999999999972200E-01     0.0000000000000000E+00 
    7.5000000000000000E-01     3.7500000000067490E-01     0.0000000000000000E+00 
    7.5000000000000000E-01     6.2500000000042988E-01     0.0000000000000000E+00 
    7.5000000000000000E-01     3.1250000000033751E-01     0.0000000000000000E+00 
    7.5000000000000000E-01     4.3750000000019851E-01     0.0000000000000000E+00 
    7.5000000000000000E-01     5.6250000000007594E-01     0.0000000000000000E+00 
    7.5000000000000000E-01     6.8750000000021494E-01     0.0000000000000000E+00 
    5.0000000000118039E-01     7.5000000000000000E-01     0.0000000000000000E+00 
    6.2500000000161415E-01     7.5000000000000000E-01     0.0000000000000000E+00 
    3.7500000000140910E-01     7.5000000000000000E-01     0.0000000000000000E+00 
    6.8750000000080713E-01     7.5000000000000000E-01     0.0000000000000000E+00 
    5.6250000000139733E-01     7.5000000000000000E-01     0.0000000000000000E+00 
    4.3750000000129469E-01     7.5000000000000000E-01     0.0000000000000000E+00 
    3.1250000000070460E-01     7.5000000000000000E-01     0.0000000000000000E+00 
    2.5000000000000000E-01     5.0000000000118039E-01     0.0000000000000000E+00 
    2.5000000000000000E-01     6.2500000000161415E-01     0.0000000000000000E+00 
    2.5000000000000000E-01     3.7500000000140910E-01     0.0000000000000000E+00 
    2.5000000000000000E-01     6.8750000000080713E-01     0.0000000000000000E+00 
    2.5000000000000000E-01     5.6250000000139733E-01     0.0000000000000000E+00 
    2.5000000000000000E-01     4.3750000000129469E-01     0.0000000000000000E+00 
    2.5000000000000000E-01     3.1250000000070460E-01     0.0000000000000000E+00 
    3.7499999999934702E-01     1.2500000000000000E-01     0.0000000000000000E+00 
    1.2500000000000000E-01     1.2500000000000000E-01     0.0000000000000000E+00 
    1.2500000000000000E-01     3.7500000000102962E-01     0.0000000000000000E+00 
    8.7500000000000000E-01     1.2500000000000000E-01     0.0000000000000000E+00 
    6.2499999999934697E-01     1.2500000000000000E-01     0.0000000000000000E+00 
    8.7500000000000000E-01     3.7499999999934702E-01     0.0000000000000000E+00 
    8.7500000000000000E-01     6.2499999999934697E-01     0.0000000000000000E+00 
    1.2500000000000000E-01     6.2500000000102962E-01     0.0000000000000000E+00 
    1.2500000000000000E-01     8.7500000000000000E-01     0.0000000000000000E+00 
    8.7500000000000000E-01     8.7500000000000000E-01     0.0000000000000000E+00 
    6.2500000000102962E-01     8.7500000000000000E-01     0.0000000000000000E+00 
    3.7500000000102962E-01     8.7500000000000000E-01     0.0000000000000000E+00 
    2.4999999999957681E-01     8.3333333333333329E-02     0.0000000000000000E+00 
    8.3333333333333329E-02     2.5000000000068640E-01     0.0000000000000000E+00 
    7.4999999999956468E-01     8.3333333333333329E-02     0.0000000000000000E+00 
    4.9999999999951827E-01     1.6666666666666671E-01     0.0000000000000000E+00 
    9.1666666666666674E-01     2.4999999999957681E-01     0.0000000000000000E+00 
    8.3333333333333337E-01     4.9999999999951827E-01     0.0000000000000000E+00 
    1.6666666666666671E-01     5.0000000000088307E-01     0.0000000000000000E+00 
    8.3333333333333329E-02     7.5000000000070155E-01     0.0000000000000000E+00 
    9.1666666666666674E-01     7.4999999999956468E-01     0.0000000000000000E+00 
    5.0000000000088307E-01     8.3333333333333348E-01     0.0000000000000000E+00 
    2.5000000000068640E-01     9.1666666666666674E-01     0.0000000000000000E+00 
    7.5000000000070155E-01     9.1666666666666674E-01     0.0000000000000000E+00 
[...]
CELL_DATA 768 
SCALARS Pressure double 1 
LOOKUP_TABLE default 

    3.6754875741760209E+00 
    3.5693161036527123E+00 
    3.5307250434203334E+00 
    3.6022755586028441E+00 
    3.4848936790322802E+00 
    3.4014587677671551E+00 
    3.3931934712468710E+00 
    3.4636809827066850E+00 
    3.4396197875181622E+00 
    3.3827635572633037E+00 
    3.3706612767587130E+00 
    3.4134478242291082E+00 
    3.5411892999342061E+00 
    3.4917655164501622E+00 
    3.4514941915096169E+00 
    3.4848684526570657E+00 
    3.3140144516628007E+00 
    3.2242873749794989E+00 
    3.2415920195645453E+00 
    3.3183297198265604E+00 
    3.1266281187414702E+00 
    3.0065122301603693E+00 
    3.0631134758400589E+00 
    3.1600870762916289E+00 
    3.1900873232295099E+00 
    3.1142702029933647E+00 
    3.1586396254936373E+00 
    3.2167749432189336E+00 
    3.3208751055745225E+00 
    3.2569396344148367E+00 
    3.2702087658045729E+00 
    3.3217368013310073E+00 
    3.4295194078500808E+00 
    3.4056555551597625E+00 
    3.3576632429564031E+00 
    3.3771495250894099E+00 
    3.3760384139893889E+00 
    3.3410395106494413E+00 
    3.2956340140030203E+00 
    3.3302027075055873E+00 
    3.2851276880772069E+00 
    3.2492547887051404E+00 
    3.2002209314958576E+00 
    3.2388379111543060E+00 
    3.3306405039201281E+00 
    3.3129897604586636E+00 
    3.2695470858792741E+00 
    3.2887698241098500E+00 
    3.6755431635429727E+00 
    3.6023723129411729E+00 
    3.5311060858267638E+00 
    3.5696339663980736E+00 
    3.5413255602543807E+00 
    3.4850240784370952E+00 
    3.4519216057200768E+00 
    3.4921775102264170E+00 
    3.4403225585987225E+00 
    3.4140641537079968E+00 
    3.3715063822942399E+00 
    3.3837786525441280E+00 
    3.4855505216674949E+00 
    3.4643726030985835E+00 
    3.3943102702786150E+00 
    3.4025852252040574E+00 
    3.4296683258137244E+00 
    3.3772227325532271E+00 
    3.3578390875172706E+00 
    3.4060141448442454E+00 
    3.3306936983303892E+00 
    3.2889543912986765E+00 
    3.2701225141253203E+00 
    3.3132366260677437E+00 
    3.2856326727932750E+00 
    3.2396348283592697E+00 
    3.2011154720940902E+00 
    3.2500304329952843E+00 
    3.3765181590771469E+00 
    3.3304909435519070E+00 
    3.2962480678573711E+00 
    3.3416995002446304E+00 
    3.3155150302949750E+00 
    3.3197186137492358E+00 
    3.2429807267798521E+00 
    3.2257845729955119E+00 
    3.3220705778984256E+00 
    3.3226561636116774E+00 
    3.2711077758467559E+00 
    3.2580964353359945E+00 
    3.1912231833847295E+00 
    3.2176730510803844E+00 
    3.1596736825610869E+00 
    3.1157626089815333E+00 
    3.1281861981343262E+00 
    3.1614701062192805E+00 
    3.0649307186827275E+00 
    3.0084450088058885E+00 
    2.8149086745290157E+00 
    2.7003784398989881E+00 
    2.6620690502888187E+00 
    2.7600430256603916E+00 
    2.5909358745424464E+00 
    2.4897712471477078E+00 
    2.4815091885159615E+00 
    2.5683492433748207E+00 
    2.5439962869438149E+00 
    2.4712027163158310E+00 
    2.4586920532981558E+00 
    2.5173516507441809E+00 
    2.7047577035385246E+00 
    2.6225531177045007E+00 
    2.5809835311837963E+00 
    2.6479858910935485E+00 
    2.4011543829498914E+00 
    2.3292545350925709E+00 
    2.3382076983948585E+00 
    2.4040095716614722E+00 
    2.2775444769270607E+00 
    2.2473326679478740E+00 
    2.2524745238082655E+00 
    2.2872342445505556E+00 
    2.2947664038631066E+00 
    2.2563671810102819E+00 
    2.2593136626305972E+00 
    2.3003541600818562E+00 
    2.4046046583197818E+00 
    2.3445682067908451E+00 
    2.3486743348923436E+00 
    2.4029956691692478E+00 
    2.5845677487419709E+00 
    2.5254048420530029E+00 
    2.4542256565178615E+00 
    2.5116305367781560E+00 
    2.4709618297502471E+00 
    2.4224089709750154E+00 
    2.3662310076688486E+00 
    2.4060402822251721E+00 
    2.3395109961178218E+00 
    2.3128001576383559E+00 
    2.2638512903373944E+00 
    2.2732240789866682E+00 
    2.4267081429127058E+00 
    2.3754719670110584E+00 
    2.2876364561502616E+00 
    2.3152852476637844E+00 
    2.9068408753567998E+00 
    2.8413061238513722E+00 
    2.9028403256479267E+00 
    2.9713178178463120E+00 
    2.7771764764437128E+00 
    2.7126861038646584E+00 
    2.7739203473337888E+00 
    2.8382379761220324E+00 
    2.8993695808573903E+00 
    2.8354008290216570E+00 
    2.8966061328732526E+00 
    2.9598025574082860E+00 
    3.0341464386912023E+00 
    2.9641154576664697E+00 
    3.0237373258190385E+00 
    3.0922207395865118E+00 
    2.6507317141904609E+00 
    2.5906045698528688E+00 
    2.6786134680279603E+00 
    2.7207619693452587E+00 
    2.5276655448251026E+00 
    2.4604400048660389E+00 
    2.5921711477879392E+00 
    2.6358108789430239E+00 
    2.7402940288494588E+00 
    2.7153849607787488E+00 
    2.8337938440720074E+00 
    2.8421580459711029E+00 
    2.7907110456014750E+00 
    2.7654229205435827E+00 
    2.8509873824558660E+00 
    2.8602255745231973E+00 
    3.1399091696206001E+00 
    3.0680677979738809E+00 
    3.0985166626756810E+00 
    3.1788282098754546E+00 
    2.9989088056855793E+00 
    2.9294906237015605E+00 
    2.9352654117339489E+00 
    3.0180933675073347E+00 
    3.0373099784274644E+00 
    2.9414110796083857E+00 
    2.9480703211782844E+00 
    3.0569117227073312E+00 
    3.2141073976058046E+00 
    3.1278731000461559E+00 
    3.1569969778126481E+00 
    3.2459537785874057E+00 
    2.2401861697108192E+00 
    2.2092925550832989E+00 
    2.1991062188727564E+00 
    2.2345658292715158E+00 
    2.1564520554745754E+00 
    2.0833272557834501E+00 
    2.0803647977566935E+00 
    2.1471791080692455E+00 
    2.1404110699007557E+00 
    2.0796886166654329E+00 
    2.0812089131063529E+00 
    2.1359932455981312E+00 
    2.2299578534591360E+00 
    2.1910169319657089E+00 
    2.1848330772504463E+00 
    2.2262854744306795E+00 
    1.9942053937201696E+00 
    1.8934488120949393E+00 
    1.9159119262347244E+00 
    2.0025049877035928E+00 
    1.7852604856364140E+00 
    1.6724939383323918E+00 
    1.7264916023233012E+00 
    1.8231433180100658E+00 
    1.8623514180250669E+00 
    1.7812260371684716E+00 
    1.8374818195887961E+00 
    1.9037093913983567E+00 
    2.0128380400098136E+00 
    1.9402575721894200E+00 
    1.9668737621442680E+00 
    2.0254017609685833E+00 
    2.2209505178700213E+00 
    2.1717522899422286E+00 
    2.1447383705397423E+00 
    2.2111563657279141E+00 
    2.1180705926053358E+00 
    2.0617030820996152E+00 
    2.0132164701496307E+00 
    2.0781583394214613E+00 
    2.0301265928640362E+00 
    1.9591368509431273E+00 
    1.9005276527005430E+00 
    1.9731491905565284E+00 
    2.1966375858027711E+00 
    2.1088385174507480E+00 
    2.0578673439028821E+00 
    2.1691821887761864E+00 
    2.0243518193936163E+00 
    1.9574099307992707E+00 
    1.8501700609444471E+00 
    1.8934968729869441E+00 
    1.8948246600240561E+00 
    1.8351345573049900E+00 
    1.7659628446553441E+00 
    1.8077061898557023E+00 
    1.7217362123408344E+00 
    1.6966868143890768E+00 
    1.6273606737538293E+00 
    1.6362981630041427E+00 
    1.7713145464632827E+00 
    1.7465644753827430E+00 
    1.6448905180516045E+00 
    1.6530736497867355E+00 
    1.7737278425279612E+00 
    1.7099734068614805E+00 
    1.6497136633677425E+00 
    1.7132923851833473E+00 
    1.6467393996713593E+00 
    1.5834952213045037E+00 
    1.5217056553944586E+00 
    1.5859441012955613E+00 
    1.5249371821020230E+00 
    1.4600965272334541E+00 
    1.3994969224707412E+00 
    1.4640357004206823E+00 
    1.6523680448733855E+00 
    1.5888577078405433E+00 
    1.5278302769698251E+00 
    1.5910904614159807E+00 
    1.5369483472318446E+00 
    1.5440889347437550E+00 
    1.4440995370006495E+00 
    1.4224772366482556E+00 
    1.5508352588159131E+00 
    1.5572574998657482E+00 
    1.4866778113648889E+00 
    1.4653504440255061E+00 
    1.3806702944465321E+00 
    1.4158510622099836E+00 
    1.3448387456107846E+00 
    1.2972765705640255E+00 
    1.3131598914854226E+00 
    1.3464197136934857E+00 
    1.2535371573474612E+00 
    1.2143854088465520E+00 
    3.2464866230971201E+00 
    3.1577332142069499E+00 
    3.1285588115664145E+00 
    3.2148090217527625E+00 
    3.0572689662928694E+00 
    2.9479834580931734E+00 
    2.9413484182507248E+00 
    3.0376530334853404E+00 
    3.0185411621961382E+00 
    2.9353102077218725E+00 
    2.9297246549619138E+00 
    2.9995509460354559E+00 
    3.1797317741997717E+00 
    3.0994519615452245E+00 
    3.0696670206868051E+00 
    3.1411892658734470E+00 
    2.8337295039595585E+00 
    2.7159245497969788E+00 
    2.7407601967573800E+00 
    2.8421399260737026E+00 
    2.5934713774047107E+00 
    2.4623148106757817E+00 
    2.5293780034973636E+00 
    2.6369378656911007E+00 
    2.6796223084778616E+00 
    2.5921613435396691E+00 
    2.6521443355151675E+00 
    2.7217173165052229E+00 
    2.8510715705034571E+00 
    2.7658996017046822E+00 
    2.7912540110344741E+00 
    2.8604848384853008E+00 
    3.0943074657951892E+00 
    3.0255759402807141E+00 
    2.9655801965128927E+00 
    3.0364649898098284E+00 
    2.9605336219279947E+00 
    2.8970019147835497E+00 
    2.8360069910801222E+00 
    2.9001895289661168E+00 
    2.8392818633857897E+00 
    2.7748953149997080E+00 
    2.7140457005785272E+00 
    2.7785668196147508E+00 
    2.9732167326963967E+00 
    2.9042558042988884E+00 
    2.8428733170043126E+00 
    2.9086851917456116E+00 
    2.8167402134918298E+00 
    2.7617903810847122E+00 
    2.6640258863677717E+00 
    2.7023399804998198E+00 
    2.7064657718226006E+00 
    2.6497160627538721E+00 
    2.5829830664652986E+00 
    2.6245105680529299E+00 
    2.5460818698370282E+00 
    2.5194453564051886E+00 
    2.4606942190558794E+00 
    2.4731025365597064E+00 
    2.5929595415736442E+00 
    2.5703671831366748E+00 
    2.4832999896615013E+00 
    2.4914586490385986E+00 
    2.5863627716030844E+00 
    2.5135450175761811E+00 
    2.4563071801361760E+00 
    2.5274055173666885E+00 
    2.4287002276637395E+00 
    2.3173074388467265E+00 
    2.2897603933346793E+00 
    2.3775668622429826E+00 
    2.3415398576663256E+00 
    2.2752212667770819E+00 
    2.2655008475955980E+00 
    2.3145140341931190E+00 
    2.4730275341991108E+00 
    2.4080942621083992E+00 
    2.3680617815743883E+00 
    2.4243397243854550E+00 
    2.4023979998748737E+00 
    2.4053790116580251E+00 
    2.3389666615731151E+00 
    2.3297113695038143E+00 
    2.4061170308638089E+00 
    2.4046682855113461E+00 
    2.3501037806555982E+00 
    2.3456388431414505E+00 
    2.2954645582143463E+00 
    2.3015221964952062E+00 
    2.2603530609375864E+00 
    2.2569109494695163E+00 
    2.2775435104537811E+00 
    2.2875388295720964E+00 
    2.2525719961463251E+00 
    2.2472130730660442E+00 
    1.4925417765138602E+00 
    1.3701299651275791E+00 
    1.3296381572858982E+00 
    1.4370484646471624E+00 
    1.2415512446373493E+00 
    1.1018334072844720E+00 
    1.0951711881091393E+00 
    1.2169587175752072E+00 
    1.1950061355692145E+00 
    1.0919367512419533E+00 
    1.0920766685180752E+00 
    1.1763713629675652E+00 
    1.3825388387007633E+00 
    1.2909450994765186E+00 
    1.2550248783780451E+00 
    1.3301093664564489E+00 
    9.4114046319369682E-01 
    7.3973741762592338E-01 
    7.9934037271262615E-01 
    9.5877080891497524E-01 
    4.5479425693400427E-01 
    0.0000000000000000E+00 
    3.2572899873115557E-01 
    5.9818866143397009E-01 
    7.2308870808607850E-01 
    5.6364759210356419E-01 
    7.4253178093967009E-01 
    8.3161732955966405E-01 
    9.8020002682836038E-01 
    8.5989307170200346E-01 
    9.1927848368426879E-01 
    1.0044530529758202E+00 
    1.2770394193831105E+00 
    1.2101410790226368E+00 
    1.1587816346048578E+00 
    1.2260553667728116E+00 
    1.1389001290225909E+00 
    1.0610915586384326E+00 
    9.9769980625883170E-01 
    1.0836574072548211E+00 
    1.0359856747620229E+00 
    9.3815602250619257E-01 
    8.8483057310897684E-01 
    9.9912749641515164E-01 
    1.1847328062332505E+00 
    1.1172401613937621E+00 
    1.0895114194506552E+00 
    1.1586833652330917E+00 
    2.0259101994244744E+00 
    1.8939834217364684E+00 
    1.8502974488318487E+00 
    1.9586412421627173E+00 
    1.7702373107026035E+00 
    1.6505895079470800E+00 
    1.6423213495018449E+00 
    1.7452887266931536E+00 
    1.7202816336113098E+00 
    1.6338088251018448E+00 
    1.6250966249177685E+00 
    1.6953002592745983E+00 
    1.8957489617561549E+00 
    1.8075370797324688E+00 
    1.7656006308628702E+00 
    1.8357783107096177E+00 
    1.5337489709835890E+00 
    1.4201914078707942E+00 
    1.4416956907839016E+00 
    1.5410441214547366E+00 
    1.3121640603295353E+00 
    1.2144781818389363E+00 
    1.2535680642890337E+00 
    1.3452795014180081E+00 
    1.3794549907199658E+00 
    1.2972874708713156E+00 
    1.3448382106089261E+00 
    1.4148021150900258E+00 
    1.5480818307439494E+00 
    1.4631971477833976E+00 
    1.4847763334828374E+00 
    1.5549318940724757E+00 
    1.7741322575660041E+00 
    1.7127665474270080E+00 
    1.6490711449294937E+00 
    1.7101654348489865E+00 
    1.6509597578541324E+00 
    1.5890727461825562E+00 
    1.5261001961215221E+00 
    1.5875522061093712E+00 
    1.5240511340615073E+00 
    1.4629797448679178E+00 
    1.3993787637841240E+00 
    1.4600129993440614E+00 
    1.6469268514647639E+00 
    1.5855359045090627E+00 
    1.5217382209775947E+00 
    1.5837717444480308E+00 
    2.1711120666916655E+00 
    2.0596763554761921E+00 
    2.1109789408609201E+00 
    2.1987648857198163E+00 
    1.9748159192361114E+00 
    1.9020169676243464E+00 
    1.9612500053367532E+00 
    2.0323111563766032E+00 
    2.0805659791296636E+00 
    2.0157685328052883E+00 
    2.0644100638189120E+00 
    2.1205297354525015E+00 
    2.2132311315809829E+00 
    2.1470446285232030E+00 
    2.1739022814243683E+00 
    2.2227585243609314E+00 
    1.8388159686937837E+00 
    1.7823317106043095E+00 
    1.8644291672905937E+00 
    1.9058142388844881E+00 
    1.7273796536657686E+00 
    1.6730768929153237E+00 
    1.7869417311551530E+00 
    1.8250526369259952E+00 
    1.9187365818058193E+00 
    1.8962235039220070E+00 
    1.9975096823285383E+00 
    2.0057200342254511E+00 
    1.9695076829097491E+00 
    1.9430081991832697E+00 
    2.0159226026913748E+00 
    2.0283000483485885E+00 
    2.2275531464258864E+00 
    2.1866013673822713E+00 
    2.1924915770043283E+00 
    2.2307808416599531E+00 
    2.1383067824977497E+00 
    2.0840059539051241E+00 
    2.0826116913980370E+00 
    2.1426749576108159E+00 
    2.1493053676309768E+00 
    2.0834077908561195E+00 
    2.0864396838869368E+00 
    2.1584699646818586E+00 
    2.2349521339160896E+00 
    2.2002861122372077E+00 
    2.2101862158280920E+00 
    2.2402670573059797E+00 
    1.1589409240977393E+00 
    1.0900144303156749E+00 
    1.1185740748426336E+00 
    1.1854613753024381E+00 
    9.9979883328920793E-01 
    8.8553898205829407E-01 
    9.4014158227618971E-01 
    1.0378167243551164E+00 
    1.0863174129358235E+00 
    1.0007642325052859E+00 
    1.0648243050522026E+00 
    1.1420161656972652E+00 
    1.2270695578467710E+00 
    1.1607568164177318E+00 
    1.2123318712414781E+00 
    1.2781579825501441E+00 
    7.4321952244528366E-01 
    5.6422539636370905E-01 
    7.2519635288492346E-01 
    8.3367267657090349E-01 
    3.2605940823648849E-01 
    0.0000000000000000E+00 
    4.5628673294442940E-01 
    6.0004942772350423E-01 
    8.0297450372042301E-01 
    7.4310970103876384E-01 
    9.4610843396262334E-01 
    9.6360071392116609E-01 
    9.2253481317317620E-01 
    8.6338364859108407E-01 
    9.8471684856396036E-01 
    1.0084851925383356E+00 
    1.3311148206597945E+00 
    1.2571949111440448E+00 
    1.2931169709664778E+00 
    1.3834431449344355E+00 
    1.1796674599009829E+00 
    1.0962127806407722E+00 
    1.0965015530739262E+00 
    1.1985389782021645E+00 
    1.2204929320978206E+00 
    1.0999838460731310E+00 
    1.1066845650594204E+00 
    1.2448989402622772E+00 
    1.4377736561315770E+00 
    1.3316100528737851E+00 
    1.3717587510039975E+00 
    1.4930208270858683E+00 
    2.3146387363214154E+00 
    2.4616738842959656E+00 
    2.4447925754405397E+00 
    2.3093177444072133E+00 
    2.6059471697033332E+00 
    2.7459770760236668E+00 
    2.7068688624917621E+00 
    2.5776510713185004E+00 
    2.5511801366648563E+00 
    2.6693205307195935E+00 
    2.6327909623902643E+00 
    2.5261137430848022E+00 
    2.3048287166907229E+00 
    2.4295490442898218E+00 
    2.4156430573069079E+00 
    2.3011488815845000E+00 
    2.8775096617540710E+00 
    2.9999043298035653E+00 
    2.9284483916642694E+00 
    2.8234030716679674E+00 
    3.1146136831030033E+00 
    3.2200949208146699E+00 
    3.1264804167696947E+00 
    3.0296251520931912E+00 
    2.9420366282434611E+00 
    3.0258996304032340E+00 
    2.9181265113598673E+00 
    2.8510362532312827E+00 
    2.7702751666036396E+00 
    2.8567891561227943E+00 
    2.7841333444822332E+00 
    2.7174846050976549E+00 
    2.3056827149681527E+00 
    2.4231832193815595E+00 
    2.4549987747629021E+00 
    2.3212159709185660E+00 
    2.5342504466836648E+00 
    2.6402173733947265E+00 
    2.6924233077345532E+00 
    2.5774824842598312E+00 
    2.6242074590228590E+00 
    2.7461675351568537E+00 
    2.8014475514239749E+00 
    2.6750256181152405E+00 
    2.3439529594970652E+00 
    2.4926880112464631E+00 
    2.5386218834406913E+00 
    2.3796722587389412E+00 
    2.1663128803154383E+00 
    2.0188314248862715E+00 
    2.0360177757451230E+00 
    2.1720190055503381E+00 
    1.8736993713918280E+00 
    1.7322428196116220E+00 
    1.7719848781643432E+00 
    1.9023788356417999E+00 
    1.9295728529873051E+00 
    1.8104715922487644E+00 
    1.8481093674341746E+00 
    1.9556414794821766E+00 
    2.1772578552816633E+00 
    2.0519674002692008E+00 
    2.0668280163750756E+00 
    2.1819455119090829E+00 
    1.5985034433706005E+00 
    1.4728845975849905E+00 
    1.5470172940657900E+00 
    1.6539263434472551E+00 
    1.3536553467943679E+00 
    1.2421472624687999E+00 
    1.3431952591270024E+00 
    1.4433725228340848E+00 
    1.5354354350148840E+00 
    1.4508937059518874E+00 
    1.5631772627339440E+00 
    1.6297625672070966E+00 
    1.7085684747290864E+00 
    1.6214145275135432E+00 
    1.6963804567021816E+00 
    1.7629115719552111E+00 
    2.1784304957385747E+00 
    2.0602369736256354E+00 
    2.0293086588006255E+00 
    2.1638323478982833E+00 
    1.9483929967396694E+00 
    1.8414925308673447E+00 
    1.7898490719939844E+00 
    1.9059518409862033E+00 
    1.8601019470673807E+00 
    1.7368407856534331E+00 
    1.6824674601171863E+00 
    1.8102150251199312E+00 
    2.1418522958476536E+00 
    1.9924823761748998E+00 
    1.9472981884527631E+00 
    2.1066406035560665E+00 
    2.3813654633824894E+00 
    2.5398133883122744E+00 
    2.4935520101897510E+00 
    2.3451471321958999E+00 
    2.6755484331504658E+00 
    2.8014004278478084E+00 
    2.7461360135224449E+00 
    2.6246138707805740E+00 
    2.5777961398282789E+00 
    2.6924316736249692E+00 
    2.6402611021967122E+00 
    2.5344930554609548E+00 
    2.3219951069925795E+00 
    2.4556235286503765E+00 
    2.4235886764055827E+00 
    2.3061275076179881E+00 
    2.9180234903504396E+00 
    3.0261615132453312E+00 
    2.9420850095769508E+00 
    2.8509341962951393E+00 
    3.1270332027365519E+00 
    3.2203815215025733E+00 
    3.1147486363942778E+00 
    3.0298740384022791E+00 
    2.9285090209026734E+00 
    2.9999397486474142E+00 
    2.8775068200741134E+00 
    2.8233949165328176E+00 
    2.7840620030874565E+00 
    2.8567718646726616E+00 
    2.7702333776549235E+00 
    2.7174512998425984E+00 
    2.3012826953124370E+00 
    2.4158273237954146E+00 
    2.4295925292740574E+00 
    2.3047876246264769E+00 
    2.5262395031803182E+00 
    2.6328113761834948E+00 
    2.6693011235453108E+00 