# vtk DataFile Version 2.0
Pressure Field Data 
ASCII 
DATASET UNSTRUCTURED_GRID 

POINTS 801 double 

    0.0000000000000000E+00     0.0000000000000000E+00     0.0000000000000000E+00 
    1.0000000000000000E+00     0.0000000000000000E+00     0.0000000000000000E+00 
    1.0000000000000000E+00     1.0000000000000000E+00     0.0000000000000000E+00 
    0.0000000000000000E+00     1.0000000000000000E+00     0.0000000000000000E+00 
    2.5000000000000000E-01     2.5000000000000000E-01     0.0000000000000000E+00 
    7.5000000000000000E-01     2.5000000000000000E-01     0.0000000000000000E+00 
    7.5000000000000000E-01     7.5000000000000000E-01     0.0000000000000000E+00 
    2.5000000000000000E-01     7.5000000000000000E-01     0.0000000000000000E+00 
    2.4999999999941941E-01     0.0000000000000000E+00     0.0000000000000000E+00 
    4.9999999999869399E-01     0.0000000000000000E+00     0.0000000000000000E+00 
    7.4999999999934697E-01     0.0000000000000000E+00     0.0000000000000000E+00 
    1.2499999999977940E-01     0.0000000000000000E+00     0.0000000000000000E+00 
    3.7499999999905670E-01     0.0000000000000000E+00     0.0000000000000000E+00 
    6.2499999999902045E-01     0.0000000000000000E+00     0.0000000000000000E+00 
    8.7499999999967348E-01     0.0000000000000000E+00     0.0000000000000000E+00 
    6.2499999999889699E-02     0.0000000000000000E+00     0.0000000000000000E+00 
    1.8749999999959940E-01     0.0000000000000000E+00     0.0000000000000000E+00 
    3.1249999999923811E-01     0.0000000000000000E+00     0.0000000000000000E+00 
    4.3749999999887529E-01     0.0000000000000000E+00     0.0000000000000000E+00 
    5.6249999999885725E-01     0.0000000000000000E+00     0.0000000000000000E+00 
    6.8749999999918376E-01     0.0000000000000000E+00     0.0000000000000000E+00 
    8.1249999999951017E-01     0.0000000000000000E+00     0.0000000000000000E+00 
    9.3749999999983680E-01     0.0000000000000000E+00     0.0000000000000000E+00 
    1.0000000000000000E+00     2.4999999999941941E-01     0.0000000000000000E+00 
    1.0000000000000000E+00     4.9999999999869399E-01     0.0000000000000000E+00 
    1.0000000000000000E+00     7.4999999999934697E-01     0.0000000000000000E+00 
    1.0000000000000000E+00     1.2499999999977940E-01     0.0000000000000000E+00 
    1.0000000000000000E+00     3.7499999999905670E-01     0.0000000000000000E+00 
    1.0000000000000000E+00     6.2499999999902045E-01     0.0000000000000000E+00 
    1.0000000000000000E+00     8.7499999999967348E-01     0.0000000000000000E+00 
    1.0000000000000000E+00     6.2499999999889699E-02     0.0000000000000000E+00 
    1.0000000000000000E+00     1.8749999999959940E-01     0.0000000000000000E+00 
    1.0000000000000000E+00     3.1249999999923811E-01     0.0000000000000000E+00 
    1.0000000000000000E+00     4.3749999999887529E-01     0.0000000000000000E+00 
    1.0000000000000000E+00     5.6249999999885725E-01     0.0000000000000000E+00 
    1.0000000000000000E+00     6.8749999999918376E-01     0.0000000000000000E+00 
    1.0000000000000000E+00     8.1249999999951017E-01     0.0000000000000000E+00 
    1.0000000000000000E+00     9.3749999999983680E-01     0.0000000000000000E+00 
    7.5000000000112044E-01     1.0000000000000000E+00     0.0000000000000000E+00 
    5.0000000000205913E-01     1.0000000000000000E+00     0.0000000000000000E+00 
    2.5000000000102962E-01     1.0000000000000000E+00     0.0000000000000000E+00 
    8.7499999999991362E-01     1.0000000000000000E+00     0.0000000000000000E+00 
    6.2499999999988309E-01     1.0000000000000000E+00     0.0000000000000000E+00 
    3.7499999999869987E-01     1.0000000000000000E+00     0.0000000000000000E+00 
    1.2499999999880820E-01     1.0000000000000000E+00     0.0000000000000000E+00 
    9.3749999999995681E-01     1.0000000000000000E+00     0.0000000000000000E+00 
    8.1250000000051703E-01     1.0000000000000000E+00     0.0000000000000000E+00 
    6.8750000000050182E-01     1.0000000000000000E+00     0.0000000000000000E+00 
    5.6250000000097111E-01     1.0000000000000000E+00     0.0000000000000000E+00 
    4.3750000000037947E-01     1.0000000000000000E+00     0.0000000000000000E+00 
    3.1249999999986477E-01     1.0000000000000000E+00     0.0000000000000000E+00 
    1.8749999999991890E-01     1.0000000000000000E+00     0.0000000000000000E+00 
    6.2499999999404102E-02     1.0000000000000000E+00     0.0000000000000000E+00 
    0.0000000000000000E+00     7.5000000000112044E-01     0.0000000000000000E+00 
    0.0000000000000000E+00     5.0000000000205913E-01     0.0000000000000000E+00 
    0.0000000000000000E+00     2.5000000000102962E-01     0.0000000000000000E+00 
    0.0000000000000000E+00     8.7499999999991362E-01     0.0000000000000000E+00 
    0.0000000000000000E+00     6.2499999999988309E-01     0.0000000000000000E+00 
    0.0000000000000000E+00     3.7499999999869987E-01     0.0000000000000000E+00 
    0.0000000000000000E+00     1.2499999999880820E-01     0.0000000000000000E+00 
    0.0000000000000000E+00     9.3749999999995681E-01     0.0000000000000000E+00 
    0.0000000000000000E+00     8.1250000000051703E-01     0.0000000000000000E+00 
    0.0000000000000000E+00     6.8750000000050182E-01     0.0000000000000000E+00 
    0.0000000000000000E+00     5.6250000000097111E-01     0.0000000000000000E+00 
    0.0000000000000000E+00     4.3750000000037947E-01     0.0000000000000000E+00 
    0.0000000000000000E+00     3.1249999999986477E-01     0.0000000000000000E+00 
    0.0000000000000000E+00     1.8749999999991890E-01     0.0000000000000000E+00 
    0.0000000000000000E+00     6.2499999999404102E-02     0.0000000000000000E+00 
    4.9999999999972200E-01     2.5000000000000000E-01     0.0000000000000000E+00 
    3.7500000000067490E-01     2.5000000000000000E-01     0.0000000000000000E+00 
    6.2500000000042988E-01     2.5000000000000000E-01     0.0000000000000000E+00 
    3.1250000000033751E-01     2.5000000000000000E-01     0.0000000000000000E+00 
    4.3750000000019851E-01     2.5000000000000000E-01     0.0000000000000000E+00 
    5.6250000000007594E-01     2.5000000000000000E-01     0.0000000000000000E+00 
    6.8750000000021494E-01     2.5000000000000000E-01     0.0000000000000000E+00 
    7.5000000000000000E-01     4.9999999999972200E-01     0.0000000000000000E+00 
    7.5000000000000000E-01     3.7500000000067490E-01     0.0000000000000000E+00 
    7.5000000000000000E-01     6.2500000000042988E-01     0.0000000000000000E+00 
    7.5000000000000000E-01     3.1250000000033751E-01     0.0000000000000000E+00 
    7.5000000000000000E-01     4.3750000000019851E-01     0.0000000000000000E+00 
    7.5000000000000000E-01     5.6250000000007594E-01     0.0000000000000000E+00 
    7.5000000000000000E-01     6.8750000000021494E-01     0.0000000000000000E+00 
    5.0000000000118039E-01     7.5000000000000000E-01     0.0000000000000000E+00 
    6.2500000000161415E-01     7.5000000000000000E-01     0.0000000000000000E+00 
    3.7500000000140910E-01     7.5000000000000000E-01     0.0000000000000000E+00 
    6.8750000000080713E-01     7.5000000000000000E-01     0.0000000000000000E+00 
    5.6250000000139733E-01     7.5000000000000000E-01     0.0000000000000000E+00 
    4.3750000000129469E-01     7.5000000000000000E-01     0.0000000000000000E+00 
    3.1250000000070460E-01     7.5000000000000000E-01     0.0000000000000000E+00 
    2.5000000000000000E-01     5.0000000000118039E-01     0.0000000000000000E+00 
    2.5000000000000000E-01     6.2500000000161415E-01     0.0000000000000000E+00 
    2.5000000000000000E-01     3.7500000000140910E-01     0.0000000000000000E+00 
    2.5000000000000000E-01     6.8750000000080713E-01     0.0000000000000000E+00 
    2.5000000000000000E-01     5.6250000000139733E-01     0.0000000000000000E+00 
    2.5000000000000000E-01     4.3750000000129469E-01     0.0000000000000000E+00 
    2.5000000000000000E-01     3.1250000000070460E-01     0.0000000000000000E+00 
    3.7499999999934702E-01     1.2500000000000000E-01     0.0000000000000000E+00 
    1.2500000000000000E-01     1.2500000000000000E-01     0.0000000000000000E+00 
    1.2500000000000000E-01     3.7500000000102962E-01     0.0000000000000000E+00 
    8.7500000000000000E-01     1.2500000000000000E-01     0.0000000000000000E+00 
    6.2499999999934697E-01     1.2500000000000000E-01     0.0000000000000000E+00 
    8.7500000000000000E-01     3.7499999999934702E-01     0.0000000000000000E+00 
    8.7500000000000000E-01     6.2499999999934697E-01     0.0000000000000000E+00 
    1.2500000000000000E-01     6.2500000000102962E-01     0.0000000000000000E+00 
    1.2500000000000000E-01     8.7500000000000000E-01     0.0000000000000000E+00 
    8.7500000000000000E-01     8.7500000000000000E-01     0.0000000000000000E+00 
    6.2500000000102962E-01     8.7500000000000000E-01     0.0000000000000000E+00 
    3.7500000000102962E-01     8.7500000000000000E-01     0.0000000000000000E+00 
    2.4999999999957681E-01     8.3333333333333329E-02     0.0000000000000000E+00 
    8.3333333333333329E-02     2.5000000000068640E-01     0.0000000000000000E+00 
    7.4999999999956468E-01     8.3333333333333329E-02     0.0000000000000000E+00 
    4.9999999999951827E-01     1.6666666666666671E-01     0.0000000000000000E+00 
    9.1666666666666674E-01     2.4999999999957681E-01     0.0000000000000000E+00 
    8.3333333333333337E-01     4.9999999999951827E-01     0.0000000000000000E+00 
    1.6666666666666671E-01     5.0000000000088307E-01     0.0000000000000000E+00 
    8.3333333333333329E-02     7.5000000000070155E-01     0.0000000000000000E+00 
    9.1666666666666674E-01     7.4999999999956468E-01     0.0000000000000000E+00 
    5.0000000000088307E-01     8.3333333333333348E-01     0.0000000000000000E+00 
    2.5000000000068640E-01     9.1666666666666674E-01     0.0000000000000000E+00 
    7.5000000000070155E-01     9.1666666666666674E-01     0.0000000000000000E+00 
[...]
CELL_DATA 768 
SCALARS Pressure double 1 
LOOKUP_TABLE default 

    3.0032900006231653E+00 
    2.9075031842541970E+00 
    2.8759449622345326E+00 
    2.9356495888866023E+00 
    2.8422292922561523E+00 
    2.7890737714682126E+00 
    2.7842028870083180E+00 
    2.8277102911201752E+00 
    2.8124086574774356E+00 
    2.7782374870692257E+00 
    2.7713392139173805E+00 
    2.7966717752056023E+00 
    2.8843190677581609E+00 
    2.8472012030663132E+00 
    2.8205637804927250E+00 
    2.8431053422978221E+00 
    2.7388472626463596E+00 
    2.6883175760211260E+00 
    2.6978988118305809E+00 
    2.7412888471498302E+00 
    2.6357354114740397E+00 
    2.5803351065955016E+00 
    2.6060716156044159E+00 
    2.6530629386281519E+00 
    2.6693064149377466E+00 
    2.6306231812658147E+00 
    2.6536102671866844E+00 
    2.6841956328720471E+00 
    2.7427295280545554E+00 
    2.7064826411788583E+00 
    2.7138982519194994E+00 
    2.7431658110728478E+00 
    2.8071491858773836E+00 
    2.7922180777907024E+00 
    2.7635753633668125E+00 
    2.7752374687975201E+00 
    2.7744146963334435E+00 
    2.7540878688858292E+00 
    2.7280901970722100E+00 
    2.7476199572756728E+00 
    2.7220905080252034E+00 
    2.7022867585992487E+00 
    2.6761857420971422E+00 
    2.6972529045695230E+00 
    2.7476384081188687E+00 
    2.7376067019987813E+00 
    2.7140419897042216E+00 
    2.7248088198662130E+00 
    3.0033360543121215E+00 
    2.9357085137499599E+00 
    2.8761377712041858E+00 
    2.9076927263312582E+00 
    2.8843886086129689E+00 
    2.8431742427535984E+00 
    2.8207345902740197E+00 
    2.8473818154230499E+00 
    2.8126543650061460E+00 
    2.7968642009055342E+00 
    2.7715186468972317E+00 
    2.7784733821571588E+00 
    2.8425095824294417E+00 
    2.8279758387645697E+00 
    2.7844861003162924E+00 
    2.7893687679075558E+00 
    2.8072174738062761E+00 
    2.7752775775734486E+00 
    2.7636442418274618E+00 
    2.7923662848925370E+00 
    2.7476100647048614E+00 
    2.7247466148657775E+00 
    2.7138324924721893E+00 
    2.7375349380982139E+00 
    2.7219103518179497E+00 
    2.6968050249452133E+00 
    2.6755050478222397E+00 
    2.7019373660007093E+00 
    2.7745586741944370E+00 
    2.7476320049851188E+00 
    2.7280035245400067E+00 
    2.7541743320914716E+00 
    2.7390088478685461E+00 
    2.7414371995487312E+00 
    2.6976899487057695E+00 
    2.6880380556251975E+00 
    2.7428404587057655E+00 
    2.7432207587969923E+00 
    2.7137217453567195E+00 
    2.7062873875784383E+00 
    2.6687201093086745E+00 
    2.6836914129578084E+00 
    2.6527136136511213E+00 
    2.6295997813339658E+00 
    2.6349405206163046E+00 
    2.6523807178527559E+00 
    2.6049509968678746E+00 
    2.5791149103937738E+00 
    2.4893284493925107E+00 
    2.4271098620361786E+00 
    2.4054417098396295E+00 
    2.4598255085019138E+00 
    2.3647755191063800E+00 
    2.3050270855239257E+00 
    2.2998187350352470E+00 
    2.3513901727049511E+00 
    2.3365640936586041E+00 
    2.2930762763722661E+00 
    2.2846733553610119E+00 
    2.3199133942725316E+00 
    2.4290265095357522E+00 
    2.3824350456849386E+00 
    2.3575352921751880E+00 
    2.3963402119850943E+00 
    2.2514014302592225E+00 
    2.2074361928107185E+00 
    2.2123690519863151E+00 
    2.2528015715741061E+00 
    2.1753285558965301E+00 
    2.1536313744897320E+00 
    2.1571159619485520E+00 
    2.1807251967020962E+00 
    2.1838419290432634E+00 
    2.1585153792657930E+00 
    2.1580571039109029E+00 
    2.1851623307853050E+00 
    2.2524912655708551E+00 
    2.2151791868683151E+00 
    2.2162189529621572E+00 
    2.2505102477816568E+00 
    2.3585266202188180E+00 
    2.3234807670837321E+00 
    2.2785388360597980E+00 
    2.3132772434556736E+00 
    2.2908441791252052E+00 
    2.2615531566027678E+00 
    2.2256844223216317E+00 
    2.2494550568974452E+00 
    2.2057160254090911E+00 
    2.1907417494392334E+00 
    2.1578744609849583E+00 
    2.1607006811761655E+00 
    2.2582500067277880E+00 
    2.2269103265270367E+00 
    2.1670815953848614E+00 
    2.1831910990624697E+00 
    2.5354957618121410E+00 
    2.5026824693420995E+00 
    2.5341129505565765E+00 
    2.5660844195754531E+00 
    2.4685851840375608E+00 
    2.4328772116791848E+00 
    2.4666350446023610E+00 
    2.5010147138576952E+00 
    2.5327020365162523E+00 
    2.4996759660113859E+00 
    2.5316686436977527E+00 
    2.5633689308608218E+00 
    2.5954936498509236E+00 
    2.5646271558660345E+00 
    2.5939747700961129E+00 
    2.6234928111824560E+00 
    2.3971373669063003E+00 
    2.3610811086548886E+00 
    2.4127959209298004E+00 
    2.4370279138698314E+00 
    2.3219236799346210E+00 
    2.2787592037325219E+00 
    2.3610750617176559E+00 
    2.3874971503413907E+00 
    2.4476293150779171E+00 
    2.4333879827991289E+00 
    2.4989364947820314E+00 
    2.5034626299797140E+00 
    2.4756908753396356E+00 
    2.4617847825489010E+00 
    2.5081593853795439E+00 
    2.5128916336606615E+00 
    2.6478875187067383E+00 
    2.6163981524295443E+00 
    2.6325088951037503E+00 
    2.6686200991500719E+00 
    2.5833113135759715E+00 
    2.5486704471484369E+00 
    2.5518898772524792E+00 
    2.5934987738924047E+00 
    2.6035362969886675E+00 
    2.5551968760076553E+00 
    2.5586370144087622E+00 
    2.6134784082798395E+00 
    2.6873022251474059E+00 
    2.6478352986758229E+00 
    2.6624300818019280E+00 
    2.7037600220604658E+00 
    2.1475755251866446E+00 
    2.1227779922655423E+00 
    2.1148848387687513E+00 
    2.1431345926540173E+00 
    2.0806635339661517E+00 
    2.0216105727845690E+00 
    2.0194941200532543E+00 
    2.0735315851740981E+00 
    2.0686962882210134E+00 
    2.0196041129010696E+00 
    2.0210806068141154E+00 
    2.0647706050012573E+00 
    2.1394710200748928E+00 
    2.1087908625959977E+00 
    2.1029040227888851E+00 
    2.1347912910154103E+00 
    1.9476668581072372E+00 
    1.8616567825758610E+00 
    1.8815184466049955E+00 
    1.9549677327631816E+00 
    1.7665372466255878E+00 
    1.6637977952455569E+00 
    1.7147773751606692E+00 
    1.8009664849044560E+00 
    1.8370383335579119E+00 
    1.7660394782282396E+00 
    1.8174175224377227E+00 
    1.8743105422582702E+00 
    1.9647385441812768E+00 
    1.9037562657276053E+00 
    1.9275819908012577E+00 
    1.9761540591343456E+00 
    2.1275250249957893E+00 
    2.0904871997515948E+00 
    2.0672792294494888E+00 
    2.1166063989303328E+00 
    2.0492796220510465E+00 
    2.0050349812010761E+00 
    1.9653625819785170E+00 
    2.0164914479135647E+00 
    1.9773335717966776E+00 
    1.9205852156976211E+00 
    1.8715790327966051E+00 
    1.9313759930346786E+00 
    2.1022493800745323E+00 
    2.0375540015854821E+00 
    1.9974223325334985E+00 
    2.0792400506928597E+00 
    1.9736276747752435E+00 
    1.9203975136823404E+00 
    1.8304444893752223E+00 
    1.8677714057092876E+00 
    1.8677519613658038E+00 
    1.8158465326392601E+00 
    1.7546954583607639E+00 
    1.7923905037548924E+00 
    1.7145312229759344E+00 
    1.6916148739378272E+00 
    1.6272298064441646E+00 
    1.6351547655285950E+00 
    1.7603097343302139E+00 
    1.7376059397815253E+00 
    1.6431265112669673E+00 
    1.6509315214993232E+00 
    1.7615893130507043E+00 
    1.7028443171780852E+00 
    1.6482211970613132E+00 
    1.7071766015927892E+00 
    1.6414091582671866E+00 
    1.5788918505275547E+00 
    1.5204721794506344E+00 
    1.5856905177752263E+00 
    1.5291681213120265E+00 
    1.4626936375277895E+00 
    1.4055817256670102E+00 
    1.4721396713099999E+00 
    1.6510901557265389E+00 
    1.5917009687694628E+00 
    1.5341927025301023E+00 
    1.5938448624033370E+00 
    1.5413650218637349E+00 
    1.5486900395988883E+00 
    1.4521537923712782E+00 
    1.4291378483129986E+00 
    1.5555840173671214E+00 
    1.5619819109230126E+00 
    1.4951413994752762E+00 
    1.4742251149985059E+00 
    1.3902365655543696E+00 
    1.4262190401112056E+00 
    1.3518739932246178E+00 
    1.3008997417223656E+00 
    1.3162813892616121E+00 
    1.3523414318195539E+00 
    1.2540205148321328E+00 
    1.2140302167754606E+00 
    2.7036435486269714E+00 
    2.6615842608411615E+00 
    2.6467116801733934E+00 
    2.6868005793990126E+00 
    2.6116729415993674E+00 
    2.5559470976462979E+00 
    2.5526277913457842E+00 
    2.6016438133562083E+00 
    2.5915584510941074E+00 
    2.5494284144181405E+00 
    2.5463202908123566E+00 
    2.5813522732147614E+00 
    2.6678075845896880E+00 
    2.6311657780673552E+00 
    2.6148945336854794E+00 
    2.6468213895827266E+00 
    2.4961039148435940E+00 
    2.4311828728287148E+00 
    2.4453521748478995E+00 
    2.5007583592024791E+00 
    2.3596564484443432E+00 
    2.2777502425004621E+00 
    2.3206422876017507E+00 
    2.3858042672508302E+00 
    2.4109148957626076E+00 
    2.3595613349927054E+00 
    2.3954964031943011E+00 
    2.4351022761258752E+00 
    2.5055466626402567E+00 
    2.4594601747092923E+00 
    2.4734225068752278E+00 
    2.5104104083985730E+00 
    2.6222012319631691E+00 
    2.5922821891689165E+00 
    2.5628873639690135E+00 
    2.5941263364611360E+00 
    2.5613193316519802E+00 
    2.5293577640410114E+00 
    2.4975128789763010E+00 
    2.5307093043135032E+00 
    2.4991649600977537E+00 
    2.4647401341124695E+00 
    2.4311837748777885E+00 
    2.4668779377431358E+00 
    2.5646766710014925E+00 
    2.5324638634013472E+00 
    2.5010750948862257E+00 
    2.5340723145793822E+00 
    2.4878347815098762E+00 
    2.4582456520295541E+00 
    2.4039173996280074E+00 
    2.4256047990792529E+00 
    2.4274308245089782E+00 
    2.3948079216138698E+00 
    2.3561197401784804E+00 
    2.3809373784033587E+00 
    2.3350959408235132E+00 
    2.3184976575889187E+00 
    2.2831568448519204E+00 
    2.2914511433759159E+00 
    2.3632349454114410E+00 
    2.3498511796413650E+00 
    2.2980938377994282E+00 
    2.3032248323038194E+00 
    2.3570957555790053E+00 
    2.3120422049193983E+00 
    2.2773548851324787E+00 
    2.3221357604573427E+00 
    2.2573167117603656E+00 
    2.1826167268923138E+00 
    2.1662133729291488E+00 
    2.2258706418444572E+00 
    2.2043866752443377E+00 
    2.1593466992471186E+00 
    2.1560628022378858E+00 
    2.1890509487885135E+00 
    2.2894717858442437E+00 
    2.2481326838807298E+00 
    2.2241104499217754E+00 
    2.2600362257508184E+00 
    2.2493135189077380E+00 
    2.2508099925039757E+00 
    2.2099747774221976E+00 
    2.2048380406872363E+00 
    2.2506170587995795E+00 
    2.2487755412231971E+00 
    2.2143129250169493E+00 
    2.2130114320318022E+00 
    2.1813934407634550E+00 
    2.1830454687915171E+00 
    2.1557568769058837E+00 
    2.1558416669894642E+00 
    2.1723296568202022E+00 
    2.1779921530845852E+00 
    2.1540556610558093E+00 
    2.1503438289588095E+00 
    1.4903568990341025E+00 
    1.3694006436789186E+00 
    1.3293391249396096E+00 
    1.4362259798113699E+00 
    1.2412113596746532E+00 
    1.1015232469913514E+00 
    1.0948630968268889E+00 
    1.2166949639430453E+00 
    1.1947698679396581E+00 
    1.0916178284405988E+00 
    1.0917247750381494E+00 
    1.1760782228631677E+00 
    1.3831856331643930E+00 
    1.2909102804335686E+00 
    1.2549773231750476E+00 
    1.3321790134534259E+00 
    9.4085513455929870E-01 
    7.3954207318868370E-01 
    7.9912490488507326E-01 
    9.5847686543255761E-01 
    4.5470919119559422E-01 
    0.0000000000000000E+00 
    3.2570915704824438E-01 
    5.9807769652590836E-01 
    7.2294954080256946E-01 
    5.6361010006928336E-01 
    7.4246599504913258E-01 
    8.3144153687996214E-01 
    9.7988882627362905E-01 
    8.5965283467969167E-01 
    9.1900103180620085E-01 
    1.0041115720317044E+00 
    1.2783895692783698E+00 
    1.2096764478792761E+00 
    1.1580178193063615E+00 
    1.2256218424360577E+00 
    1.1384338468557533E+00 
    1.0606860339855024E+00 
    9.9733923223876852E-01 
    1.0831466500989593E+00 
    1.0355959506870784E+00 
    9.3790738720294009E-01 
    8.8471138610729960E-01 
    9.9891060793451347E-01 
    1.1838969722934540E+00 
    1.1166272776030579E+00 
    1.0891570029067572E+00 
    1.1582036072865747E+00 
    1.9741193558070025E+00 
    1.8670880361573365E+00 
    1.8296487469126581E+00 
    1.9204393954591086E+00 
    1.7590395060459256E+00 
    1.6498633570856571E+00 
    1.6422238228810475E+00 
    1.7364925475893054E+00 
    1.7137200525265259E+00 
    1.6346125068038988E+00 
    1.6271139995802646E+00 
    1.6913733038071075E+00 
    1.8675655328919007E+00 
    1.7917398350543465E+00 
    1.7545173044119906E+00 
    1.8159301356960793E+00 
    1.5406453931510897E+00 
    1.4288736428779734E+00 
    1.4520288908558980E+00 
    1.5482558907034289E+00 
    1.3161086715461607E+00 
    1.2147499590634692E+00 
    1.2548607800015910E+00 
    1.3522250650025502E+00 
    1.3906616597036985E+00 
    1.3017544583471135E+00 
    1.3535691483905870E+00 
    1.4277685536505289E+00 
    1.5556166346552498E+00 
    1.4747763808080521E+00 
    1.4962687588210719E+00 
    1.5624954133594189E+00 
    1.7623292438131908E+00 
    1.7076991368550811E+00 
    1.6499767908321059E+00 
    1.7052285782193426E+00 
    1.6515347065362083E+00 
    1.5944321931761956E+00 
    1.5355861584792385E+00 
    1.5931157854957665E+00 
    1.5318330107776024E+00 
    1.4744934164418955E+00 
    1.4083596890513852E+00 
    1.4657964243090476E+00 
    1.6448406873392787E+00 
    1.5886735545775479E+00 
    1.5234678430896262E+00 
    1.5817463275431134E+00 
    2.0792122918828384E+00 
    1.9974562680558650E+00 
    2.0371150050782436E+00 
    2.1016228295287167E+00 
    1.9313401293183461E+00 
    1.8718293219856947E+00 
    1.9207291171490755E+00 
    1.9770908434143788E+00 
    2.0157748777118059E+00 
    1.9652224445577728E+00 
    2.0044871452254633E+00 
    2.0481585604005881E+00 
    2.1153450746107723E+00 
    2.0662999121135157E+00 
    2.0889988803268538E+00 
    2.1257697376712619E+00 
    1.8182927886830824E+00 
    1.7683398067414646E+00 
    1.8389415430505724E+00 
    1.8750611382553197E+00 
    1.7179913976931209E+00 
    1.6667853963649306E+00 
    1.7694670969690072E+00 
    1.8036796684635357E+00 
    1.8835775544109803E+00 
    1.8640286987503483E+00 
    1.9490498466215964E+00 
    1.9561160605843624E+00 
    1.9280646940927137E+00 
    1.9051111110528420E+00 
    1.9654694899280585E+00 
    1.9762443616561554E+00 
    2.1325928352742185E+00 
    2.1010442773998066E+00 
    2.1067622967335566E+00 
    2.1369229839976920E+00 
    2.0634491080598520E+00 
    2.0204602741228910E+00 
    2.0193145819490432E+00 
    2.0674676796666835E+00 
    2.0723066646597350E+00 
    2.0194944850845316E+00 
    2.0217124595380258E+00 
    2.0793637854350284E+00 
    2.1402229968445821E+00 
    2.1126819312252434E+00 
    2.1203556109243822E+00 
    2.1444298605265750E+00 
    1.1587592981244723E+00 
    1.0898780203816103E+00 
    1.1186141522183326E+00 
    1.1854267033779429E+00 
    9.9974209855126428E-01 
    8.8553565118239641E-01 
    9.4026724337747436E-01 
    1.0379249626679754E+00 
    1.0866316954765267E+00 
    1.0010502099761793E+00 
    1.0653307143042177E+00 
    1.1426634414791634E+00 
    1.2277202334948032E+00 
    1.1610296569617593E+00 
    1.2131930732859919E+00 
    1.2808624047293216E+00 
    7.4324485606806601E-01 
    5.6425907434353650E-01 
    7.2534247192796364E-01 
    8.3381057676478176E-01 
    3.2608286591051855E-01 
    0.0000000000000000E+00 
    4.5638758601523943E-01 
    6.0018090853092498E-01 
    8.0327501995447759E-01 
    7.4338266923460306E-01 
    9.4664375230822240E-01 
    9.6413971030061885E-01 
    9.2282097778922856E-01 
    8.6368805983392782E-01 
    9.8524000283894664E-01 
    1.0089672692332721E+00 
    1.3351664052222054E+00 
    1.2586850216993115E+00 
    1.2947337615251140E+00 
    1.3862830559091388E+00 
    1.1806702547027164E+00 
    1.0969266251993985E+00 
    1.0972972059550086E+00 
    1.1996860766476400E+00 
    1.2216802382002583E+00 
    1.1008247015983526E+00 
    1.1075477702792356E+00 
    1.2460682508035019E+00 
    1.4389319498592672E+00 
    1.3330375920749038E+00 
    1.3728410346818869E+00 
    1.4929258999802877E+00 
    2.1133679942696015E+00 
    2.2171401847425316E+00 
    2.2078851360496428E+00 
    2.1125166827924282E+00 
    2.3161350544260180E+00 
    2.4092671155510428E+00 
    2.3854777451192026E+00 
    2.2991311513367707E+00 
    2.2851703158096104E+00 
    2.3640343109680724E+00 
    2.3445461695586007E+00 
    2.2739078309506038E+00 
    2.1149833609159572E+00 
    2.2020290050086175E+00 
    2.1992567237556693E+00 
    2.1205647970081167E+00 
    2.4937115725322609E+00 
    2.5692440092017250E+00 
    2.5284687054366088E+00 
    2.4614296340211359E+00 
    2.6366151188562386E+00 
    2.6951823181803962E+00 
    2.6493842416196225E+00 
    2.5910544293708075E+00 
    2.5439513019502922E+00 
    2.5983030661382309E+00 
    2.5423500322451673E+00 
    2.4949796698663826E+00 
    2.4307730463446919E+00 
    2.4882747117112642E+00 
    2.4481452986021472E+00 
    2.4013018077237631E+00 
    2.1339996397468850E+00 
    2.2129357663727043E+00 
    2.2445329230985487E+00 
    2.1566788801393373E+00 
    2.2862801681961629E+00 
    2.3548353772216930E+00 
    2.3947150281869973E+00 
    2.3230235224845845E+00 
    2.3632096567358429E+00 
    2.4361187950236287E+00 
    2.4796749529628745E+00 
    2.4079535121043580E+00 
    2.1855333405478632E+00 
    2.2815606475380359E+00 
    2.3262092372254277E+00 
    2.2246706146053294E+00 
    2.0056549952443210E+00 
    1.8956624219812730E+00 
    1.9112420899619360E+00 
    2.0126819324612470E+00 
    1.7841857971781927E+00 
    1.6718677677324434E+00 
    1.7061465754041578E+00 
    1.8089364678946398E+00 
    1.8345481654138254E+00 
    1.7409509863288783E+00 
    1.7763205430614830E+00 
    1.8610665007794616E+00 
    2.0221627437827134E+00 
    1.9283138772743948E+00 
    1.9467652365587085E+00 
    2.0338025620646851E+00 
    1.5616141717654151E+00 
    1.4538182667680786E+00 
    1.5218761739447688E+00 
    1.6104938072667128E+00 
    1.3467539742042076E+00 
    1.2415875657849247E+00 
    1.3436063402589973E+00 
    1.4329987786135134E+00 
    1.5223399696084319E+00 
    1.4535687139762832E+00 
    1.5629577086519355E+00 
    1.6117613081158351E+00 
    1.6599259587156168E+00 
    1.5911958705413238E+00 
    1.6607766462960136E+00 
    1.7098251031304472E+00 
    2.0414644187967590E+00 
    1.9506649964921079E+00 
    1.9376053061802068E+00 
    2.0425164591064875E+00 
    1.8629849360156479E+00 
    1.7772362746060797E+00 
    1.7427828988063445E+00 
    1.8386663249007109E+00 
    1.8130575205027972E+00 
    1.7079616373441897E+00 
    1.6727854732548830E+00 
    1.7857552669695966E+00 
    2.0392013631601236E+00 
    1.9216818029158740E+00 
    1.9009683872598915E+00 
    2.0264979318490512E+00 
    2.2235844091665289E+00 
    2.3245977304500109E+00 
    2.2801496789815636E+00 
    2.1845620224542714E+00 
    2.4057024624193373E+00 
    2.4768832651743877E+00 
    2.4338759153924920E+00 
    2.3613460705185911E+00 
    2.3214854056724858E+00 
    2.3929234299205411E+00 
    2.3534332164463212E+00 
    2.2850556752662343E+00 
    2.1557435674824368E+00 
    2.2433155364588360E+00 
    2.2118989239083628E+00 
    2.1331148530604298E+00 
    2.5397238802455457E+00 
    2.5965582971219416E+00 
    2.5424322465185760E+00 
    2.4928696992320929E+00 
    2.6486100473994143E+00 
    2.6951326867644774E+00 
    2.6364223281832246E+00 
    2.5902531399624613E+00 
    2.5277196825150958E+00 
    2.5690028519942798E+00 
    2.4934894726135295E+00 
    2.4608040166686922E+00 
    2.4464533656005654E+00 
    2.4870070863311406E+00 
    2.4297647738824297E+00 
    2.3999716046145489E+00 
    2.1197169703294554E+00 
    2.1983586243995865E+00 
    2.2013166763933301E+00 
    2.1142712514735367E+00 
    2.2729050208216295E+00 
    2.3434215905705917E+00 
    2.3631778419265306E+00 