# vtk DataFile Version 2.0
Pressure Field Data 
ASCII 
DATASET UNSTRUCTURED_GRID 

POINTS 801 double 

    0.0000000000000000E+00     0.0000000000000000E+00     0.0000000000000000E+00 
    1.0000000000000000E+00     0.0000000000000000E+00     0.0000000000000000E+00 
    1.0000000000000000E+00     1.0000000000000000E+00     0.0000000000000000E+00 
    0.0000000000000000E+00     1.0000000000000000E+00     0.0000000000000000E+00 
    2.5000000000000000E-01     2.5000000000000000E-01     0.0000000000000000E+00 
    7.5000000000000000E-01     2.5000000000000000E-01     0.0000000000000000E+00 
    7.5000000000000000E-01     7.5000000000000000E-01     0.0000000000000000E+00 
    2.5000000000000000E-01     7.5000000000000000E-01     0.0000000000000000E+00 
    2.4999999999941941E-01     0.0000000000000000E+00     0.0000000000000000E+00 
    4.9999999999869399E-01     0.0000000000000000E+00     0.0000000000000000E+00 
    7.4999999999934697E-01     0.0000000000000000E+00     0.0000000000000000E+00 
    1.2499999999977940E-01     0.0000000000000000E+00     0.0000000000000000E+00 
    3.7499999999905670E-01     0.0000000000000000E+00     0.0000000000000000E+00 
    6.2499999999902045E-01     0.0000000000000000E+00     0.0000000000000000E+00 
    8.7499999999967348E-01     0.0000000000000000E+00     0.0000000000000000E+00 
    6.2499999999889699E-02     0.0000000000000000E+00     0.0000000000000000E+00 
    1.8749999999959940E-01     0.0000000000000000E+00     0.0000000000000000E+00 
    3.1249999999923811E-01     0.0000000000000000E+00     0.0000000000000000E+00 
    4.3749999999887529E-01     0.0000000000000000E+00     0.0000000000000000E+00 
    5.6249999999885725E-01     0.0000000000000000E+00     0.0000000000000000E+00 
    6.8749999999918376E-01     0.0000000000000000E+00     0.0000000000000000E+00 
    8.1249999999951017E-01     0.0000000000000000E+00     0.0000000000000000E+00 
    9.3749999999983680E-01     0.0000000000000000E+00     0.0000000000000000E+00 
    1.0000000000000000E+00     2.4999999999941941E-01     0.0000000000000000E+00 
    1.0000000000000000E+00     4.9999999999869399E-01     0.0000000000000000E+00 
    1.0000000000000000E+00     7.4999999999934697E-01     0.0000000000000000E+00 
    1.0000000000000000E+00     1.2499999999977940E-01     0.0000000000000000E+00 
    1.0000000000000000E+00     3.7499999999905670E-01     0.0000000000000000E+00 
    1.0000000000000000E+00     6.2499999999902045E-01     0.0000000000000000E+00 
    1.0000000000000000E+00     8.7499999999967348E-01     0.0000000000000000E+00 
    1.0000000000000000E+00     6.2499999999889699E-02     0.0000000000000000E+00 
    1.0000000000000000E+00     1.8749999999959940E-01     0.0000000000000000E+00 
    1.0000000000000000E+00     3.1249999999923811E-01     0.0000000000000000E+00 
    1.0000000000000000E+00     4.3749999999887529E-01     0.0000000000000000E+00 
    1.0000000000000000E+00     5.6249999999885725E-01     0.0000000000000000E+00 
    1.0000000000000000E+00     6.8749999999918376E-01     0.0000000000000000E+00 
    1.0000000000000000E+00     8.1249999999951017E-01     0.0000000000000000E+00 
    1.0000000000000000E+00     9.3749999999983680E-01     0.0000000000000000E+00 
    7.5000000000112044E-01     1.0000000000000000E+00     0.0000000000000000E+00 
    5.0000000000205913E-01     1.0000000000000000E+00     0.0000000000000000E+00 
    2.5000000000102962E-01     1.0000000000000000E+00     0.0000000000000000E+00 
    8.7499999999991362E-01     1.0000000000000000E+00     0.0000000000000000E+00 
    6.2499999999988309E-01     1.0000000000000000E+00     0.0000000000000000E+00 
    3.7499999999869987E-01     1.0000000000000000E+00     0.0000000000000000E+00 
    1.2499999999880820E-01     1.0000000000000000E+00     0.0000000000000000E+00 
    9.3749999999995681E-01     1.0000000000000000E+00     0.0000000000000000E+00 
    8.1250000000051703E-01     1.0000000000000000E+00     0.0000000000000000E+00 
    6.8750000000050182E-01     1.0000000000000000E+00     0.0000000000000000E+00 
    5.6250000000097111E-01     1.0000000000000000E+00     0.0000000000000000E+00 
    4.3750000000037947E-01     1.0000000000000000E+00     0.0000000000000000E+00 
    3.1249999999986477E-01     1.0000000000000000E+00     0.0000000000000000E+00 
    1.8749999999991890E-01     1.0000000000000000E+00     0.0000000000000000E+00 
    6.2499999999404102E-02     1.0000000000000000E+00     0.0000000000000000E+00 
    0.0000000000000000E+00     7.5000000000112044E-01     0.0000000000000000E+00 
    0.0000000000000000E+00     5.0000000000205913E-01     0.0000000000000000E+00 
    0.0000000000000000E+00     2.5000000000102962E-01     0.0000000000000000E+00 
    0.0000000000000000E+00     8.7499999999991362E-01     0.0000000000000000E+00 
    0.0000000000000000E+00     6.2499999999988309E-01     0.0000000000000000E+00 
    0.0000000000000000E+00     3.7499999999869987E-01     0.0000000000000000E+00 
    0.0000000000000000E+00     1.2499999999880820E-01     0.0000000000000000E+00 
    0.0000000000000000E+00     9.3749999999995681E-01     0.0000000000000000E+00 
    0.0000000000000000E+00     8.1250000000051703E-01     0.0000000000000000E+00 
    0.0000000000000000E+00     6.8750000000050182E-01     0.0000000000000000E+00 
    0.0000000000000000E+00     5.6250000000097111E-01     0.0000000000000000E+00 
    0.0000000000000000E+00     4.3750000000037947E-01     0.0000000000000000E+00 
    0.0000000000000000E+00     3.1249999999986477E-01     0.0000000000000000E+00 
    0.0000000000000000E+00     1.8749999999991890E-01     0.0000000000000000E+00 
    0.0000000000000000E+00     6.2499999999404102E-02     0.0000000000000000E+00 
    4.9999999999972200E-01     2.5000000000000000E-01     0.0000000000000000E+00 
    3.7500000000067490E-01     2.5000000000000000E-01     0.0000000000000000E+00 
    6.2500000000042988E-01     2.5000000000000000E-01     0.0000000000000000E+00 
    3.1250000000033751E-01     2.5000000000000000E-01     0.0000000000000000E+00 
    4.3750000000019851E-01     2.5000000000000000E-01     0.0000000000000000E+00 
    5.6250000000007594E-01     2.5000000000000000E-01     0.0000000000000000E+00 
    6.8750000000021494E-01     2.5000000000000000E-01     0.0000000000000000E+00 
    7.5000000000000000E-01     4.9999999999972200E-01     0.0000000000000000E+00 
    7.5000000000000000E-01     3.7500000000067490E-01     0.0000000000000000E+00 
    7.5000000000000000E-01     6.2500000000042988E-01     0.0000000000000000E+00 
    7.5000000000000000E-01     3.1250000000033751E-01     0.0000000000000000E+00 
    7.5000000000000000E-01     4.3750000000019851E-01     0.0000000000000000E+00 
    7.5000000000000000E-01     5.6250000000007594E-01     0.0000000000000000E+00 
    7.5000000000000000E-01     6.8750000000021494E-01     0.0000000000000000E+00 
    5.0000000000118039E-01     7.5000000000000000E-01     0.0000000000000000E+00 
    6.2500000000161415E-01     7.5000000000000000E-01     0.0000000000000000E+00 
    3.7500000000140910E-01     7.5000000000000000E-01     0.0000000000000000E+00 
    6.8750000000080713E-01     7.5000000000000000E-01     0.0000000000000000E+00 
    5.6250000000139733E-01     7.5000000000000000E-01     0.0000000000000000E+00 
    4.3750000000129469E-01     7.5000000000000000E-01     0.0000000000000000E+00 
    3.1250000000070460E-01     7.5000000000000000E-01     0.0000000000000000E+00 
    2.5000000000000000E-01     5.0000000000118039E-01     0.0000000000000000E+00 
    2.5000000000000000E-01     6.2500000000161415E-01     0.0000000000000000E+00 
    2.5000000000000000E-01     3.7500000000140910E-01     0.0000000000000000E+00 
    2.5000000000000000E-01     6.8750000000080713E-01     0.0000000000000000E+00 
    2.5000000000000000E-01     5.6250000000139733E-01     0.0000000000000000E+00 
    2.5000000000000000E-01     4.3750000000129469E-01     0.0000000000000000E+00 
    2.5000000000000000E-01     3.1250000000070460E-01     0.0000000000000000E+00 
    3.7499999999934702E-01     1.2500000000000000E-01     0.0000000000000000E+00 
    1.2500000000000000E-01     1.2500000000000000E-01     0.0000000000000000E+00 
    1.2500000000000000E-01     3.7500000000102962E-01     0.0000000000000000E+00 
    8.7500000000000000E-01     1.2500000000000000E-01     0.0000000000000000E+00 
    6.2499999999934697E-01     1.2500000000000000E-01     0.0000000000000000E+00 
    8.7500000000000000E-01     3.7499999999934702E-01     0.0000000000000000E+00 
    8.7500000000000000E-01     6.2499999999934697E-01     0.0000000000000000E+00 
    1.2500000000000000E-01     6.2500000000102962E-01     0.0000000000000000E+00 
    1.2500000000000000E-01     8.7500000000000000E-01     0.0000000000000000E+00 
    8.7500000000000000E-01     8.7500000000000000E-01     0.0000000000000000E+00 
    6.2500000000102962E-01     8.7500000000000000E-01     0.0000000000000000E+00 
    3.7500000000102962E-01     8.7500000000000000E-01     0.0000000000000000E+00 
    2.4999999999957681E-01     8.3333333333333329E-02     0.0000000000000000E+00 
    8.3333333333333329E-02     2.5000000000068640E-01     0.0000000000000000E+00 
    7.4999999999956468E-01     8.3333333333333329E-02     0.0000000000000000E+00 
    4.9999999999951827E-01     1.6666666666666671E-01     0.0000000000000000E+00 
    9.1666666666666674E-01     2.4999999999957681E-01     0.0000000000000000E+00 
    8.3333333333333337E-01     4.9999999999951827E-01     0.0000000000000000E+00 
    1.6666666666666671E-01     5.0000000000088307E-01     0.0000000000000000E+00 
    8.3333333333333329E-02     7.5000000000070155E-01     0.0000000000000000E+00 
    9.1666666666666674E-01     7.4999999999956468E-01     0.0000000000000000E+00 
    5.0000000000088307E-01     8.3333333333333348E-01     0.0000000000000000E+00 
    2.5000000000068640E-01     9.1666666666666674E-01     0.0000000000000000E+00 
    7.5000000000070155E-01     9.1666666666666674E-01     0.0000000000000000E+00 
[...]
CELL_DATA 768 
SCALARS Pressure double 1 
LOOKUP_TABLE default 

    2.6886725993524783E+00 
    2.5939828738186019E+00 
    2.5631120336136370E+00 
    2.6216127208888156E+00 
    2.5306080987471864E+00 
    2.4804155552150675E+00 
    2.4758804788503506E+00 
    2.5167221273246461E+00 
    2.5022263721712799E+00 
    2.4703523630392898E+00 
    2.4639961423911450E+00 
    2.4874726180802318E+00 
    2.5712154911612926E+00 
    2.5353134273739051E+00 
    2.5099270045000495E+00 
    2.5313847274879531E+00 
    2.4342822997517208E+00 
    2.3887023159722252E+00 
    2.3973088962063076E+00 
    2.4365015162909898E+00 
    2.3418231370282814E+00 
    2.2927851673224318E+00 
    2.3155754124166266E+00 
    2.3572530419118021E+00 
    2.3717662697414190E+00 
    2.3373889425275358E+00 
    2.3578726654834257E+00 
    2.3851076772821052E+00 
    2.4378147823365643E+00 
    2.4050415150162454E+00 
    2.4117381572538106E+00 
    2.4382205970446393E+00 
    2.4973145356410220E+00 
    2.4833335276509425E+00 
    2.4568874449904547E+00 
    2.4676353792172221E+00 
    2.4668218946666394E+00 
    2.4481631738976919E+00 
    2.4245522011899157E+00 
    2.4422885579039439E+00 
    2.4191793583764056E+00 
    2.4013400201879533E+00 
    2.3780343889549456E+00 
    2.3969052297783433E+00 
    2.4423595249862946E+00 
    2.4332292108619984E+00 
    2.4120035273537841E+00 
    2.4217449950953731E+00 
    2.6887166630990653E+00 
    2.6216684277858966E+00 
    2.5632944606616905E+00 
    2.5941622957897419E+00 
    2.5712804360910688E+00 
    2.5314474773018421E+00 
    2.5100839890081845E+00 
    2.5354829564388850E+00 
    2.5024596885302137E+00 
    2.4876543447856396E+00 
    2.4641642583510786E+00 
    2.4705722389419273E+00 
    2.5308779792512226E+00 
    2.5169766746143241E+00 
    2.4761439935016001E+00 
    2.4806915046058702E+00 
    2.4973751431453537E+00 
    2.4676712599621267E+00 
    2.4569501460232006E+00 
    2.4834665855304632E+00 
    2.4423374152396686E+00 
    2.4216978939133669E+00 
    2.4118261048135987E+00 
    2.4331698202480521E+00 
    2.4190182104830460E+00 
    2.3965040117106473E+00 
    2.3774069267952718E+00 
    2.4010149235927569E+00 
    2.4669545855630099E+00 
    2.4422999671331218E+00 
    2.4244674591922322E+00 
    2.4482410649367661E+00 
    2.4344152544635622E+00 
    2.4366247021790217E+00 
    2.3971012320626297E+00 
    2.3884304222618717E+00 
    2.4379068784617761E+00 
    2.4382644968808815E+00 
    2.4115650745897037E+00 
    2.4048482304963041E+00 
    2.3712172137702168E+00 
    2.3846338108350222E+00 
    2.3570424233627931E+00 
    2.3364504886883108E+00 
    2.3410928912546640E+00 
    2.3566200661901875E+00 
    2.3145616059639695E+00 
    2.2916949416987547E+00 
    2.2126620020842678E+00 
    2.1580848725196451E+00 
    2.1390747506982803E+00 
    2.1867635754289121E+00 
    2.1034714443367064E+00 
    2.0510879434859315E+00 
    2.0464967216119265E+00 
    2.0917172580301986E+00 
    2.0786718548322454E+00 
    2.0405497037536859E+00 
    2.0331504703620640E+00 
    2.0640122171761175E+00 
    2.1596897610668235E+00 
    2.1188539317969393E+00 
    2.0969350907512827E+00 
    2.1308991714007712E+00 
    2.0038927959380479E+00 
    1.9649473900302605E+00 
    1.9693711783258838E+00 
    2.0051335649705186E+00 
    1.9370258184756499E+00 
    1.9206939095167206E+00 
    1.9226707345069378E+00 
    1.9416175186950928E+00 
    1.9444897136253612E+00 
    1.9231102896763224E+00 
    1.9225061710421767E+00 
    1.9459094203572940E+00 
    2.0048768705984674E+00 
    1.9719985803287674E+00 
    1.9730769682262004E+00 
    2.0031643765098930E+00 
    2.0976290583898636E+00 
    2.0670251525889376E+00 
    2.0277626493014673E+00 
    2.0580462454280219E+00 
    2.0385110436752938E+00 
    2.0128796752120475E+00 
    1.9814997081409089E+00 
    2.0023455354472923E+00 
    1.9642806017143943E+00 
    1.9510272843369276E+00 
    1.9225402029642862E+00 
    1.9252958254385861E+00 
    2.0102497388845220E+00 
    1.9829036152545805E+00 
    1.9311417465049032E+00 
    1.9453595829248136E+00 
    2.2532737136793264E+00 
    2.2244331877950168E+00 
    2.2521217732953311E+00 
    2.2802763143845395E+00 
    2.1944178215951360E+00 
    2.1629113503103836E+00 
    2.1925476214038482E+00 
    2.2229310133262632E+00 
    2.2508801175928914E+00 
    2.2216564101932081E+00 
    2.2499451018152712E+00 
    2.2780129103165860E+00 
    2.3063201105184454E+00 
    2.2790824932404377E+00 
    2.3050801012047812E+00 
    2.3311806934319579E+00 
    2.1313963007840200E+00 
    2.0997305204646417E+00 
    2.1450103413439288E+00 
    2.1663799818884901E+00 
    2.0655241762383416E+00 
    2.0279473334375528E+00 
    2.0997274915577919E+00 
    2.1228102101528665E+00 
    2.1756646991825250E+00 
    2.1631753776078226E+00 
    2.2210737123119904E+00 
    2.2250257531096609E+00 
    2.2004195530416286E+00 
    2.1881219508428660E+00 
    2.2291351164090560E+00 
    2.2333077950754312E+00 
    2.3528911243126869E+00 
    2.3249941250307966E+00 
    2.3393334955822258E+00 
    2.3713827795575755E+00 
    2.2957036997916633E+00 
    2.2650186275664645E+00 
    2.2679018786168599E+00 
    2.3047751360919126E+00 
    2.3137199497834398E+00 
    2.2708735469760293E+00 
    2.2739515576059426E+00 
    2.3225680447813843E+00 
    2.3880878104492305E+00 
    2.3529888848552449E+00 
    2.3659992999260036E+00 
    2.4028518532812733E+00 
    1.9164465757718210E+00 
    1.8950148488067742E+00 
    1.8877589601922646E+00 
    1.9120912923383524E+00 
    1.8587328038881434E+00 
    1.8089862324369972E+00 
    1.8070281687046912E+00 
    1.8524126159303791E+00 
    1.8472006083873835E+00 
    1.8062272803010162E+00 
    1.8065497013825855E+00 
    1.8430797695524157E+00 
    1.9073278668744389E+00 
    1.8811693037915971E+00 
    1.8753413209202183E+00 
    1.9025466255753738E+00 
    1.7483464466337248E+00 
    1.6779474461668482E+00 
    1.6939987382479047E+00 
    1.7542500802968131E+00 
    1.6013746272284879E+00 
    1.5203424150316023E+00 
    1.5595591857357067E+00 
    1.6287234398408701E+00 
    1.6564484841236842E+00 
    1.5987427027796606E+00 
    1.6381135734847492E+00 
    1.6847194323122838E+00 
    1.7611704157704793E+00 
    1.7109190620507835E+00 
    1.7285842932724746E+00 
    1.7689202400730646E+00 
    1.8964381246981978E+00 
    1.8648139194418505E+00 
    1.8451900956448717E+00 
    1.8873589664900787E+00 
    1.8298767632463375E+00 
    1.7927205542012030E+00 
    1.7594263212776997E+00 
    1.8021807802716143E+00 
    1.7691199172071270E+00 
    1.7221530777156864E+00 
    1.6814735157737419E+00 
    1.7301600835852162E+00 
    1.8752169983866622E+00 
    1.8198821324834518E+00 
    1.7851926387364478E+00 
    1.8549590220882068E+00 
    1.7636862400827698E+00 
    1.7191491042891565E+00 
    1.6449491297257481E+00 
    1.6746936016901777E+00 
    1.6767193641646432E+00 
    1.6356032374404283E+00 
    1.5861213350900516E+00 
    1.6154661147548373E+00 
    1.5535686680212728E+00 
    1.5355908197097843E+00 
    1.4841207951345228E+00 
    1.4906579513991272E+00 
    1.5887326203137124E+00 
    1.5712379617433259E+00 
    1.4968976587278238E+00 
    1.5028032390076764E+00 
    1.5925682359996438E+00 
    1.5472033735562396E+00 
    1.5019794992355084E+00 
    1.5484650037725836E+00 
    1.5013361995279109E+00 
    1.4529195917987192E+00 
    1.4034987323726735E+00 
    1.4540832331968374E+00 
    1.4064126724841264E+00 
    1.3549212415754897E+00 
    1.3073693556679038E+00 
    1.3590450274184924E+00 
    1.5031989707679163E+00 
    1.4555999937723996E+00 
    1.4088521029697207E+00 
    1.4570864858568762E+00 
    1.4163612282729945E+00 
    1.4217556708230215E+00 
    1.3450889866927860E+00 
    1.3283431292561758E+00 
    1.4267585090803772E+00 
    1.4314867979625427E+00 
    1.3773344036254858E+00 
    1.3612415815135246E+00 
    1.2946748099806373E+00 
    1.3217191244560420E+00 
    1.2644473171887458E+00 
    1.2271089336579295E+00 
    1.2415839229977343E+00 
    1.2680533654184145E+00 
    1.1924806555861893E+00 
    1.1605987801659414E+00 
    2.4027845923141493E+00 
    2.3652425545335731E+00 
    2.3519625138735996E+00 
    2.3876517161644890E+00 
    2.3208906655015964E+00 
    2.2714439398148829E+00 
    2.2685102760297235E+00 
    2.3119665158117919E+00 
    2.3029923796052563E+00 
    2.2656780050645104E+00 
    2.2629312536719488E+00 
    2.2939258918999088E+00 
    2.3706454756537267E+00 
    2.3380967544428577E+00 
    2.3236118718285379E+00 
    2.3519083777130261E+00 
    2.2185034092873623E+00 
    2.1613007827648851E+00 
    2.1737518885552354E+00 
    2.2226121987959422E+00 
    2.0986561514035693E+00 
    2.0271640894154359E+00 
    2.0645471295161477E+00 
    2.1214962877461745E+00 
    2.1435464513644855E+00 
    2.0985785070583205E+00 
    2.1301330684922530E+00 
    2.1648660479695274E+00 
    2.2268536865959634E+00 
    2.1862041105901620E+00 
    2.1985619374971699E+00 
    2.2311777742183385E+00 
    2.3299954941605376E+00 
    2.3035446724527993E+00 
    2.2775390803745603E+00 
    2.3050846087307120E+00 
    2.2761886306924857E+00 
    2.2479396322923497E+00 
    2.2198509083569626E+00 
    2.2491608074652114E+00 
    2.2213772414684114E+00 
    2.1910167589003624E+00 
    2.1615627790052492E+00 
    2.1930024411511200E+00 
    2.2790276693787082E+00 
    2.2506910116075582E+00 
    2.2230584668509987E+00 
    2.2520300868343477E+00 
    2.2113852510098386E+00 
    2.1854340271220480E+00 
    2.1378118594730253E+00 
    2.1568282608537008E+00 
    2.1583771368789888E+00 
    2.1296795172578444E+00 
    2.0957998309126138E+00 
    2.1176297372031438E+00 
    2.0774768647804036E+00 
    2.0628705061103552E+00 
    2.0319288034190195E+00 
    2.0392263006036297E+00 
    2.1022026839802441E+00 
    2.0904538218278890E+00 
    2.0450801611645555E+00 
    2.0496007653500685E+00 
    2.0965144048960060E+00 
    2.0570476397024660E+00 
    2.0267757396545245E+00 
    2.0659497638289155E+00 
    2.0093242044627222E+00 
    1.9443935562384740E+00 
    1.9301585088704099E+00 
    1.9819308822013815E+00 
    1.9632087383948802E+00 
    1.9242229637124317E+00 
    1.9212720351751875E+00 
    1.9497593362017263E+00 
    2.0374060358348509E+00 
    2.0012749971005102E+00 
    1.9802685163832963E+00 
    2.0116667212847199E+00 
    2.0021682517672090E+00 
    2.0034990241204138E+00 
    1.9674098378223941E+00 
    1.9628009207167758E+00 
    2.0033548291221250E+00 
    2.0017729038735061E+00 
    1.9715780694074359E+00 
    1.9702544313832890E+00 
    1.9425545471458745E+00 
    1.9442934759340766E+00 
    1.9208439682508454E+00 
    1.9211020279337665E+00 
    1.9346295844546959E+00 
    1.9394263092319663E+00 
    1.9203424454844631E+00 
    1.9181964685859811E+00 
    1.3800530575994421E+00 
    1.2792359537438176E+00 
    1.2469783259652685E+00 
    1.3358455931141058E+00 
    1.1717971392542104E+00 
    1.0520118645319394E+00 
    1.0467099170277643E+00 
    1.1520141585538566E+00 
    1.1346960587037853E+00 
    1.0449372354945743E+00 
    1.0462454671881705E+00 
    1.1200677839122495E+00 
    1.2924732416539340E+00 
    1.2162514398718924E+00 
    1.1875515711619489E+00 
    1.2505926710364144E+00 
    9.1044516172217127E-01 
    7.2697750574974596E-01 
    7.8279148172739599E-01 
    9.2678960149792711E-01 
    4.5262074412572723E-01 
    0.0000000000000000E+00 
    3.2822629648020407E-01 
    5.9367005946116336E-01 
    7.1103772600479620E-01 
    5.5525483603925152E-01 
    7.2354628583144498E-01 
    8.1095654329308853E-01 
    9.4733454157788388E-01 
    8.3895479573847254E-01 
    8.9294681017237287E-01 
    9.6949828365446633E-01 
    1.2082417464093587E+00 
    1.1511432537571575E+00 
    1.1087885393069117E+00 
    1.1675616196903400E+00 
    1.0890208921067914E+00 
    1.0201177260427348E+00 
    9.6389894345164484E-01 
    1.0416545821245835E+00 
    9.9932447937386837E-01 
    9.0879518375105595E-01 
    8.5707383365215162E-01 
    9.6447394516158280E-01 
    1.1344913756134472E+00 
    1.0739453259109866E+00 
    1.0490350916918434E+00 
    1.1125699592309441E+00 
    1.7628298781968086E+00 
    1.6727264024271991E+00 
    1.6425609036990156E+00 
    1.7177621199238660E+00 
    1.5852841183594693E+00 
    1.4981304299918146E+00 
    1.4922661733766529E+00 
    1.5676112797383233E+00 
    1.5497140856003828E+00 
    1.4861049410748539E+00 
    1.4796981364195407E+00 
    1.5316415713926985E+00 
    1.6747938226587333E+00 
    1.6126246187591309E+00 
    1.5828694259189846E+00 
    1.6331267655970991E+00 
    1.4114346995854226E+00 
    1.3246907527338896E+00 
    1.3412858154493916E+00 
    1.4170444458979741E+00 
    1.2394442884154764E+00 
    1.1596722117588520E+00 
    1.1911358918131882E+00 
    1.2655586621584491E+00 
    1.2919227480269557E+00 
    1.2253989541737800E+00 
    1.2625232957704051E+00 
    1.3189085096388173E+00 
    1.4223004869834281E+00 
    1.3575564270974350E+00 
    1.3736993668552275E+00 
    1.4272877535701680E+00 
    1.5895483697235304E+00 
    1.5448087789814020E+00 
    1.4980443505801389E+00 
    1.5436785874110444E+00 
    1.4991130903166454E+00 
    1.4528699838243955E+00 
    1.4050435328263979E+00 
    1.4516433711215024E+00 
    1.4029915725262205E+00 
    1.3559629069021246E+00 
    1.3051966260781258E+00 
    1.3524126038017257E+00 
    1.4977315440609793E+00 
    1.4504534982295001E+00 
    1.4005403505436382E+00 
    1.4495550588118244E+00 
    1.8539439875004045E+00 
    1.7840525270534551E+00 
    1.8188870574482299E+00 
    1.8742373597454489E+00 
    1.7287459847963942E+00 
    1.6796562687945009E+00 
    1.7208496198266174E+00 
    1.7680600596441274E+00 
    1.8013288856140370E+00 
    1.7585350839072866E+00 
    1.7920519046064038E+00 
    1.8291504256180227E+00 
    1.8863613178710923E+00 
    1.8443389494013556E+00 
    1.8639248543446691E+00 
    1.8953127163523351E+00 
    1.6358688699021366E+00 
    1.5960510964767638E+00 
    1.6547521381001917E+00 
    1.6831847869248986E+00 
    1.5565691849598065E+00 
    1.5170834621088560E+00 
    1.5995111296755284E+00 
    1.6268883179538554E+00 
    1.6929355489125473E+00 
    1.6768371602976027E+00 
    1.7478124967266895E+00 
    1.7536908950766088E+00 
    1.7275865139688173E+00 
    1.7098913162211966E+00 
    1.7605994409598169E+00 
    1.7682746414619885E+00 
    1.9010760909582716E+00 
    1.8742368234288500E+00 
    1.8798625041338748E+00 
    1.9055296547331810E+00 
    1.8423280161998328E+00 
    1.8060096617735419E+00 
    1.8057982669036046E+00 
    1.8464605502840348E+00 
    1.8515802379607280E+00 
    1.8067082355824724E+00 
    1.8087351054491780E+00 
    1.8577989152703773E+00 
    1.9099399549365899E+00 
    1.8861909451109946E+00 
    1.8931903769359253E+00 
    1.9140563348421895E+00 
    1.1121835048357571E+00 
    1.0487572328197698E+00 
    1.0735541147090188E+00 
    1.1338184190818352E+00 
    9.6444124358443251E-01 
    8.5730237888685845E-01 
    9.0929232677386784E-01 
    9.9939555171886407E-01 
    1.0420199810570696E+00 
    9.6476245635210844E-01 
    1.0212780130416435E+00 
    1.0895130973688407E+00 
    1.1666696641736849E+00 
    1.1085735644543613E+00 
    1.1508631625257981E+00 
    1.2071826714046989E+00 
    7.2387460475189902E-01 
    5.5526289111635807E-01 
    7.1144158862201434E-01 
    8.1170777285445472E-01 
    3.2823549129178647E-01 
    0.0000000000000000E+00 
    4.5130677931421070E-01 
    5.9360590817747105E-01 
    7.8382275950146918E-01 
    7.2713254933261495E-01 
    9.1345748665497950E-01 
    9.2944365669518314E-01 
    8.9410407317925034E-01 
    8.4005150485786972E-01 
    9.4941190841098699E-01 
    9.7106398964394891E-01 
    1.2493505593106211E+00 
    1.1871489032610281E+00 
    1.2158452609738168E+00 
    1.2909828436538131E+00 
    1.1205380612935882E+00 
    1.0476066120623762E+00 
    1.0467428396632932E+00 
    1.1353955911112379E+00 
    1.1528488616912773E+00 
    1.0490035899911914E+00 
    1.0545687224124114E+00 
    1.1724170920668424E+00 
    1.3339355916439279E+00 
    1.2463448231262653E+00 
    1.2781702582994297E+00 
    1.3776328137706684E+00 
    1.8949140508452444E+00 
    1.9832315732937607E+00 
    1.9750862725216036E+00 
    1.8938276238810674E+00 
    2.0678696794919884E+00 
    2.1478272006591488E+00 
    2.1272349072347909E+00 
    2.0531254195185848E+00 
    2.0407438562062601E+00 
    2.1084942734450953E+00 
    2.0912523227708064E+00 
    2.0304156653098251E+00 
    1.8950742649997045E+00 
    1.9694948020552143E+00 
    1.9661920545794382E+00 
    1.8985105084888880E+00 
    2.2206218427289359E+00 
    2.2860029015305394E+00 
    2.2504778609284561E+00 
    2.1926161742684593E+00 
    2.3445838215237806E+00 
    2.3959598667266460E+00 
    2.3556061487698483E+00 
    2.3046832770245005E+00 
    2.2633047338580918E+00 
    2.3105298342495129E+00 
    2.2610539424304870E+00 
    2.2201596034017994E+00 
    2.1658797669578047E+00 
    2.2153208372454816E+00 
    2.1800720332545280E+00 
    2.1400144200473803E+00 
    1.9083251267115349E+00 
    1.9767584085653953E+00 
    2.0027295661556517E+00 
    1.9259881946637298E+00 
    2.0402214699128742E+00 
    2.0995275219691023E+00 
    2.1333458551235820E+00 
    2.0710157880477911E+00 
    2.1047688965756373E+00 
    2.1684686579579311E+00 
    2.2057827172138533E+00 
    2.1429507944398201E+00 
    1.9491468217204695E+00 
    2.0334569184583078E+00 
    2.0716914390198933E+00 
    1.9828148075024057E+00 
    1.8035785784775658E+00 
    1.7110874821833315E+00 
    1.7233408462238640E+00 
    1.8087537201015582E+00 
    1.6181317420002033E+00 
    1.5254236206597493E+00 
    1.5527740872175382E+00 
    1.6378651532594171E+00 
    1.6578754215597098E+00 
    1.5802217843414572E+00 
    1.6079218730393454E+00 
    1.6782936672741633E+00 
    1.8154613489063731E+00 
    1.7363389431071978E+00 
    1.7500548841508285E+00 
    1.8235194754517985E+00 
    1.4354815921624926E+00 
    1.3485883030328933E+00 
    1.4020358157244046E+00 
    1.4742705923898629E+00 
    1.2633383152401196E+00 
    1.1804203389291730E+00 
    1.2594403202288340E+00 
    1.3304264104618884E+00 
    1.3991381034044656E+00 
    1.3424016878873246E+00 
    1.4270664932858250E+00 
    1.4689128788276926E+00 
    1.5132290622739093E+00 
    1.4561236431124691E+00 
    1.5107610818119899E+00 
    1.5525284864936799E+00 
    1.8277924145784978E+00 
    1.7511569660575239E+00 
    1.7374229755686292E+00 
    1.8259959895022151E+00 
    1.6779317532443903E+00 
    1.6070159694122890E+00 
    1.5766437347370830E+00 
    1.6552609236239906E+00 
    1.6310336586898699E+00 
    1.5457350283626263E+00 
    1.5142894826758821E+00 
    1.6048088722966847E+00 
    1.8200295879320121E+00 
    1.7205956792268424E+00 
    1.6988554337704589E+00 
    1.8056907694814921E+00 
    1.9819686410384587E+00 
    2.0705723311449034E+00 
    2.0321532603706953E+00 
    1.9480378914292296E+00 
    2.1411095988494964E+00 
    2.2032677477621898E+00 
    2.1663684660309372E+00 
    2.1030600108793136E+00 
    2.0694419321873991E+00 
    2.1315785776369753E+00 
    2.0980512520044834E+00 
    2.0388259612835684E+00 
    1.9246540926855897E+00 
    2.0013520764475325E+00 
    1.9754031651473885E+00 
    1.9069013250854350E+00 
    2.2585940864353886E+00 
    2.3088940917826615E+00 
    2.2618571241628516E+00 
    2.2181467313860059E+00 
    2.3549040291655641E+00 
    2.3959430137796502E+00 
    2.3444174797148687E+00 
    2.3039339976098110E+00 
    2.2497544524575028E+00 
    2.2857791478979044E+00 
    2.2204046233569863E+00 
    2.1919845005923633E+00 
    2.1784064567287724E+00 
    2.2140793751967460E+00 
    2.1648468032416428E+00 
    2.1386433372077129E+00 
    1.8971240620290333E+00 
    1.9649457169898674E+00 
    1.9685009171842991E+00 
    1.8939265041281543E+00 
    2.0292030325779682E+00 
    2.0900170074387443E+00 
    2.1075564028759848E+00 