# vtk DataFile Version 2.0
Pressure Field Data 
ASCII 
DATASET UNSTRUCTURED_GRID 

POINTS 801 double 

    0.0000000000000000E+00     0.0000000000000000E+00     0.0000000000000000E+00 
    1.0000000000000000E+00     0.0000000000000000E+00     0.0000000000000000E+00 
    1.0000000000000000E+00     1.0000000000000000E+00     0.0000000000000000E+00 
    0.0000000000000000E+00     1.0000000000000000E+00     0.0000000000000000E+00 
    2.5000000000000000E-01     2.5000000000000000E-01     0.0000000000000000E+00 
    7.5000000000000000E-01     2.5000000000000000E-01     0.0000000000000000E+00 
    7.5000000000000000E-01     7.5000000000000000E-01     0.0000000000000000E+00 
    2.5000000000000000E-01     7.5000000000000000E-01     0.0000000000000000E+00 
    2.4999999999941941E-01     0.0000000000000000E+00     0.0000000000000000E+00 
    4.9999999999869399E-01     0.0000000000000000E+00     0.0000000000000000E+00 
    7.4999999999934697E-01     0.0000000000000000E+00     0.0000000000000000E+00 
    1.2499999999977940E-01     0.0000000000000000E+00     0.0000000000000000E+00 
    3.7499999999905670E-01     0.0000000000000000E+00     0.0000000000000000E+00 
    6.2499999999902045E-01     0.0000000000000000E+00     0.0000000000000000E+00 
    8.7499999999967348E-01     0.0000000000000000E+00     0.0000000000000000E+00 
    6.2499999999889699E-02     0.0000000000000000E+00     0.0000000000000000E+00 
    1.8749999999959940E-01     0.0000000000000000E+00     0.0000000000000000E+00 
    3.1249999999923811E-01     0.0000000000000000E+00     0.0000000000000000E+00 
    4.3749999999887529E-01     0.0000000000000000E+00     0.0000000000000000E+00 
    5.6249999999885725E-01     0.0000000000000000E+00     0.0000000000000000E+00 
    6.8749999999918376E-01     0.0000000000000000E+00     0.0000000000000000E+00 
    8.1249999999951017E-01     0.0000000000000000E+00     0.0000000000000000E+00 
    9.3749999999983680E-01     0.0000000000000000E+00     0.0000000000000000E+00 
    1.0000000000000000E+00     2.4999999999941941E-01     0.0000000000000000E+00 
    1.0000000000000000E+00     4.9999999999869399E-01     0.0000000000000000E+00 
    1.0000000000000000E+00     7.4999999999934697E-01     0.0000000000000000E+00 
    1.0000000000000000E+00     1.2499999999977940E-01     0.0000000000000000E+00 
    1.0000000000000000E+00     3.7499999999905670E-01     0.0000000000000000E+00 
    1.0000000000000000E+00     6.2499999999902045E-01     0.0000000000000000E+00 
    1.0000000000000000E+00     8.7499999999967348E-01     0.0000000000000000E+00 
    1.0000000000000000E+00     6.2499999999889699E-02     0.0000000000000000E+00 
    1.0000000000000000E+00     1.8749999999959940E-01     0.0000000000000000E+00 
    1.0000000000000000E+00     3.1249999999923811E-01     0.0000000000000000E+00 
    1.0000000000000000E+00     4.3749999999887529E-01     0.0000000000000000E+00 
    1.0000000000000000E+00     5.6249999999885725E-01     0.0000000000000000E+00 
    1.0000000000000000E+00     6.8749999999918376E-01     0.0000000000000000E+00 
    1.0000000000000000E+00     8.1249999999951017E-01     0.0000000000000000E+00 
    1.0000000000000000E+00     9.3749999999983680E-01     0.0000000000000000E+00 
    7.5000000000112044E-01     1.0000000000000000E+00     0.0000000000000000E+00 
    5.0000000000205913E-01     1.0000000000000000E+00     0.0000000000000000E+00 
    2.5000000000102962E-01     1.0000000000000000E+00     0.0000000000000000E+00 
    8.7499999999991362E-01     1.0000000000000000E+00     0.0000000000000000E+00 
    6.2499999999988309E-01     1.0000000000000000E+00     0.0000000000000000E+00 
    3.7499999999869987E-01     1.0000000000000000E+00     0.0000000000000000E+00 
    1.2499999999880820E-01     1.0000000000000000E+00     0.0000000000000000E+00 
    9.3749999999995681E-01     1.0000000000000000E+00     0.0000000000000000E+00 
    8.1250000000051703E-01     1.0000000000000000E+00     0.0000000000000000E+00 
    6.8750000000050182E-01     1.0000000000000000E+00     0.0000000000000000E+00 
    5.6250000000097111E-01     1.0000000000000000E+00     0.0000000000000000E+00 
    4.3750000000037947E-01     1.0000000000000000E+00     0.0000000000000000E+00 
    3.1249999999986477E-01     1.0000000000000000E+00     0.0000000000000000E+00 
    1.8749999999991890E-01     1.0000000000000000E+00     0.0000000000000000E+00 
    6.2499999999404102E-02     1.0000000000000000E+00     0.0000000000000000E+00 
    0.0000000000000000E+00     7.5000000000112044E-01     0.0000000000000000E+00 
    0.0000000000000000E+00     5.0000000000205913E-01     0.0000000000000000E+00 
    0.0000000000000000E+00     2.5000000000102962E-01     0.0000000000000000E+00 
    0.0000000000000000E+00     8.7499999999991362E-01     0.0000000000000000E+00 
    0.0000000000000000E+00     6.2499999999988309E-01     0.0000000000000000E+00 
    0.0000000000000000E+00     3.7499999999869987E-01     0.0000000000000000E+00 
    0.0000000000000000E+00     1.2499999999880820E-01     0.0000000000000000E+00 
    0.0000000000000000E+00     9.3749999999995681E-01     0.0000000000000000E+00 
    0.0000000000000000E+00     8.1250000000051703E-01     0.0000000000000000E+00 
    0.0000000000000000E+00     6.8750000000050182E-01     0.0000000000000000E+00 
    0.0000000000000000E+00     5.6250000000097111E-01     0.0000000000000000E+00 
    0.0000000000000000E+00     4.3750000000037947E-01     0.0000000000000000E+00 
    0.0000000000000000E+00     3.1249999999986477E-01     0.0000000000000000E+00 
    0.0000000000000000E+00     1.8749999999991890E-01     0.0000000000000000E+00 
    0.0000000000000000E+00     6.2499999999404102E-02     0.0000000000000000E+00 
    4.9999999999972200E-01     2.5000000000000000E-01     0.0000000000000000E+00 
    3.7500000000067490E-01     2.5000000000000000E-01     0.0000000000000000E+00 
    6.2500000000042988E-01     2.5000000000000000E-01     0.0000000000000000E+00 
    3.1250000000033751E-01     2.5000000000000000E-01     0.0000000000000000E+00 
    4.3750000000019851E-01     2.5000000000000000E-01     0.0000000000000000E+00 
    5.6250000000007594E-01     2.5000000000000000E-01     0.0000000000000000E+00 
    6.8750000000021494E-01     2.5000000000000000E-01     0.0000000000000000E+00 
    7.5000000000000000E-01     4.9999999999972200E-01     0.0000000000000000E+00 
    7.5000000000000000E-01     3.7500000000067490E-01     0.0000000000000000E+00 
    7.5000000000000000E-01     6.2500000000042988E-01     0.0000000000000000E+00 
    7.5000000000000000E-01     3.1250000000033751E-01     0.0000000000000000E+00 
    7.5000000000000000E-01     4.3750000000019851E-01     0.0000000000000000E+00 
    7.5000000000000000E-01     5.6250000000007594E-01     0.0000000000000000E+00 
    7.5000000000000000E-01     6.8750000000021494E-01     0.0000000000000000E+00 
    5.0000000000118039E-01     7.5000000000000000E-01     0.0000000000000000E+00 
    6.2500000000161415E-01     7.5000000000000000E-01     0.0000000000000000E+00 
    3.7500000000140910E-01     7.5000000000000000E-01     0.0000000000000000E+00 
    6.8750000000080713E-01     7.5000000000000000E-01     0.0000000000000000E+00 
    5.6250000000139733E-01     7.5000000000000000E-01     0.0000000000000000E+00 
    4.3750000000129469E-01     7.5000000000000000E-01     0.0000000000000000E+00 
    3.1250000000070460E-01     7.5000000000000000E-01     0.0000000000000000E+00 
    2.5000000000000000E-01     5.0000000000118039E-01     0.0000000000000000E+00 
    2.5000000000000000E-01     6.2500000000161415E-01     0.0000000000000000E+00 
    2.5000000000000000E-01     3.7500000000140910E-01     0.0000000000000000E+00 
    2.5000000000000000E-01     6.8750000000080713E-01     0.0000000000000000E+00 
    2.5000000000000000E-01     5.6250000000139733E-01     0.0000000000000000E+00 
    2.5000000000000000E-01     4.3750000000129469E-01     0.0000000000000000E+00 
    2.5000000000000000E-01     3.1250000000070460E-01     0.0000000000000000E+00 
    3.7499999999934702E-01     1.2500000000000000E-01     0.0000000000000000E+00 
    1.2500000000000000E-01     1.2500000000000000E-01     0.0000000000000000E+00 
    1.2500000000000000E-01     3.7500000000102962E-01     0.0000000000000000E+00 
    8.7500000000000000E-01     1.2500000000000000E-01     0.0000000000000000E+00 
    6.2499999999934697E-01     1.2500000000000000E-01     0.0000000000000000E+00 
    8.7500000000000000E-01     3.7499999999934702E-01     0.0000000000000000E+00 
    8.7500000000000000E-01     6.2499999999934697E-01     0.0000000000000000E+00 
    1.2500000000000000E-01     6.2500000000102962E-01     0.0000000000000000E+00 
    1.2500000000000000E-01     8.7500000000000000E-01     0.0000000000000000E+00 
    8.7500000000000000E-01     8.7500000000000000E-01     0.0000000000000000E+00 
    6.2500000000102962E-01     8.7500000000000000E-01     0.0000000000000000E+00 
    3.7500000000102962E-01     8.7500000000000000E-01     0.0000000000000000E+00 
    2.4999999999957681E-01     8.3333333333333329E-02     0.0000000000000000E+00 
    8.3333333333333329E-02     2.5000000000068640E-01     0.0000000000000000E+00 
    7.4999999999956468E-01     8.3333333333333329E-02     0.0000000000000000E+00 
    4.9999999999951827E-01     1.6666666666666671E-01     0.0000000000000000E+00 
    9.1666666666666674E-01     2.4999999999957681E-01     0.0000000000000000E+00 
    8.3333333333333337E-01     4.9999999999951827E-01     0.0000000000000000E+00 
    1.6666666666666671E-01     5.0000000000088307E-01     0.0000000000000000E+00 
    8.3333333333333329E-02     7.5000000000070155E-01     0.0000000000000000E+00 
    9.1666666666666674E-01     7.4999999999956468E-01     0.0000000000000000E+00 
    5.0000000000088307E-01     8.3333333333333348E-01     0.0000000000000000E+00 
    2.5000000000068640E-01     9.1666666666666674E-01     0.0000000000000000E+00 
    7.5000000000070155E-01     9.1666666666666674E-01     0.0000000000000000E+00 
[...]
CELL_DATA 768 
SCALARS Pressure double 1 
LOOKUP_TABLE default 

    1.9951230427956452E+00 
    1.9018874221254785E+00 
    1.8719111867086002E+00 
    1.9288380782851935E+00 
    1.8410037771636114E+00 
    1.7947244839108651E+00 
    1.7906345985408900E+00 
    1.8279415212026722E+00 
    1.8144931311996744E+00 
    1.7856816713540189E+00 
    1.7800307647022213E+00 
    1.8010180492935244E+00 
    1.8796426481147295E+00 
    1.8453284562120407E+00 
    1.8215605983100898E+00 
    1.8415924236774295E+00 
    1.7541166674601982E+00 
    1.7153303801596083E+00 
    1.7225735170132213E+00 
    1.7560252792922497E+00 
    1.6763745481369012E+00 
    1.6363098126716067E+00 
    1.6549029388950443E+00 
    1.6891288044519148E+00 
    1.7011913474943181E+00 
    1.6728063905885466E+00 
    1.6897178114035183E+00 
    1.7123360170144104E+00 
    1.7571478504523903E+00 
    1.7291030000987302E+00 
    1.7347733807735670E+00 
    1.7574846675763478E+00 
    1.8099778180180299E+00 
    1.7972547331608275E+00 
    1.7737098005187530E+00 
    1.7832347735992515E+00 
    1.7824773123152295E+00 
    1.7660760043631363E+00 
    1.7456715834933756E+00 
    1.7609538438713732E+00 
    1.7410901748994181E+00 
    1.7259645087642788E+00 
    1.7064683523884201E+00 
    1.7222747753371572E+00 
    1.7610467670834293E+00 
    1.7531311570652461E+00 
    1.7350372998215298E+00 
    1.7433838875886125E+00 
    1.9951678482725990E+00 
    1.9288980930842030E+00 
    1.8721223193316918E+00 
    1.9020868218793701E+00 
    1.8797143467870225E+00 
    1.8416629316669739E+00 
    1.8217547705559549E+00 
    1.8455338028580082E+00 
    1.8148097210166130E+00 
    1.8012883604191119E+00 
    1.7803400776302081E+00 
    1.7860399722816036E+00 
    1.8413403714190679E+00 
    1.8282729764413939E+00 
    1.7910323180571412E+00 
    1.7951322374277563E+00 
    1.8100484952039007E+00 
    1.7832938962550606E+00 
    1.7738545353719908E+00 
    1.7974342349851855E+00 
    1.7610740449047999E+00 
    1.7434213977554092E+00 
    1.7350666762554521E+00 
    1.7532084524594627E+00 
    1.7411518254541123E+00 
    1.7221888917546304E+00 
    1.7062481392165512E+00 
    1.7259447735104096E+00 
    1.7827133786099623E+00 
    1.7611187914422393E+00 
    1.7458090565126834E+00 
    1.7663163397385961E+00 
    1.7544556733885999E+00 
    1.7563497915605630E+00 
    1.7226771392566940E+00 
    1.7153963592842143E+00 
    1.7574380564534029E+00 
    1.7577238268885917E+00 
    1.7348705331915577E+00 
    1.7292018947896399E+00 
    1.7010546363822281E+00 
    1.7122312256321441E+00 
    1.6893740310280800E+00 
    1.6724164295508182E+00 
    1.6761511128638293E+00 
    1.6889531577884882E+00 
    1.6544987648506051E+00 
    1.6358955826421346E+00 
    1.5718534035577401E+00 
    1.5283924714385286E+00 
    1.5133532205753579E+00 
    1.5512609739240701E+00 
    1.4850940285498941E+00 
    1.4436602751451388E+00 
    1.4400736673713375E+00 
    1.4758384956585135E+00 
    1.4656135834458484E+00 
    1.4354562800073438E+00 
    1.4297233965396992E+00 
    1.4541533134557094E+00 
    1.5298433008108321E+00 
    1.4974302951178846E+00 
    1.4802226165822037E+00 
    1.5071545548691525E+00 
    1.4062986378856943E+00 
    1.3752663511680652E+00 
    1.3789080543056660E+00 
    1.4073355080271850E+00 
    1.3525405957100896E+00 
    1.3389979959372524E+00 
    1.3409692652438381E+00 
    1.3565093267530963E+00 
    1.3591947435329141E+00 
    1.3419507732390510E+00 
    1.3421460719398175E+00 
    1.3607304105599576E+00 
    1.4072291511036390E+00 
    1.3811741623803211E+00 
    1.3822432666914224E+00 
    1.4060077602364085E+00 
    1.4809746230806951E+00 
    1.4567272195435110E+00 
    1.4258868174451815E+00 
    1.4498693622649768E+00 
    1.4341423381285074E+00 
    1.4138187626306282E+00 
    1.3891135528197063E+00 
    1.4057176667730586E+00 
    1.3758460309472538E+00 
    1.3651328092056541E+00 
    1.3427380231084720E+00 
    1.3453284963208505E+00 
    1.4124668642483742E+00 
    1.3907429131184896E+00 
    1.3503178871180970E+00 
    1.3620118741312948E+00 
    1.6044298097904461E+00 
    1.5813760593666524E+00 
    1.6036624654497611E+00 
    1.6262767637337701E+00 
    1.5575280658132122E+00 
    1.5326066044969522E+00 
    1.5562377035551138E+00 
    1.5803686203353515E+00 
    1.6028353663211297E+00 
    1.5795117394028413E+00 
    1.6022101669909565E+00 
    1.6247312772048570E+00 
    1.6474701051335523E+00 
    1.6254634130128542E+00 
    1.6465800820723291E+00 
    1.6678084959268824E+00 
    1.5077522110153265E+00 
    1.4828240616391914E+00 
    1.5187215618117655E+00 
    1.5355531465473444E+00 
    1.4559355913640282E+00 
    1.4264271383076075E+00 
    1.4831292182462654E+00 
    1.5012621574786991E+00 
    1.5431977533746390E+00 
    1.5333801568586440E+00 
    1.5794259865805473E+00 
    1.5825058373500862E+00 
    1.5626718841284770E+00 
    1.5529917511465796E+00 
    1.5857043338672849E+00 
    1.5889585566769773E+00 
    1.6856795692021613E+00 
    1.6628502254266242E+00 
    1.6746240837323605E+00 
    1.7009996931370912E+00 
    1.6390938361136684E+00 
    1.6143884461140559E+00 
    1.6167740714568639E+00 
    1.6465030846007795E+00 
    1.6538098564335442E+00 
    1.6192157352128247E+00 
    1.6217212826209226E+00 
    1.6610375275849902E+00 
    1.7149331201531959E+00 
    1.6858739495778767E+00 
    1.6966361173339564E+00 
    1.7273522366514096E+00 
    1.3356344288196820E+00 
    1.3199674965213830E+00 
    1.3145549840615869E+00 
    1.3325886267123019E+00 
    1.2928769556768716E+00 
    1.2550186022277126E+00 
    1.2533567181100569E+00 
    1.2879199235953969E+00 
    1.2839726445944069E+00 
    1.2527111303062428E+00 
    1.2530687194527370E+00 
    1.2810464129265626E+00 
    1.3295264609243131E+00 
    1.3098090095301842E+00 
    1.3057550301154770E+00 
    1.3265359565044612E+00 
    1.2086737756924255E+00 
    1.1552491006791916E+00 
    1.1672425334557177E+00 
    1.2130223759701049E+00 
    1.0967930875984633E+00 
    1.0345762342279112E+00 
    1.0645751979464000E+00 
    1.1174292660930203E+00 
    1.1383309999533804E+00 
    1.0944224396239917E+00 
    1.1245974522677509E+00 
    1.1600291569896657E+00 
    1.2181595995140622E+00 
    1.1798946618345794E+00 
    1.1934872917762684E+00 
    1.2242493582287475E+00 
    1.3223976414038310E+00 
    1.2980330756011089E+00 
    1.2832069489362237E+00 
    1.3158074221370359E+00 
    1.2711475824360730E+00 
    1.2425934938450871E+00 
    1.2171843934320714E+00 
    1.2500559637625834E+00 
    1.2248172721873762E+00 
    1.1887442557402270E+00 
    1.1577753275095959E+00 
    1.1950796105309531E+00 
    1.3067429007058915E+00 
    1.2639223377322077E+00 
    1.2373863451662144E+00 
    1.2912262877050065E+00 
    1.2210127334849297E+00 
    1.1868045008398489E+00 
    1.1303134604150336E+00 
    1.1529564023876626E+00 
    1.1543380725873242E+00 
    1.1229723942507583E+00 
    1.0856403326732484E+00 
    1.1079013414699752E+00 
    1.0612872936833337E+00 
    1.0477451604299843E+00 
    1.0092880858350082E+00 
    1.0141288696180393E+00 
    1.0878403899679874E+00 
    1.0746215955623748E+00 
    1.0187621153635571E+00 
    1.0231724972113798E+00 
    1.0901956735257496E+00 
    1.0556209999188992E+00 
    1.0222418164057008E+00 
    1.0571683309607616E+00 
    1.0209817931839535E+00 
    9.8548709256054434E-01 
    9.5035846284120096E-01 
    9.8678445025383110E-01 
    9.5198767350624336E-01 
    9.1480801847234017E-01 
    8.7942330451680151E-01 
    9.1691435524591880E-01 
    1.0234638870944939E+00 
    9.8809167983423574E-01 
    9.5345664424219168E-01 
    9.8916658587424922E-01 
    9.5836978648399329E-01 
    9.6245292183147679E-01 
    9.0504584376644515E-01 
    8.9240422066711267E-01 
    9.6631341447538788E-01 
    9.7000401853229790E-01 
    9.2979993344979350E-01 
    9.1742078551484696E-01 
    8.6809434360682414E-01 
    8.8882437516958235E-01 
    8.4709798228020627E-01 
    8.1864814936171448E-01 
    8.2782164683828008E-01 
    8.4776697576296178E-01 
    7.9215625538878021E-01 
    7.6793538042629239E-01 
    1.7275345863545122E+00 
    1.6963425543377575E+00 
    1.6853792632115125E+00 
    1.7148471151852143E+00 
    1.6600540957374488E+00 
    1.6201043819353900E+00 
    1.6177471781295865E+00 
    1.6527831935257025E+00 
    1.6454736484353893E+00 
    1.6154433830637536E+00 
    1.6131891744843536E+00 
    1.6380928737243177E+00 
    1.7007035261216306E+00 
    1.6739809465627291E+00 
    1.6621181121533031E+00 
    1.6852201529647008E+00 
    1.5778490924387558E+00 
    1.5325521146354322E+00 
    1.5423167923110912E+00 
    1.5810802553845502E+00 
    1.4832327777795176E+00 
    1.4270435126760492E+00 
    1.4562416552067932E+00 
    1.5010696885797783E+00 
    1.5183308214739386E+00 
    1.4828539905974030E+00 
    1.5075781593646067E+00 
    1.5350590759144112E+00 
    1.5844045139751257E+00 
    1.5520913234224849E+00 
    1.5618031784903994E+00 
    1.5877911124330999E+00 
    1.6672283204181115E+00 
    1.6457664868454522E+00 
    1.6246971576329547E+00 
    1.6468984764854104E+00 
    1.6237335675512825E+00 
    1.6011150579762499E+00 
    1.5786417812078275E+00 
    1.6019803211339043E+00 
    1.5797173305834307E+00 
    1.5556660110285465E+00 
    1.5322736006566671E+00 
    1.5570725672762327E+00 
    1.6257558080106282E+00 
    1.6030532294980560E+00 
    1.5808898940455391E+00 
    1.6039825086517903E+00 
    1.5714797144375219E+00 
    1.5509100179843116E+00 
    1.5131824302741672E+00 
    1.5281772190631666E+00 
    1.5295688714882447E+00 
    1.5070250535845411E+00 
    1.4802604683846723E+00 
    1.4973396023341456E+00 
    1.4656574346799203E+00 
    1.4542781102161715E+00 
    1.4298701546082557E+00 
    1.4355052727478264E+00 
    1.4850177735523025E+00 
    1.4757961862474531E+00 
    1.4400373019876158E+00 
    1.4435577473392254E+00 
    1.4810307210788582E+00 
    1.4501523835514776E+00 
    1.4262566674432990E+00 
    1.4569041492021035E+00 
    1.4129563962648872E+00 
    1.3626232768264315E+00 
    1.3509589158244508E+00 
    1.3912597035445400E+00 
    1.3763173720593052E+00 
    1.3458905680267392E+00 
    1.3431173661856799E+00 
    1.3654593370561421E+00 
    1.4343716451708519E+00 
    1.4060802705566846E+00 
    1.3893941505332215E+00 
    1.4140290608537218E+00 
    1.4061416113799921E+00 
    1.4072418486320575E+00 
    1.3786471815404855E+00 
    1.3748729018145101E+00 
    1.4072191189742151E+00 
    1.4061010857021261E+00 
    1.3823279418029775E+00 
    1.3810704196566037E+00 
    1.3590004490232406E+00 
    1.3607814971213126E+00 
    1.3422047695042367E+00 
    1.3417458952810883E+00 
    1.3520131726037958E+00 
    1.3561235962293514E+00 
    1.3405361620734073E+00 
    1.3384590901142188E+00 
    9.3434265821504769E-01 
    8.6277274845932439E-01 
    8.3862764203893547E-01 
    9.0208868173496670E-01 
    7.8568833202978083E-01 
    6.9987926299700487E-01 
    6.9576824493541334E-01 
    7.7069213454492613E-01 
    7.5724541556701319E-01 
    6.9383305571460518E-01 
    6.9405952660622461E-01 
    7.4585060643155954E-01 
    8.6985813090307806E-01 
    8.1532324497345487E-01 
    7.9359167373968698E-01 
    8.3857555683489127E-01 
    5.9986575601663095E-01 
    4.7270921813602962E-01 
    5.1138463816434521E-01 
    6.1133056330526636E-01 
    2.9113990478351515E-01 
    0.0000000000000000E+00 
    2.1269228860091871E-01 
    3.8472639831180033E-01 
    4.6381115221218433E-01 
    3.6273947898688891E-01 
    4.7542163557022965E-01 
    5.3204400384194184E-01 
    6.2496998840391071E-01 
    5.4981153078152079E-01 
    5.8708864263383098E-01 
    6.4009317581114733E-01 
    8.0673105192757932E-01 
    7.6640721301136283E-01 
    7.3514996519948017E-01 
    7.7595983850808059E-01 
    7.2299116262053076E-01 
    6.7513369388615097E-01 
    6.3590453366463240E-01 
    6.8908523036298441E-01 
    6.5945418944606804E-01 
    5.9859987223383748E-01 
    5.6479614328264949E-01 
    6.3614652168278163E-01 
    7.5064061574327756E-01 
    7.0951337968222206E-01 
    6.9190402260315798E-01 
    7.3382169013280807E-01 
    1.2220188128084957E+00 
    1.1530350960201656E+00 
    1.1300765213862163E+00 
    1.1873936690388094E+00 
    1.0866367952658460E+00 
    1.0208576142620358E+00 
    1.0165674236213884E+00 
    1.0733308712155907E+00 
    1.0599154446350427E+00 
    1.0120846354996322E+00 
    1.0074261856162312E+00 
    1.0464048656654030E+00 
    1.1545755154799944E+00 
    1.1073954943919995E+00 
    1.0849361369241095E+00 
    1.1229051185832237E+00 
    9.5577471228445343E-01 
    8.9082610967722275E-01 
    9.0335325959288792E-01 
    9.6007477691026011E-01 
    8.2744801868224505E-01 
    7.6826979878357282E-01 
    7.9229521848672968E-01 
    8.4710154207147226E-01 
    8.6721502427877839E-01 
    8.1858520043613303E-01 
    8.4686334500589622E-01 
    8.8790191052863543E-01 
    9.6417624680274505E-01 
    9.1581078219121959E-01 
    9.2828075323880810E-01 
    9.6814015051550095E-01 
    1.0898754083287143E+00 
    1.0562823568489388E+00 
    1.0212414509800258E+00 
    1.0550994624677870E+00 
    1.0220772172922286E+00 
    9.8745735765134890E-01 
    9.5196474523774566E-01 
    9.8676755143858164E-01 
    9.5093457385219793E-01 
    9.1587516673931546E-01 
    8.7898505980298136E-01 
    9.1426422407955510E-01 
    1.0204291650516333E+00 
    9.8591330874244199E-01 
    9.4978206650866781E-01 
    9.8503486380305438E-01 
    1.2919674401225676E+00 
    1.2381549270099179E+00 
    1.2647743631819108E+00 
    1.3075046344782277E+00 
    1.1957171443005943E+00 
    1.1582149072624870E+00 
    1.1895532908551676E+00 
    1.2257023011208790E+00 
    1.2510323390124776E+00 
    1.2182504026714274E+00 
    1.2437378272697830E+00 
    1.2721292559882511E+00 
    1.3164936600566119E+00 
    1.2840915254983869E+00 
    1.2988072483539752E+00 
    1.3229280275992028E+00 
    1.1248548208780564E+00 
    1.0944537846590852E+00 
    1.1390072401061011E+00 
    1.1607801407228495E+00 
    1.0643869200090634E+00 
    1.0341929251469097E+00 
    1.0970960413986679E+00 
    1.1179414713467051E+00 
    1.1684306936490685E+00 
    1.1564013142976584E+00 
    1.2102042519203413E+00 
    1.2144895556282149E+00 
    1.1945862921570241E+00 
    1.1810507032696334E+00 
    1.2195380222042800E+00 
    1.2255102637711193E+00 
    1.3267784847880084E+00 
    1.3063225473691666E+00 
    1.3102059863359683E+00 
    1.3295173887650384E+00 
    1.2819495069807709E+00 
    1.2542598284313167E+00 
    1.2539826320655763E+00 
    1.2848483015915539E+00 
    1.2887097481040692E+00 
    1.2547056757296489E+00 
    1.2564112201705859E+00 
    1.2935891506859716E+00 
    1.3323310306976839E+00 
    1.3147722751945534E+00 
    1.3200099602406048E+00 
    1.3352054958283701E+00 
    7.3401588437128162E-01 
    6.9219091169978242E-01 
    7.1026134574658573E-01 
    7.5109932257600676E-01 
    6.3651870652387244E-01 
    5.6520975682467356E-01 
    5.9971279192728477E-01 
    6.6045985308934974E-01 
    6.9051576418106120E-01 
    6.3758426616489672E-01 
    6.7714011499943316E-01 
    7.2462337076814221E-01 
    7.7648027730305280E-01 
    7.3620258508792624E-01 
    7.6749811974091764E-01 
    8.0718324344123560E-01 
    4.7584395901165594E-01 
    3.6310576882604800E-01 
    4.6504866954045443E-01 
    5.3323719265581349E-01 
    2.1292607774926420E-01 
    0.0000000000000000E+00 
    2.9193541695286851E-01 
    3.8580753417356739E-01 
    5.1345212168650212E-01 
    4.7458151800480652E-01 
    6.0268301235444399E-01 
    6.1405834029988915E-01 
    5.8892246654467229E-01 
    5.5180747413957842E-01 
    6.2749824655236419E-01 
    6.4231879939289360E-01 
    8.3883552504175873E-01 
    7.9458056182070502E-01 
    8.1624069851510217E-01 
    8.6995485164144271E-01 
    7.4753161701892812E-01 
    6.9625764696796688E-01 
    6.9627269074422860E-01 
    7.5903237324675943E-01 
    7.7245245147620867E-01 
    6.9836631576718966E-01 
    7.0251542536370326E-01 
    7.8731941071650779E-01 
    9.0201690504218490E-01 
    8.3938162489181234E-01 
    8.6329924337405506E-01 
    9.3410754528572248E-01 
    1.3280398988533282E+00 
    1.3968034057106085E+00 
    1.3902248390520198E+00 
    1.3269118975015222E+00 
    1.4628890904617351E+00 
    1.5255219849344765E+00 
    1.5091943814221151E+00 
    1.4511678756351321E+00 
    1.4411772333586896E+00 
    1.4942327434499081E+00 
    1.4803772261209103E+00 
    1.4326934303088292E+00 
    1.3274111847793453E+00 
    1.3854905324242626E+00 
    1.3824107412006978E+00 
    1.3294434877118555E+00 
    1.5827683397841208E+00 
    1.6344301530530498E+00 
    1.6060341514277547E+00 
    1.5605156286163220E+00 
    1.6810136184997326E+00 
    1.7225948652785779E+00 
    1.6896367142006852E+00 
    1.6488363059040358E+00 
    1.6154991256705484E+00 
    1.6530581438367773E+00 
    1.6132340321768741E+00 
    1.5808797580785714E+00 
    1.5391984243471586E+00 
    1.5778932672769297E+00 
    1.5496978149608900E+00 
    1.5185276337808753E+00 
    1.3363205337227033E+00 
    1.3900913809669666E+00 
    1.4098276164395924E+00 
    1.3492683376426420E+00 
    1.4399179843060910E+00 
    1.4865047433878198E+00 
    1.5126623004110806E+00 
    1.4635786604658616E+00 
    1.4895512610508075E+00 
    1.5398179243168377E+00 
    1.5692935246285642E+00 
    1.5198825315712177E+00 
    1.3665018876417103E+00 
    1.4333246442599976E+00 
    1.4640641368977774E+00 
    1.3939187072650698E+00 
    1.2572372450135363E+00 
    1.1856727445523512E+00 
    1.1950440869436720E+00 
    1.2611321837208682E+00 
    1.1139924483859087E+00 
    1.0427683191344626E+00 
    1.0637005784229405E+00 
    1.1291138657326625E+00 
    1.1442827719773685E+00 
    1.0845787657504733E+00 
    1.1055283219499881E+00 
    1.1596018096047978E+00 
    1.2660007558310191E+00 
    1.2047960228495351E+00 
    1.2149096982961365E+00 
    1.2717067812343765E+00 
    9.7395515982985281E-01 
    9.0778055419716963E-01 
    9.4836312874862949E-01 
    1.0035472658374620E+00 
    8.4320879329288712E-01 
    7.8068111619682790E-01 
    8.3996234796064140E-01 
    8.9385943670455237E-01 
    9.4569556192143656E-01 
    9.0221722724045195E-01 
    9.6599728120903283E-01 
    9.9837802315501811E-01 
    1.0331613343642019E+00 
    9.8933768366330987E-01 
    1.0306809051594672E+00 
    1.0629429887568298E+00 
    1.2742743942251740E+00 
    1.2151000727194021E+00 
    1.2036249132260486E+00 
    1.2719001309341484E+00 
    1.1587813913829605E+00 
    1.1044202531542655E+00 
    1.0806666969806906E+00 
    1.1406661933924109E+00 
    1.1212003069470100E+00 
    1.0564502618492657E+00 
    1.0316652943741946E+00 
    1.0998826214184079E+00 
    1.2659954429814426E+00 
    1.1894971201040359E+00 
    1.1710891150981373E+00 
    1.2531902300584983E+00 
    1.3945488838858984E+00 
    1.4641573316617182E+00 
    1.4331488105231882E+00 
    1.3667528870009871E+00 
    1.5190684874002989E+00 
    1.5677265818082768E+00 
    1.5385841037856094E+00 
    1.4888043523312442E+00 
    1.4628940694741910E+00 
    1.5116820655287031E+00 
    1.4857339938735945E+00 
    1.4393211869035389E+00 
    1.3491718783789428E+00 
    1.4094853755564662E+00 
    1.3896620932474710E+00 
    1.3359915995157887E+00 
    1.6116176408206402E+00 
    1.6520748976528303E+00 
    1.6146246541479321E+00 
    1.5796162672462688E+00 
    1.6893505805842968E+00 
    1.7227539420903151E+00 
    1.6809871194457555E+00 
    1.6484487896742108E+00 
    1.6056261110118857E+00 
    1.6343222553317305E+00 
    1.5826471529823356E+00 
    1.5601557441643636E+00 
    1.5487012655126002E+00 
    1.5771544529024590E+00 
    1.5386051385981918E+00 
    1.5177521011104935E+00 
    1.3289759459148318E+00 
    1.3819373401694470E+00 
    1.3850689398769032E+00 
    1.3269571380041822E+00 
    1.4321467337414833E+00 
    1.4797315775463360E+00 
    1.4937264766365543E+00 