# vtk DataFile Version 2.0
Pressure Field Data 
ASCII 
DATASET UNSTRUCTURED_GRID 

POINTS 801 double 

    0.0000000000000000E+00     0.0000000000000000E+00     0.0000000000000000E+00 
    1.0000000000000000E+00     0.0000000000000000E+00     0.0000000000000000E+00 
    1.0000000000000000E+00     1.0000000000000000E+00     0.0000000000000000E+00 
    0.0000000000000000E+00     1.0000000000000000E+00     0.0000000000000000E+00 
    2.5000000000000000E-01     2.5000000000000000E-01     0.0000000000000000E+00 
    7.5000000000000000E-01     2.5000000000000000E-01     0.0000000000000000E+00 
    7.5000000000000000E-01     7.5000000000000000E-01     0.0000000000000000E+00 
    2.5000000000000000E-01     7.5000000000000000E-01     0.0000000000000000E+00 
    2.4999999999941941E-01     0.0000000000000000E+00     0.0000000000000000E+00 
    4.9999999999869399E-01     0.0000000000000000E+00     0.0000000000000000E+00 
    7.4999999999934697E-01     0.0000000000000000E+00     0.0000000000000000E+00 
    1.2499999999977940E-01     0.0000000000000000E+00     0.0000000000000000E+00 
    3.7499999999905670E-01     0.0000000000000000E+00     0.0000000000000000E+00 
    6.2499999999902045E-01     0.0000000000000000E+00     0.0000000000000000E+00 
    8.7499999999967348E-01     0.0000000000000000E+00     0.0000000000000000E+00 
    6.2499999999889699E-02     0.0000000000000000E+00     0.0000000000000000E+00 
    1.8749999999959940E-01     0.0000000000000000E+00     0.0000000000000000E+00 
    3.1249999999923811E-01     0.0000000000000000E+00     0.0000000000000000E+00 
    4.3749999999887529E-01     0.0000000000000000E+00     0.0000000000000000E+00 
    5.6249999999885725E-01     0.0000000000000000E+00     0.0000000000000000E+00 
    6.8749999999918376E-01     0.0000000000000000E+00     0.0000000000000000E+00 
    8.1249999999951017E-01     0.0000000000000000E+00     0.0000000000000000E+00 
    9.3749999999983680E-01     0.0000000000000000E+00     0.0000000000000000E+00 
    1.0000000000000000E+00     2.4999999999941941E-01     0.0000000000000000E+00 
    1.0000000000000000E+00     4.9999999999869399E-01     0.0000000000000000E+00 
    1.0000000000000000E+00     7.4999999999934697E-01     0.0000000000000000E+00 
    1.0000000000000000E+00     1.2499999999977940E-01     0.0000000000000000E+00 
    1.0000000000000000E+00     3.7499999999905670E-01     0.0000000000000000E+00 
    1.0000000000000000E+00     6.2499999999902045E-01     0.0000000000000000E+00 
    1.0000000000000000E+00     8.7499999999967348E-01     0.0000000000000000E+00 
    1.0000000000000000E+00     6.2499999999889699E-02     0.0000000000000000E+00 
    1.0000000000000000E+00     1.8749999999959940E-01     0.0000000000000000E+00 
    1.0000000000000000E+00     3.1249999999923811E-01     0.0000000000000000E+00 
    1.0000000000000000E+00     4.3749999999887529E-01     0.0000000000000000E+00 
    1.0000000000000000E+00     5.6249999999885725E-01     0.0000000000000000E+00 
    1.0000000000000000E+00     6.8749999999918376E-01     0.0000000000000000E+00 
    1.0000000000000000E+00     8.1249999999951017E-01     0.0000000000000000E+00 
    1.0000000000000000E+00     9.3749999999983680E-01     0.0000000000000000E+00 
    7.5000000000112044E-01     1.0000000000000000E+00     0.0000000000000000E+00 
    5.0000000000205913E-01     1.0000000000000000E+00     0.0000000000000000E+00 
    2.5000000000102962E-01     1.0000000000000000E+00     0.0000000000000000E+00 
    8.7499999999991362E-01     1.0000000000000000E+00     0.0000000000000000E+00 
    6.2499999999988309E-01     1.0000000000000000E+00     0.0000000000000000E+00 
    3.7499999999869987E-01     1.0000000000000000E+00     0.0000000000000000E+00 
    1.2499999999880820E-01     1.0000000000000000E+00     0.0000000000000000E+00 
    9.3749999999995681E-01     1.0000000000000000E+00     0.0000000000000000E+00 
    8.1250000000051703E-01     1.0000000000000000E+00     0.0000000000000000E+00 
    6.8750000000050182E-01     1.0000000000000000E+00     0.0000000000000000E+00 
    5.6250000000097111E-01     1.0000000000000000E+00     0.0000000000000000E+00 
    4.3750000000037947E-01     1.0000000000000000E+00     0.0000000000000000E+00 
    3.1249999999986477E-01     1.0000000000000000E+00     0.0000000000000000E+00 
    1.8749999999991890E-01     1.0000000000000000E+00     0.0000000000000000E+00 
    6.2499999999404102E-02     1.0000000000000000E+00     0.0000000000000000E+00 
    0.0000000000000000E+00     7.5000000000112044E-01     0.0000000000000000E+00 
    0.0000000000000000E+00     5.0000000000205913E-01     0.0000000000000000E+00 
    0.0000000000000000E+00     2.5000000000102962E-01     0.0000000000000000E+00 
    0.0000000000000000E+00     8.7499999999991362E-01     0.0000000000000000E+00 
    0.0000000000000000E+00     6.2499999999988309E-01     0.0000000000000000E+00 
    0.0000000000000000E+00     3.7499999999869987E-01     0.0000000000000000E+00 
    0.0000000000000000E+00     1.2499999999880820E-01     0.0000000000000000E+00 
    0.0000000000000000E+00     9.3749999999995681E-01     0.0000000000000000E+00 
    0.0000000000000000E+00     8.1250000000051703E-01     0.0000000000000000E+00 
    0.0000000000000000E+00     6.8750000000050182E-01     0.0000000000000000E+00 
    0.0000000000000000E+00     5.6250000000097111E-01     0.0000000000000000E+00 
    0.0000000000000000E+00     4.3750000000037947E-01     0.0000000000000000E+00 
    0.0000000000000000E+00     3.1249999999986477E-01     0.0000000000000000E+00 
    0.0000000000000000E+00     1.8749999999991890E-01     0.0000000000000000E+00 
    0.0000000000000000E+00     6.2499999999404102E-02     0.0000000000000000E+00 
    4.9999999999972200E-01     2.5000000000000000E-01     0.0000000000000000E+00 
    3.7500000000067490E-01     2.5000000000000000E-01     0.0000000000000000E+00 
    6.2500000000042988E-01     2.5000000000000000E-01     0.0000000000000000E+00 
    3.1250000000033751E-01     2.5000000000000000E-01     0.0000000000000000E+00 
    4.3750000000019851E-01     2.5000000000000000E-01     0.0000000000000000E+00 
    5.6250000000007594E-01     2.5000000000000000E-01     0.0000000000000000E+00 
    6.8750000000021494E-01     2.5000000000000000E-01     0.0000000000000000E+00 
    7.5000000000000000E-01     4.9999999999972200E-01     0.0000000000000000E+00 
    7.5000000000000000E-01     3.7500000000067490E-01     0.0000000000000000E+00 
    7.5000000000000000E-01     6.2500000000042988E-01     0.0000000000000000E+00 
    7.5000000000000000E-01     3.1250000000033751E-01     0.0000000000000000E+00 
    7.5000000000000000E-01     4.3750000000019851E-01     0.0000000000000000E+00 
    7.5000000000000000E-01     5.6250000000007594E-01     0.0000000000000000E+00 
    7.5000000000000000E-01     6.8750000000021494E-01     0.0000000000000000E+00 
    5.0000000000118039E-01     7.5000000000000000E-01     0.0000000000000000E+00 
    6.2500000000161415E-01     7.5000000000000000E-01     0.0000000000000000E+00 
    3.7500000000140910E-01     7.5000000000000000E-01     0.0000000000000000E+00 
    6.8750000000080713E-01     7.5000000000000000E-01     0.0000000000000000E+00 
    5.6250000000139733E-01     7.5000000000000000E-01     0.0000000000000000E+00 
    4.3750000000129469E-01     7.5000000000000000E-01     0.0000000000000000E+00 
    3.1250000000070460E-01     7.5000000000000000E-01     0.0000000000000000E+00 
    2.5000000000000000E-01     5.0000000000118039E-01     0.0000000000000000E+00 
    2.5000000000000000E-01     6.2500000000161415E-01     0.0000000000000000E+00 
    2.5000000000000000E-01     3.7500000000140910E-01     0.0000000000000000E+00 
    2.5000000000000000E-01     6.8750000000080713E-01     0.0000000000000000E+00 
    2.5000000000000000E-01     5.6250000000139733E-01     0.0000000000000000E+00 
    2.5000000000000000E-01     4.3750000000129469E-01     0.0000000000000000E+00 
    2.5000000000000000E-01     3.1250000000070460E-01     0.0000000000000000E+00 
    3.7499999999934702E-01     1.2500000000000000E-01     0.0000000000000000E+00 
    1.2500000000000000E-01     1.2500000000000000E-01     0.0000000000000000E+00 
    1.2500000000000000E-01     3.7500000000102962E-01     0.0000000000000000E+00 
    8.7500000000000000E-01     1.2500000000000000E-01     0.0000000000000000E+00 
    6.2499999999934697E-01     1.2500000000000000E-01     0.0000000000000000E+00 
    8.7500000000000000E-01     3.7499999999934702E-01     0.0000000000000000E+00 
    8.7500000000000000E-01     6.2499999999934697E-01     0.0000000000000000E+00 
    1.2500000000000000E-01     6.2500000000102962E-01     0.0000000000000000E+00 
    1.2500000000000000E-01     8.7500000000000000E-01     0.0000000000000000E+00 
    8.7500000000000000E-01     8.7500000000000000E-01     0.0000000000000000E+00 
    6.2500000000102962E-01     8.7500000000000000E-01     0.0000000000000000E+00 
    3.7500000000102962E-01     8.7500000000000000E-01     0.0000000000000000E+00 
    2.4999999999957681E-01     8.3333333333333329E-02     0.0000000000000000E+00 
    8.3333333333333329E-02     2.5000000000068640E-01     0.0000000000000000E+00 
    7.4999999999956468E-01     8.3333333333333329E-02     0.0000000000000000E+00 
    4.9999999999951827E-01     1.6666666666666671E-01     0.0000000000000000E+00 
    9.1666666666666674E-01     2.4999999999957681E-01     0.0000000000000000E+00 
    8.3333333333333337E-01     4.9999999999951827E-01     0.0000000000000000E+00 
    1.6666666666666671E-01     5.0000000000088307E-01     0.0000000000000000E+00 
    8.3333333333333329E-02     7.5000000000070155E-01     0.0000000000000000E+00 
    9.1666666666666674E-01     7.4999999999956468E-01     0.0000000000000000E+00 
    5.0000000000088307E-01     8.3333333333333348E-01     0.0000000000000000E+00 
    2.5000000000068640E-01     9.1666666666666674E-01     0.0000000000000000E+00 
    7.5000000000070155E-01     9.1666666666666674E-01     0.0000000000000000E+00 
[...]
CELL_DATA 768 
SCALARS Pressure double 1 
LOOKUP_TABLE default 

    3.8720135081607112E+00 
    3.7519362889909540E+00 
    3.7033897296968168E+00 
    3.7909016126619637E+00 
    3.6421177025164648E+00 
    3.5257895229023251E+00 
    3.5140162086790045E+00 
    3.6123714915395664E+00 
    3.5782078718420269E+00 
    3.4990687366682458E+00 
    3.4805438384112644E+00 
    3.5417023503255232E+00 
    3.7153040537737931E+00 
    3.6499693497982864E+00 
    3.5938005069478995E+00 
    3.6387620944721939E+00 
    3.3907053587772373E+00 
    3.2437354950549691E+00 
    3.2689348504105711E+00 
    3.3973578292440849E+00 
    3.1158288984223508E+00 
    2.9941491531358415E+00 
    3.0496044132365818E+00 
    3.1563211769637443E+00 
    3.1950659675289796E+00 
    3.1041055537555859E+00 
    3.1563899467324146E+00 
    3.2308497512848415E+00 
    3.4005549367697125E+00 
    3.2912319503614400E+00 
    3.3098405519942213E+00 
    3.3996052969033443E+00 
    3.5630300673374333E+00 
    3.5291002294736757E+00 
    3.4467453147482074E+00 
    3.4778087245846181E+00 
    3.4855788641084993E+00 
    3.4302718720811538E+00 
    3.3478733461204939E+00 
    3.4028686206258310E+00 
    3.3253812930465525E+00 
    3.2751932887962085E+00 
    3.2089111020759877E+00 
    3.2589284984013993E+00 
    3.3905027037599207E+00 
    3.3649316846372344E+00 
    3.2988838690706777E+00 
    3.3238859003837500E+00 
    3.8720778809099508E+00 
    3.7909988598425186E+00 
    3.7037213438533994E+00 
    3.7522236980651980E+00 
    3.7154380416831860E+00 
    3.6388825881522568E+00 
    3.5940465552879046E+00 
    3.6502991488445220E+00 
    3.5786680919275899E+00 
    3.5419586660547422E+00 
    3.4814103255171753E+00 
    3.4999766136576929E+00 
    3.6426403179984361E+00 
    3.6129041174319134E+00 
    3.5150439342234714E+00 
    3.5268280789032551E+00 
    3.5632310331167716E+00 
    3.4781705428368408E+00 
    3.4477576078956287E+00 
    3.5296523920485647E+00 
    3.3904982775468264E+00 
    3.3239376174141140E+00 
    3.2990906634727000E+00 
    3.3650799113570207E+00 
    3.3260831005156004E+00 
    3.2593685133031922E+00 
    3.2095364674559068E+00 
    3.2763185040959146E+00 
    3.4865976268278525E+00 
    3.4045326364974975E+00 
    3.3500535256700852E+00 
    3.4323330217792547E+00 
    3.3930329440699452E+00 
    3.3996357429555024E+00 
    3.2711440492102586E+00 
    3.2458505256749151E+00 
    3.4028294311155545E+00 
    3.4019823834795773E+00 
    3.3120843891317255E+00 
    3.2934665016226563E+00 
    3.1963472294637243E+00 
    3.2320716127251004E+00 
    3.1570022504807280E+00 
    3.1047054618104695E+00 
    3.1169277671727542E+00 
    3.1575431875822657E+00 
    3.0501841387135258E+00 
    2.9946947425278081E+00 
    2.8139639332680479E+00 
    2.7002743039322348E+00 
    2.6622078932475399E+00 
    2.7597577866447915E+00 
    2.5912616072937840E+00 
    2.4902972719902658E+00 
    2.4820489516481152E+00 
    2.5687515999022219E+00 
    2.5444691634426091E+00 
    2.4717559061030192E+00 
    2.4592598290305330E+00 
    2.5178802981188038E+00 
    2.7048463787329675E+00 
    2.6228698029726809E+00 
    2.5814433179096414E+00 
    2.6483561782952831E+00 
    2.4017110624907527E+00 
    2.3297563386444353E+00 
    2.3387255524024484E+00 
    2.4045694846925421E+00 
    2.2779773681651658E+00 
    2.2477203201634608E+00 
    2.2528832735793309E+00 
    2.2876919840786019E+00 
    2.2952501380412600E+00 
    2.2568045759965685E+00 
    2.2597826855717629E+00 
    2.3008639024373205E+00 
    2.4051697766475009E+00 
    2.3451009754917491E+00 
    2.3492224769308874E+00 
    2.4035668075845509E+00 
    2.5851229062552288E+00 
    2.5259707229926329E+00 
    2.4548297591614721E+00 
    2.5122578163759623E+00 
    2.4715394742545302E+00 
    2.4229895920908531E+00 
    2.3667987600256644E+00 
    2.4066243128286313E+00 
    2.3400739342007153E+00 
    2.3133351682842282E+00 
    2.2643499846327915E+00 
    2.2737488749974193E+00 
    2.4273336753651575E+00 
    2.3760588452388660E+00 
    2.2881832207159549E+00 
    2.3158580011737500E+00 
    2.9033429807682825E+00 
    2.8401804365886276E+00 
    2.9015029171472824E+00 
    2.9654536495698163E+00 
    2.7769289690899917E+00 
    2.7129552194401070E+00 
    2.7741905411744980E+00 
    2.8379332407685811E+00 
    2.8993133705416869E+00 
    2.8358596259117235E+00 
    2.8976054517042895E+00 
    2.9606517191402641E+00 
    3.0272130964139659E+00 
    2.9629636178837839E+00 
    3.0239225164945789E+00 
    3.0877754137182736E+00 
    2.6512798026037556E+00 
    2.5912759865176960E+00 
    2.6793770051622294E+00 
    2.7213552121397306E+00 
    2.5283586570005130E+00 
    2.4610983301292242E+00 
    2.5929582812582188E+00 
    2.6366254037151746E+00 
    2.7414262152559008E+00 
    2.7165005420109192E+00 
    2.8358020834287476E+00 
    2.8441040701273197E+00 
    2.7915041279558044E+00 
    2.7664677016832449E+00 
    2.8526998610351333E+00 
    2.8615302879304920E+00 
    3.1419727628153660E+00 
    3.0718491841728350E+00 
    3.1067884283939646E+00 
    3.1888433862204111E+00 
    3.0017906145667550E+00 
    2.9316040905076104E+00 
    2.9382760511898645E+00 
    3.0231098120354374E+00 
    3.0443248277212485E+00 
    2.9451551125691844E+00 
    2.9523273947256490E+00 
    3.0655890180635508E+00 
    3.2315688768578008E+00 
    3.1404674553342891E+00 
    3.1730775703853840E+00 
    3.2696346694556975E+00 
    2.2405731212502888E+00 
    2.2096792950216613E+00 
    2.1995014052348476E+00 
    2.2349659532945760E+00 
    2.1568383923683707E+00 
    2.0837049139120487E+00 
    2.0807462604192013E+00 
    2.1475713521099018E+00 
    2.1408138413155440E+00 
    2.0800783109059759E+00 
    2.0816092870619434E+00 
    2.1364106907435985E+00 
    2.2303783967757300E+00 
    2.1914302269992176E+00 
    2.1852660748357997E+00 
    2.2267324203794101E+00 
    1.9945697979798305E+00 
    1.8937897047526697E+00 
    1.9162606879636324E+00 
    2.0028740673771903E+00 
    1.7855682274890989E+00 
    1.6727634510781548E+00 
    1.7267800309935124E+00 
    1.8234642725460100E+00 
    1.8626876154333358E+00 
    1.7815347975480234E+00 
    1.8378135613208642E+00 
    1.9040639666357269E+00 
    2.0132150138092446E+00 
    1.9406173410433440E+00 
    1.9672475697278249E+00 
    2.0257895290674881E+00 
    2.2214218103659253E+00 
    2.1722022013744908E+00 
    2.1451957062777010E+00 
    2.2116453768475104E+00 
    2.1184979086301214E+00 
    2.0621082198827083E+00 
    2.0136124097501882E+00 
    2.0785834551540794E+00 
    2.0305412508143923E+00 
    1.9595171721015077E+00 
    1.9008877267129420E+00 
    1.9735445292614253E+00 
    2.1971360593919878E+00 
    2.1092921258479658E+00 
    2.0583055786175071E+00 
    2.1696768328135998E+00 
    2.0247765516059761E+00 
    1.9578026180950814E+00 
    1.8505161365940401E+00 
    1.8938625739720671E+00 
    1.8951871271207008E+00 
    1.8354693732984404E+00 
    1.7662707172606622E+00 
    1.8080326248133094E+00 
    1.7220277215968463E+00 
    1.6969677830442906E+00 
    1.6276149029161675E+00 
    1.6365560353385471E+00 
    1.7716277665077209E+00 
    1.7468669236534038E+00 
    1.6451520584451933E+00 
    1.6533388105166786E+00 
    1.7740364885836684E+00 
    1.7102572090471009E+00 
    1.6499758819351207E+00 
    1.7135787631877899E+00 
    1.6470002115737012E+00 
    1.5837339773049091E+00 
    1.5219227399078581E+00 
    1.5861834193110254E+00 
    1.5251543672091170E+00 
    1.4602914609950919E+00 
    1.3996690596797443E+00 
    1.4642302605293631E+00 
    1.6526316166511197E+00 
    1.5890977019145760E+00 
    1.5280475811468257E+00 
    1.5913310120371973E+00 
    1.5371678027396511E+00 
    1.5443112083915975E+00 
    1.4442833927941190E+00 
    1.4226520967927250E+00 
    1.5510602935274016E+00 
    1.5574852356609497E+00 
    1.4868793746719224E+00 
    1.4655432494038247E+00 
    1.3808309348215451E+00 
    1.4160267666511326E+00 
    1.3449886863099243E+00 
    1.2974047326225149E+00 
    1.3132890861566595E+00 
    1.3465648373324546E+00 
    1.2536423610303975E+00 
    1.2144659948117595E+00 
    3.2697812746985786E+00 
    3.1729344230337491E+00 
    3.1402056861385157E+00 
    3.2316436271917945E+00 
    3.0648681087942680E+00 
    2.9511403247976458E+00 
    2.9439855656595277E+00 
    3.0435335147044498E+00 
    3.0223214383181185E+00 
    2.9371819353687383E+00 
    2.9306490484358401E+00 
    3.0010921265510149E+00 
    3.1889407567651551E+00 
    3.1064458470909844E+00 
    3.0715356639163405E+00 
    3.1421019551852658E+00 
    2.8346929511842771E+00 
    2.7159693125841580E+00 
    2.7408260248017560E+00 
    2.8430282497168209E+00 
    2.5931721899275542E+00 
    2.4619030703729705E+00 
    2.5289730810851903E+00 
    2.6366608315111852E+00 
    2.6792829044377617E+00 
    2.5917115396024193E+00 
    2.6515460510139146E+00 
    2.7211839828559059E+00 
    2.8516963814311991E+00 
    2.7658550725096691E+00 
    2.7909325141278760E+00 
    2.8606565724229132E+00 
    3.0878782490390919E+00 
    3.0236039973062727E+00 
    2.9627223948066188E+00 
    3.0273704519081175E+00 
    2.9600363126583211E+00 
    2.8968197712680412E+00 
    2.8353144024162615E+00 
    2.8988885659124000E+00 
    2.8377504664464843E+00 
    2.7740134924853534E+00 
    2.7131417784495144E+00 
    2.7770917079777822E+00 
    2.9656955046641862E+00 
    2.9015206299094145E+00 
    2.8404277424906397E+00 
    2.9037419831489069E+00 
    2.8144560816904636E+00 
    2.7602272602950046E+00 
    2.6629006446601271E+00 
    2.7009440617236820E+00 
    2.7053247091166290E+00 
    2.6488967550413718E+00 
    2.5822439612301413E+00 
    2.6235951305984910E+00 
    2.5453296700739640E+00 
    2.5187772504990678E+00 
    2.4600841053219837E+00 
    2.4724569439662973E+00 
    2.5920200735125158E+00 
    2.5695203452085065E+00 
    2.4826219837186954E+00 
    2.4907536235639882E+00 
    2.5857541259420960E+00 
    2.5130484243933715E+00 
    2.4557864671186755E+00 
    2.5268016456280948E+00 
    2.4282497610138285E+00 
    2.3168755703233850E+00 
    2.2893031986787489E+00 
    2.3770865792297093E+00 
    2.3410432056839401E+00 
    2.2747400919904850E+00 
    2.2649982206521990E+00 
    2.3140029986042352E+00 
    2.4724432322887320E+00 
    2.4075660648004873E+00 
    2.3675332257873460E+00 
    2.4237756575047085E+00 
    2.4018078788847195E+00 
    2.4047906511700421E+00 
    2.3384108379471304E+00 
    2.3291538533815195E+00 
    2.4055364506709589E+00 
    2.4041005491596157E+00 
    2.3495642868463262E+00 
    2.3450878132289992E+00 
    2.2949238192125820E+00 
    2.3009941938421594E+00 
    2.2598288749735893E+00 
    2.2563716297696885E+00 
    2.2769923439938076E+00 
    2.2869909272762223E+00 
    2.2520242908470718E+00 
    2.2466638428796784E+00 
    1.4927493213142089E+00 
    1.3702968268629407E+00 
    1.3297912832815353E+00 
    1.4372368561215936E+00 
    1.2416782303232445E+00 
    1.1019229226860350E+00 
    1.0952577320787480E+00 
    1.2170774836281795E+00 
    1.1951160731760238E+00 
    1.0920196442271091E+00 
    1.0921551674314016E+00 
    1.1764716750046333E+00 
    1.3827076493756820E+00 
    1.2910839688374283E+00 
    1.2551487282290010E+00 
    1.3302578313106084E+00 
    9.4119711075558921E-01 
    7.3976766394117455E-01 
    7.9937407092766277E-01 
    9.5882864267668844E-01 
    4.5480565683928248E-01 
    0.0000000000000000E+00 
    3.2573164402509464E-01 
    5.9820389495567416E-01 
    7.2310699734463413E-01 
    5.6365219625816576E-01 
    7.4253785266208661E-01 
    8.3163803574911555E-01 
    9.8025828789534775E-01 
    8.5992939727672213E-01 
    9.1931664078547870E-01 
    1.0045110053081090E+00 
    1.2771649481230174E+00 
    1.2102447010584072E+00 
    1.1588593042903248E+00 
    1.2261543385401432E+00 
    1.1389835276617088E+00 
    1.0611568845535262E+00 
    9.9774468823421847E-01 
    1.0837171495565063E+00 
    1.0360212808003331E+00 
    9.3818161573184011E-01 
    8.8483865207401380E-01 
    9.9913920596296324E-01 
    1.1848007990600840E+00 
    1.1172891681769594E+00 
    1.0895285192319195E+00 
    1.1587106598349253E+00 
    2.0255282903928644E+00 
    1.8936410243140089E+00 
    1.8499676251077382E+00 
    1.9582760070140086E+00 
    1.7699353205871293E+00 
    1.6503290158729500E+00 
    1.6420633656299977E+00 
    1.7449944701957261E+00 
    1.7199950398266630E+00 
    1.6335532811314657E+00 
    1.6248434849325344E+00 
    1.6950213564789123E+00 
    1.8954005654339994E+00 
    1.8072196027721843E+00 
    1.7652958848471136E+00 
    1.8354473709285755E+00 
    1.5335311789292210E+00 
    1.4200176159684521E+00 
    1.4415126354866417E+00 
    1.5408231920093078E+00 
    1.3120359605206853E+00 
    1.2143987572051953E+00 
    1.2534639150968183E+00 
    1.3451352701679347E+00 
    1.3792949926265288E+00 
    1.2971602222656828E+00 
    1.3446888978233338E+00 
    1.4146266908132488E+00 
    1.5478577042461250E+00 
    1.4630048770932453E+00 
    1.4845748629184889E+00 
    1.5547045311774017E+00 
    1.7738212287539448E+00 
    1.7124792761003160E+00 
    1.6488063278052725E+00 
    1.7098767012850100E+00 
    1.6506958682804787E+00 
    1.5888320914748812E+00 
    1.5258823803276094E+00 
    1.5873109538467092E+00 
    1.5238326691956159E+00 
    1.4627848519270961E+00 
    1.3992067319097896E+00 
    1.4598172904813040E+00 
    1.6466609910428289E+00 
    1.5852938520405726E+00 
    1.5215190092549733E+00 
    1.5835289788532096E+00 
    2.1706978095707563E+00 
    2.0592812447749353E+00 
    2.1105586858672214E+00 
    2.1983248261133945E+00 
    1.9744397626293027E+00 
    1.9016606165726253E+00 
    1.9608687771719502E+00 
    2.0319097862091087E+00 
    2.0801385030732611E+00 
    2.0153615034739270E+00 
    2.0639769122739269E+00 
    2.1200757937354822E+00 
    2.2127646291788379E+00 
    2.1465974568861808E+00 
    2.1734287378721371E+00 
    2.2222663512366392E+00 
    1.8384792325743919E+00 
    1.7820142524116640E+00 
    1.8640778481514804E+00 
    1.9054497424563683E+00 
    1.7270823573297418E+00 
    1.6728002221307914E+00 
    1.7866196187645926E+00 
    1.8247155408977518E+00 
    1.9183582641999384E+00 
    1.8958543507915071E+00 
    1.9970922923916925E+00 
    2.0053003504454177E+00 
    1.9691146700712592E+00 
    1.9426222283877230E+00 
    2.0155015415336557E+00 
    2.0278784434908319E+00 
    2.2270383201333050E+00 
    2.1861063555375306E+00 
    2.1919813983902356E+00 
    2.2302500145274222E+00 
    2.1378337150116105E+00 
    2.0835568910042124E+00 
    2.0821570378747181E+00 
    2.1421907800936109E+00 
    2.1488118919444719E+00 
    2.0829491682650345E+00 
    2.0859785705493756E+00 
    2.1579703582420882E+00 
    2.2344108625442933E+00 
    2.1997655327461305E+00 
    2.2096584263071639E+00 
    2.2397220680133842E+00 
    1.1589147899357344E+00 
    1.0899985339861689E+00 
    1.1185262874903539E+00 
    1.1853945223034021E+00 
    9.9978831528709189E-01 
    8.8553194637165278E-01 
    9.4011714042521077E-01 
    1.0377823572177718E+00 
    1.0862589934793225E+00 
    1.0007206166656439E+00 
    1.0647603432900818E+00 
    1.1419340937430780E+00 
    1.2269716727926707E+00 
    1.1606803731080597E+00 
    1.2122294135913543E+00 
    1.2780333813328542E+00 
    7.4321418838820619E-01 
    5.6422123437197669E-01 
    7.2517873494482010E-01 
    8.3365287476944816E-01 
    3.2605693476215009E-01 
    0.0000000000000000E+00 
    4.5627559067687073E-01 
    6.0003464106153404E-01 
    8.0294160330750641E-01 
    7.4308007181888136E-01 
    9.4605288581022440E-01 
    9.6354403483955264E-01 
    9.2249775813120671E-01 
    8.6334826394256781E-01 
    9.8465978913280716E-01 
    1.0084284863970081E+00 
    1.3309669513822302E+00 
    1.2570720925196781E+00 
    1.2929788903227966E+00 
    1.3832743706491277E+00 
    1.1795684415581260E+00 
    1.0961356369718884E+00 
    1.0964199890441932E+00 
    1.1984302621110903E+00 
    1.2203752667791741E+00 
    1.0998985700230366E+00 
    1.1065962355276138E+00 
    1.2447728642968714E+00 
    1.4375844607024633E+00 
    1.3314573414108606E+00 
    1.3715918081576193E+00 
    1.4928113753758629E+00 
    2.3176180657261920E+00 
    2.4655994120556399E+00 
    2.4483955218350371E+00 
    2.3121242178967960E+00 
    2.6111492008055803E+00 
    2.7529477949825196E+00 
    2.7129506210400187E+00 
    2.5823047318460262E+00 
    2.5551196198551795E+00 
    2.6743764423166505E+00 
    2.6368190455188891E+00 
    2.5292918782158909E+00 
    2.3072980612385563E+00 
    2.4326617519425442E+00 
    2.4181858574269524E+00 
    2.3031900885860246E+00 
    2.8868978448953433E+00 
    3.0124804130858656E+00 
    2.9382357783497239E+00 
    2.8312367930723030E+00 
    3.1314019314271078E+00 
    3.2422397450287517E+00 
    3.1420138231882686E+00 
    3.0419215848848307E+00 
    2.9499490094166960E+00 
    3.0347409302313317E+00 
    2.9226985487623600E+00 
    2.8557993068778367E+00 
    2.7764778323949275E+00 
    2.8638240836250572E+00 
    2.7889315394895551E+00 
    2.7221971175738835E+00 
    2.3072978597558089E+00 
    2.4252537420117455E+00 
    2.4566587825003081E+00 
    2.3224394839679281E+00 
    2.5369143166784629E+00 
    2.6437045944662216E+00 
    2.6956381779975218E+00 
    2.5797527061163525E+00 
    2.6260173175933499E+00 
    2.7489880371561934E+00 
    2.8037448342492839E+00 
    2.6763406178555722E+00 
    2.3448428531404488E+00 
    2.4939413141681901E+00 
    2.5395116713882491E+00 
    2.3803300067856967E+00 
    2.1684957780938379E+00 
    2.0204453070567601E+00 
    2.0375384440868229E+00 
    2.1740040345711336E+00 
    1.8748507296561026E+00 
    1.7330170739880866E+00 
    1.7727737891992283E+00 
    1.9035034216569842E+00 
    1.9306077368382897E+00 
    1.8112356888007746E+00 
    1.8488059353688602E+00 
    1.9565253486544179E+00 
    2.1789126834075887E+00 
    2.0533008070410133E+00 
    2.0678954902647937E+00 
    2.1831771110270894E+00 
    1.5989798231891736E+00 
    1.4731325278567264E+00 
    1.5472987250299184E+00 
    1.6544385558065937E+00 
    1.3537356162287977E+00 
    1.2421143967004475E+00 
    1.3431346294717468E+00 
    1.4434647778225955E+00 
    1.5355283309976282E+00 
    1.4508057102049106E+00 
    1.5630564384055714E+00 
    1.6298383767349296E+00 
    1.7090880842587843E+00 
    1.6217095111109525E+00 
    1.6966606165538598E+00 
    1.7634057729701853E+00 
    2.1791974303771555E+00 
    2.0609639495644245E+00 
    2.0296849908394949E+00 
    2.1641569479300120E+00 
    1.9490319021584424E+00 
    1.8420171628665361E+00 
    1.7901449214562106E+00 
    1.9063087142197144E+00 
    1.8601851411538386E+00 
    1.7369118184117844E+00 
    1.6823164007669571E+00 
    1.8100348450311268E+00 
    2.1418013533768985E+00 
    1.9925339518829281E+00 
    1.9470644792007281E+00 
    2.1063108648624307E+00 
    2.3810170144486449E+00 
    2.5396741928829161E+00 
    2.4938962559373969E+00 
    2.3451256278270880E+00 
    2.6758535754151396E+00 
    2.8027192560980363E+00 
    2.7481243102590858E+00 
    2.6255531198099660E+00 
    2.5793284634489622E+00 
    2.6949476570146085E+00 
    2.6431669895128751E+00 
    2.5365481780488004E+00 
    2.3224191172194786E+00 
    2.4565054673459832E+00 
    2.4250164014085027E+00 
    2.3070718566594737E+00 
    2.9216070173822524E+00 
    3.0340728880233860E+00 
    2.9492890822304991E+00 
    2.8548917922966348E+00 
    3.1418478729949220E+00 
    3.2422975078942620E+00 
    3.1313272526164568E+00 
    3.0416353875806799E+00 
    2.9379084085613556E+00 
    3.0123530054599414E+00 
    2.8867812276995610E+00 
    2.8309460433053717E+00 
    2.7882044535098971E+00 
    2.8632576350135683E+00 
    2.7760181345657298E+00 
    2.7216295643868746E+00 
    2.3027923209043166E+00 
    2.4178612529277355E+00 
    2.4323404364859136E+00 
    2.3068765756063474E+00 
    2.5289339031178533E+00 
    2.6363701013140841E+00 
    2.6740030468715252E+00 