# vtk DataFile Version 2.0
Pressure Field Data 
ASCII 
DATASET UNSTRUCTURED_GRID 

POINTS 801 double 

    0.0000000000000000E+00     0.0000000000000000E+00     0.0000000000000000E+00 
    1.0000000000000000E+00     0.0000000000000000E+00     0.0000000000000000E+00 
    1.0000000000000000E+00     1.0000000000000000E+00     0.0000000000000000E+00 
    0.0000000000000000E+00     1.0000000000000000E+00     0.0000000000000000E+00 
    2.5000000000000000E-01     2.5000000000000000E-01     0.0000000000000000E+00 
    7.5000000000000000E-01     2.5000000000000000E-01     0.0000000000000000E+00 
    7.5000000000000000E-01     7.5000000000000000E-01     0.0000000000000000E+00 
    2.5000000000000000E-01     7.5000000000000000E-01     0.0000000000000000E+00 
    2.4999999999941941E-01     0.0000000000000000E+00     0.0000000000000000E+00 
    4.9999999999869399E-01     0.0000000000000000E+00     0.0000000000000000E+00 
    7.4999999999934697E-01     0.0000000000000000E+00     0.0000000000000000E+00 
    1.2499999999977940E-01     0.0000000000000000E+00     0.0000000000000000E+00 
    3.7499999999905670E-01     0.0000000000000000E+00     0.0000000000000000E+00 
    6.2499999999902045E-01     0.0000000000000000E+00     0.0000000000000000E+00 
    8.7499999999967348E-01     0.0000000000000000E+00     0.0000000000000000E+00 
    6.2499999999889699E-02     0.0000000000000000E+00     0.0000000000000000E+00 
    1.8749999999959940E-01     0.0000000000000000E+00     0.0000000000000000E+00 
    3.1249999999923811E-01     0.0000000000000000E+00     0.0000000000000000E+00 
    4.3749999999887529E-01     0.0000000000000000E+00     0.0000000000000000E+00 
    5.6249999999885725E-01     0.0000000000000000E+00     0.0000000000000000E+00 
    6.8749999999918376E-01     0.0000000000000000E+00     0.0000000000000000E+00 
    8.1249999999951017E-01     0.0000000000000000E+00     0.0000000000000000E+00 
    9.3749999999983680E-01     0.0000000000000000E+00     0.0000000000000000E+00 
    1.0000000000000000E+00     2.4999999999941941E-01     0.0000000000000000E+00 
    1.0000000000000000E+00     4.9999999999869399E-01     0.0000000000000000E+00 
    1.0000000000000000E+00     7.4999999999934697E-01     0.0000000000000000E+00 
    1.0000000000000000E+00     1.2499999999977940E-01     0.0000000000000000E+00 
    1.0000000000000000E+00     3.7499999999905670E-01     0.0000000000000000E+00 
    1.0000000000000000E+00     6.2499999999902045E-01     0.0000000000000000E+00 
    1.0000000000000000E+00     8.7499999999967348E-01     0.0000000000000000E+00 
    1.0000000000000000E+00     6.2499999999889699E-02     0.0000000000000000E+00 
    1.0000000000000000E+00     1.8749999999959940E-01     0.0000000000000000E+00 
    1.0000000000000000E+00     3.1249999999923811E-01     0.0000000000000000E+00 
    1.0000000000000000E+00     4.3749999999887529E-01     0.0000000000000000E+00 
    1.0000000000000000E+00     5.6249999999885725E-01     0.0000000000000000E+00 
    1.0000000000000000E+00     6.8749999999918376E-01     0.0000000000000000E+00 
    1.0000000000000000E+00     8.1249999999951017E-01     0.0000000000000000E+00 
    1.0000000000000000E+00     9.3749999999983680E-01     0.0000000000000000E+00 
    7.5000000000112044E-01     1.0000000000000000E+00     0.0000000000000000E+00 
    5.0000000000205913E-01     1.0000000000000000E+00     0.0000000000000000E+00 
    2.5000000000102962E-01     1.0000000000000000E+00     0.0000000000000000E+00 
    8.7499999999991362E-01     1.0000000000000000E+00     0.0000000000000000E+00 
    6.2499999999988309E-01     1.0000000000000000E+00     0.0000000000000000E+00 
    3.7499999999869987E-01     1.0000000000000000E+00     0.0000000000000000E+00 
    1.2499999999880820E-01     1.0000000000000000E+00     0.0000000000000000E+00 
    9.3749999999995681E-01     1.0000000000000000E+00     0.0000000000000000E+00 
    8.1250000000051703E-01     1.0000000000000000E+00     0.0000000000000000E+00 
    6.8750000000050182E-01     1.0000000000000000E+00     0.0000000000000000E+00 
    5.6250000000097111E-01     1.0000000000000000E+00     0.0000000000000000E+00 
    4.3750000000037947E-01     1.0000000000000000E+00     0.0000000000000000E+00 
    3.1249999999986477E-01     1.0000000000000000E+00     0.0000000000000000E+00 
    1.8749999999991890E-01     1.0000000000000000E+00     0.0000000000000000E+00 
    6.2499999999404102E-02     1.0000000000000000E+00     0.0000000000000000E+00 
    0.0000000000000000E+00     7.5000000000112044E-01     0.0000000000000000E+00 
    0.0000000000000000E+00     5.0000000000205913E-01     0.0000000000000000E+00 
    0.0000000000000000E+00     2.5000000000102962E-01     0.0000000000000000E+00 
    0.0000000000000000E+00     8.7499999999991362E-01     0.0000000000000000E+00 
    0.0000000000000000E+00     6.2499999999988309E-01     0.0000000000000000E+00 
    0.0000000000000000E+00     3.7499999999869987E-01     0.0000000000000000E+00 
    0.0000000000000000E+00     1.2499999999880820E-01     0.0000000000000000E+00 
    0.0000000000000000E+00     9.3749999999995681E-01     0.0000000000000000E+00 
    0.0000000000000000E+00     8.1250000000051703E-01     0.0000000000000000E+00 
    0.0000000000000000E+00     6.8750000000050182E-01     0.0000000000000000E+00 
    0.0000000000000000E+00     5.6250000000097111E-01     0.0000000000000000E+00 
    0.0000000000000000E+00     4.3750000000037947E-01     0.0000000000000000E+00 
    0.0000000000000000E+00     3.1249999999986477E-01     0.0000000000000000E+00 
    0.0000000000000000E+00     1.8749999999991890E-01     0.0000000000000000E+00 
    0.0000000000000000E+00     6.2499999999404102E-02     0.0000000000000000E+00 
    4.9999999999972200E-01     2.5000000000000000E-01     0.0000000000000000E+00 
    3.7500000000067490E-01     2.5000000000000000E-01     0.0000000000000000E+00 
    6.2500000000042988E-01     2.5000000000000000E-01     0.0000000000000000E+00 
    3.1250000000033751E-01     2.5000000000000000E-01     0.0000000000000000E+00 
    4.3750000000019851E-01     2.5000000000000000E-01     0.0000000000000000E+00 
    5.6250000000007594E-01     2.5000000000000000E-01     0.0000000000000000E+00 
    6.8750000000021494E-01     2.5000000000000000E-01     0.0000000000000000E+00 
    7.5000000000000000E-01     4.9999999999972200E-01     0.0000000000000000E+00 
    7.5000000000000000E-01     3.7500000000067490E-01     0.0000000000000000E+00 
    7.5000000000000000E-01     6.2500000000042988E-01     0.0000000000000000E+00 
    7.5000000000000000E-01     3.1250000000033751E-01     0.0000000000000000E+00 
    7.5000000000000000E-01     4.3750000000019851E-01     0.0000000000000000E+00 
    7.5000000000000000E-01     5.6250000000007594E-01     0.0000000000000000E+00 
    7.5000000000000000E-01     6.8750000000021494E-01     0.0000000000000000E+00 
    5.0000000000118039E-01     7.5000000000000000E-01     0.0000000000000000E+00 
    6.2500000000161415E-01     7.5000000000000000E-01     0.0000000000000000E+00 
    3.7500000000140910E-01     7.5000000000000000E-01     0.0000000000000000E+00 
    6.8750000000080713E-01     7.5000000000000000E-01     0.0000000000000000E+00 
    5.6250000000139733E-01     7.5000000000000000E-01     0.0000000000000000E+00 
    4.3750000000129469E-01     7.5000000000000000E-01     0.0000000000000000E+00 
    3.1250000000070460E-01     7.5000000000000000E-01     0.0000000000000000E+00 
    2.5000000000000000E-01     5.0000000000118039E-01     0.0000000000000000E+00 
    2.5000000000000000E-01     6.2500000000161415E-01     0.0000000000000000E+00 
    2.5000000000000000E-01     3.7500000000140910E-01     0.0000000000000000E+00 
    2.5000000000000000E-01     6.8750000000080713E-01     0.0000000000000000E+00 
    2.5000000000000000E-01     5.6250000000139733E-01     0.0000000000000000E+00 
    2.5000000000000000E-01     4.3750000000129469E-01     0.0000000000000000E+00 
    2.5000000000000000E-01     3.1250000000070460E-01     0.0000000000000000E+00 
    3.7499999999934702E-01     1.2500000000000000E-01     0.0000000000000000E+00 
    1.2500000000000000E-01     1.2500000000000000E-01     0.0000000000000000E+00 
    1.2500000000000000E-01     3.7500000000102962E-01     0.0000000000000000E+00 
    8.7500000000000000E-01     1.2500000000000000E-01     0.0000000000000000E+00 
    6.2499999999934697E-01     1.2500000000000000E-01     0.0000000000000000E+00 
    8.7500000000000000E-01     3.7499999999934702E-01     0.0000000000000000E+00 
    8.7500000000000000E-01     6.2499999999934697E-01     0.0000000000000000E+00 
    1.2500000000000000E-01     6.2500000000102962E-01     0.0000000000000000E+00 
    1.2500000000000000E-01     8.7500000000000000E-01     0.0000000000000000E+00 
    8.7500000000000000E-01     8.7500000000000000E-01     0.0000000000000000E+00 
    6.2500000000102962E-01     8.7500000000000000E-01     0.0000000000000000E+00 
    3.7500000000102962E-01     8.7500000000000000E-01     0.0000000000000000E+00 
    2.4999999999957681E-01     8.3333333333333329E-02     0.0000000000000000E+00 
    8.3333333333333329E-02     2.5000000000068640E-01     0.0000000000000000E+00 
    7.4999999999956468E-01     8.3333333333333329E-02     0.0000000000000000E+00 
    4.9999999999951827E-01     1.6666666666666671E-01     0.0000000000000000E+00 
    9.1666666666666674E-01     2.4999999999957681E-01     0.0000000000000000E+00 
    8.3333333333333337E-01     4.9999999999951827E-01     0.0000000000000000E+00 
    1.6666666666666671E-01     5.0000000000088307E-01     0.0000000000000000E+00 
    8.3333333333333329E-02     7.5000000000070155E-01     0.0000000000000000E+00 
    9.1666666666666674E-01     7.4999999999956468E-01     0.0000000000000000E+00 
    5.0000000000088307E-01     8.3333333333333348E-01     0.0000000000000000E+00 
    2.5000000000068640E-01     9.1666666666666674E-01     0.0000000000000000E+00 
    7.5000000000070155E-01     9.1666666666666674E-01     0.0000000000000000E+00 
[...]
CELL_DATA 768 
SCALARS Pressure double 1 
LOOKUP_TABLE default 

    3.1914616696188163E+00 
    3.0945073005371433E+00 
    3.0622025965390893E+00 
    3.1232053911215591E+00 
    3.0271713076263285E+00 
    2.9708090143312944E+00 
    2.9655761463090702E+00 
    3.0119663093620370E+00 
    2.9957887983654383E+00 
    2.9591344443553544E+00 
    2.9516415246163876E+00 
    2.9789772347971955E+00 
    3.0708644900017186E+00 
    3.0324282517229650E+00 
    3.0044235479728529E+00 
    3.0281415283618358E+00 
    2.9161806523102691E+00 
    2.8603363759426870E+00 
    2.8709583253934725E+00 
    2.9188553288298400E+00 
    2.8016690084173370E+00 
    2.7394943850680815E+00 
    2.7684239670629442E+00 
    2.8210303774409904E+00 
    2.8391225840748051E+00 
    2.7959338417423250E+00 
    2.8215954540820838E+00 
    2.8556559989034853E+00 
    2.9204234434090561E+00 
    2.8804455981795667E+00 
    2.8886202168915647E+00 
    2.9208808639470112E+00 
    2.9901361513195028E+00 
    2.9741716833335921E+00 
    2.9431509017229818E+00 
    2.9558133216199822E+00 
    2.9549718428797833E+00 
    2.9328485443476522E+00 
    2.9042774162330809E+00 
    2.9257291002059516E+00 
    2.8975981376687647E+00 
    2.8757104658918080E+00 
    2.8467020753268661E+00 
    2.8700532940984171E+00 
    2.9257117732095308E+00 
    2.9146884521132144E+00 
    2.8886123024226960E+00 
    2.9004851625402233E+00 
    3.1915132897088148E+00 
    3.1232752779309023E+00 
    3.0624441130330102E+00 
    3.0947347813907187E+00 
    3.0709508063111954E+00 
    3.0282325683459144E+00 
    3.0046645322502292E+00 
    3.0326680881221928E+00 
    2.9961469966501548E+00 
    2.9792883238310512E+00 
    2.9520035860541727E+00 
    2.9595553371806735E+00 
    3.0275436087493772E+00 
    3.0123348851791132E+00 
    2.9660448736353833E+00 
    2.9712846435636440E+00 
    2.9902338078358426E+00 
    2.9558907012187130E+00 
    2.9433314500020691E+00 
    2.9744073042411494E+00 
    2.9257283057588568E+00 
    2.9004991942803704E+00 
    2.8886004264228924E+00 
    2.9147575203929561E+00 
    2.8976519714321478E+00 
    2.8698967263734620E+00 
    2.8463915181839563E+00 
    2.8756816796660347E+00 
    2.9552591977056539E+00 
    2.9259269190049282E+00 
    2.9044565661030095E+00 
    2.9331434332454855E+00 
    2.9166454335714800E+00 
    2.9192944623159405E+00 
    2.8711369674034857E+00 
    2.8604683868129270E+00 
    2.9208086178202861E+00 
    2.9211904243435254E+00 
    2.8887655251648523E+00 
    2.8806048050702642E+00 
    2.8389643956368853E+00 
    2.8555324081351743E+00 
    2.8211244835128233E+00 
    2.7954012579964873E+00 
    2.8013980942129648E+00 
    2.8208227196084623E+00 
    2.7678764729216283E+00 
    2.7389426461905422E+00 
    2.6368677965327127E+00 
    2.5663688694408577E+00 
    2.5419037751330653E+00 
    2.6036132208361322E+00 
    2.4956985809388845E+00 
    2.4279803930192907E+00 
    2.4220369761540779E+00 
    2.4805695912303882E+00 
    2.4637856371734643E+00 
    2.4143087800227283E+00 
    2.4046298952157903E+00 
    2.4448360754848344E+00 
    2.5689359811329577E+00 
    2.5159323631540200E+00 
    2.4876925070224352E+00 
    2.5319810840945576E+00 
    2.3669199699472694E+00 
    2.3144406778864095E+00 
    2.3207953140117983E+00 
    2.3684295030334286E+00 
    2.2685974657097381E+00 
    2.2385711542513351E+00 
    2.2437261606795578E+00 
    2.2778579849245131E+00 
    2.2844289025700464E+00 
    2.2483412479910241E+00 
    2.2519689748364486E+00 
    2.2876314849797579E+00 
    2.3678803122551115E+00 
    2.3242530082962096E+00 
    2.3253377171399072E+00 
    2.3653887954180437E+00 
    2.4888278882703143E+00 
    2.4487346177139377E+00 
    2.3968613176633515E+00 
    2.4366972475167636E+00 
    2.4114979024380583E+00 
    2.3779819548532881E+00 
    2.3362322712263928E+00 
    2.3635488956398687E+00 
    2.3121377716127181E+00 
    2.2947676170324223E+00 
    2.2543912032229154E+00 
    2.2583202265041429E+00 
    2.3729453679714467E+00 
    2.3367583795846683E+00 
    2.2659156426392650E+00 
    2.2835941009411003E+00 
    2.6890044936189730E+00 
    2.6521626418696962E+00 
    2.6878253493884565E+00 
    2.7235647989917102E+00 
    2.6139502414153757E+00 
    2.5737700763436702E+00 
    2.6123869525568022E+00 
    2.6508908496660646E+00 
    2.6868412927376468E+00 
    2.6500295895175614E+00 
    2.6861977066191258E+00 
    2.7213933457671198E+00 
    2.7566810796644896E+00 
    2.7223228465746367E+00 
    2.7553025248357499E+00 
    2.7880618988517987E+00 
    2.5332311701993762E+00 
    2.4920522011718758E+00 
    2.5521211953534388E+00 
    2.5791268758183961E+00 
    2.4468322337526547E+00 
    2.3956607614699945E+00 
    2.4937693404885737E+00 
    2.5240519427607326E+00 
    2.5931997759311383E+00 
    2.5776828920225143E+00 
    2.6509166764909198E+00 
    2.6557429745857366E+00 
    2.6233376566397713E+00 
    2.6082904924976500E+00 
    2.6605789458356464E+00 
    2.6654524975384977E+00 
    2.8152612127741743E+00 
    2.7803682388243467E+00 
    2.7982883932727578E+00 
    2.8382717110031774E+00 
    2.7437787681408921E+00 
    2.7053997316326734E+00 
    2.7092253915637814E+00 
    2.7552130457988193E+00 
    2.7663585687688901E+00 
    2.7130506201436488E+00 
    2.7169095245120212E+00 
    2.7773262229099256E+00 
    2.8589300296011388E+00 
    2.8152347469947894E+00 
    2.8313345500112850E+00 
    2.8770943536598717E+00 
    2.2317534077016501E+00 
    2.2026257537719820E+00 
    2.1930880076847261E+00 
    2.2264622790461059E+00 
    2.1525336102904533E+00 
    2.0823207297210153E+00 
    2.0796558812675414E+00 
    2.1438520192348922E+00 
    2.1378145692124040E+00 
    2.0794418457378443E+00 
    2.0816185846272210E+00 
    2.1346748743264774E+00 
    2.2224842272876146E+00 
    2.1857381970728769E+00 
    2.1812789035978359E+00 
    2.2205560768524917E+00 
    1.9953395156614728E+00 
    1.8953636096514261E+00 
    1.9179898126075923E+00 
    2.0037378389739060E+00 
    1.7868273645133559E+00 
    1.6732789662998115E+00 
    1.7276030493750334E+00 
    1.8250223747400383E+00 
    1.8648144001852520E+00 
    1.7829001042148938E+00 
    1.8404878904602009E+00 
    1.9072014080084307E+00 
    2.0143819579506661E+00 
    1.9427567290487009E+00 
    1.9701320168407730E+00 
    2.0275138614468222E+00 
    2.2164576938166025E+00 
    2.1708311555735191E+00 
    2.1456863381873408E+00 
    2.2052910892858701E+00 
    2.1196092128893871E+00 
    2.0640065638186700E+00 
    2.0180327260406896E+00 
    2.0827999812431885E+00 
    2.0376632021651964E+00 
    1.9657461619243974E+00 
    1.9080160057130562E+00 
    1.9831299471361885E+00 
    2.1883766360022392E+00 
    2.1108150206641403E+00 
    2.0620445711214264E+00 
    2.1603834669606128E+00 
    2.0318715944045436E+00 
    1.9677462751188954E+00 
    1.8565958386269845E+00 
    1.9002207200333048E+00 
    1.9054610539205372E+00 
    1.8412809235646095E+00 
    1.7676296549726134E+00 
    1.8127076707401717E+00 
    1.7211269279615635E+00 
    1.6955631126542194E+00 
    1.6262779899026383E+00 
    1.6351472760174477E+00 
    1.7718783760375076E+00 
    1.7466092035773531E+00 
    1.6438305403532101E+00 
    1.6521581282402278E+00 
    1.7751517773158743E+00 
    1.7106580528766842E+00 
    1.6495572602954369E+00 
    1.7129012165555599E+00 
    1.6472077349916399E+00 
    1.5838102599711767E+00 
    1.5217026454425016E+00 
    1.5859155005821755E+00 
    1.5246356393657599E+00 
    1.4598879706431498E+00 
    1.3992010138692230E+00 
    1.4636536691162783E+00 
    1.6513656477097187E+00 
    1.5883372191148493E+00 
    1.5272956715817472E+00 
    1.5902581425130424E+00 
    1.5361915449034256E+00 
    1.5433128701643590E+00 
    1.4435516324547815E+00 
    1.4219534699747871E+00 
    1.5500442734281088E+00 
    1.5564840694291719E+00 
    1.4861333351023549E+00 
    1.4647912163227428E+00 
    1.3802599446274380E+00 
    1.4154433355946723E+00 
    1.3445205123305344E+00 
    1.2969715907556549E+00 
    1.3128079766307004E+00 
    1.3460316063056050E+00 
    1.2532686204370906E+00 
    1.2141671215291912E+00 
    2.8772126075943776E+00 
    2.8308794237448716E+00 
    2.8145268184757195E+00 
    2.8587377310963595E+00 
    2.7760107574706643E+00 
    2.7147728675651237E+00 
    2.7109737097754154E+00 
    2.7649288054202126E+00 
    2.7536759088911245E+00 
    2.7071842576756540E+00 
    2.7034533487538774E+00 
    2.7421917049506463E+00 
    2.8378244624537796E+00 
    2.7973544411862346E+00 
    2.7792635771739072E+00 
    2.8145989360139816E+00 
    2.6486971273530227E+00 
    2.5762801967455253E+00 
    2.5917597278540732E+00 
    2.6536390322594627E+00 
    2.4939098967712874E+00 
    2.3974197964743564E+00 
    2.4477145479245226E+00 
    2.5237474619337470E+00 
    2.5515873804188631E+00 
    2.4923557848743534E+00 
    2.5331517622454363E+00 
    2.5784379336793091E+00 
    2.6585305067323270E+00 
    2.6068405168296773E+00 
    2.6219291353801113E+00 
    2.6635235425757955E+00 
    2.7872105230294602E+00 
    2.7540243416384023E+00 
    2.7211097543167497E+00 
    2.7558463850272199E+00 
    2.7197482034675748E+00 
    2.6843675773734357E+00 
    2.6485915426927118E+00 
    2.6854257297560364E+00 
    2.6498709615734386E+00 
    2.6115295555667277E+00 
    2.5733796597779302E+00 
    2.6133236769584465E+00 
    2.7228264506218656E+00 
    2.6869038572107109E+00 
    2.6514876056019649E+00 
    2.6884089421393083E+00 
    2.6364146922430729E+00 
    2.6032079390744634E+00 
    2.5418598767414791E+00 
    2.5662385139457009E+00 
    2.5686788194785448E+00 
    2.5319867676446548E+00 
    2.4879760187491224E+00 
    2.5160246848988219E+00 
    2.4640886184991402E+00 
    2.4451816924799692E+00 
    2.4049856741130138E+00 
    2.4146326913044973E+00 
    2.4958582367254794E+00 
    2.4807763591386709E+00 
    2.4223138287237651E+00 
    2.4281798025928536E+00 
    2.4891935528161091E+00 
    2.4376423214813880E+00 
    2.3978403687218810E+00 
    2.4492440288197934E+00 
    2.3748302600441478E+00 
    2.2871050426645776E+00 
    2.2690019592496191E+00 
    2.3385047827916603E+00 
    2.3135602457947395E+00 
    2.2609264239948677E+00 
    2.2567096752461255E+00 
    2.2958998651176845E+00 
    2.4119528248658098E+00 
    2.3643200017144759E+00 
    2.3368451825881906E+00 
    2.3783824917715872E+00 
    2.3673392691210213E+00 
    2.3688736999197286E+00 
    2.3209683438217947E+00 
    2.3144993815099548E+00 
    2.3682785064298839E+00 
    2.3657302599715058E+00 
    2.3257017346571214E+00 
    2.3244849787468440E+00 
    2.2849639343930797E+00 
    2.2883638836960074E+00 
    2.2539795607899231E+00 
    2.2500977690482209E+00 
    2.2691497235871929E+00 
    2.2784015552158277E+00 
    2.2451840077025662E+00 
    2.2399623728101776E+00 
    1.4925862926145346E+00 
    1.3700237788646805E+00 
    1.3294866427271024E+00 
    1.4369498255567519E+00 
    1.2414092037909226E+00 
    1.1017104000344187E+00 
    1.0950470234887935E+00 
    1.2168077016748788E+00 
    1.1948464535520664E+00 
    1.0918098326598071E+00 
    1.0919465075538584E+00 
    1.1762058675353255E+00 
    1.3823411838366710E+00 
    1.2907596299733302E+00 
    1.2548211815786825E+00 
    1.3298639935968006E+00 
    9.4105420504922643E-01 
    7.3968834361213021E-01 
    7.9928485989638343E-01 
    9.5868090138267126E-01 
    4.5477490927576414E-01 
    0.0000000000000000E+00 
    3.2572424770096448E-01 
    5.9816235270285145E-01 
    7.2305529397642043E-01 
    5.6363814689741787E-01 
    7.4251624053109011E-01 
    8.3157549111241358E-01 
    9.8010537944271792E-01 
    8.5983039874674616E-01 
    9.1920774978433473E-01 
    1.0043526163907510E+00 
    1.2767877598635742E+00 
    1.2099423817160506E+00 
    1.1586130098106213E+00 
    1.2258296432978966E+00 
    1.1387450865717395E+00 
    1.0609727765176182E+00 
    9.9761071625877717E-01 
    1.0835334909254584E+00 
    1.0358992163294631E+00 
    9.3809829777589893E-01 
    8.8480405946546248E-01 
    9.9908208141682586E-01 
    1.1845540520678137E+00 
    1.1171146710332167E+00 
    1.0894389049669591E+00 
    1.1585726082644892E+00 
    2.0366705641660308E+00 
    1.9021588443347048E+00 
    1.8579285569189792E+00 
    1.9718250330358567E+00 
    1.7716320590786776E+00 
    1.6498101659050786E+00 
    1.6414405785392017E+00 
    1.7458757519523129E+00 
    1.7201600508038135E+00 
    1.6330396936237723E+00 
    1.6246498078788505E+00 
    1.6949845847637826E+00 
    1.9087310419780954E+00 
    1.8133691855410257E+00 
    1.7681128529234491E+00 
    1.8435968837073571E+00 
    1.5333939786393831E+00 
    1.4201102958349376E+00 
    1.4416165172578514E+00 
    1.5406976643847361E+00 
    1.3121860875576470E+00 
    1.2145081161773963E+00 
    1.2536239650171970E+00 
    1.3453108335215103E+00 
    1.3795264538130625E+00 
    1.2973894224878895E+00 
    1.3450256507844427E+00 
    1.4149634246903353E+00 
    1.5477966011458772E+00 
    1.4631622844771881E+00 
    1.4848444553944919E+00 
    1.5547828452864791E+00 
    1.7771218941450844E+00 
    1.7136183802939302E+00 
    1.6501263136033510E+00 
    1.7123935224842362E+00 
    1.6509506543992818E+00 
    1.5889997883673612E+00 
    1.5263043794504974E+00 
    1.5879785614281208E+00 
    1.5246326106123489E+00 
    1.4632926212586488E+00 
    1.3997166806305186E+00 
    1.4606085200526970E+00 
    1.6488074731185491E+00 
    1.5866294253236892E+00 
    1.5227463468832381E+00 
    1.5853349752879307E+00 
    2.1657444659102061E+00 
    2.0678418870930311E+00 
    2.1165522106556982E+00 
    2.1930464311167368E+00 
    1.9888485413126129E+00 
    1.9127255244636370E+00 
    1.9721866326046911E+00 
    2.0447281235304153E+00 
    2.0899634173195225E+00 
    2.0254676766860471E+00 
    2.0716903726475246E+00 
    2.1263495543167501E+00 
    2.2091516662555812E+00 
    2.1509484728871922E+00 
    2.1760500768750974E+00 
    2.2203588572117585E+00 
    1.8442090782163156E+00 
    1.7860488611393031E+00 
    1.8696217548468832E+00 
    1.9125185845216919E+00 
    1.7303088803602891E+00 
    1.6754586589910860E+00 
    1.7907346728635036E+00 
    1.8293771958497946E+00 
    1.9238631137601006E+00 
    1.9010332702965789E+00 
    2.0020154604867826E+00 
    2.0104038842477006E+00 
    1.9763232796702812E+00 
    1.9487711975513693E+00 
    2.0210749593991628E+00 
    2.0342863192747891E+00 
    2.2243621641099183E+00 
    2.1864483312342493E+00 
    2.1900951250996052E+00 
    2.2253632472625160E+00 
    2.1409362053642158E+00 
    2.0885226185450758E+00 
    2.0859804112065032E+00 
    2.1433876761621016E+00 
    2.1490756790922703E+00 
    2.0861685387595741E+00 
    2.0888305458462386E+00 
    2.1575052468047926E+00 
    2.2286165644905127E+00 
    2.1967734127397724E+00 
    2.2058099317771074E+00 
    2.2335002852766732E+00 
    1.1589157730246957E+00 
    1.0899975856610145E+00 
    1.1186125931999860E+00 
    1.1855011951689340E+00 
    9.9979234536622286E-01 
    8.8553936719823845E-01 
    9.4017287605073652E-01 
    1.0378527975816356E+00 
    1.0864026605178436E+00 
    1.0008337531584792E+00 
    1.0649404426736353E+00 
    1.1421601481589811E+00 
    1.2271713571870444E+00 
    1.1608545355252329E+00 
    1.2125005393146779E+00 
    1.2783420367201970E+00 
    7.4322426875553449E-01 
    5.6423152328174564E-01 
    7.2522706913360502E-01 
    8.3370325543598178E-01 
    3.2606369873486674E-01 
    0.0000000000000000E+00 
    4.5630732215136760E-01 
    6.0007664767469826E-01 
    8.0303935072816324E-01 
    7.4316862259582028E-01 
    9.4622990003857876E-01 
    9.6372278074185691E-01 
    9.2259972963329451E-01 
    8.6345087369659923E-01 
    9.8483482033588576E-01 
    1.0085944174758781E+00 
    1.3314212059812403E+00 
    1.2574519375588049E+00 
    1.2934756374482301E+00 
    1.3839262152325913E+00 
    1.1798739572159143E+00 
    1.0963714379870297E+00 
    1.0966846887107522E+00 
    1.1987998772037944E+00 
    1.2208090591182317E+00 
    1.1001873844915246E+00 
    1.1069033384109987E+00 
    1.2452672278291350E+00 
    1.4385009340224031E+00 
    1.3320888568636493E+00 
    1.3723698760386844E+00 
    1.4940460740440551E+00 
    2.1997777111744279E+00 
    2.3195431373019808E+00 
    2.3087242975418620E+00 
    2.1984014687558013E+00 
    2.4338096394055349E+00 
    2.5411087483272947E+00 
    2.5138376809631775E+00 
    2.4142183629523006E+00 
    2.3981655927516896E+00 
    2.4893583412713389E+00 
    2.4671568821820240E+00 
    2.3851962232181605E+00 
    2.2005675935117619E+00 
    2.3017313745404557E+00 
    2.2981802076002711E+00 
    2.2061280711696671E+00 
    2.6380444320944934E+00 
    2.7243461060893468E+00 
    2.6780718611761194E+00 
    2.6011905680997796E+00 
    2.8008694635527660E+00 
    2.8667640315270080E+00 
    2.8155258277407813E+00 
    2.7495190052669840E+00 
    2.6967029992466305E+00 
    2.7587701950889039E+00 
    2.6966734038887905E+00 
    2.6418266056655710E+00 
    2.5663176382991177E+00 
    2.6326380481662728E+00 
    2.5873122739592764E+00 
    2.5328389702119813E+00 
    2.2207867395084220E+00 
    2.3137202715895784E+00 
    2.3503510391832574E+00 
    2.2463285078824651E+00 
    2.3996644915206287E+00 
    2.4794140814929184E+00 
    2.5261994741997036E+00 
    2.4428289114182542E+00 
    2.4903414378848132E+00 
    2.5750048861598294E+00 
    2.6262354990790495E+00 
    2.5430529219779872E+00 
    2.2789966075534007E+00 
    2.3933210351456160E+00 
    2.4442343266659625E+00 
    2.3223596291205060E+00 
    2.0758301997951962E+00 
    1.9498595698726464E+00 
    1.9668027172171596E+00 
    2.0833407480376942E+00 
    1.8233268202051129E+00 
    1.6975530136304235E+00 
    1.7344443332787276E+00 
    1.8502024454033761E+00 
    1.8774472265639535E+00 
    1.7713843337882322E+00 
    1.8088255764851784E+00 
    1.9054811545205219E+00 
    2.0932320671451339E+00 
    1.9848884372710391E+00 
    2.0043311956284806E+00 
    2.1054656954556585E+00 
    1.5763607480162121E+00 
    1.4604302565899232E+00 
    1.5308235768286289E+00 
    1.6281723564789770E+00 
    1.3483013793252885E+00 
    1.2413539172254375E+00 
    1.3410201401576241E+00 
    1.4350347963480927E+00 
    1.5246888408541952E+00 
    1.4475730687073833E+00 
    1.5588532971062665E+00 
    1.6172029307723648E+00 
    1.6802017372682854E+00 
    1.6023268976350549E+00 
    1.6752857553040128E+00 
    1.7329789120379144E+00 
    2.1133324745302091E+00 
    2.0070617387769998E+00 
    1.9899990563939742E+00 
    2.1141743471880288E+00 
    1.9053575303196133E+00 
    1.8073720290423176E+00 
    1.7650884789439800E+00 
    1.8743681663636182E+00 
    1.8411767103198817E+00 
    1.7216527486363331E+00 
    1.6769898482001229E+00 
    1.8052362068287793E+00 
    2.1114994163302456E+00 
    1.9699178090383260E+00 
    1.9451711668736127E+00 
    2.1005869191455320E+00 
    2.3244071128281671E+00 
    2.4441492937083442E+00 
    2.3930898183160587E+00 
    2.2801871340841862E+00 
    2.5412079442905138E+00 
    2.6236695744311360E+00 
    2.5730748310151621E+00 
    2.4889897471915292E+00 
    2.4418299431794575E+00 
    2.5247704833790854E+00 
    2.4783878952361196E+00 
    2.3989516718439492E+00 
    2.2468623659774152E+00 
    2.3500645824839355E+00 
    2.3134064716213611E+00 
    2.2208799727943083E+00 
    2.6943872401907814E+00 
    2.7574088605902145E+00 
    2.6954935995294425E+00 
    2.6400386490995751E+00 
    2.8150749319565120E+00 
    2.8668728317609387E+00 
    2.8007837987203636E+00 
    2.7489606147783539E+00 
    2.6775082895516467E+00 
    2.7241781371842086E+00 
    2.6378753514308846E+00 
    2.6007149749854555E+00 
    2.5859329951815297E+00 
    2.6316324551270478E+00 
    2.5655410503443856E+00 
    2.5318120681303071E+00 
    2.2058937258994198E+00 
    2.2977903137188793E+00 
    2.3013487552965310E+00 
    2.2002183737104231E+00 
    2.3845963726672958E+00 
    2.4663552020292698E+00 
    2.4887373340222347E+00 