# vtk DataFile Version 2.0
Pressure Field Data 
ASCII 
DATASET UNSTRUCTURED_GRID 

POINTS 801 double 

    0.0000000000000000E+00     0.0000000000000000E+00     0.0000000000000000E+00 
    1.0000000000000000E+00     0.0000000000000000E+00     0.0000000000000000E+00 
    1.0000000000000000E+00     1.0000000000000000E+00     0.0000000000000000E+00 
    0.0000000000000000E+00     1.0000000000000000E+00     0.0000000000000000E+00 
    2.5000000000000000E-01     2.5000000000000000E-01     0.0000000000000000E+00 
    7.5000000000000000E-01     2.5000000000000000E-01     0.0000000000000000E+00 
    7.5000000000000000E-01     7.5000000000000000E-01     0.0000000000000000E+00 
    2.5000000000000000E-01     7.5000000000000000E-01     0.0000000000000000E+00 
    2.4999999999941941E-01     0.0000000000000000E+00     0.0000000000000000E+00 
    4.9999999999869399E-01     0.0000000000000000E+00     0.0000000000000000E+00 
    7.4999999999934697E-01     0.0000000000000000E+00     0.0000000000000000E+00 
    1.2499999999977940E-01     0.0000000000000000E+00     0.0000000000000000E+00 
    3.7499999999905670E-01     0.0000000000000000E+00     0.0000000000000000E+00 
    6.2499999999902045E-01     0.0000000000000000E+00     0.0000000000000000E+00 
    8.7499999999967348E-01     0.0000000000000000E+00     0.0000000000000000E+00 
    6.2499999999889699E-02     0.0000000000000000E+00     0.0000000000000000E+00 
    1.8749999999959940E-01     0.0000000000000000E+00     0.0000000000000000E+00 
    3.1249999999923811E-01     0.0000000000000000E+00     0.0000000000000000E+00 
    4.3749999999887529E-01     0.0000000000000000E+00     0.0000000000000000E+00 
    5.6249999999885725E-01     0.0000000000000000E+00     0.0000000000000000E+00 
    6.8749999999918376E-01     0.0000000000000000E+00     0.0000000000000000E+00 
    8.1249999999951017E-01     0.0000000000000000E+00     0.0000000000000000E+00 
    9.3749999999983680E-01     0.0000000000000000E+00     0.0000000000000000E+00 
    1.0000000000000000E+00     2.4999999999941941E-01     0.0000000000000000E+00 
    1.0000000000000000E+00     4.9999999999869399E-01     0.0000000000000000E+00 
    1.0000000000000000E+00     7.4999999999934697E-01     0.0000000000000000E+00 
    1.0000000000000000E+00     1.2499999999977940E-01     0.0000000000000000E+00 
    1.0000000000000000E+00     3.7499999999905670E-01     0.0000000000000000E+00 
    1.0000000000000000E+00     6.2499999999902045E-01     0.0000000000000000E+00 
    1.0000000000000000E+00     8.7499999999967348E-01     0.0000000000000000E+00 
    1.0000000000000000E+00     6.2499999999889699E-02     0.0000000000000000E+00 
    1.0000000000000000E+00     1.8749999999959940E-01     0.0000000000000000E+00 
    1.0000000000000000E+00     3.1249999999923811E-01     0.0000000000000000E+00 
    1.0000000000000000E+00     4.3749999999887529E-01     0.0000000000000000E+00 
    1.0000000000000000E+00     5.6249999999885725E-01     0.0000000000000000E+00 
    1.0000000000000000E+00     6.8749999999918376E-01     0.0000000000000000E+00 
    1.0000000000000000E+00     8.1249999999951017E-01     0.0000000000000000E+00 
    1.0000000000000000E+00     9.3749999999983680E-01     0.0000000000000000E+00 
    7.5000000000112044E-01     1.0000000000000000E+00     0.0000000000000000E+00 
    5.0000000000205913E-01     1.0000000000000000E+00     0.0000000000000000E+00 
    2.5000000000102962E-01     1.0000000000000000E+00     0.0000000000000000E+00 
    8.7499999999991362E-01     1.0000000000000000E+00     0.0000000000000000E+00 
    6.2499999999988309E-01     1.0000000000000000E+00     0.0000000000000000E+00 
    3.7499999999869987E-01     1.0000000000000000E+00     0.0000000000000000E+00 
    1.2499999999880820E-01     1.0000000000000000E+00     0.0000000000000000E+00 
    9.3749999999995681E-01     1.0000000000000000E+00     0.0000000000000000E+00 
    8.1250000000051703E-01     1.0000000000000000E+00     0.0000000000000000E+00 
    6.8750000000050182E-01     1.0000000000000000E+00     0.0000000000000000E+00 
    5.6250000000097111E-01     1.0000000000000000E+00     0.0000000000000000E+00 
    4.3750000000037947E-01     1.0000000000000000E+00     0.0000000000000000E+00 
    3.1249999999986477E-01     1.0000000000000000E+00     0.0000000000000000E+00 
    1.8749999999991890E-01     1.0000000000000000E+00     0.0000000000000000E+00 
    6.2499999999404102E-02     1.0000000000000000E+00     0.0000000000000000E+00 
    0.0000000000000000E+00     7.5000000000112044E-01     0.0000000000000000E+00 
    0.0000000000000000E+00     5.0000000000205913E-01     0.0000000000000000E+00 
    0.0000000000000000E+00     2.5000000000102962E-01     0.0000000000000000E+00 
    0.0000000000000000E+00     8.7499999999991362E-01     0.0000000000000000E+00 
    0.0000000000000000E+00     6.2499999999988309E-01     0.0000000000000000E+00 
    0.0000000000000000E+00     3.7499999999869987E-01     0.0000000000000000E+00 
    0.0000000000000000E+00     1.2499999999880820E-01     0.0000000000000000E+00 
    0.0000000000000000E+00     9.3749999999995681E-01     0.0000000000000000E+00 
    0.0000000000000000E+00     8.1250000000051703E-01     0.0000000000000000E+00 
    0.0000000000000000E+00     6.8750000000050182E-01     0.0000000000000000E+00 
    0.0000000000000000E+00     5.6250000000097111E-01     0.0000000000000000E+00 
    0.0000000000000000E+00     4.3750000000037947E-01     0.0000000000000000E+00 
    0.0000000000000000E+00     3.1249999999986477E-01     0.0000000000000000E+00 
    0.0000000000000000E+00     1.8749999999991890E-01     0.0000000000000000E+00 
    0.0000000000000000E+00     6.2499999999404102E-02     0.0000000000000000E+00 
    4.9999999999972200E-01     2.5000000000000000E-01     0.0000000000000000E+00 
    3.7500000000067490E-01     2.5000000000000000E-01     0.0000000000000000E+00 
    6.2500000000042988E-01     2.5000000000000000E-01     0.0000000000000000E+00 
    3.1250000000033751E-01     2.5000000000000000E-01     0.0000000000000000E+00 
    4.3750000000019851E-01     2.5000000000000000E-01     0.0000000000000000E+00 
    5.6250000000007594E-01     2.5000000000000000E-01     0.0000000000000000E+00 
    6.8750000000021494E-01     2.5000000000000000E-01     0.0000000000000000E+00 
    7.5000000000000000E-01     4.9999999999972200E-01     0.0000000000000000E+00 
    7.5000000000000000E-01     3.7500000000067490E-01     0.0000000000000000E+00 
    7.5000000000000000E-01     6.2500000000042988E-01     0.0000000000000000E+00 
    7.5000000000000000E-01     3.1250000000033751E-01     0.0000000000000000E+00 
    7.5000000000000000E-01     4.3750000000019851E-01     0.0000000000000000E+00 
    7.5000000000000000E-01     5.6250000000007594E-01     0.0000000000000000E+00 
    7.5000000000000000E-01     6.8750000000021494E-01     0.0000000000000000E+00 
    5.0000000000118039E-01     7.5000000000000000E-01     0.0000000000000000E+00 
    6.2500000000161415E-01     7.5000000000000000E-01     0.0000000000000000E+00 
    3.7500000000140910E-01     7.5000000000000000E-01     0.0000000000000000E+00 
    6.8750000000080713E-01     7.5000000000000000E-01     0.0000000000000000E+00 
    5.6250000000139733E-01     7.5000000000000000E-01     0.0000000000000000E+00 
    4.3750000000129469E-01     7.5000000000000000E-01     0.0000000000000000E+00 
    3.1250000000070460E-01     7.5000000000000000E-01     0.0000000000000000E+00 
    2.5000000000000000E-01     5.0000000000118039E-01     0.0000000000000000E+00 
    2.5000000000000000E-01     6.2500000000161415E-01     0.0000000000000000E+00 
    2.5000000000000000E-01     3.7500000000140910E-01     0.0000000000000000E+00 
    2.5000000000000000E-01     6.8750000000080713E-01     0.0000000000000000E+00 
    2.5000000000000000E-01     5.6250000000139733E-01     0.0000000000000000E+00 
    2.5000000000000000E-01     4.3750000000129469E-01     0.0000000000000000E+00 
    2.5000000000000000E-01     3.1250000000070460E-01     0.0000000000000000E+00 
    3.7499999999934702E-01     1.2500000000000000E-01     0.0000000000000000E+00 
    1.2500000000000000E-01     1.2500000000000000E-01     0.0000000000000000E+00 
    1.2500000000000000E-01     3.7500000000102962E-01     0.0000000000000000E+00 
    8.7500000000000000E-01     1.2500000000000000E-01     0.0000000000000000E+00 
    6.2499999999934697E-01     1.2500000000000000E-01     0.0000000000000000E+00 
    8.7500000000000000E-01     3.7499999999934702E-01     0.0000000000000000E+00 
    8.7500000000000000E-01     6.2499999999934697E-01     0.0000000000000000E+00 
    1.2500000000000000E-01     6.2500000000102962E-01     0.0000000000000000E+00 
    1.2500000000000000E-01     8.7500000000000000E-01     0.0000000000000000E+00 
    8.7500000000000000E-01     8.7500000000000000E-01     0.0000000000000000E+00 
    6.2500000000102962E-01     8.7500000000000000E-01     0.0000000000000000E+00 
    3.7500000000102962E-01     8.7500000000000000E-01     0.0000000000000000E+00 
    2.4999999999957681E-01     8.3333333333333329E-02     0.0000000000000000E+00 
    8.3333333333333329E-02     2.5000000000068640E-01     0.0000000000000000E+00 
    7.4999999999956468E-01     8.3333333333333329E-02     0.0000000000000000E+00 
    4.9999999999951827E-01     1.6666666666666671E-01     0.0000000000000000E+00 
    9.1666666666666674E-01     2.4999999999957681E-01     0.0000000000000000E+00 
    8.3333333333333337E-01     4.9999999999951827E-01     0.0000000000000000E+00 
    1.6666666666666671E-01     5.0000000000088307E-01     0.0000000000000000E+00 
    8.3333333333333329E-02     7.5000000000070155E-01     0.0000000000000000E+00 
    9.1666666666666674E-01     7.4999999999956468E-01     0.0000000000000000E+00 
    5.0000000000088307E-01     8.3333333333333348E-01     0.0000000000000000E+00 
    2.5000000000068640E-01     9.1666666666666674E-01     0.0000000000000000E+00 
    7.5000000000070155E-01     9.1666666666666674E-01     0.0000000000000000E+00 
[...]
CELL_DATA 768 
SCALARS Pressure double 1 
LOOKUP_TABLE default 

    3.3026240222544621E+00 
    3.2047259204747922E+00 
    3.1718001400672460E+00 
    3.2338560012227595E+00 
    3.1357089908008970E+00 
    3.0767166067513103E+00 
    3.0711797468485043E+00 
    3.1199306858069580E+00 
    3.1030110645952078E+00 
    3.0643316207508335E+00 
    3.0563280535590773E+00 
    3.0852824952510685E+00 
    3.1806575620950359E+00 
    3.1411522218118519E+00 
    3.1119805849081765E+00 
    3.1366411283342668E+00 
    3.0185056116897613E+00 
    2.9584015725969834E+00 
    2.9698477886825558E+00 
    3.0213610068665777E+00 
    2.8949419547880408E+00 
    2.8275359786063583E+00 
    2.8589628676651690E+00 
    2.9159083403429200E+00 
    2.9354739979911941E+00 
    2.8888456875768940E+00 
    2.9166773829254335E+00 
    2.9533227467491114E+00 
    3.0230171464878075E+00 
    2.9800478341632588E+00 
    2.9888170612793168E+00 
    3.0234713191792291E+00 
    3.0968917085197405E+00 
    3.0801196664832449E+00 
    3.0471317390895671E+00 
    3.0605447321318637E+00 
    3.0598133483120922E+00 
    3.0362594643364380E+00 
    3.0056212738407972E+00 
    3.0285749993664450E+00 
    2.9983919650075310E+00 
    2.9749142057661033E+00 
    2.9437851198830698E+00 
    2.9688496283526482E+00 
    3.0283741977205874E+00 
    3.0166572051086340E+00 
    2.9886639189716719E+00 
    3.0012363362953205E+00 
    3.3026705428017067E+00 
    3.2339132236606156E+00 
    3.1719775493257574E+00 
    3.2049037363814645E+00 
    3.1807252253126603E+00 
    3.1367089538462860E+00 
    3.1121362084917026E+00 
    3.1413156048293116E+00 
    3.1032117095769389E+00 
    3.0854254405346739E+00 
    3.0564285911157292E+00 
    3.0644936362631867E+00 
    3.1359519370954159E+00 
    3.1201543280896051E+00 
    3.0713956194082241E+00 
    3.0769459881341401E+00 
    3.0969585368139367E+00 
    3.0605704700708767E+00 
    3.0471486862222306E+00 
    3.0802481011411151E+00 
    3.0283067422110932E+00 
    3.0011207207361195E+00 
    2.9883186200267704E+00 
    3.0164867972141458E+00 
    2.9980609625528771E+00 
    2.9681683135737709E+00 
    2.9427547024789820E+00 
    2.9743493736344329E+00 
    3.0599016136450694E+00 
    3.0284929326744505E+00 
    3.0054004412723363E+00 
    3.0362557617699095E+00 
    3.0185593404746118E+00 
    3.0214028812501721E+00 
    2.9694269212191640E+00 
    2.9578817102453376E+00 
    3.0230202486825091E+00 
    3.0234165368668964E+00 
    2.9884674223479522E+00 
    2.9796582189908594E+00 
    2.9345549856967099E+00 
    2.9525325779325540E+00 
    2.9153183818788144E+00 
    2.8873009889450740E+00 
    2.8937205918949238E+00 
    2.9148474270031888E+00 
    2.8572821434525033E+00 
    2.8257129660900473E+00 
    2.7162736254600386E+00 
    2.6399615967486456E+00 
    2.6134648442719111E+00 
    2.6802938916373109E+00 
    2.5632799034016114E+00 
    2.4887259608951591E+00 
    2.4818951486023240E+00 
    2.5467045011908440E+00 
    2.5282756572715748E+00 
    2.4730613612628547E+00 
    2.4620265820216702E+00 
    2.5073435271132878E+00 
    2.6427030867242021E+00 
    2.5852954270620994E+00 
    2.5545040884981178E+00 
    2.6024731821742955E+00 
    2.4165225288629126E+00 
    2.3430570190247266E+00 
    2.3528490210733053E+00 
    2.4189500838060156E+00 
    2.2868995848621934E+00 
    2.2556598757003292E+00 
    2.2610442606363521E+00 
    2.2972411122629333E+00 
    2.3056299975399304E+00 
    2.2652501186510108E+00 
    2.2687072147637175E+00 
    2.3128652395967224E+00 
    2.4188704927198184E+00 
    2.3601964473886157E+00 
    2.3649310549070566E+00 
    2.4161840181054153E+00 
    2.5551401483389156E+00 
    2.5114566764609982E+00 
    2.4532624796913591E+00 
    2.4974168417465274E+00 
    2.4699752721605459E+00 
    2.4315646923368326E+00 
    2.3816057354175952E+00 
    2.4150622137764861E+00 
    2.3541725641208373E+00 
    2.3280148792023283E+00 
    2.2749089455107505E+00 
    2.2868361537677102E+00 
    2.4254056859353663E+00 
    2.3845471647626004E+00 
    2.3004170236536048E+00 
    2.3204840367527968E+00 
    2.7728035235340367E+00 
    2.7329508617215068E+00 
    2.7717784440121336E+00 
    2.8104193147081573E+00 
    2.6914680010596310E+00 
    2.6475913373185462E+00 
    2.6894686338513019E+00 
    2.7316282797662272E+00 
    2.7709318543574919E+00 
    2.7306448061952255E+00 
    2.7704681936147133E+00 
    2.8088179905963844E+00 
    2.8465047850802776E+00 
    2.8094464859135493E+00 
    2.8454734506369799E+00 
    2.8806683985418915E+00 
    2.6031272554395355E+00 
    2.5578127216845701E+00 
    2.6226869248365587E+00 
    2.6527973697755503E+00 
    2.5077424605806180E+00 
    2.4513577053005391E+00 
    2.5562804305049971E+00 
    2.5906744380002493E+00 
    2.6669843288648534E+00 
    2.6486922282765870E+00 
    2.7327019108324881E+00 
    2.7379149399178133E+00 
    2.7011888827642268E+00 
    2.6843807405476450E+00 
    2.7427819599334855E+00 
    2.7477739337070695E+00 
    2.9101568880086450E+00 
    2.8728135515859363E+00 
    2.8922917051498924E+00 
    2.9349224472100519E+00 
    2.8334200404307492E+00 
    2.7917347541851982E+00 
    2.7963886392551864E+00 
    2.8461470947960166E+00 
    2.8584598390828080E+00 
    2.8011938489811046E+00 
    2.8058198855972307E+00 
    2.8703329019174455E+00 
    2.9569795623780495E+00 
    2.9105214293575545E+00 
    2.9276692713916641E+00 
    2.9762736023878102E+00 
    2.2483076303665688E+00 
    2.2163727918680829E+00 
    2.2058427476361717E+00 
    2.2425424420104654E+00 
    2.1616818754717815E+00 
    2.0862436837018521E+00 
    2.0831097588951009E+00 
    2.1520565955539843E+00 
    2.1449281711310988E+00 
    2.0822133849277527E+00 
    2.0834286364241743E+00 
    2.1400634858610768E+00 
    2.2378614349933486E+00 
    2.1974615587937532E+00 
    2.1909804798335286E+00 
    2.2341254252824898E+00 
    1.9949967368438899E+00 
    1.8927462290286508E+00 
    1.9153225982313911E+00 
    2.0033411187810328E+00 
    1.7837912168708243E+00 
    1.6707893106857945E+00 
    1.7247639366025045E+00 
    1.8217408045988321E+00 
    1.8608947214474290E+00 
    1.7793734554638934E+00 
    1.8353006161776646E+00 
    1.9020198420019043E+00 
    2.0136413278160061E+00 
    1.9396706894317510E+00 
    1.9661532795060419E+00 
    2.0260846715673364E+00 
    2.2290033601442172E+00 
    2.1771131643412112E+00 
    2.1489657377682332E+00 
    2.2206860814196010E+00 
    2.1208045082218292E+00 
    2.0628209055900308E+00 
    2.0125822372362872E+00 
    2.0784727769841034E+00 
    2.0278403010289092E+00 
    1.9570862195960619E+00 
    1.8976606680915111E+00 
    1.9690069802660193E+00 
    2.2058758245763084E+00 
    2.1105465018033471E+00 
    2.0556224958309315E+00 
    2.1735167441018803E+00 
    2.0214565442642152E+00 
    1.9525190468479627E+00 
    1.8460228712595201E+00 
    1.8892842528445675E+00 
    1.8905570439499439E+00 
    1.8321040895224232E+00 
    1.7631446026320863E+00 
    1.8042038976376775E+00 
    1.7188863290229450E+00 
    1.6941491483104412E+00 
    1.6251014292875312E+00 
    1.6339165012177019E+00 
    1.7679537504756548E+00 
    1.7434091668687306E+00 
    1.6424026485836714E+00 
    1.6505057187247165E+00 
    1.7713851391826789E+00 
    1.7079921448854702E+00 
    1.6477101799944449E+00 
    1.7109650575193998E+00 
    1.6449542236453556E+00 
    1.5818322512502976E+00 
    1.5200908813591480E+00 
    1.5841610705676803E+00 
    1.5232289465852074E+00 
    1.4585737305495983E+00 
    1.3981058068478678E+00 
    1.4624534232614534E+00 
    1.6501598282087317E+00 
    1.5869302240693153E+00 
    1.5260366385471045E+00 
    1.5890495646392386E+00 
    1.5349714868249198E+00 
    1.5420977803754912E+00 
    1.4425085759767464E+00 
    1.4209600506308124E+00 
    1.5488474351423667E+00 
    1.5552909476825953E+00 
    1.4849794172504487E+00 
    1.4636969325924734E+00 
    1.3793137732342706E+00 
    1.4143898858445889E+00 
    1.3435987153792774E+00 
    1.2961998620982922E+00 
    1.3120556981526290E+00 
    1.3451833698258426E+00 
    1.2526433496104754E+00 
    1.2136937903932024E+00 
    2.9760217592262386E+00 
    2.9265683353738363E+00 
    2.9089902635039029E+00 
    2.9562533356325336E+00 
    2.8680658422754659E+00 
    2.8021087399537357E+00 
    2.7975309867063545E+00 
    2.8558917107853503E+00 
    2.8433094021424696E+00 
    2.7928427990898412E+00 
    2.7883543141631586E+00 
    2.8304649762396572E+00 
    2.9337279195154893E+00 
    2.8903162507905744E+00 
    2.8705033111681284E+00 
    2.9085355482614190E+00 
    2.7286913075883357E+00 
    2.6457070370952578E+00 
    2.6640682489422880E+00 
    2.7341319356927238E+00 
    2.5545893830142705E+00 
    2.4512721609725912E+00 
    2.5067546185924150E+00 
    2.5887566467757406E+00 
    2.6205062186419412E+00 
    2.5561550006496820E+00 
    2.6008726742035719E+00 
    2.6503613613302890E+00 
    2.7392225813677862E+00 
    2.6814872432540784E+00 
    2.6983015706131086E+00 
    2.7444136299971582E+00 
    2.8786910677714928E+00 
    2.8428735308031721E+00 
    2.8068342885335542E+00 
    2.8444313708848106E+00 
    2.8057535886497416E+00 
    2.7672010479052802E+00 
    2.7277245058277946E+00 
    2.7680522053656467E+00 
    2.7290091500899365E+00 
    2.6869246957661073E+00 
    2.6451490221227867E+00 
    2.6889791447921643E+00 
    2.8083209040574779E+00 
    2.7693519909032145E+00 
    2.7305801449450366E+00 
    2.7706842913001757E+00 
    2.7140213429265065E+00 
    2.6778951932992068E+00 
    2.6110109898517604E+00 
    2.6376120757104604E+00 
    2.6401961012930637E+00 
    2.5999161402712168E+00 
    2.5517203827925399E+00 
    2.5826578980881472E+00 
    2.5257865223906850E+00 
    2.5047116976842063E+00 
    2.4603079861617982E+00 
    2.4713077487026127E+00 
    2.5610120382142862E+00 
    2.5443671421136154E+00 
    2.4802095897913401E+00 
    2.4870254556403841E+00 
    2.5528438832179345E+00 
    2.4962314449213072E+00 
    2.4522464717246093E+00 
    2.5090031327317250E+00 
    2.4254165487795172E+00 
    2.3230040762474222E+00 
    2.3052003245682648E+00 
    2.3856155878752321E+00 
    2.3576126182262640E+00 
    2.2944830372413056E+00 
    2.2827608480912769E+00 
    2.3342922225612210E+00 
    2.4679292625931191E+00 
    2.4149821292848750E+00 
    2.3833560560066314E+00 
    2.4306245400756543E+00 
    2.4166037505247240E+00 
    2.4188858249475782E+00 
    2.3558414288213556E+00 
    2.3458557130653261E+00 
    2.4186027140443622E+00 
    2.4158672638931216E+00 
    2.3680336408710496E+00 
    2.3634937283183706E+00 
    2.3106063360709559E+00 
    2.3193050142690579E+00 
    2.2743760253640808E+00 
    2.2698896588068398E+00 
    2.2907153865050938E+00 
    2.3013395792270113E+00 
    2.2651810852360246E+00 
    2.2596304332403006E+00 
    1.4910098391864952E+00 
    1.3688408507560155E+00 
    1.3284337048333472E+00 
    1.4356072277951584E+00 
    1.2405399964294974E+00 
    1.1011039877329161E+00 
    1.0944636515088144E+00 
    1.2160049225440859E+00 
    1.1941146379820489E+00 
    1.0912559536281841E+00 
    1.0914281453370249E+00 
    1.1755495681924195E+00 
    1.3812064141546316E+00 
    1.2898336308217337E+00 
    1.2540172972497716E+00 
    1.3289076411547207E+00 
    9.4067110646361174E-01 
    7.3948433335830144E-01 
    7.9905779868414450E-01 
    9.5829114869931709E-01 
    4.5469844415681004E-01 
    0.0000000000000000E+00 
    3.2570591831913820E-01 
    5.9805967767375456E-01 
    7.2293216385366543E-01 
    5.6360549528338177E-01 
    7.4247360383898364E-01 
    8.3143761080226330E-01 
    9.7971555536038180E-01 
    8.5958719228503566E-01 
    9.1895522400879204E-01 
    1.0039691729633236E+00 
    1.2760026267429925E+00 
    1.2092842016437104E+00 
    1.1581286712533354E+00 
    1.2252241920207498E+00 
    1.1382077672058120E+00 
    1.0605460871909207E+00 
    9.9731902629269109E-01 
    1.0831533756351706E+00 
    1.0356765966506976E+00 
    9.3793266721014634E-01 
    8.8475116108589513E-01 
    9.9901328779894105E-01 
    1.1841499478552451E+00 
    1.1168176738482130E+00 
    1.0893479975874085E+00 
    1.1584314225342582E+00 
    2.0289491405914029E+00 
    1.8955398986658172E+00 
    1.8518201922782582E+00 
    1.9600191931174016E+00 
    1.7719900486324909E+00 
    1.6523893063897293E+00 
    1.6441458551707624E+00 
    1.7471083599467299E+00 
    1.7222357075364114E+00 
    1.6356780287803174E+00 
    1.6270230783873092E+00 
    1.6973824114546081E+00 
    1.8975189581022125E+00 
    1.8094351873602026E+00 
    1.7678366032950381E+00 
    1.8382292105033777E+00 
    1.5353835124325581E+00 
    1.4215364345223691E+00 
    1.4431179142909643E+00 
    1.5427123261398330E+00 
    1.3131610351733329E+00 
    1.2150894626332012E+00 
    1.2543806397428237E+00 
    1.3464088889239962E+00 
    1.3807209747868647E+00 
    1.2982937788833642E+00 
    1.3460392394567549E+00 
    1.4162123515202765E+00 
    1.5497981163230590E+00 
    1.4647055762693377E+00 
    1.4863833221005065E+00 
    1.5567101720262069E+00 
    1.7768086874991214E+00 
    1.7151219356282026E+00 
    1.6513493433823800E+00 
    1.7127919711399848E+00 
    1.6530752366790886E+00 
    1.5909840763401490E+00 
    1.5278691955980732E+00 
    1.5895542856909137E+00 
    1.5258919886304962E+00 
    1.4645778363549682E+00 
    1.4007926938202622E+00 
    1.4616677101161182E+00 
    1.6493769689376208E+00 
    1.5876544466798601E+00 
    1.5236584834522848E+00 
    1.5859875305135624E+00 
    2.1794444715098695E+00 
    2.0633216094535842E+00 
    2.1183478283930643E+00 
    2.2125033034873307E+00 
    1.9771103821348690E+00 
    1.9049658944641652E+00 
    1.9652356052644981E+00 
    2.0366456682210954E+00 
    2.0873228146699701E+00 
    2.0212398424582596E+00 
    2.0714776243504200E+00 
    2.1291862646815063E+00 
    2.2284105949690138E+00 
    2.1567294991635344E+00 
    2.1845376029184478E+00 
    2.2362938958318517E+00 
    1.8419737470142310E+00 
    1.7854489031883451E+00 
    1.8683076487612191E+00 
    1.9097451416926616E+00 
    1.7303065966861142E+00 
    1.6757354291173021E+00 
    1.7903955334996147E+00 
    1.8287608720150463E+00 
    1.9235841053541940E+00 
    1.9008628999597972E+00 
    2.0038138243477666E+00 
    2.0121098003260158E+00 
    1.9745756382374389E+00 
    1.9480023085038616E+00 
    2.0223674893684294E+00 
    2.0347696073004928E+00 
    2.2399092393751934E+00 
    2.1976852466079948E+00 
    2.2036811377143226E+00 
    2.2429976389108268E+00 
    2.1477944100187565E+00 
    2.0918994866883498E+00 
    2.0906552361993871E+00 
    2.1523932724604466E+00 
    2.1592440505508859E+00 
    2.0915783811697461E+00 
    2.0947322236042312E+00 
    2.1686639362765949E+00 
    2.2471652596843459E+00 
    2.2116356514845097E+00 
    2.2217678467019950E+00 
    2.2525616891613831E+00 
    1.1591238428417334E+00 
    1.0901195011122844E+00 
    1.1189389244094172E+00 
    1.1859765329012655E+00 
    9.9986570777657324E-01 
    8.8558301424177077E-01 
    9.4032595739838909E-01 
    1.0380771888576321E+00 
    1.0867742667786668E+00 
    1.0011040232526651E+00 
    1.0653302974150403E+00 
    1.1426689241923300E+00 
    1.2278413558430887E+00 
    1.1613577844961853E+00 
    1.2131512204532100E+00 
    1.2791582830352408E+00 
    7.4325470327638288E-01 
    5.6425500922800531E-01 
    7.2533289730730122E-01 
    8.3382355966316057E-01 
    3.2607768392956521E-01 
    0.0000000000000000E+00 
    4.5637446226041867E-01 
    6.0016506036597028E-01 
    8.0323488448560831E-01 
    7.4334432817747154E-01 
    9.4655259883609788E-01 
    9.6405340945231521E-01 
    9.2282463385034863E-01 
    8.6366236817101749E-01 
    9.8517119668514108E-01 
    1.0089346254927902E+00 
    1.3323250929498567E+00 
    1.2581930050199879E+00 
    1.2942563593658467E+00 
    1.3848559021281737E+00 
    1.1804657505439682E+00 
    1.0968299490924633E+00 
    1.0971579354626437E+00 
    1.1994241332122979E+00 
    1.2214595319501447E+00 
    1.1006734664364903E+00 
    1.1074015520775407E+00 
    1.2459434721551734E+00 
    1.4393969280607206E+00 
    1.3328903178954208E+00 
    1.3731794283594863E+00 
    1.4948642085591817E+00 
    2.2428191947107137E+00 
    2.3717276242652092E+00 
    2.3595923524011018E+00 
    2.2405660993587300E+00 
    2.4952282504388239E+00 
    2.6115429096992111E+00 
    2.5819252596273863E+00 
    2.4738006374817174E+00 
    2.4558110182423336E+00 
    2.5550823822838749E+00 
    2.5303248954720408E+00 
    2.4406587852748713E+00 
    2.2413740507591293E+00 
    2.3510365307150018E+00 
    2.3455914511289353E+00 
    2.2450646717018738E+00 
    2.7167804328916456E+00 
    2.8104894472553772E+00 
    2.7604799115982734E+00 
    2.6768457808111505E+00 
    2.8934525151803858E+00 
    2.9645401850301631E+00 
    2.9097226119613735E+00 
    2.8381910951361249E+00 
    2.7811648245712211E+00 
    2.8489073940716292E+00 
    2.7812751863517704E+00 
    2.7210914794762986E+00 
    2.6388530608690428E+00 
    2.7111605490345081E+00 
    2.6613813511280338E+00 
    2.6019829345367795E+00 
    2.2580394330594560E+00 
    2.3604664138236315E+00 
    2.3984026171337942E+00 
    2.2829436405774994E+00 
    2.4550044393025439E+00 
    2.5428550600109059E+00 
    2.5933540243686255E+00 
    2.5006593540744975E+00 
    2.5508485715318434E+00 
    2.6461443663076811E+00 
    2.7014316385283972E+00 
    2.6061342471508264E+00 
    2.3166864185570990E+00 
    2.4436071379152011E+00 
    2.4984257847342293E+00 
    2.3650133971433815E+00 
    2.1102902276101689E+00 
    1.9764048317349983E+00 
    1.9937930514083257E+00 
    2.1176156868112095E+00 
    1.8428723228516428E+00 
    1.7111217218419925E+00 
    1.7493886174909321E+00 
    1.8707366359672915E+00 
    1.8983284255507236E+00 
    1.7872229701054434E+00 
    1.8250628726898597E+00 
    1.9260294838380221E+00 
    2.1265885309779637E+00 
    2.0115864072907215E+00 
    2.0299149457303916E+00 
    2.1370605785603263E+00 
    1.5851323494877270E+00 
    1.4655081850518887E+00 
    1.5377093933536794E+00 
    1.6386394616101667E+00 
    1.3506854158119359E+00 
    1.2420472623251686E+00 
    1.3427066839656108E+00 
    1.4389928723279000E+00 
    1.5299714276982330E+00 
    1.4501361474356327E+00 
    1.5622469366977401E+00 
    1.6235600536301662E+00 
    1.6919760984798449E+00 
    1.6106750399127254E+00 
    1.6847397833502715E+00 
    1.7456604608383901E+00 
    2.1416876280462724E+00 
    2.0295649315792912E+00 
    2.0070309266953004E+00 
    2.1372176503900446E+00 
    1.9234785630717386E+00 
    1.8218773727606161E+00 
    1.7761680072212112E+00 
    1.8881030235120917E+00 
    1.8497788274365670E+00 
    1.7292350991748555E+00 
    1.6810795999573336E+00 
    1.8078354682317404E+00 
    2.1267367945084108E+00 
    1.9794109833743236E+00 
    1.9440916503654939E+00 
    2.1042428190208242E+00 
    2.3675535824451068E+00 
    2.4981625735437909E+00 
    2.4433381742679070E+00 
    2.3186058477433855E+00 
    2.6034520889273791E+00 
    2.6970512440735539E+00 
    2.6428280781269793E+00 
    2.5487848747223931E+00 
    2.4991399307562472E+00 
    2.5909105935693950E+00 
    2.5411201441503644E+00 
    2.4539585376402280E+00 
    2.2842466394611267E+00 
    2.3981849757162021E+00 
    2.3602897501926061E+00 
    2.2588362512773315E+00 
    2.7770967529182222E+00 
    2.8463936108621999E+00 
    2.7789312166539673E+00 
    2.7178333197598215E+00 
    2.9086270941028682E+00 
    2.9643889290502941E+00 
    2.8931517070231907E+00 
    2.8370357468007730E+00 
    2.7593975693591068E+00 
    2.8101370037694964E+00 
    2.7164614794076418E+00 
    2.6759608201301015E+00 
    2.6588963680530853E+00 
    2.7093167651632926E+00 
    2.6374437593546358E+00 
    2.6001591966174900E+00 
    2.2453798952338895E+00 
    2.3452938893088122E+00 
    2.3506667719788275E+00 
    2.2413960397055099E+00 
    2.4397738362781443E+00 
    2.5289452511212596E+00 
    2.5539831145623890E+00 