# vtk DataFile Version 2.0
Pressure Field Data 
ASCII 
DATASET UNSTRUCTURED_GRID 

POINTS 801 double 

    0.0000000000000000E+00     0.0000000000000000E+00     0.0000000000000000E+00 
    1.0000000000000000E+00     0.0000000000000000E+00     0.0000000000000000E+00 
    1.0000000000000000E+00     1.0000000000000000E+00     0.0000000000000000E+00 
    0.0000000000000000E+00     1.0000000000000000E+00     0.0000000000000000E+00 
    2.5000000000000000E-01     2.5000000000000000E-01     0.0000000000000000E+00 
    7.5000000000000000E-01     2.5000000000000000E-01     0.0000000000000000E+00 
    7.5000000000000000E-01     7.5000000000000000E-01     0.0000000000000000E+00 
    2.5000000000000000E-01     7.5000000000000000E-01     0.0000000000000000E+00 
    2.4999999999941941E-01     0.0000000000000000E+00     0.0000000000000000E+00 
    4.9999999999869399E-01     0.0000000000000000E+00     0.0000000000000000E+00 
    7.4999999999934697E-01     0.0000000000000000E+00     0.0000000000000000E+00 
    1.2499999999977940E-01     0.0000000000000000E+00     0.0000000000000000E+00 
    3.7499999999905670E-01     0.0000000000000000E+00     0.0000000000000000E+00 
    6.2499999999902045E-01     0.0000000000000000E+00     0.0000000000000000E+00 
    8.7499999999967348E-01     0.0000000000000000E+00     0.0000000000000000E+00 
    6.2499999999889699E-02     0.0000000000000000E+00     0.0000000000000000E+00 
    1.8749999999959940E-01     0.0000000000000000E+00     0.0000000000000000E+00 
    3.1249999999923811E-01     0.0000000000000000E+00     0.0000000000000000E+00 
    4.3749999999887529E-01     0.0000000000000000E+00     0.0000000000000000E+00 
    5.6249999999885725E-01     0.0000000000000000E+00     0.0000000000000000E+00 
    6.8749999999918376E-01     0.0000000000000000E+00     0.0000000000000000E+00 
    8.1249999999951017E-01     0.0000000000000000E+00     0.0000000000000000E+00 
    9.3749999999983680E-01     0.0000000000000000E+00     0.0000000000000000E+00 
    1.0000000000000000E+00     2.4999999999941941E-01     0.0000000000000000E+00 
    1.0000000000000000E+00     4.9999999999869399E-01     0.0000000000000000E+00 
    1.0000000000000000E+00     7.4999999999934697E-01     0.0000000000000000E+00 
    1.0000000000000000E+00     1.2499999999977940E-01     0.0000000000000000E+00 
    1.0000000000000000E+00     3.7499999999905670E-01     0.0000000000000000E+00 
    1.0000000000000000E+00     6.2499999999902045E-01     0.0000000000000000E+00 
    1.0000000000000000E+00     8.7499999999967348E-01     0.0000000000000000E+00 
    1.0000000000000000E+00     6.2499999999889699E-02     0.0000000000000000E+00 
    1.0000000000000000E+00     1.8749999999959940E-01     0.0000000000000000E+00 
    1.0000000000000000E+00     3.1249999999923811E-01     0.0000000000000000E+00 
    1.0000000000000000E+00     4.3749999999887529E-01     0.0000000000000000E+00 
    1.0000000000000000E+00     5.6249999999885725E-01     0.0000000000000000E+00 
    1.0000000000000000E+00     6.8749999999918376E-01     0.0000000000000000E+00 
    1.0000000000000000E+00     8.1249999999951017E-01     0.0000000000000000E+00 
    1.0000000000000000E+00     9.3749999999983680E-01     0.0000000000000000E+00 
    7.5000000000112044E-01     1.0000000000000000E+00     0.0000000000000000E+00 
    5.0000000000205913E-01     1.0000000000000000E+00     0.0000000000000000E+00 
    2.5000000000102962E-01     1.0000000000000000E+00     0.0000000000000000E+00 
    8.7499999999991362E-01     1.0000000000000000E+00     0.0000000000000000E+00 
    6.2499999999988309E-01     1.0000000000000000E+00     0.0000000000000000E+00 
    3.7499999999869987E-01     1.0000000000000000E+00     0.0000000000000000E+00 
    1.2499999999880820E-01     1.0000000000000000E+00     0.0000000000000000E+00 
    9.3749999999995681E-01     1.0000000000000000E+00     0.0000000000000000E+00 
    8.1250000000051703E-01     1.0000000000000000E+00     0.0000000000000000E+00 
    6.8750000000050182E-01     1.0000000000000000E+00     0.0000000000000000E+00 
    5.6250000000097111E-01     1.0000000000000000E+00     0.0000000000000000E+00 
    4.3750000000037947E-01     1.0000000000000000E+00     0.0000000000000000E+00 
    3.1249999999986477E-01     1.0000000000000000E+00     0.0000000000000000E+00 
    1.8749999999991890E-01     1.0000000000000000E+00     0.0000000000000000E+00 
    6.2499999999404102E-02     1.0000000000000000E+00     0.0000000000000000E+00 
    0.0000000000000000E+00     7.5000000000112044E-01     0.0000000000000000E+00 
    0.0000000000000000E+00     5.0000000000205913E-01     0.0000000000000000E+00 
    0.0000000000000000E+00     2.5000000000102962E-01     0.0000000000000000E+00 
    0.0000000000000000E+00     8.7499999999991362E-01     0.0000000000000000E+00 
    0.0000000000000000E+00     6.2499999999988309E-01     0.0000000000000000E+00 
    0.0000000000000000E+00     3.7499999999869987E-01     0.0000000000000000E+00 
    0.0000000000000000E+00     1.2499999999880820E-01     0.0000000000000000E+00 
    0.0000000000000000E+00     9.3749999999995681E-01     0.0000000000000000E+00 
    0.0000000000000000E+00     8.1250000000051703E-01     0.0000000000000000E+00 
    0.0000000000000000E+00     6.8750000000050182E-01     0.0000000000000000E+00 
    0.0000000000000000E+00     5.6250000000097111E-01     0.0000000000000000E+00 
    0.0000000000000000E+00     4.3750000000037947E-01     0.0000000000000000E+00 
    0.0000000000000000E+00     3.1249999999986477E-01     0.0000000000000000E+00 
    0.0000000000000000E+00     1.8749999999991890E-01     0.0000000000000000E+00 
    0.0000000000000000E+00     6.2499999999404102E-02     0.0000000000000000E+00 
    4.9999999999972200E-01     2.5000000000000000E-01     0.0000000000000000E+00 
    3.7500000000067490E-01     2.5000000000000000E-01     0.0000000000000000E+00 
    6.2500000000042988E-01     2.5000000000000000E-01     0.0000000000000000E+00 
    3.1250000000033751E-01     2.5000000000000000E-01     0.0000000000000000E+00 
    4.3750000000019851E-01     2.5000000000000000E-01     0.0000000000000000E+00 
    5.6250000000007594E-01     2.5000000000000000E-01     0.0000000000000000E+00 
    6.8750000000021494E-01     2.5000000000000000E-01     0.0000000000000000E+00 
    7.5000000000000000E-01     4.9999999999972200E-01     0.0000000000000000E+00 
    7.5000000000000000E-01     3.7500000000067490E-01     0.0000000000000000E+00 
    7.5000000000000000E-01     6.2500000000042988E-01     0.0000000000000000E+00 
    7.5000000000000000E-01     3.1250000000033751E-01     0.0000000000000000E+00 
    7.5000000000000000E-01     4.3750000000019851E-01     0.0000000000000000E+00 
    7.5000000000000000E-01     5.6250000000007594E-01     0.0000000000000000E+00 
    7.5000000000000000E-01     6.8750000000021494E-01     0.0000000000000000E+00 
    5.0000000000118039E-01     7.5000000000000000E-01     0.0000000000000000E+00 
    6.2500000000161415E-01     7.5000000000000000E-01     0.0000000000000000E+00 
    3.7500000000140910E-01     7.5000000000000000E-01     0.0000000000000000E+00 
    6.8750000000080713E-01     7.5000000000000000E-01     0.0000000000000000E+00 
    5.6250000000139733E-01     7.5000000000000000E-01     0.0000000000000000E+00 
    4.3750000000129469E-01     7.5000000000000000E-01     0.0000000000000000E+00 
    3.1250000000070460E-01     7.5000000000000000E-01     0.0000000000000000E+00 
    2.5000000000000000E-01     5.0000000000118039E-01     0.0000000000000000E+00 
    2.5000000000000000E-01     6.2500000000161415E-01     0.0000000000000000E+00 
    2.5000000000000000E-01     3.7500000000140910E-01     0.0000000000000000E+00 
    2.5000000000000000E-01     6.8750000000080713E-01     0.0000000000000000E+00 
    2.5000000000000000E-01     5.6250000000139733E-01     0.0000000000000000E+00 
    2.5000000000000000E-01     4.3750000000129469E-01     0.0000000000000000E+00 
    2.5000000000000000E-01     3.1250000000070460E-01     0.0000000000000000E+00 
    3.7499999999934702E-01     1.2500000000000000E-01     0.0000000000000000E+00 
    1.2500000000000000E-01     1.2500000000000000E-01     0.0000000000000000E+00 
    1.2500000000000000E-01     3.7500000000102962E-01     0.0000000000000000E+00 
    8.7500000000000000E-01     1.2500000000000000E-01     0.0000000000000000E+00 
    6.2499999999934697E-01     1.2500000000000000E-01     0.0000000000000000E+00 
    8.7500000000000000E-01     3.7499999999934702E-01     0.0000000000000000E+00 
    8.7500000000000000E-01     6.2499999999934697E-01     0.0000000000000000E+00 
    1.2500000000000000E-01     6.2500000000102962E-01     0.0000000000000000E+00 
    1.2500000000000000E-01     8.7500000000000000E-01     0.0000000000000000E+00 
    8.7500000000000000E-01     8.7500000000000000E-01     0.0000000000000000E+00 
    6.2500000000102962E-01     8.7500000000000000E-01     0.0000000000000000E+00 
    3.7500000000102962E-01     8.7500000000000000E-01     0.0000000000000000E+00 
    2.4999999999957681E-01     8.3333333333333329E-02     0.0000000000000000E+00 
    8.3333333333333329E-02     2.5000000000068640E-01     0.0000000000000000E+00 
    7.4999999999956468E-01     8.3333333333333329E-02     0.0000000000000000E+00 
    4.9999999999951827E-01     1.6666666666666671E-01     0.0000000000000000E+00 
    9.1666666666666674E-01     2.4999999999957681E-01     0.0000000000000000E+00 
    8.3333333333333337E-01     4.9999999999951827E-01     0.0000000000000000E+00 
    1.6666666666666671E-01     5.0000000000088307E-01     0.0000000000000000E+00 
    8.3333333333333329E-02     7.5000000000070155E-01     0.0000000000000000E+00 
    9.1666666666666674E-01     7.4999999999956468E-01     0.0000000000000000E+00 
    5.0000000000088307E-01     8.3333333333333348E-01     0.0000000000000000E+00 
    2.5000000000068640E-01     9.1666666666666674E-01     0.0000000000000000E+00 
    7.5000000000070155E-01     9.1666666666666674E-01     0.0000000000000000E+00 
[...]
CELL_DATA 768 
SCALARS Pressure double 1 
LOOKUP_TABLE default 

    3.2180613581408455E+00 
    3.1208999449511667E+00 
    3.0884605827405571E+00 
    3.1496942472810709E+00 
    3.0531962792815412E+00 
    2.9962599554272069E+00 
    2.9909614361151986E+00 
    3.0378671775292623E+00 
    3.0215299135677878E+00 
    2.9844325377327645E+00 
    2.9768302566849694E+00 
    3.0045214848452635E+00 
    3.0971689672941340E+00 
    3.0584982601954267E+00 
    3.0302430619307184E+00 
    3.0541688613624594E+00 
    2.9408469383829523E+00 
    2.8840625834442108E+00 
    2.8948676419421200E+00 
    2.9435621054855505E+00 
    2.8243271389708307E+00 
    2.7609726482361641E+00 
    2.7904643043820743E+00 
    2.8440466552460641E+00 
    2.8624655837412276E+00 
    2.8185015623410044E+00 
    2.8446404697406904E+00 
    2.8792892490516189E+00 
    2.9451510029325734E+00 
    2.9045133435304673E+00 
    2.9128202277839819E+00 
    2.9456095489093110E+00 
    3.0157886594450320E+00 
    2.9996441574828130E+00 
    2.9681952620814638E+00 
    2.9810282041475333E+00 
    2.9801992475307673E+00 
    2.9577597046064921E+00 
    2.9287327233920113E+00 
    2.9505192955683479E+00 
    2.9219312576773167E+00 
    2.8996854438514998E+00 
    2.8701890534671000E+00 
    2.8939271724675488E+00 
    2.9504757317005423E+00 
    2.9392892690887114E+00 
    2.9127781044289400E+00 
    2.9248237641463022E+00 
    3.2181128775659000E+00 
    3.1497635466686500E+00 
    3.0886984003223295E+00 
    3.1211246032581590E+00 
    3.0972544517976215E+00 
    3.0542589406612635E+00 
    3.0304795034071699E+00 
    3.0587337422880552E+00 
    3.0218783094562816E+00 
    3.0048219853620153E+00 
    2.9771756064067167E+00 
    2.9848371596587095E+00 
    3.0535605100259149E+00 
    3.0382266762390904E+00 
    2.9914146214514168E+00 
    2.9967203968977865E+00 
    3.0158850142566118E+00 
    2.9811024058725271E+00 
    2.9683652001778964E+00 
    2.9998739861769814E+00 
    2.9504857985971014E+00 
    2.9248286321752524E+00 
    2.9127431961496417E+00 
    2.9393411068028326E+00 
    2.9219582567591331E+00 
    2.8937327167451827E+00 
    2.8698221971062843E+00 
    2.8996182852993786E+00 
    2.9804742849286074E+00 
    2.9506985404612602E+00 
    2.9288851725304950E+00 
    2.9580354533084305E+00 
    2.9412858101747439E+00 
    2.9439761430848708E+00 
    2.8950029967491786E+00 
    2.8841459730703423E+00 
    2.9455117552644685E+00 
    2.9458954409880422E+00 
    2.9129311645286142E+00 
    2.9046334609295115E+00 
    2.8622468972292809E+00 
    2.8791146882953522E+00 
    2.8440938346007352E+00 
    2.8178798930268329E+00 
    2.8239762221190170E+00 
    2.8437689038863549E+00 
    2.7898159864636227E+00 
    2.7603066462011649E+00 
    2.6563634019968503E+00 
    2.5845315811909102E+00 
    2.5596153272559139E+00 
    2.6224830716660117E+00 
    2.5125905343839650E+00 
    2.4436351239604077E+00 
    2.4375488203486615E+00 
    2.4971778585961673E+00 
    2.4800674363826305E+00 
    2.4296327088391414E+00 
    2.4197147415283542E+00 
    2.4607279769331480E+00 
    2.5871315714324301E+00 
    2.5331495039485770E+00 
    2.5043390516925346E+00 
    2.5494035561887709E+00 
    2.3811773601275217E+00 
    2.3256706905605973E+00 
    2.3327868490788584E+00 
    2.3827182019366866E+00 
    2.2767077806130267E+00 
    2.2461496369304492E+00 
    2.2513298255471215E+00 
    2.2865053467862473E+00 
    2.2941416982969653E+00 
    2.2557579577541702E+00 
    2.2601261232851049E+00 
    2.2984573703284283E+00 
    2.3821193021999445E+00 
    2.3368300567157143E+00 
    2.3381729814998478E+00 
    2.3795173751309706E+00 
    2.5052793339873500E+00 
    2.4645376998413071E+00 
    2.4114621238467975E+00 
    2.4519391457173239E+00 
    2.4266400848629983E+00 
    2.3924158507093218E+00 
    2.3495192415242339E+00 
    2.3774932130832869E+00 
    2.3246437252898744E+00 
    2.3066076500432260E+00 
    2.2643392601751202E+00 
    2.2692040426282607E+00 
    2.3866821868388550E+00 
    2.3498456370425593E+00 
    2.2771392301840918E+00 
    2.2951784986705541E+00 
    2.7095129480397815E+00 
    2.6719844073067889E+00 
    2.7083819449709563E+00 
    2.7447697382247402E+00 
    2.6330311467518657E+00 
    2.5919910384377354E+00 
    2.6314190852811867E+00 
    2.6707415434674995E+00 
    2.7074720180792498E+00 
    2.6699186695695176E+00 
    2.7069130208352297E+00 
    2.7427620920967750E+00 
    2.7785517694214374E+00 
    2.7436005239280470E+00 
    2.7772499402956918E+00 
    2.8105442568318644E+00 
    2.5504891432682042E+00 
    2.5082563871629366E+00 
    2.5695963762369640E+00 
    2.5973584319752190E+00 
    2.4618501644684487E+00 
    2.4095676627237830E+00 
    2.5091698362404702E+00 
    2.5405398015469127E+00 
    2.6118832341775531E+00 
    2.5958618237912106E+00 
    2.6714372623292766E+00 
    2.6762341422214213E+00 
    2.6426430060333663E+00 
    2.6272980681716778E+00 
    2.6809604553709478E+00 
    2.6857888101608980E+00 
    2.8382410945888572E+00 
    2.8028006990872654E+00 
    2.8210465613047404E+00 
    2.8616389325853575E+00 
    2.7656168860655668E+00 
    2.7265572294369127E+00 
    2.7305491264643384E+00 
    2.7773063510653087E+00 
    2.7886686327156935E+00 
    2.7345344262920879E+00 
    2.7385051349342300E+00 
    2.7998144617877698E+00 
    2.8826181055622935E+00 
    2.8382657857725966E+00 
    2.8546036511146982E+00 
    2.9010525833300194E+00 
    2.2392038990200906E+00 
    2.2093105367313814E+00 
    2.1995121921725178E+00 
    2.2337750322961596E+00 
    2.1579568471685371E+00 
    2.0861034013690061E+00 
    2.0833364162731671E+00 
    2.1490427394717631E+00 
    2.1428044050917991E+00 
    2.0830184361627473E+00 
    2.0850788826771880E+00 
    2.1391845658364619E+00 
    2.2294677334045376E+00 
    2.1919440377217332E+00 
    2.1869357309334596E+00 
    2.2272086104862203E+00 
    1.9974426360773927E+00 
    1.8961058759105465E+00 
    1.9188716094460807E+00 
    2.0059099512562204E+00 
    1.7867690579428384E+00 
    1.6730102037021586E+00 
    1.7272890537112664E+00 
    1.8250230187483931E+00 
    1.8647655346851182E+00 
    1.7823402517793854E+00 
    1.8391795050500019E+00 
    1.9070694498318599E+00 
    2.0165971140321490E+00 
    1.9437400375225871E+00 
    1.9712305762291362E+00 
    2.0297481457582585E+00 
    2.2242625233202755E+00 
    2.1765844800638994E+00 
    2.1518722692409367E+00 
    2.2143502751769533E+00 
    2.1234301738827455E+00 
    2.0666471837005123E+00 
    2.0192790003588619E+00 
    2.0860278131760803E+00 
    2.0399064624820515E+00 
    1.9656069509726122E+00 
    1.9059174871188516E+00 
    1.9838874608518648E+00 
    2.1974522148772846E+00 
    2.1169675912928159E+00 
    2.0671060133752421E+00 
    2.1687433473187072E+00 
    2.0346009373419429E+00 
    1.9681284483581940E+00 
    1.8534476446504384E+00 
    1.8982305981030168E+00 
    1.9027788045769776E+00 
    1.8375148385921845E+00 
    1.7652453746749424E+00 
    1.8086504165070465E+00 
    1.7198142464896493E+00 
    1.6951547326028671E+00 
    1.6262410613889902E+00 
    1.6350591977769200E+00 
    1.7702525200567623E+00 
    1.7448621681322862E+00 
    1.6436338433557232E+00 
    1.6518507844166437E+00 
    1.7738552142484703E+00 
    1.7101787600290603E+00 
    1.6493512953425793E+00 
    1.7125365918142219E+00 
    1.6469299876175656E+00 
    1.5835945929237794E+00 
    1.5215451737872607E+00 
    1.5857419107635717E+00 
    1.5245348160201064E+00 
    1.4597794046329942E+00 
    1.3991171138548526E+00 
    1.4635720254035092E+00 
    1.6513951176599611E+00 
    1.5882736100532235E+00 
    1.5272340133600060E+00 
    1.5902616329191166E+00 
    1.5360718633131785E+00 
    1.5432057180133423E+00 
    1.4434718112706755E+00 
    1.4218757141202580E+00 
    1.5499643170092217E+00 
    1.5564362406768422E+00 
    1.4860636603172643E+00 
    1.4647145138531652E+00 
    1.3801903985396546E+00 
    1.4153689628678587E+00 
    1.3444507561657320E+00 
    1.2969131091548174E+00 
    1.3127517892796796E+00 
    1.3459677788519262E+00 
    1.2532215904975046E+00 
    1.2141324360492696E+00 
    2.9011468007824766E+00 
    2.8541047387309830E+00 
    2.8374954036114497E+00 
    2.8823891519267466E+00 
    2.7984318860617599E+00 
    2.7362733501755212E+00 
    2.7323414779687569E+00 
    2.7871473448360939E+00 
    2.7756460110913599E+00 
    2.7283746355677803E+00 
    2.7244738367094192E+00 
    2.7638877841287059E+00 
    2.8611334774060806E+00 
    2.8200201897959065E+00 
    2.8015768336637299E+00 
    2.8374944052302951E+00 
    2.6690959066468838E+00 
    2.5944409254191338E+00 
    2.6104033315994446E+00 
    2.6740103500555810E+00 
    2.5095172719346142E+00 
    2.4120024846887413E+00 
    2.4630631345873004E+00 
    2.5403465067719644E+00 
    2.5690777645764684E+00 
    2.5086105538761911E+00 
    2.5503274107570952E+00 
    2.5966176256867359E+00 
    2.6788013189325475E+00 
    2.6258017794629702E+00 
    2.6411694763643276E+00 
    2.6837525724157465E+00 
    2.8095856800266246E+00 
    2.7758344593509512E+00 
    2.7422485067213591E+00 
    2.7775995646525433E+00 
    2.7409694726271572E+00 
    2.7049533049618115E+00 
    2.6683776791078833E+00 
    2.7059226931005100E+00 
    2.6695919113265738E+00 
    2.6304625975811926E+00 
    2.5914650385269655E+00 
    2.6322493362045254E+00 
    2.7439057103981463E+00 
    2.7073227188235478E+00 
    2.6711534601699971E+00 
    2.7087764227338633E+00 
    2.6557369051228994E+00 
    2.6218814457001436E+00 
    2.5592852853148802E+00 
    2.5841484986375760E+00 
    2.5866637346254744E+00 
    2.5491938133890462E+00 
    2.5042593627602510E+00 
    2.5329182421371339E+00 
    2.4798935288522079E+00 
    2.4605384047754808E+00 
    2.4194379721314530E+00 
    2.4293694789624305E+00 
    2.5123635069309120E+00 
    2.4969614009767334E+00 
    2.4372869440152880E+00 
    2.4433213213557683E+00 
    2.5054576290115183E+00 
    2.4528131972549101E+00 
    2.4121209232295562E+00 
    2.4646671012149843E+00 
    2.3887335979621240E+00 
    2.2983890582054349E+00 
    2.2799719714970652E+00 
    2.3514392155188633E+00 
    2.3256781986812864E+00 
    2.2714586925979146E+00 
    2.2663402029191260E+00 
    2.3072648340141155E+00 
    2.4265367632072361E+00 
    2.3777486135476851E+00 
    2.3495102124435898E+00 
    2.3921750290481820E+00 
    2.3810790620597109E+00 
    2.3826181498492196E+00 
    2.3323958548527650E+00 
    2.3251941194505208E+00 
    2.3819160761344604E+00 
    2.3792091919704448E+00 
    2.3378900225895722E+00 
    2.3364402197234941E+00 
    2.2944333198843774E+00 
    2.2988489787886826E+00 
    2.2622480148939399E+00 
    2.2575436245330174E+00 
    2.2769781860163074E+00 
    2.2867809860660060E+00 
    2.2525936453210913E+00 
    2.2473215221664296E+00 
    1.4924263781495695E+00 
    1.3699124688657363E+00 
    1.3293916515773820E+00 
    1.4368242747718876E+00 
    1.2413306323390616E+00 
    1.1016563201409146E+00 
    1.0949953750796122E+00 
    1.2167364541460042E+00 
    1.1947829625487498E+00 
    1.0917614448724817E+00 
    1.0919019883200463E+00 
    1.1761503601869783E+00 
    1.3822446315791135E+00 
    1.2906800417528932E+00 
    1.2547545604214168E+00 
    1.3297870340889393E+00 
    9.4102055217812430E-01 
    7.3967091258427065E-01 
    7.9926524989975678E-01 
    9.5864673344583085E-01 
    4.5476860281236536E-01 
    0.0000000000000000E+00 
    3.2572250993773294E-01 
    5.9815354822673827E-01 
    7.2304448172756919E-01 
    5.6363467134731682E-01 
    7.4251157967353620E-01 
    8.3156330405286816E-01 
    9.8007145448666544E-01 
    8.5980932575011793E-01 
    9.1918602725946486E-01 
    1.0043196684435711E+00 
    1.2767260563796368E+00 
    1.2098891321532250E+00 
    1.1585747399573190E+00 
    1.2257829816147028E+00 
    1.1387005629915021E+00 
    1.0609367077977543E+00 
    9.9758619404873172E-01 
    1.0835025321641800E+00 
    1.0358814746909770E+00 
    9.3808420605707377E-01 
    8.8479879082560176E-01 
    9.9907673707629197E-01 
    1.1845243824670688E+00 
    1.1170923066634448E+00 
    1.0894338615309229E+00 
    1.1585657219718222E+00 
    2.0371827328365693E+00 
    1.8991971966636014E+00 
    1.8538241186221183E+00 
    1.9705252393018693E+00 
    1.7694852046739611E+00 
    1.6500956754314404E+00 
    1.6418660417094015E+00 
    1.7440866176509393E+00 
    1.7192767946104568E+00 
    1.6334930452686729E+00 
    1.6250230218499768E+00 
    1.6949942136970331E+00 
    1.9045973048414442E+00 
    1.8090717823756683E+00 
    1.7661997028913283E+00 
    1.8394762468981203E+00 
    1.5336765114889386E+00 
    1.4202987285583366E+00 
    1.4418167189616968E+00 
    1.5409931624927271E+00 
    1.3123018285468084E+00 
    1.2145715618097763E+00 
    1.2537064179999171E+00 
    1.3454423261095882E+00 
    1.3796675901587929E+00 
    1.2974854573327053E+00 
    1.3451261593511137E+00 
    1.4151033582465335E+00 
    1.5480982931266165E+00 
    1.4633674135623937E+00 
    1.4850428040929979E+00 
    1.5550729241647339E+00 
    1.7760424825477721E+00 
    1.7135344698327402E+00 
    1.6500969450990088E+00 
    1.7119900598723197E+00 
    1.6512591227145248E+00 
    1.5893173869636337E+00 
    1.5264982334939412E+00 
    1.5881407411273170E+00 
    1.5247205260730523E+00 
    1.4634211551509408E+00 
    1.3998070586893538E+00 
    1.4606610141303764E+00 
    1.6485882163305428E+00 
    1.5865970179758389E+00 
    1.5227162132214818E+00 
    1.5851915091983186E+00 
    2.1723809358007475E+00 
    2.0707927072571777E+00 
    2.1218775639118430E+00 
    2.2013816409037648E+00 
    1.9874927422509239E+00 
    1.9092436346815249E+00 
    1.9703996853708874E+00 
    2.0452483790990881E+00 
    2.0921819476690771E+00 
    2.0251719641120491E+00 
    2.0728228344575381E+00 
    2.1299468989142336E+00 
    2.2180827825620435E+00 
    2.1574727310263988E+00 
    2.1824575826687540E+00 
    2.2284454495567747E+00 
    1.8424929772197418E+00 
    1.7853172071549992E+00 
    1.8690556815329400E+00 
    1.9115253060042319E+00 
    1.7299085865873347E+00 
    1.6751703357096253E+00 
    1.7904151790056324E+00 
    1.8290202830997433E+00 
    1.9241811531825455E+00 
    1.9012774747991708E+00 
    2.0035015734831476E+00 
    2.0119303655467600E+00 
    1.9766474380925751E+00 
    1.9490933310897394E+00 
    2.0225899561050977E+00 
    2.0357326104741831E+00 
    2.2310480423989461E+00 
    2.1920171737094547E+00 
    2.1958132155712735E+00 
    2.2321147290950663E+00 
    2.1448933971117601E+00 
    2.0910274939817231E+00 
    2.0889141802789979E+00 
    2.1478484529061506E+00 
    2.1537729471212099E+00 
    2.0892484352090395E+00 
    2.0920359275909304E+00 
    2.1624661410091885E+00 
    2.2356834121674920E+00 
    2.2028258228502291E+00 
    2.2121592185599450E+00 
    2.2407159271581039E+00 
    1.1589402167981486E+00 
    1.0900103143724980E+00 
    1.1186421629230525E+00 
    1.1855497642844364E+00 
    9.9979805196967697E-01 
    8.8554122129970625E-01 
    9.4018250156533678E-01 
    1.0378700337185880E+00 
    1.0864301235074825E+00 
    1.0008511425044024E+00 
    1.0649648869783035E+00 
    1.1421957360056705E+00 
    1.2272358144115985E+00 
    1.1608973766530601E+00 
    1.2125517991761274E+00 
    1.2784144541490312E+00 
    7.4322484985298831E-01 
    5.6423198275042385E-01 
    7.2523235062143776E-01 
    8.3370969920691396E-01 
    3.2606402307358273E-01 
    0.0000000000000000E+00 
    4.5631069882248726E-01 
    6.0008094816470903E-01 
    8.0304921429743648E-01 
    7.4317736748160368E-01 
    9.4624529313010664E-01 
    9.6373902831799174E-01 
    9.2261266273671538E-01 
    8.6346206998034636E-01 
    9.8485244622114987E-01 
    1.0086139974773372E+00 
    1.3314890372387607E+00 
    1.2575026085187493E+00 
    1.2935171898026672E+00 
    1.3839732300729730E+00 
    1.1799109810407387E+00 
    1.0963979701380662E+00 
    1.0967091527629438E+00 
    1.1988329841043364E+00 
    1.2208375142546797E+00 
    1.1002104502068419E+00 
    1.1069259298586522E+00 
    1.2452921292713375E+00 
    1.4385076052535661E+00 
    1.3321163457894125E+00 
    1.3723800390922376E+00 
    1.4939995635596992E+00 
    2.2103785611703244E+00 
    2.3324019462302537E+00 
    2.3212928427946999E+00 
    2.2088296956425704E+00 
    2.4489283605939116E+00 
    2.5584024333760462E+00 
    2.5305817378204947E+00 
    2.4289141247951083E+00 
    2.4124367868087564E+00 
    2.5055739566225381E+00 
    2.4828240295541506E+00 
    2.3989994282588363E+00 
    2.2107163425096936E+00 
    2.3139656757632925E+00 
    2.3100050819762381E+00 
    2.2158818527463549E+00 
    2.6573052416625882E+00 
    2.7453321155655845E+00 
    2.6981870653973155E+00 
    2.6197290428428719E+00 
    2.8233347767448813E+00 
    2.8904152200455093E+00 
    2.8383279095878766E+00 
    2.7710710476014544E+00 
    2.7173220289141442E+00 
    2.7806668637943770E+00 
    2.7174944398284770E+00 
    2.6613860144728894E+00 
    2.5841520232447541E+00 
    2.6518851415687870E+00 
    2.6056170294972105E+00 
    2.5499378049441215E+00 
    2.2302004833126814E+00 
    2.3254195422874742E+00 
    2.3623486551990496E+00 
    2.2556620787327355E+00 
    2.4135011971942721E+00 
    2.4952261226206209E+00 
    2.5430123532478381E+00 
    2.4573509962992728E+00 
    2.5056011461085119E+00 
    2.5929322099981111E+00 
    2.6453713300664825E+00 
    2.5590127135464771E+00 
    2.2886744247072173E+00 
    2.4057042371038158E+00 
    2.4571023641250380E+00 
    2.3333414758287376E+00 
    2.0842525696162983E+00 
    1.9563078366294246E+00 
    1.9733010325606846E+00 
    2.0916694037493229E+00 
    1.8280428903929691E+00 
    1.7008063988286017E+00 
    1.7379814889862155E+00 
    1.8551014738003602E+00 
    1.8823538667730662E+00 
    1.7750758706436185E+00 
    1.8125272938531325E+00 
    1.9101955163511499E+00 
    2.1012814632870178E+00 
    1.9912402424222995E+00 
    2.0103116477692891E+00 
    2.1130297738070074E+00 
    1.5784488533923366E+00 
    1.4616233954095623E+00 
    1.5324008067384822E+00 
    1.6306220575230730E+00 
    1.3488399859124052E+00 
    1.2414734402845957E+00 
    1.3413252899662724E+00 
    1.4358991165272814E+00 
    1.5258161179845202E+00 
    1.4480432765384474E+00 
    1.5594565524296184E+00 
    1.6184986327354796E+00 
    1.6829090546078829E+00 
    1.6041961482254643E+00 
    1.6773297986903237E+00 
    1.7358240388519708E+00 
    2.1200874582573297E+00 
    2.0121583685871007E+00 
    1.9935638693198108E+00 
    2.1197649712069437E+00 
    1.9093160795632782E+00 
    1.8105476835382239E+00 
    1.7673560221679294E+00 
    1.8769938978864855E+00 
    1.8421261169588408E+00 
    1.7230146078686654E+00 
    1.6774945010596729E+00 
    1.8040333091519076E+00 
    2.1157392166286462E+00 
    1.9714315696680524E+00 
    1.9439678415605088E+00 
    2.1034385998757656E+00 
    2.3355334415884039E+00 
    2.4571222232192156E+00 
    2.4054127303665847E+00 
    2.2897646177528808E+00 
    2.5570599370851497E+00 
    2.6425638372810889E+00 
    2.5908021139793096E+00 
    2.5041085146865241E+00 
    2.4562059103350484E+00 
    2.5414158399071711E+00 
    2.4940581969101570E+00 
    2.4126520933516491E+00 
    2.2560230201118032E+00 
    2.3619379393981221E+00 
    2.3249704835542118E+00 
    2.2301291479967862E+00 
    2.7150318447366790E+00 
    2.7792077271536311E+00 
    2.7160127522040489E+00 
    2.6594390757767381E+00 
    2.8378278617630293E+00 
    2.8905062976484741E+00 
    2.8232324137614162E+00 
    2.7704604290496877E+00 
    2.6975695190790083E+00 
    2.7451468520172599E+00 
    2.6571186390380608E+00 
    2.6192015698542539E+00 
    2.6040972095328305E+00 
    2.6507839592165903E+00 
    2.5832877205164837E+00 
    2.5487885659665697E+00 
    2.2155217082140357E+00 
    2.3094983997771203E+00 
    2.3134961004282690E+00 
    2.2102832901025682E+00 
    2.3982825887662500E+00 
    2.4819049403360220E+00 
    2.5048666113737901E+00 