# vtk DataFile Version 2.0
Pressure Field Data 
ASCII 
DATASET UNSTRUCTURED_GRID 

POINTS 801 double 

    0.0000000000000000E+00     0.0000000000000000E+00     0.0000000000000000E+00 
    1.0000000000000000E+00     0.0000000000000000E+00     0.0000000000000000E+00 
    1.0000000000000000E+00     1.0000000000000000E+00     0.0000000000000000E+00 
    0.0000000000000000E+00     1.0000000000000000E+00     0.0000000000000000E+00 
    2.5000000000000000E-01     2.5000000000000000E-01     0.0000000000000000E+00 
    7.5000000000000000E-01     2.5000000000000000E-01     0.0000000000000000E+00 
    7.5000000000000000E-01     7.5000000000000000E-01     0.0000000000000000E+00 
    2.5000000000000000E-01     7.5000000000000000E-01     0.0000000000000000E+00 
    2.4999999999941941E-01     0.0000000000000000E+00     0.0000000000000000E+00 
    4.9999999999869399E-01     0.0000000000000000E+00     0.0000000000000000E+00 
    7.4999999999934697E-01     0.0000000000000000E+00     0.0000000000000000E+00 
    1.2499999999977940E-01     0.0000000000000000E+00     0.0000000000000000E+00 
    3.7499999999905670E-01     0.0000000000000000E+00     0.0000000000000000E+00 
    6.2499999999902045E-01     0.0000000000000000E+00     0.0000000000000000E+00 
    8.7499999999967348E-01     0.0000000000000000E+00     0.0000000000000000E+00 
    6.2499999999889699E-02     0.0000000000000000E+00     0.0000000000000000E+00 
    1.8749999999959940E-01     0.0000000000000000E+00     0.0000000000000000E+00 
    3.1249999999923811E-01     0.0000000000000000E+00     0.0000000000000000E+00 
    4.3749999999887529E-01     0.0000000000000000E+00     0.0000000000000000E+00 
    5.6249999999885725E-01     0.0000000000000000E+00     0.0000000000000000E+00 
    6.8749999999918376E-01     0.0000000000000000E+00     0.0000000000000000E+00 
    8.1249999999951017E-01     0.0000000000000000E+00     0.0000000000000000E+00 
    9.3749999999983680E-01     0.0000000000000000E+00     0.0000000000000000E+00 
    1.0000000000000000E+00     2.4999999999941941E-01     0.0000000000000000E+00 
    1.0000000000000000E+00     4.9999999999869399E-01     0.0000000000000000E+00 
    1.0000000000000000E+00     7.4999999999934697E-01     0.0000000000000000E+00 
    1.0000000000000000E+00     1.2499999999977940E-01     0.0000000000000000E+00 
    1.0000000000000000E+00     3.7499999999905670E-01     0.0000000000000000E+00 
    1.0000000000000000E+00     6.2499999999902045E-01     0.0000000000000000E+00 
    1.0000000000000000E+00     8.7499999999967348E-01     0.0000000000000000E+00 
    1.0000000000000000E+00     6.2499999999889699E-02     0.0000000000000000E+00 
    1.0000000000000000E+00     1.8749999999959940E-01     0.0000000000000000E+00 
    1.0000000000000000E+00     3.1249999999923811E-01     0.0000000000000000E+00 
    1.0000000000000000E+00     4.3749999999887529E-01     0.0000000000000000E+00 
    1.0000000000000000E+00     5.6249999999885725E-01     0.0000000000000000E+00 
    1.0000000000000000E+00     6.8749999999918376E-01     0.0000000000000000E+00 
    1.0000000000000000E+00     8.1249999999951017E-01     0.0000000000000000E+00 
    1.0000000000000000E+00     9.3749999999983680E-01     0.0000000000000000E+00 
    7.5000000000112044E-01     1.0000000000000000E+00     0.0000000000000000E+00 
    5.0000000000205913E-01     1.0000000000000000E+00     0.0000000000000000E+00 
    2.5000000000102962E-01     1.0000000000000000E+00     0.0000000000000000E+00 
    8.7499999999991362E-01     1.0000000000000000E+00     0.0000000000000000E+00 
    6.2499999999988309E-01     1.0000000000000000E+00     0.0000000000000000E+00 
    3.7499999999869987E-01     1.0000000000000000E+00     0.0000000000000000E+00 
    1.2499999999880820E-01     1.0000000000000000E+00     0.0000000000000000E+00 
    9.3749999999995681E-01     1.0000000000000000E+00     0.0000000000000000E+00 
    8.1250000000051703E-01     1.0000000000000000E+00     0.0000000000000000E+00 
    6.8750000000050182E-01     1.0000000000000000E+00     0.0000000000000000E+00 
    5.6250000000097111E-01     1.0000000000000000E+00     0.0000000000000000E+00 
    4.3750000000037947E-01     1.0000000000000000E+00     0.0000000000000000E+00 
    3.1249999999986477E-01     1.0000000000000000E+00     0.0000000000000000E+00 
    1.8749999999991890E-01     1.0000000000000000E+00     0.0000000000000000E+00 
    6.2499999999404102E-02     1.0000000000000000E+00     0.0000000000000000E+00 
    0.0000000000000000E+00     7.5000000000112044E-01     0.0000000000000000E+00 
    0.0000000000000000E+00     5.0000000000205913E-01     0.0000000000000000E+00 
    0.0000000000000000E+00     2.5000000000102962E-01     0.0000000000000000E+00 
    0.0000000000000000E+00     8.7499999999991362E-01     0.0000000000000000E+00 
    0.0000000000000000E+00     6.2499999999988309E-01     0.0000000000000000E+00 
    0.0000000000000000E+00     3.7499999999869987E-01     0.0000000000000000E+00 
    0.0000000000000000E+00     1.2499999999880820E-01     0.0000000000000000E+00 
    0.0000000000000000E+00     9.3749999999995681E-01     0.0000000000000000E+00 
    0.0000000000000000E+00     8.1250000000051703E-01     0.0000000000000000E+00 
    0.0000000000000000E+00     6.8750000000050182E-01     0.0000000000000000E+00 
    0.0000000000000000E+00     5.6250000000097111E-01     0.0000000000000000E+00 
    0.0000000000000000E+00     4.3750000000037947E-01     0.0000000000000000E+00 
    0.0000000000000000E+00     3.1249999999986477E-01     0.0000000000000000E+00 
    0.0000000000000000E+00     1.8749999999991890E-01     0.0000000000000000E+00 
    0.0000000000000000E+00     6.2499999999404102E-02     0.0000000000000000E+00 
    4.9999999999972200E-01     2.5000000000000000E-01     0.0000000000000000E+00 
    3.7500000000067490E-01     2.5000000000000000E-01     0.0000000000000000E+00 
    6.2500000000042988E-01     2.5000000000000000E-01     0.0000000000000000E+00 
    3.1250000000033751E-01     2.5000000000000000E-01     0.0000000000000000E+00 
    4.3750000000019851E-01     2.5000000000000000E-01     0.0000000000000000E+00 
    5.6250000000007594E-01     2.5000000000000000E-01     0.0000000000000000E+00 
    6.8750000000021494E-01     2.5000000000000000E-01     0.0000000000000000E+00 
    7.5000000000000000E-01     4.9999999999972200E-01     0.0000000000000000E+00 
    7.5000000000000000E-01     3.7500000000067490E-01     0.0000000000000000E+00 
    7.5000000000000000E-01     6.2500000000042988E-01     0.0000000000000000E+00 
    7.5000000000000000E-01     3.1250000000033751E-01     0.0000000000000000E+00 
    7.5000000000000000E-01     4.3750000000019851E-01     0.0000000000000000E+00 
    7.5000000000000000E-01     5.6250000000007594E-01     0.0000000000000000E+00 
    7.5000000000000000E-01     6.8750000000021494E-01     0.0000000000000000E+00 
    5.0000000000118039E-01     7.5000000000000000E-01     0.0000000000000000E+00 
    6.2500000000161415E-01     7.5000000000000000E-01     0.0000000000000000E+00 
    3.7500000000140910E-01     7.5000000000000000E-01     0.0000000000000000E+00 
    6.8750000000080713E-01     7.5000000000000000E-01     0.0000000000000000E+00 
    5.6250000000139733E-01     7.5000000000000000E-01     0.0000000000000000E+00 
    4.3750000000129469E-01     7.5000000000000000E-01     0.0000000000000000E+00 
    3.1250000000070460E-01     7.5000000000000000E-01     0.0000000000000000E+00 
    2.5000000000000000E-01     5.0000000000118039E-01     0.0000000000000000E+00 
    2.5000000000000000E-01     6.2500000000161415E-01     0.0000000000000000E+00 
    2.5000000000000000E-01     3.7500000000140910E-01     0.0000000000000000E+00 
    2.5000000000000000E-01     6.8750000000080713E-01     0.0000000000000000E+00 
    2.5000000000000000E-01     5.6250000000139733E-01     0.0000000000000000E+00 
    2.5000000000000000E-01     4.3750000000129469E-01     0.0000000000000000E+00 
    2.5000000000000000E-01     3.1250000000070460E-01     0.0000000000000000E+00 
    3.7499999999934702E-01     1.2500000000000000E-01     0.0000000000000000E+00 
    1.2500000000000000E-01     1.2500000000000000E-01     0.0000000000000000E+00 
    1.2500000000000000E-01     3.7500000000102962E-01     0.0000000000000000E+00 
    8.7500000000000000E-01     1.2500000000000000E-01     0.0000000000000000E+00 
    6.2499999999934697E-01     1.2500000000000000E-01     0.0000000000000000E+00 
    8.7500000000000000E-01     3.7499999999934702E-01     0.0000000000000000E+00 
    8.7500000000000000E-01     6.2499999999934697E-01     0.0000000000000000E+00 
    1.2500000000000000E-01     6.2500000000102962E-01     0.0000000000000000E+00 
    1.2500000000000000E-01     8.7500000000000000E-01     0.0000000000000000E+00 
    8.7500000000000000E-01     8.7500000000000000E-01     0.0000000000000000E+00 
    6.2500000000102962E-01     8.7500000000000000E-01     0.0000000000000000E+00 
    3.7500000000102962E-01     8.7500000000000000E-01     0.0000000000000000E+00 
    2.4999999999957681E-01     8.3333333333333329E-02     0.0000000000000000E+00 
    8.3333333333333329E-02     2.5000000000068640E-01     0.0000000000000000E+00 
    7.4999999999956468E-01     8.3333333333333329E-02     0.0000000000000000E+00 
    4.9999999999951827E-01     1.6666666666666671E-01     0.0000000000000000E+00 
    9.1666666666666674E-01     2.4999999999957681E-01     0.0000000000000000E+00 
    8.3333333333333337E-01     4.9999999999951827E-01     0.0000000000000000E+00 
    1.6666666666666671E-01     5.0000000000088307E-01     0.0000000000000000E+00 
    8.3333333333333329E-02     7.5000000000070155E-01     0.0000000000000000E+00 
    9.1666666666666674E-01     7.4999999999956468E-01     0.0000000000000000E+00 
    5.0000000000088307E-01     8.3333333333333348E-01     0.0000000000000000E+00 
    2.5000000000068640E-01     9.1666666666666674E-01     0.0000000000000000E+00 
    7.5000000000070155E-01     9.1666666666666674E-01     0.0000000000000000E+00 
[...]
CELL_DATA 768 
SCALARS Pressure double 1 
LOOKUP_TABLE default 

    3.3847234915455240E+00 
    3.2858161654452007E+00 
    3.2522240707408634E+00 
    3.3154126086251647E+00 
    3.2149828268110521E+00 
    3.1531293870996198E+00 
    3.1472637114887099E+00 
    3.1985838485273006E+00 
    3.1808598016482352E+00 
    3.1399761662603387E+00 
    3.1314251502421580E+00 
    3.1621393636569524E+00 
    3.2612961111700844E+00 
    3.2206328905095347E+00 
    3.1902018221281323E+00 
    3.2158880158026988E+00 
    3.0910540423305330E+00 
    3.0264471746349311E+00 
    3.0387574400806083E+00 
    3.0941017498522587E+00 
    2.9580860069425672E+00 
    2.8855632487613083E+00 
    2.9194261272038995E+00 
    2.9806903730124019E+00 
    3.0018036331128637E+00 
    2.9517110944669018E+00 
    2.9818423761900541E+00 
    3.0210783732350341E+00 
    3.0958535627950230E+00 
    3.0497184190090803E+00 
    3.0591421770636607E+00 
    3.0963138274954427E+00 
    3.1742763142335897E+00 
    3.1566165498022092E+00 
    3.1215475473008150E+00 
    3.1357964306878161E+00 
    3.1350986600548039E+00 
    3.1099937997035592E+00 
    3.0771871986980188E+00 
    3.1017527168363910E+00 
    3.0694962719018051E+00 
    3.0443322220918110E+00 
    3.0111402100263027E+00 
    3.0380608808685547E+00 
    3.1014996708655991E+00 
    3.0890147386702846E+00 
    3.0591971071045481E+00 
    3.0725154149292901E+00 
    3.3847664559939581E+00 
    3.3154656988376114E+00 
    3.2523859737893059E+00 
    3.2859787936679390E+00 
    3.2613593497859452E+00 
    3.2159522180223710E+00 
    3.1903427508559021E+00 
    3.2207802375206867E+00 
    3.1810284332823806E+00 
    3.1622500481319902E+00 
    3.1314811541190353E+00 
    3.1400945779209173E+00 
    3.2151967568424498E+00 
    3.1987767948098487E+00 
    3.1474381512349887E+00 
    3.1533188903013563E+00 
    3.1743392968012971E+00 
    3.1358118380893973E+00 
    3.1215338908637431E+00 
    3.1567286350070320E+00 
    3.1014157385169554E+00 
    3.0723865761177174E+00 
    3.0587893527324925E+00 
    3.0887981951103645E+00 
    3.0690849390623920E+00 
    3.0372403562306172E+00 
    3.0099193940479427E+00 
    3.0436524375300049E+00 
    3.1351541438331938E+00 
    3.1016221715630241E+00 
    3.0769011958394441E+00 
    3.1099450864130045E+00 
    3.0910554097170837E+00 
    3.0940915640153137E+00 
    3.0382574140849545E+00 
    3.0258466680686134E+00 
    3.0958053531868588E+00 
    3.0962084725159356E+00 
    3.0587183908537536E+00 
    3.0492537371328745E+00 
    3.0007699098112064E+00 
    3.0201668611677635E+00 
    2.9803083125438823E+00 
    2.9500202936086350E+00 
    2.9567382098341066E+00 
    2.9795156576254533E+00 
    2.9175939192680596E+00 
    2.8835555982773471E+00 
    2.7661464519984102E+00 
    2.6835144772977362E+00 
    2.6542513941912551E+00 
    2.7273257112314448E+00 
    2.5984211169624127E+00 
    2.5056448001369511E+00 
    2.4972361652813717E+00 
    2.5788983362422999E+00 
    2.5569276410018729E+00 
    2.4863492499719451E+00 
    2.4723097793041648E+00 
    2.5313069981012797E+00 
    2.6864611144529436E+00 
    2.6226459338221599E+00 
    2.5871443725090968E+00 
    2.6417653187588042E+00 
    2.4092665144839875E+00 
    2.3329379973720794E+00 
    2.3422482628594690E+00 
    2.4123061714550071E+00 
    2.2792195378425752E+00 
    2.2480662050533367E+00 
    2.2533548367252547E+00 
    2.2892040364342825E+00 
    2.2967904121075646E+00 
    2.2572331228740401E+00 
    2.2598054178934643E+00 
    2.3020395170680232E+00 
    2.4127137814615489E+00 
    2.3486918423112382E+00 
    2.3525783958753133E+00 
    2.4105748244359626E+00 
    2.5870370302000065E+00 
    2.5356275485267026E+00 
    2.4637175770152835E+00 
    2.5173344964184508E+00 
    2.4837244569937895E+00 
    2.4317426425224022E+00 
    2.3707287278503113E+00 
    2.4136444349694588E+00 
    2.3406452134017695E+00 
    2.3138243108528220E+00 
    2.2632539528207545E+00 
    2.2706360918728348E+00 
    2.4276187334340267E+00 
    2.3778067534388057E+00 
    2.2831428708330326E+00 
    2.3095681518825772E+00 
    2.8268255771233490E+00 
    2.7840799781312504E+00 
    2.8257192991415998E+00 
    2.8672857090178785E+00 
    2.7393795166871304E+00 
    2.6915483612188522E+00 
    2.7366993324982252E+00 
    2.7823589015888723E+00 
    2.8244491796461535E+00 
    2.7807248715913935E+00 
    2.8235141340531986E+00 
    2.8653511880462217E+00 
    2.9062135830457261E+00 
    2.8662245519286071E+00 
    2.9052263090213124E+00 
    2.9432217283266473E+00 
    2.6416705254772159E+00 
    2.5878626501261506E+00 
    2.6619232429388573E+00 
    2.6964516300969263E+00 
    2.5250701745309230E+00 
    2.4568109935852473E+00 
    2.5811258772270800E+00 
    2.6226452576587955E+00 
    2.7085894281350478E+00 
    2.6867355976002680E+00 
    2.7787032638899039E+00 
    2.7858327169513712E+00 
    2.7485923579468015E+00 
    2.7295625367361476E+00 
    2.7925708418610315E+00 
    2.7986062496420061E+00 
    2.9752506270019956E+00 
    2.9350482069459818E+00 
    2.9564425578504898E+00 
    3.0020494542487590E+00 
    2.8921809017055353E+00 
    2.8465088930742306E+00 
    2.8514033386286437E+00 
    2.9063485983659159E+00 
    2.9203755061352301E+00 
    2.8564875559471581E+00 
    2.8614879124736339E+00 
    2.9337510607506525E+00 
    3.0256864235270688E+00 
    2.9764311964839343E+00 
    2.9948937268639391E+00 
    3.0461064390229993E+00 
    2.2407298453471283E+00 
    2.2091078718319914E+00 
    2.1986628165811624E+00 
    2.2349602913261455E+00 
    2.1553414920645695E+00 
    2.0814156709271057E+00 
    2.0783668642183124E+00 
    2.1458675587875105E+00 
    2.1388327080931577E+00 
    2.0775526955347807E+00 
    2.0788716604189301E+00 
    2.1340481244277916E+00 
    2.2301054314609172E+00 
    2.1902325914468426E+00 
    2.1835294435481121E+00 
    2.2259151598183959E+00 
    1.9918080999541425E+00 
    1.8908935920872798E+00 
    1.9133233619284706E+00 
    2.0000842075596363E+00 
    1.7827881605624476E+00 
    1.6702460347467769E+00 
    1.7241069229330808E+00 
    1.8205923916040962E+00 
    1.8596833424956027E+00 
    1.7786787420396315E+00 
    1.8347179494506474E+00 
    1.9008624320684762E+00 
    2.0103439152651297E+00 
    1.9375875212973042E+00 
    1.9640576701163772E+00 
    2.0227755863050683E+00 
    2.2194371592282609E+00 
    2.1695284882118751E+00 
    2.1413834847879207E+00 
    2.2077333656052556E+00 
    2.1155044373224108E+00 
    2.0589951097963066E+00 
    2.0102040780111161E+00 
    2.0749718644348332E+00 
    2.0265906525949600E+00 
    1.9560097470890097E+00 
    1.8974426806535469E+00 
    1.9695642041653441E+00 
    2.1914447209252166E+00 
    2.1046655024082273E+00 
    2.0534579206174253E+00 
    2.1633443107568220E+00 
    2.0197602992363386E+00 
    1.9535780448558275E+00 
    1.8469538932346199E+00 
    1.8899495067115342E+00 
    1.8915236944514502E+00 
    1.8322139237468951E+00 
    1.7632572665980664E+00 
    1.8047675251317674E+00 
    1.7191281287274263E+00 
    1.6942075593884758E+00 
    1.6251137668528299E+00 
    1.6340022240280978E+00 
    1.7684301761199135E+00 
    1.7438201839189800E+00 
    1.6425477968882061E+00 
    1.6506884976907130E+00 
    1.7710976222998509E+00 
    1.7075762375202226E+00 
    1.6474619179521652E+00 
    1.7108160948303741E+00 
    1.6445389777242818E+00 
    1.5814749357421887E+00 
    1.5198489766828462E+00 
    1.5838959913374213E+00 
    1.5230598687902870E+00 
    1.4584161039016466E+00 
    1.3980055119666270E+00 
    1.4623445611926196E+00 
    1.6500680818604276E+00 
    1.5867756862143823E+00 
    1.5259339226791422E+00 
    1.5889813467285117E+00 
    1.5349981291174046E+00 
    1.5421167687730479E+00 
    1.4424823068715154E+00 
    1.4209390429619884E+00 
    1.5488451311843356E+00 
    1.5552534155063718E+00 
    1.4849131657271570E+00 
    1.4636573123986139E+00 
    1.3792677498636505E+00 
    1.4143197412839257E+00 
    1.3435366699155493E+00 
    1.2961627623947274E+00 
    1.3120325802527508E+00 
    1.3451519797916409E+00 
    1.2526238973958839E+00 
    1.2136884002487920E+00 
    3.0458365710454767E+00 
    2.9937077789688593E+00 
    2.9747241194748701E+00 
    3.0248532708881983E+00 
    2.9310665027193257E+00 
    2.8580002076561075E+00 
    2.8532155532074319E+00 
    2.9175525102280813E+00 
    2.9035276733876008E+00 
    2.8483273121047596E+00 
    2.8434700577123664E+00 
    2.8893481959027958E+00 
    3.0006480840152809E+00 
    2.9542843459414918E+00 
    2.9326260626013263E+00 
    2.9734071056025515E+00 
    2.7759606886220705E+00 
    2.6845781873796200E+00 
    2.7060260906883751E+00 
    2.7830769215213143E+00 
    2.5815776664833745E+00 
    2.4610643240534724E+00 
    2.5280023039537931E+00 
    2.6217246641556762E+00 
    2.6596621533273157E+00 
    2.5882707749879281E+00 
    2.6395380653126019E+00 
    2.6934177115658411E+00 
    2.7896615011111807E+00 
    2.7266381587708186E+00 
    2.7454208531007001E+00 
    2.7955228208609881E+00 
    2.9410825896347887E+00 
    2.9025865922642766E+00 
    2.8635401886516640E+00 
    2.9040067952768198E+00 
    2.8624037076984776E+00 
    2.8204325709309694E+00 
    2.7775999579011397E+00 
    2.8215048237886249E+00 
    2.7793361533051422E+00 
    2.7334900173824157E+00 
    2.6882990203703505E+00 
    2.7361791647500628E+00 
    2.8649994552906266E+00 
    2.8230523602271704E+00 
    2.7812998830784581E+00 
    2.8244480466042288E+00 
    2.7636134304308571E+00 
    2.7246043643700091E+00 
    2.6524564376844566E+00 
    2.6815768364192460E+00 
    2.6834621894513893E+00 
    2.6392261820446397E+00 
    2.5867899334094706E+00 
    2.6210475366106607E+00 
    2.5583360761075262E+00 
    2.5345458085828150E+00 
    2.4809075194107306E+00 
    2.4932842211184392E+00 
    2.5986615015855805E+00 
    2.5795831770039532E+00 
    2.5029584063617500E+00 
    2.5106163999454099E+00 
    2.5872514445345627E+00 
    2.5220302413544702E+00 
    2.4715756746477657E+00 
    2.5392190926861269E+00 
    2.4341976092464095E+00 
    2.3172904739153912E+00 
    2.2926177460239940E+00 
    2.3854147767034402E+00 
    2.3493434770746426E+00 
    2.2806594808536063E+00 
    2.2723281275484175E+00 
    2.3224232546640446E+00 
    2.4915803428670853E+00 
    2.4232899820642233E+00 
    2.3795877331931292E+00 
    2.4428393004275013E+00 
    2.4169720326835935E+00 
    2.4205489995137555E+00 
    2.3491535146521416E+00 
    2.3396298474876098E+00 
    2.4219456954214764E+00 
    2.4207613412904836E+00 
    2.3603409423776709E+00 
    2.3558805211267377E+00 
    2.3041227798362649E+00 
    2.3099048314301194E+00 
    2.2678844328974681E+00 
    2.2647224669601829E+00 
    2.2859806011462793E+00 
    2.2961805050378579E+00 
    2.2604136074904613E+00 
    2.2549538789176018E+00 
    1.4907706390795006E+00 
    1.3686984569119633E+00 
    1.3283210654930480E+00 
    1.4354319963542581E+00 
    1.2404576625142798E+00 
    1.1010582335800443E+00 
    1.0944216243421854E+00 
    1.2159346680527809E+00 
    1.1940571564302884E+00 
    1.0912189637489345E+00 
    1.0913974647376183E+00 
    1.1755048467210842E+00 
    1.3810837619849721E+00 
    1.2897476746933050E+00 
    1.2539550150519887E+00 
    1.3288253537298707E+00 
    9.4064578950416500E-01 
    7.3947051388804907E-01 
    7.9904470347221024E-01 
    9.5826675065959799E-01 
    4.5469263421815698E-01 
    0.0000000000000000E+00 
    3.2570629652686489E-01 
    5.9805463534539016E-01 
    7.2292997158754302E-01 
    5.6361015489566868E-01 
    7.4248449206261158E-01 
    8.3144043505013576E-01 
    9.7969350070017958E-01 
    8.5957673143049185E-01 
    9.1894853353042505E-01 
    1.0039508201211051E+00 
    1.2759521478868341E+00 
    1.2092452248160326E+00 
    1.1581115507272153E+00 
    1.2251986045991674E+00 
    1.1381795896058320E+00 
    1.0605267619065359E+00 
    9.9731336918474267E-01 
    1.0831430008176313E+00 
    1.0356830304095532E+00 
    9.3793919525541136E-01 
    8.8476897352935380E-01 
    9.9903595610483731E-01 
    1.1841470195062032E+00 
    1.1168210231504827E+00 
    1.0893729219699235E+00 
    1.1584544386295863E+00 
    2.0286750378328482E+00 
    1.8967321929568499E+00 
    1.8530345655249942E+00 
    1.9615632562952821E+00 
    1.7727540706677467E+00 
    1.6527885647918203E+00 
    1.6445071421103798E+00 
    1.7477669639368156E+00 
    1.7227195044191983E+00 
    1.6359845976849487E+00 
    1.6272642704225100E+00 
    1.6976949859370922E+00 
    1.8986876584741101E+00 
    1.8102320208142793E+00 
    1.7682293370981690E+00 
    1.8386511130992327E+00 
    1.5356022498828499E+00 
    1.4216845925372936E+00 
    1.4432682561382142E+00 
    1.5429271965295095E+00 
    1.3132780902283447E+00 
    1.2151794113892491E+00 
    1.2544825586594683E+00 
    1.3465309625284849E+00 
    1.3808420984445631E+00 
    1.2984012532374438E+00 
    1.3461429872013337E+00 
    1.4163238801285361E+00 
    1.5499976457032889E+00 
    1.4648510688882361E+00 
    1.4865136887910144E+00 
    1.5568832731492992E+00 
    1.7768699833277037E+00 
    1.7152681471932310E+00 
    1.6513867951700327E+00 
    1.7127198635580994E+00 
    1.6532414224066798E+00 
    1.5911448474880334E+00 
    1.5279832697479254E+00 
    1.5896468430098438E+00 
    1.5259547361934402E+00 
    1.4646729876862155E+00 
    1.4008817032133878E+00 
    1.4617252346298626E+00 
    1.6492802733710732E+00 
    1.5876587732768530E+00 
    1.5236642091968300E+00 
    1.5859185771765973E+00 
    2.1730883985100888E+00 
    2.0625302004033084E+00 
    2.1144179482048311E+00 
    2.2019987594478416E+00 
    1.9779358406659866E+00 
    1.9051341632114684E+00 
    1.9646755635466571E+00 
    2.0358088147482301E+00 
    2.0846481849749257E+00 
    2.0196090352435885E+00 
    2.0687747001272339E+00 
    2.1253170880033556E+00 
    2.2180678957050093E+00 
    2.1514124844661677E+00 
    2.1792370662015927E+00 
    2.2288463086355281E+00 
    1.8418233249739517E+00 
    1.7851847849326044E+00 
    1.8676653480955856E+00 
    1.9091459642552344E+00 
    1.7300478411959290E+00 
    1.6755471500731858E+00 
    1.7898878931962376E+00 
    1.8281560672811648E+00 
    1.9223586495953986E+00 
    1.8997421932098975E+00 
    2.0017418116232784E+00 
    2.0099786001378854E+00 
    1.9732371694466582E+00 
    1.9467027857273163E+00 
    2.0201788404519836E+00 
    2.0325200313004452E+00 
    2.2344034634020637E+00 
    2.1926336516825509E+00 
    2.1989213757112998E+00 
    2.2380174566404585E+00 
    2.1436408498819306E+00 
    2.0887597224890597E+00 
    2.0875125576547000E+00 
    2.1482997887451756E+00 
    2.1551607125373131E+00 
    2.0884168772206420E+00 
    2.0915265205966054E+00 
    2.1645130837529480E+00 
    2.2423999703244233E+00 
    2.2069989019327529E+00 
    2.2171286579545431E+00 
    2.2478473247067261E+00 
    1.1591800241006658E+00 
    1.0901667126558012E+00 
    1.1190071451736956E+00 
    1.1860563619456044E+00 
    9.9990490049213587E-01 
    8.8561306921859551E-01 
    9.4037247092075182E-01 
    1.0381346767444406E+00 
    1.0868485601906577E+00 
    1.0011666284367606E+00 
    1.0654073045482739E+00 
    1.1427549700917106E+00 
    1.2279352761520257E+00 
    1.1614411509839009E+00 
    1.2132434780024839E+00 
    1.2792557427539553E+00 
    7.4327547903265145E-01 
    5.6426775197239443E-01 
    7.2536318208215034E-01 
    8.3386069386723016E-01 
    3.2608402222606248E-01 
    0.0000000000000000E+00 
    4.5639164198759591E-01 
    6.0018898585546432E-01 
    8.0328053401847910E-01 
    7.4338534415151314E-01 
    9.4661885847991933E-01 
    9.6412106948769905E-01 
    9.2287872848702002E-01 
    8.6371223158848875E-01 
    9.8524010484848901E-01 
    1.0090043499020411E+00 
    1.3324149388092144E+00 
    1.2582838264950964E+00 
    1.2943387657541718E+00 
    1.3849256144879334E+00 
    1.1805542440581773E+00 
    1.0969115251456634E+00 
    1.0972398239020289E+00 
    1.1995107572422188E+00 
    1.2215426280754424E+00 
    1.1007545435832025E+00 
    1.1074813176142264E+00 
    1.2460207332052591E+00 
    1.4394367414585547E+00 
    1.3329588653155611E+00 
    1.3732314997002746E+00 
    1.4948658091682314E+00 
    2.2698825724181368E+00 
    2.4047367797052592E+00 
    2.3914780097923707E+00 
    2.2668892520046722E+00 
    2.5344790819488812E+00 
    2.6572181341247583E+00 
    2.6255525622749931E+00 
    2.5114768818667437E+00 
    2.4917058480480083E+00 
    2.5964918553448184E+00 
    2.5693052975215864E+00 
    2.4745463551342297E+00 
    2.2665071617462362E+00 
    2.3814982111572718E+00 
    2.3742949219579708E+00 
    2.2684954853272030E+00 
    2.7687828525500597E+00 
    2.8685470589320650E+00 
    2.8149697671858691E+00 
    2.7260781255690691E+00 
    2.9571629684346186E+00 
    3.0330604557531644E+00 
    2.9745999767143916E+00 
    2.8979690331150172E+00 
    2.8360215821026191E+00 
    2.9084196221835477E+00 
    2.8324391651170528E+00 
    2.7695873306448564E+00 
    2.6850809544731566E+00 
    2.7615820901313484E+00 
    2.7070748048674225E+00 
    2.6448970477644220E+00 
    2.2794399684014284E+00 
    2.3880030664396652E+00 
    2.4256491282168779E+00 
    2.3018414653454951E+00 
    2.4882466961325616E+00 
    2.5813945312832467E+00 
    2.6335987961867668E+00 
    2.5349745623796056E+00 
    2.5865505800769464E+00 
    2.6880541084624796E+00 
    2.7448160502879424E+00 
    2.6437675789705040E+00 
    2.3318133175258078E+00 
    2.4704523842359061E+00 
    2.5246689007486309E+00 
    2.3743304867841002E+00 
    2.1318993837857843E+00 
    1.9930170257186619E+00 
    2.0105913337443666E+00 
    2.1390102097020209E+00 
    1.8550826933680791E+00 
    1.7195738009044972E+00 
    1.7585730454747477E+00 
    1.8834555162469224E+00 
    1.9111741326866483E+00 
    1.7968577822363303E+00 
    1.8348745273061224E+00 
    1.9386254845597111E+00 
    2.1472493994127251E+00 
    2.0281087616432241E+00 
    2.0456870587358735E+00 
    2.1564215861239018E+00 
    1.5905558261157069E+00 
    1.4685830686002441E+00 
    1.5417303240828708E+00 
    1.6449743390682032E+00 
    1.3520401230873675E+00 
    1.2423074228710491E+00 
    1.3433408385867507E+00 
    1.4411104423915042E+00 
    1.5327092723628930E+00 
    1.4510670550442712E+00 
    1.5634537516694496E+00 
    1.6268116637957200E+00 
    1.6990012033149409E+00 
    1.6154469324919956E+00 
    1.6900928696715412E+00 
    1.7531668138508971E+00 
    2.1588356029960947E+00 
    2.0434996832911403E+00 
    2.0180317501558900E+00 
    2.1510265394874684E+00 
    1.9346073012385065E+00 
    1.8305716423112892E+00 
    1.7826163808768121E+00 
    1.8966419850826779E+00 
    1.8554384790525136E+00 
    1.7333427415295657E+00 
    1.6827533608378911E+00 
    1.8103273751182489E+00 
    2.1359661288303942E+00 
    1.9868901421603684E+00 
    1.9473961053797235E+00 
    2.1071921790082455E+00 
    2.3789671915269790E+00 
    2.5257608842368775E+00 
    2.4713269617601550E+00 
    2.3351822647766758E+00 
    2.6422101145952190E+00 
    2.7421528359167717E+00 
    2.6859649896587579E+00 
    2.5855429753483010E+00 
    2.5343655673897878E+00 
    2.6320642098166425E+00 
    2.5803470003342128E+00 
    2.4879328752646099E+00 
    2.3042034094320849E+00 
    2.4263799438617832E+00 
    2.3885867280247388E+00 
    2.2810280619951935E+00 
    2.8287561392590654E+00 
    2.9053857311921645E+00 
    2.8336303324741157E+00 
    2.7668201958765986E+00 
    2.9732579101734613E+00 
    3.0328760406615047E+00 
    2.9568072262824501E+00 
    2.8966381356434119E+00 
    2.8138301016318348E+00 
    2.8681573460992822E+00 
    2.7684610024059362E+00 
    2.7252356729308422E+00 
    2.7050613453258672E+00 
    2.7598009420574212E+00 
    2.6838461392197233E+00 
    2.6435047051155411E+00 
    2.2693964694852418E+00 
    2.3745748143678296E+00 
    2.3815188608303091E+00 
    2.2669301248206359E+00 
    2.4742122553366555E+00 
    2.5684092251325534E+00 
    2.5956603449656512E+00 