# vtk DataFile Version 2.0
Pressure Field Data 
ASCII 
DATASET UNSTRUCTURED_GRID 

POINTS 801 double 

    0.0000000000000000E+00     0.0000000000000000E+00     0.0000000000000000E+00 
    1.0000000000000000E+00     0.0000000000000000E+00     0.0000000000000000E+00 
    1.0000000000000000E+00     1.0000000000000000E+00     0.0000000000000000E+00 
    0.0000000000000000E+00     1.0000000000000000E+00     0.0000000000000000E+00 
    2.5000000000000000E-01     2.5000000000000000E-01     0.0000000000000000E+00 
    7.5000000000000000E-01     2.5000000000000000E-01     0.0000000000000000E+00 
    7.5000000000000000E-01     7.5000000000000000E-01     0.0000000000000000E+00 
    2.5000000000000000E-01     7.5000000000000000E-01     0.0000000000000000E+00 
    2.4999999999941941E-01     0.0000000000000000E+00     0.0000000000000000E+00 
    4.9999999999869399E-01     0.0000000000000000E+00     0.0000000000000000E+00 
    7.4999999999934697E-01     0.0000000000000000E+00     0.0000000000000000E+00 
    1.2499999999977940E-01     0.0000000000000000E+00     0.0000000000000000E+00 
    3.7499999999905670E-01     0.0000000000000000E+00     0.0000000000000000E+00 
    6.2499999999902045E-01     0.0000000000000000E+00     0.0000000000000000E+00 
    8.7499999999967348E-01     0.0000000000000000E+00     0.0000000000000000E+00 
    6.2499999999889699E-02     0.0000000000000000E+00     0.0000000000000000E+00 
    1.8749999999959940E-01     0.0000000000000000E+00     0.0000000000000000E+00 
    3.1249999999923811E-01     0.0000000000000000E+00     0.0000000000000000E+00 
    4.3749999999887529E-01     0.0000000000000000E+00     0.0000000000000000E+00 
    5.6249999999885725E-01     0.0000000000000000E+00     0.0000000000000000E+00 
    6.8749999999918376E-01     0.0000000000000000E+00     0.0000000000000000E+00 
    8.1249999999951017E-01     0.0000000000000000E+00     0.0000000000000000E+00 
    9.3749999999983680E-01     0.0000000000000000E+00     0.0000000000000000E+00 
    1.0000000000000000E+00     2.4999999999941941E-01     0.0000000000000000E+00 
    1.0000000000000000E+00     4.9999999999869399E-01     0.0000000000000000E+00 
    1.0000000000000000E+00     7.4999999999934697E-01     0.0000000000000000E+00 
    1.0000000000000000E+00     1.2499999999977940E-01     0.0000000000000000E+00 
    1.0000000000000000E+00     3.7499999999905670E-01     0.0000000000000000E+00 
    1.0000000000000000E+00     6.2499999999902045E-01     0.0000000000000000E+00 
    1.0000000000000000E+00     8.7499999999967348E-01     0.0000000000000000E+00 
    1.0000000000000000E+00     6.2499999999889699E-02     0.0000000000000000E+00 
    1.0000000000000000E+00     1.8749999999959940E-01     0.0000000000000000E+00 
    1.0000000000000000E+00     3.1249999999923811E-01     0.0000000000000000E+00 
    1.0000000000000000E+00     4.3749999999887529E-01     0.0000000000000000E+00 
    1.0000000000000000E+00     5.6249999999885725E-01     0.0000000000000000E+00 
    1.0000000000000000E+00     6.8749999999918376E-01     0.0000000000000000E+00 
    1.0000000000000000E+00     8.1249999999951017E-01     0.0000000000000000E+00 
    1.0000000000000000E+00     9.3749999999983680E-01     0.0000000000000000E+00 
    7.5000000000112044E-01     1.0000000000000000E+00     0.0000000000000000E+00 
    5.0000000000205913E-01     1.0000000000000000E+00     0.0000000000000000E+00 
    2.5000000000102962E-01     1.0000000000000000E+00     0.0000000000000000E+00 
    8.7499999999991362E-01     1.0000000000000000E+00     0.0000000000000000E+00 
    6.2499999999988309E-01     1.0000000000000000E+00     0.0000000000000000E+00 
    3.7499999999869987E-01     1.0000000000000000E+00     0.0000000000000000E+00 
    1.2499999999880820E-01     1.0000000000000000E+00     0.0000000000000000E+00 
    9.3749999999995681E-01     1.0000000000000000E+00     0.0000000000000000E+00 
    8.1250000000051703E-01     1.0000000000000000E+00     0.0000000000000000E+00 
    6.8750000000050182E-01     1.0000000000000000E+00     0.0000000000000000E+00 
    5.6250000000097111E-01     1.0000000000000000E+00     0.0000000000000000E+00 
    4.3750000000037947E-01     1.0000000000000000E+00     0.0000000000000000E+00 
    3.1249999999986477E-01     1.0000000000000000E+00     0.0000000000000000E+00 
    1.8749999999991890E-01     1.0000000000000000E+00     0.0000000000000000E+00 
    6.2499999999404102E-02     1.0000000000000000E+00     0.0000000000000000E+00 
    0.0000000000000000E+00     7.5000000000112044E-01     0.0000000000000000E+00 
    0.0000000000000000E+00     5.0000000000205913E-01     0.0000000000000000E+00 
    0.0000000000000000E+00     2.5000000000102962E-01     0.0000000000000000E+00 
    0.0000000000000000E+00     8.7499999999991362E-01     0.0000000000000000E+00 
    0.0000000000000000E+00     6.2499999999988309E-01     0.0000000000000000E+00 
    0.0000000000000000E+00     3.7499999999869987E-01     0.0000000000000000E+00 
    0.0000000000000000E+00     1.2499999999880820E-01     0.0000000000000000E+00 
    0.0000000000000000E+00     9.3749999999995681E-01     0.0000000000000000E+00 
    0.0000000000000000E+00     8.1250000000051703E-01     0.0000000000000000E+00 
    0.0000000000000000E+00     6.8750000000050182E-01     0.0000000000000000E+00 
    0.0000000000000000E+00     5.6250000000097111E-01     0.0000000000000000E+00 
    0.0000000000000000E+00     4.3750000000037947E-01     0.0000000000000000E+00 
    0.0000000000000000E+00     3.1249999999986477E-01     0.0000000000000000E+00 
    0.0000000000000000E+00     1.8749999999991890E-01     0.0000000000000000E+00 
    0.0000000000000000E+00     6.2499999999404102E-02     0.0000000000000000E+00 
    4.9999999999972200E-01     2.5000000000000000E-01     0.0000000000000000E+00 
    3.7500000000067490E-01     2.5000000000000000E-01     0.0000000000000000E+00 
    6.2500000000042988E-01     2.5000000000000000E-01     0.0000000000000000E+00 
    3.1250000000033751E-01     2.5000000000000000E-01     0.0000000000000000E+00 
    4.3750000000019851E-01     2.5000000000000000E-01     0.0000000000000000E+00 
    5.6250000000007594E-01     2.5000000000000000E-01     0.0000000000000000E+00 
    6.8750000000021494E-01     2.5000000000000000E-01     0.0000000000000000E+00 
    7.5000000000000000E-01     4.9999999999972200E-01     0.0000000000000000E+00 
    7.5000000000000000E-01     3.7500000000067490E-01     0.0000000000000000E+00 
    7.5000000000000000E-01     6.2500000000042988E-01     0.0000000000000000E+00 
    7.5000000000000000E-01     3.1250000000033751E-01     0.0000000000000000E+00 
    7.5000000000000000E-01     4.3750000000019851E-01     0.0000000000000000E+00 
    7.5000000000000000E-01     5.6250000000007594E-01     0.0000000000000000E+00 
    7.5000000000000000E-01     6.8750000000021494E-01     0.0000000000000000E+00 
    5.0000000000118039E-01     7.5000000000000000E-01     0.0000000000000000E+00 
    6.2500000000161415E-01     7.5000000000000000E-01     0.0000000000000000E+00 
    3.7500000000140910E-01     7.5000000000000000E-01     0.0000000000000000E+00 
    6.8750000000080713E-01     7.5000000000000000E-01     0.0000000000000000E+00 
    5.6250000000139733E-01     7.5000000000000000E-01     0.0000000000000000E+00 
    4.3750000000129469E-01     7.5000000000000000E-01     0.0000000000000000E+00 
    3.1250000000070460E-01     7.5000000000000000E-01     0.0000000000000000E+00 
    2.5000000000000000E-01     5.0000000000118039E-01     0.0000000000000000E+00 
    2.5000000000000000E-01     6.2500000000161415E-01     0.0000000000000000E+00 
    2.5000000000000000E-01     3.7500000000140910E-01     0.0000000000000000E+00 
    2.5000000000000000E-01     6.8750000000080713E-01     0.0000000000000000E+00 
    2.5000000000000000E-01     5.6250000000139733E-01     0.0000000000000000E+00 
    2.5000000000000000E-01     4.3750000000129469E-01     0.0000000000000000E+00 
    2.5000000000000000E-01     3.1250000000070460E-01     0.0000000000000000E+00 
    3.7499999999934702E-01     1.2500000000000000E-01     0.0000000000000000E+00 
    1.2500000000000000E-01     1.2500000000000000E-01     0.0000000000000000E+00 
    1.2500000000000000E-01     3.7500000000102962E-01     0.0000000000000000E+00 
    8.7500000000000000E-01     1.2500000000000000E-01     0.0000000000000000E+00 
    6.2499999999934697E-01     1.2500000000000000E-01     0.0000000000000000E+00 
    8.7500000000000000E-01     3.7499999999934702E-01     0.0000000000000000E+00 
    8.7500000000000000E-01     6.2499999999934697E-01     0.0000000000000000E+00 
    1.2500000000000000E-01     6.2500000000102962E-01     0.0000000000000000E+00 
    1.2500000000000000E-01     8.7500000000000000E-01     0.0000000000000000E+00 
    8.7500000000000000E-01     8.7500000000000000E-01     0.0000000000000000E+00 
    6.2500000000102962E-01     8.7500000000000000E-01     0.0000000000000000E+00 
    3.7500000000102962E-01     8.7500000000000000E-01     0.0000000000000000E+00 
    2.4999999999957681E-01     8.3333333333333329E-02     0.0000000000000000E+00 
    8.3333333333333329E-02     2.5000000000068640E-01     0.0000000000000000E+00 
    7.4999999999956468E-01     8.3333333333333329E-02     0.0000000000000000E+00 
    4.9999999999951827E-01     1.6666666666666671E-01     0.0000000000000000E+00 
    9.1666666666666674E-01     2.4999999999957681E-01     0.0000000000000000E+00 
    8.3333333333333337E-01     4.9999999999951827E-01     0.0000000000000000E+00 
    1.6666666666666671E-01     5.0000000000088307E-01     0.0000000000000000E+00 
    8.3333333333333329E-02     7.5000000000070155E-01     0.0000000000000000E+00 
    9.1666666666666674E-01     7.4999999999956468E-01     0.0000000000000000E+00 
    5.0000000000088307E-01     8.3333333333333348E-01     0.0000000000000000E+00 
    2.5000000000068640E-01     9.1666666666666674E-01     0.0000000000000000E+00 
    7.5000000000070155E-01     9.1666666666666674E-01     0.0000000000000000E+00 
[...]
CELL_DATA 768 
SCALARS Pressure double 1 
LOOKUP_TABLE default 

    3.7614625471870564E+00 
    3.6506975124948067E+00 
    3.6087742981745148E+00 
    3.6857163120131680E+00 
    3.5574707306690958E+00 
    3.4614442950649420E+00 
    3.4520152911632258E+00 
    3.5331419544806844E+00 
    3.5051783977864659E+00 
    3.4401878960767118E+00 
    3.4265643982339471E+00 
    3.4751579670312345E+00 
    3.6198493148497803E+00 
    3.5647741674173785E+00 
    3.5183925596518053E+00 
    3.5561539553447847E+00 
    3.3630171129319262E+00 
    3.2542392669868394E+00 
    3.2763325675094110E+00 
    3.3679219523140187E+00 
    3.1222381656279907E+00 
    2.9943456036037959E+00 
    3.0506537676444254E+00 
    3.1639331050180588E+00 
    3.2029755010244618E+00 
    3.1055064640491632E+00 
    3.1576836322084061E+00 
    3.2375734607943234E+00 
    3.3706328723915164E+00 
    3.2952878320226251E+00 
    3.3103493542870934E+00 
    3.3711545401018146E+00 
    3.4930637262654192E+00 
    3.4662133852595165E+00 
    3.4106664562221618E+00 
    3.4331488083286463E+00 
    3.4327292521481798E+00 
    3.3928309131914385E+00 
    3.3393156613336590E+00 
    3.3790584387949556E+00 
    3.3218757873894069E+00 
    3.2786888724056125E+00 
    3.2091815753625830E+00 
    3.2567198559554380E+00 
    3.3750152620973353E+00 
    3.3542968756959004E+00 
    3.2934172559820132E+00 
    3.3158188036504876E+00 
    3.7615217885154157E+00 
    3.6858261973705280E+00 
    3.6092145635389388E+00 
    3.6510554805926008E+00 
    3.6200065014070772E+00 
    3.5563125080666156E+00 
    3.5188110361195299E+00 
    3.5652425876868015E+00 
    3.5060015459301437E+00 
    3.4757832710315384E+00 
    3.4275714128702099E+00 
    3.4414550126529799E+00 
    3.5582629613733836E+00 
    3.5339798867835142E+00 
    3.4534436577890371E+00 
    3.4628955186124211E+00 
    3.4931584402539886E+00 
    3.4332622946916116E+00 
    3.4110751695824706E+00 
    3.4664616781210182E+00 
    3.3752392397560174E+00 
    3.3162198155046001E+00 
    3.2944526358088351E+00 
    3.3550319436113991E+00 
    3.3231680888134338E+00 
    3.2588904131801519E+00 
    3.2125082490376187E+00 
    3.2811753761003106E+00 
    3.4331657014509678E+00 
    3.3798336734847028E+00 
    3.3406420378658943E+00 
    3.3937210123627475E+00 
    3.3651139183979053E+00 
    3.3698620047212602E+00 
    3.2788678789192369E+00 
    3.2569055058322309E+00 
    3.3723088991613324E+00 
    3.3724835276098157E+00 
    3.3121172387704041E+00 
    3.2974759429849900E+00 
    3.2061984827158616E+00 
    3.2409852139147821E+00 
    3.1604725371539906E+00 
    3.1074475112272628E+00 
    3.1247318168001810E+00 
    3.1667114759521455E+00 
    3.0522324251120732E+00 
    2.9957358585709497E+00 
    2.8139019222517923E+00 
    2.7000114720438968E+00 
    2.6618922615288074E+00 
    2.7595957565853078E+00 
    2.5908605051622571E+00 
    2.4898296249603535E+00 
    2.4815817691755413E+00 
    2.5683338736687484E+00 
    2.5440386707508056E+00 
    2.4712938819502721E+00 
    2.4588049144700759E+00 
    2.5174472854901744E+00 
    2.7045925953131640E+00 
    2.6225136284882056E+00 
    2.5810567229940564E+00 
    2.6480344742411415E+00 
    2.4012638308192198E+00 
    2.3293743426252109E+00 
    2.3383297732438244E+00 
    2.4041212690195528E+00 
    2.2776607425398554E+00 
    2.2474444827256006E+00 
    2.2525898176574408E+00 
    2.2873541987805908E+00 
    2.2948919963801266E+00 
    2.2564883212323341E+00 
    2.2594431075891928E+00 
    2.3004880964289476E+00 
    2.4047228029475898E+00 
    2.3446951560848652E+00 
    2.3488095944243321E+00 
    2.4031241133915469E+00 
    2.5847490490476885E+00 
    2.5255589121832451E+00 
    2.4544135898192185E+00 
    2.5118654523786748E+00 
    2.4711036191492401E+00 
    2.4225458225935634E+00 
    2.3663769543385511E+00 
    2.4062009378400369E+00 
    2.3396736655867345E+00 
    2.3129452344470969E+00 
    2.2639916434226328E+00 
    2.2733795696969739E+00 
    2.4269449116993251E+00 
    2.3756622104375325E+00 
    2.2878133530887799E+00 
    2.3154933194904168E+00 
    2.9034398790513447E+00 
    2.8401499425407239E+00 
    2.9015673772656747E+00 
    2.9658052980279010E+00 
    2.7767722600977081E+00 
    2.7127003182096536E+00 
    2.7739829982964128E+00 
    2.8378276581861908E+00 
    2.8991915372496391E+00 
    2.8356501918768995E+00 
    2.8973009207391853E+00 
    2.9603413179696116E+00 
    3.0276541524359200E+00 
    2.9630101107235709E+00 
    3.0236824991257620E+00 
    3.0878020379011231E+00 
    2.6509555215480778E+00 
    2.5909146853710303E+00 
    2.6790550041337502E+00 
    2.7210736395943496E+00 
    2.5279820668233830E+00 
    2.4607209443556486E+00 
    2.5926026980696584E+00 
    2.6362801261020015E+00 
    2.7410808840269554E+00 
    2.7161446016621742E+00 
    2.8353045424341725E+00 
    2.8436176878368533E+00 
    2.7912254733471018E+00 
    2.7661375898751936E+00 
    2.8522573658755732E+00 
    2.8611626366350502E+00 
    3.1406479738731310E+00 
    3.0708209283396917E+00 
    3.1046184674399315E+00 
    3.1852126302958088E+00 
    3.0010240179429419E+00 
    2.9310485065811318E+00 
    2.9375163388401844E+00 
    3.0218189775179716E+00 
    3.0424956846832933E+00 
    2.9442109488264561E+00 
    2.9512402733803338E+00 
    3.0632739454607321E+00 
    3.2256130953835718E+00 
    3.1370545515806225E+00 
    3.1685761569671094E+00 
    3.2619972239741988E+00 
    2.2402988158408381E+00 
    2.2094085465632998E+00 
    2.1992248984670004E+00 
    2.2346817399887340E+00 
    2.1565717134565685E+00 
    2.0834475887550679E+00 
    2.0804860295951677E+00 
    2.1473005383882309E+00 
    2.1405354170858950E+00 
    2.0798117556481133E+00 
    2.0813347327676612E+00 
    2.1361216829534273E+00 
    2.2300788943527063E+00 
    2.1911404198175486E+00 
    2.1849624135868213E+00 
    2.2264139569784982E+00 
    1.9943227275196633E+00 
    1.8935587437533457E+00 
    1.9160241652669385E+00 
    2.0026234191248053E+00 
    1.7853597953198006E+00 
    1.6725810552950831E+00 
    1.7265846495752730E+00 
    1.8232466642466962E+00 
    1.8624593599400323E+00 
    1.7813252951688332E+00 
    1.8375880992742479E+00 
    1.9038228299861908E+00 
    2.0129583815501704E+00 
    1.9403728632054962E+00 
    1.9669930194241512E+00 
    2.0255248429679726E+00 
    2.2210884265874502E+00 
    2.1718885086450510E+00 
    2.1448804295206312E+00 
    2.2113052524481445E+00 
    2.1182030917393941E+00 
    2.0618307073570281E+00 
    2.0133421135386032E+00 
    2.0782920847915465E+00 
    2.0302585707331224E+00 
    1.9592581357278744E+00 
    1.9006427101201435E+00 
    1.9732756935789755E+00 
    2.1967978646111144E+00 
    2.1089834474966516E+00 
    2.0580096756247457E+00 
    2.1693498329391208E+00 
    2.0244886633274004E+00 
    1.9575353613577728E+00 
    1.8502805618144442E+00 
    1.8936139891616708E+00 
    1.8949403412126609E+00 
    1.8352416208672566E+00 
    1.7660614221862521E+00 
    1.8078105328495846E+00 
    1.7218295547642000E+00 
    1.6967768682928561E+00 
    1.6274421758734572E+00 
    1.6363807948006373E+00 
    1.7714148808292787E+00 
    1.7466612954618281E+00 
    1.6449743365158112E+00 
    1.6531586939929848E+00 
    1.7738268398115815E+00 
    1.7100647430075560E+00 
    1.6497980392145180E+00 
    1.7133842962594077E+00 
    1.6468235822199555E+00 
    1.5835724349575797E+00 
    1.5217757801804987E+00 
    1.5860212617263911E+00 
    1.5250071077293823E+00 
    1.4601593374362372E+00 
    1.3995522709356416E+00 
    1.4640982335508599E+00 
    1.6524526549662595E+00 
    1.5889348644849819E+00 
    1.5279000648870447E+00 
    1.5911676559290477E+00 
    1.5370187428900419E+00 
    1.5441601906258959E+00 
    1.4441585622718960E+00 
    1.4225335126822729E+00 
    1.5509073999260308E+00 
    1.5573305424528729E+00 
    1.4867424950926964E+00 
    1.4654123190970429E+00 
    1.3807219910980384E+00 
    1.4159075214836436E+00 
    1.3448869950956841E+00 
    1.2973178722555636E+00 
    1.3132016702309517E+00 
    1.3464665058282002E+00 
    1.2535711272654801E+00 
    1.2144115058151603E+00 
    3.2634541877740597E+00 
    3.1699140185925607E+00 
    3.1383010469473787E+00 
    3.2274105007239369E+00 
    3.0637917053494603E+00 
    2.9510180364183229E+00 
    2.9439707267997588E+00 
    3.0428843920432045E+00 
    3.0221405871526503E+00 
    2.9373147818768981E+00 
    2.9309507101636703E+00 
    3.0013370289488135E+00 
    3.1872283927022420E+00 
    3.1057241166553542E+00 
    3.0717707406480619E+00 
    3.1424442855197596E+00 
    2.8349665458765392E+00 
    2.7163583149859161E+00 
    2.7412170379769147E+00 
    2.8433141178754138E+00 
    2.5935647832360162E+00 
    2.4622645282987938E+00 
    2.5293521042779008E+00 
    2.6370626931477030E+00 
    2.6797044885040369E+00 
    2.5921122796997906E+00 
    2.6519825693537937E+00 
    2.7216416608887446E+00 
    2.8520261345646372E+00 
    2.7662649271584416E+00 
    2.7913870929303513E+00 
    2.8610593302457681E+00 
    3.0890606817144963E+00 
    3.0243563371125406E+00 
    2.9635905754982730E+00 
    3.0286611960325320E+00 
    2.9605868247992402E+00 
    2.8972876653812323E+00 
    2.8358338366583848E+00 
    2.8995252605698258E+00 
    2.8383810249434820E+00 
    2.7745314022082965E+00 
    2.7136349302589249E+00 
    2.7776788372792414E+00 
    2.9668337093805128E+00 
    2.9023436428342508E+00 
    2.8411464594393583E+00 
    2.9045996682499315E+00 
    2.8151523793623840E+00 
    2.7608306902225044E+00 
    2.6633930939011603E+00 
    2.7014863881271545E+00 
    2.7058443419872242E+00 
    2.6493517553754762E+00 
    2.5826581202885137E+00 
    2.6240456350580041E+00 
    2.5457251393962417E+00 
    2.5191577780942453E+00 
    2.4604387135597370E+00 
    2.4728170853005027E+00 
    2.5924553412975535E+00 
    2.5699367751548863E+00 
    2.4829885781554233E+00 
    2.4911272855654825E+00 
    2.5861635856454752E+00 
    2.5134253680124314E+00 
    2.4561441411557836E+00 
    2.5271856824942662E+00 
    2.4286028831453716E+00 
    2.3172036245638536E+00 
    2.2896247935617691E+00 
    2.3774257957952543E+00 
    2.3413734978700318E+00 
    2.2750614665971529E+00 
    2.2653237510268247E+00 
    2.3143317751801815E+00 
    2.4728046697218242E+00 
    2.4079094782814447E+00 
    2.3678676968239505E+00 
    2.4241211108680782E+00 
    2.4021508226388120E+00 
    2.4051337404867379E+00 
    2.3387504038865554E+00 
    2.3294951492315366E+00 
    2.4058792436950478E+00 
    2.4044431326214126E+00 
    2.3498998093255481E+00 
    2.3454259498932175E+00 
    2.2952625244061320E+00 
    2.3013279394683503E+00 
    2.2601628351163097E+00 
    2.2567128505005294E+00 
    2.2773377760687037E+00 
    2.2873334411618478E+00 
    2.2523703724538171E+00 
    2.2470113517612553E+00 
    1.4926089247430321E+00 
    1.3701837289403607E+00 
    1.3296873406781216E+00 
    1.4371092595653630E+00 
    1.2415914634100733E+00 
    1.1018606006669778E+00 
    1.0951974946959868E+00 
    1.2169962079320729E+00 
    1.1950407598806105E+00 
    1.0919620430165169E+00 
    1.0921007676006738E+00 
    1.1764029417106077E+00 
    1.3825931717065687E+00 
    1.2909895386669425E+00 
    1.2550644095261518E+00 
    1.3301570342984586E+00 
    9.4115665525541936E-01 
    7.3974554157750239E-01 
    7.9934965512219769E-01 
    9.5878755322308473E-01 
    4.5479717216871984E-01 
    0.0000000000000000E+00 
    3.2572971965321834E-01 
    5.9819272642865107E-01 
    7.2309379520105699E-01 
    5.6364899235096677E-01 
    7.4253374344399192E-01 
    8.3162338673784453E-01 
    9.8021715760277317E-01 
    8.5990342911964179E-01 
    9.1928970799636822E-01 
    1.0044704064317449E+00 
    1.2770796845653329E+00 
    1.2101740456140520E+00 
    1.1588063080082216E+00 
    1.2260871202841050E+00 
    1.1389262544801173E+00 
    1.0611115434270288E+00 
    9.9771342205426905E-01 
    1.0836760483066687E+00 
    1.0359968406863069E+00 
    9.3816384127231633E-01 
    8.8483331317530267E-01 
    9.9913145381271840E-01 
    1.1847547034817727E+00 
    1.1172558070036114E+00 
    1.0895171268717894E+00 
    1.1586923483964298E+00 
    2.0257934370792241E+00 
    1.8938762024148075E+00 
    1.8501931425743803E+00 
    1.9585270363439262E+00 
    1.7701414333729550E+00 
    1.6505062814272311E+00 
    1.6422388316027219E+00 
    1.7451949681292611E+00 
    1.7201900493434366E+00 
    1.6337270501096215E+00 
    1.6250156188131808E+00 
    1.6952109992637168E+00 
    1.8956383078333034E+00 
    1.8074359061767686E+00 
    1.7655030541697092E+00 
    1.8356722496009739E+00 
    1.5336792292563184E+00 
    1.4201356428394605E+00 
    1.4416370052757941E+00 
    1.5409733654229518E+00 
    1.3121229320815990E+00 
    1.2144529602125294E+00 
    1.2535349107886171E+00 
    1.3452333156275738E+00 
    1.3794038879792805E+00 
    1.2972470976794941E+00 
    1.3447909166078931E+00 
    1.4147462491787173E+00 
    1.5480100802105530E+00 
    1.4631356324761036E+00 
    1.4847119943629550E+00 
    1.5548591699648380E+00 
    1.7740322142018397E+00 
    1.7126744435922587E+00 
    1.6489864156182223E+00 
    1.7100726780560853E+00 
    1.6508753032034553E+00 
    1.5889957953661451E+00 
    1.5260307020540256E+00 
    1.5874751770506363E+00 
    1.5239816484540891E+00 
    1.4629177718848054E+00 
    1.3993243469577989E+00 
    1.4599511043006512E+00 
    1.6468417792513017E+00 
    1.5854587383620904E+00 
    1.5216687047012711E+00 
    1.5836944083696833E+00 
    2.1709953080778370E+00 
    2.0595558923590116E+00 
    2.1108471312262562E+00 
    2.1986303683426369E+00 
    1.9746970641081172E+00 
    1.9019024981275376E+00 
    1.9611264891055797E+00 
    2.0321826072004869E+00 
    2.0804256068269833E+00 
    2.0156345882598856E+00 
    2.0642646291799016E+00 
    2.1203763278134615E+00 
    2.2130773572183293E+00 
    2.1468980307806613E+00 
    2.1737406165812549E+00 
    2.2225876103353639E+00 
    1.8387071014943634E+00 
    1.7822290314167695E+00 
    1.8643142757325191E+00 
    1.9056953567262545E+00 
    1.7272838001460173E+00 
    1.6729880831486199E+00 
    1.7868368833770771E+00 
    1.8249424901297666E+00 
    1.9186108165946831E+00 
    1.8961010407937782E+00 
    1.9973678668743782E+00 
    2.0055775697442342E+00 
    1.9693777985382936E+00 
    1.9428800631809398E+00 
    2.0157801755441938E+00 
    2.0281583429636911E+00 
    2.2273689273345330E+00 
    2.1864275719113504E+00 
    2.1923097068396236E+00 
    2.2305882431884143E+00 
    2.1381432284893176E+00 
    2.0838526288117212E+00 
    2.0824550295121140E+00 
    2.1425053653249471E+00 
    2.1491310229095841E+00 
    2.0832488776175606E+00 
    2.0862795243416894E+00 
    2.1582926673237930E+00 
    2.2347545451211182E+00 
    2.2000989554578587E+00 
    2.2099955151530977E+00 
    2.2400675516101769E+00 
    1.1589329448044121E+00 
    1.0900099404217014E+00 
    1.1185596869462537E+00 
    1.1854405122777352E+00 
    9.9979623027467945E-01 
    8.8553752948121778E-01 
    9.4013517868886398E-01 
    1.0378069669573924E+00 
    1.0863003384929932E+00 
    1.0007521802665538E+00 
    1.0648060399631865E+00 
    1.1419917021628014E+00 
    1.2270389393696786E+00 
    1.1607335148419200E+00 
    1.2123003768794467E+00 
    1.2781189524123979E+00 
    7.4321851133096517E-01 
    5.6422461342462848E-01 
    7.2519217804793068E-01 
    8.3366776269168397E-01 
    3.2605894417169595E-01 
    0.0000000000000000E+00 
    4.5628421042329342E-01 
    6.0004600010987608E-01 
    8.0296631151260112E-01 
    7.4310234995659785E-01 
    9.4609363748906772E-01 
    9.6358546059904437E-01 
    9.2252499008372180E-01 
    8.6337451199405912E-01 
    9.8470125461473090E-01 
    1.0084694100711582E+00 
    1.3310685036454386E+00 
    1.2571570610697838E+00 
    1.2930743866101377E+00 
    1.3833902457722973E+00 
    1.1796377527067057E+00 
    1.0961904931247277E+00 
    1.0964781128473529E+00 
    1.1985063665723978E+00 
    1.2204575361662615E+00 
    1.0999593382433484E+00 
    1.1066590253399962E+00 
    1.2448607115520089E+00 
    1.4377141541171821E+00 
    1.3315627442970046E+00 
    1.3717067161668406E+00 
    1.4929545935062483E+00 
    2.3168905621448066E+00 
    2.4646466491185848E+00 
    2.4474957725438458E+00 
    2.3114100290384996E+00 
    2.6098793180410249E+00 
    2.7512110284640467E+00 
    2.7114261319508497E+00 
    2.5811505033237117E+00 
    2.5541343327472847E+00 
    2.6731133829493294E+00 
    2.6358175791718250E+00 
    2.5284878039860761E+00 
    2.3066437788579135E+00 
    2.4318672700208706E+00 
    2.4175153344476157E+00 
    2.3026185505309611E+00 
    2.8844714349212013E+00 
    3.0090489451828963E+00 
    2.9356550492932949E+00 
    2.8292274466634990E+00 
    3.1264772036016417E+00 
    3.2351226855841961E+00 
    3.1376638204518237E+00 
    3.0385783203833223E+00 
    2.9478808747916863E+00 
    3.0323813814975074E+00 
    2.9215355314046274E+00 
    2.8545971408378046E+00 
    2.7749050914705844E+00 
    2.8620120778183908E+00 
    2.7877252009379925E+00 
    2.7210151640121749E+00 
    2.3068053662160950E+00 
    2.4246811363319307E+00 
    2.4561652020841707E+00 
    2.3220125580762137E+00 
    2.5362283262018943E+00 
    2.6428371386145053E+00 
    2.6948421167574774E+00 
    2.5791561328117707E+00 
    2.6255204423124887E+00 
    2.7482900262623589E+00 
    2.8031717113825372E+00 
    2.6759407880635324E+00 
    2.3444620997443475E+00 
    2.4935174791638675E+00 
    2.5391412215260050E+00 
    2.3799678527872690E+00 
    2.1679942439929749E+00 
    2.0200748218286564E+00 
    2.0372246423684399E+00 
    2.1735934357066431E+00 
    1.8745900394440453E+00 
    1.7328482453150378E+00 
    1.7726235325154758E+00 
    1.9032770194748991E+00 
    1.9304311182621965E+00 
    1.8111137381359677E+00 
    1.8487225336318847E+00 
    1.9564129035313300E+00 
    2.1786259315837642E+00 
    2.0530685749038597E+00 
    2.0677613885285737E+00 
    2.1830337344002957E+00 
    1.5988840485189091E+00 
    1.4730922533889992E+00 
    1.5472738803452155E+00 
    1.6543548053769905E+00 
    1.3537360754546452E+00 
    1.2421449519245582E+00 
    1.3431982858509703E+00 
    1.4434876741257598E+00 
    1.5355738491601874E+00 
    1.4508985297223032E+00 
    1.5631786150046560E+00 
    1.6299095181893455E+00 
    1.7090231634216826E+00 
    1.6217023967037072E+00 
    1.6966785116854741E+00 
    1.7633674785773783E+00 
    2.1791964764059579E+00 
    2.0609371988629990E+00 
    2.0297552156837106E+00 
    2.1642783047459999E+00 
    1.9489986721512813E+00 
    1.8419903663232677E+00 
    1.7901794431004256E+00 
    1.9063526086074041E+00 
    1.8603001395404795E+00 
    1.7370051517613234E+00 
    1.6824666775500041E+00 
    1.8102147176858483E+00 
    2.1420153762995717E+00 
    1.9926868787564695E+00 
    1.9472827998146784E+00 
    2.1065820455259625E+00 
    2.3813502136766997E+00 
    2.5400173842526090E+00 
    2.4941141085186174E+00 
    2.3453806300658497E+00 
    2.6761650421542016E+00 
    2.8028828081058297E+00 
    2.7480729871473746E+00 
    2.6256856263424728E+00 
    2.5792797568358310E+00 
    2.6947079144146477E+00 
    2.6427704291643312E+00 
    2.5363251115403531E+00 
    2.3225575796145081E+00 
    2.4565706992249230E+00 
    2.4249152944245855E+00 
    2.3070616142638567E+00 
    2.9213273781178413E+00 
    3.0327901806397528E+00 
    2.9480083186847272E+00 
    2.8544167753412490E+00 
    3.1386629783859408E+00 
    3.2359759641685253E+00 
    3.1268708527303382E+00 
    3.0390610556830810E+00 
    2.9358268697079017E+00 
    3.0091903170038985E+00 
    2.8845079153017457E+00 
    2.8292619015163063E+00 
    2.7875911064569707E+00 
    2.8620268579104957E+00 
    2.7748662535493520E+00 
    2.7209262144644328E+00 
    2.3026106628532661E+00 
    2.4175742514303753E+00 
    2.4318321632615740E+00 
    2.3065101391891520E+00 
    2.5285130612995133E+00 
    2.6357680721922612E+00 
    2.6730686135765622E+00 