# vtk DataFile Version 2.0
Pressure Field Data 
ASCII 
DATASET UNSTRUCTURED_GRID 

POINTS 801 double 

    0.0000000000000000E+00     0.0000000000000000E+00     0.0000000000000000E+00 
    1.0000000000000000E+00     0.0000000000000000E+00     0.0000000000000000E+00 
    1.0000000000000000E+00     1.0000000000000000E+00     0.0000000000000000E+00 
    0.0000000000000000E+00     1.0000000000000000E+00     0.0000000000000000E+00 
    2.5000000000000000E-01     2.5000000000000000E-01     0.0000000000000000E+00 
    7.5000000000000000E-01     2.5000000000000000E-01     0.0000000000000000E+00 
    7.5000000000000000E-01     7.5000000000000000E-01     0.0000000000000000E+00 
    2.5000000000000000E-01     7.5000000000000000E-01     0.0000000000000000E+00 
    2.4999999999941941E-01     0.0000000000000000E+00     0.0000000000000000E+00 
    4.9999999999869399E-01     0.0000000000000000E+00     0.0000000000000000E+00 
    7.4999999999934697E-01     0.0000000000000000E+00     0.0000000000000000E+00 
    1.2499999999977940E-01     0.0000000000000000E+00     0.0000000000000000E+00 
    3.7499999999905670E-01     0.0000000000000000E+00     0.0000000000000000E+00 
    6.2499999999902045E-01     0.0000000000000000E+00     0.0000000000000000E+00 
    8.7499999999967348E-01     0.0000000000000000E+00     0.0000000000000000E+00 
    6.2499999999889699E-02     0.0000000000000000E+00     0.0000000000000000E+00 
    1.8749999999959940E-01     0.0000000000000000E+00     0.0000000000000000E+00 
    3.1249999999923811E-01     0.0000000000000000E+00     0.0000000000000000E+00 
    4.3749999999887529E-01     0.0000000000000000E+00     0.0000000000000000E+00 
    5.6249999999885725E-01     0.0000000000000000E+00     0.0000000000000000E+00 
    6.8749999999918376E-01     0.0000000000000000E+00     0.0000000000000000E+00 
    8.1249999999951017E-01     0.0000000000000000E+00     0.0000000000000000E+00 
    9.3749999999983680E-01     0.0000000000000000E+00     0.0000000000000000E+00 
    1.0000000000000000E+00     2.4999999999941941E-01     0.0000000000000000E+00 
    1.0000000000000000E+00     4.9999999999869399E-01     0.0000000000000000E+00 
    1.0000000000000000E+00     7.4999999999934697E-01     0.0000000000000000E+00 
    1.0000000000000000E+00     1.2499999999977940E-01     0.0000000000000000E+00 
    1.0000000000000000E+00     3.7499999999905670E-01     0.0000000000000000E+00 
    1.0000000000000000E+00     6.2499999999902045E-01     0.0000000000000000E+00 
    1.0000000000000000E+00     8.7499999999967348E-01     0.0000000000000000E+00 
    1.0000000000000000E+00     6.2499999999889699E-02     0.0000000000000000E+00 
    1.0000000000000000E+00     1.8749999999959940E-01     0.0000000000000000E+00 
    1.0000000000000000E+00     3.1249999999923811E-01     0.0000000000000000E+00 
    1.0000000000000000E+00     4.3749999999887529E-01     0.0000000000000000E+00 
    1.0000000000000000E+00     5.6249999999885725E-01     0.0000000000000000E+00 
    1.0000000000000000E+00     6.8749999999918376E-01     0.0000000000000000E+00 
    1.0000000000000000E+00     8.1249999999951017E-01     0.0000000000000000E+00 
    1.0000000000000000E+00     9.3749999999983680E-01     0.0000000000000000E+00 
    7.5000000000112044E-01     1.0000000000000000E+00     0.0000000000000000E+00 
    5.0000000000205913E-01     1.0000000000000000E+00     0.0000000000000000E+00 
    2.5000000000102962E-01     1.0000000000000000E+00     0.0000000000000000E+00 
    8.7499999999991362E-01     1.0000000000000000E+00     0.0000000000000000E+00 
    6.2499999999988309E-01     1.0000000000000000E+00     0.0000000000000000E+00 
    3.7499999999869987E-01     1.0000000000000000E+00     0.0000000000000000E+00 
    1.2499999999880820E-01     1.0000000000000000E+00     0.0000000000000000E+00 
    9.3749999999995681E-01     1.0000000000000000E+00     0.0000000000000000E+00 
    8.1250000000051703E-01     1.0000000000000000E+00     0.0000000000000000E+00 
    6.8750000000050182E-01     1.0000000000000000E+00     0.0000000000000000E+00 
    5.6250000000097111E-01     1.0000000000000000E+00     0.0000000000000000E+00 
    4.3750000000037947E-01     1.0000000000000000E+00     0.0000000000000000E+00 
    3.1249999999986477E-01     1.0000000000000000E+00     0.0000000000000000E+00 
    1.8749999999991890E-01     1.0000000000000000E+00     0.0000000000000000E+00 
    6.2499999999404102E-02     1.0000000000000000E+00     0.0000000000000000E+00 
    0.0000000000000000E+00     7.5000000000112044E-01     0.0000000000000000E+00 
    0.0000000000000000E+00     5.0000000000205913E-01     0.0000000000000000E+00 
    0.0000000000000000E+00     2.5000000000102962E-01     0.0000000000000000E+00 
    0.0000000000000000E+00     8.7499999999991362E-01     0.0000000000000000E+00 
    0.0000000000000000E+00     6.2499999999988309E-01     0.0000000000000000E+00 
    0.0000000000000000E+00     3.7499999999869987E-01     0.0000000000000000E+00 
    0.0000000000000000E+00     1.2499999999880820E-01     0.0000000000000000E+00 
    0.0000000000000000E+00     9.3749999999995681E-01     0.0000000000000000E+00 
    0.0000000000000000E+00     8.1250000000051703E-01     0.0000000000000000E+00 
    0.0000000000000000E+00     6.8750000000050182E-01     0.0000000000000000E+00 
    0.0000000000000000E+00     5.6250000000097111E-01     0.0000000000000000E+00 
    0.0000000000000000E+00     4.3750000000037947E-01     0.0000000000000000E+00 
    0.0000000000000000E+00     3.1249999999986477E-01     0.0000000000000000E+00 
    0.0000000000000000E+00     1.8749999999991890E-01     0.0000000000000000E+00 
    0.0000000000000000E+00     6.2499999999404102E-02     0.0000000000000000E+00 
    4.9999999999972200E-01     2.5000000000000000E-01     0.0000000000000000E+00 
    3.7500000000067490E-01     2.5000000000000000E-01     0.0000000000000000E+00 
    6.2500000000042988E-01     2.5000000000000000E-01     0.0000000000000000E+00 
    3.1250000000033751E-01     2.5000000000000000E-01     0.0000000000000000E+00 
    4.3750000000019851E-01     2.5000000000000000E-01     0.0000000000000000E+00 
    5.6250000000007594E-01     2.5000000000000000E-01     0.0000000000000000E+00 
    6.8750000000021494E-01     2.5000000000000000E-01     0.0000000000000000E+00 
    7.5000000000000000E-01     4.9999999999972200E-01     0.0000000000000000E+00 
    7.5000000000000000E-01     3.7500000000067490E-01     0.0000000000000000E+00 
    7.5000000000000000E-01     6.2500000000042988E-01     0.0000000000000000E+00 
    7.5000000000000000E-01     3.1250000000033751E-01     0.0000000000000000E+00 
    7.5000000000000000E-01     4.3750000000019851E-01     0.0000000000000000E+00 
    7.5000000000000000E-01     5.6250000000007594E-01     0.0000000000000000E+00 
    7.5000000000000000E-01     6.8750000000021494E-01     0.0000000000000000E+00 
    5.0000000000118039E-01     7.5000000000000000E-01     0.0000000000000000E+00 
    6.2500000000161415E-01     7.5000000000000000E-01     0.0000000000000000E+00 
    3.7500000000140910E-01     7.5000000000000000E-01     0.0000000000000000E+00 
    6.8750000000080713E-01     7.5000000000000000E-01     0.0000000000000000E+00 
    5.6250000000139733E-01     7.5000000000000000E-01     0.0000000000000000E+00 
    4.3750000000129469E-01     7.5000000000000000E-01     0.0000000000000000E+00 
    3.1250000000070460E-01     7.5000000000000000E-01     0.0000000000000000E+00 
    2.5000000000000000E-01     5.0000000000118039E-01     0.0000000000000000E+00 
    2.5000000000000000E-01     6.2500000000161415E-01     0.0000000000000000E+00 
    2.5000000000000000E-01     3.7500000000140910E-01     0.0000000000000000E+00 
    2.5000000000000000E-01     6.8750000000080713E-01     0.0000000000000000E+00 
    2.5000000000000000E-01     5.6250000000139733E-01     0.0000000000000000E+00 
    2.5000000000000000E-01     4.3750000000129469E-01     0.0000000000000000E+00 
    2.5000000000000000E-01     3.1250000000070460E-01     0.0000000000000000E+00 
    3.7499999999934702E-01     1.2500000000000000E-01     0.0000000000000000E+00 
    1.2500000000000000E-01     1.2500000000000000E-01     0.0000000000000000E+00 
    1.2500000000000000E-01     3.7500000000102962E-01     0.0000000000000000E+00 
    8.7500000000000000E-01     1.2500000000000000E-01     0.0000000000000000E+00 
    6.2499999999934697E-01     1.2500000000000000E-01     0.0000000000000000E+00 
    8.7500000000000000E-01     3.7499999999934702E-01     0.0000000000000000E+00 
    8.7500000000000000E-01     6.2499999999934697E-01     0.0000000000000000E+00 
    1.2500000000000000E-01     6.2500000000102962E-01     0.0000000000000000E+00 
    1.2500000000000000E-01     8.7500000000000000E-01     0.0000000000000000E+00 
    8.7500000000000000E-01     8.7500000000000000E-01     0.0000000000000000E+00 
    6.2500000000102962E-01     8.7500000000000000E-01     0.0000000000000000E+00 
    3.7500000000102962E-01     8.7500000000000000E-01     0.0000000000000000E+00 
    2.4999999999957681E-01     8.3333333333333329E-02     0.0000000000000000E+00 
    8.3333333333333329E-02     2.5000000000068640E-01     0.0000000000000000E+00 
    7.4999999999956468E-01     8.3333333333333329E-02     0.0000000000000000E+00 
    4.9999999999951827E-01     1.6666666666666671E-01     0.0000000000000000E+00 
    9.1666666666666674E-01     2.4999999999957681E-01     0.0000000000000000E+00 
    8.3333333333333337E-01     4.9999999999951827E-01     0.0000000000000000E+00 
    1.6666666666666671E-01     5.0000000000088307E-01     0.0000000000000000E+00 
    8.3333333333333329E-02     7.5000000000070155E-01     0.0000000000000000E+00 
    9.1666666666666674E-01     7.4999999999956468E-01     0.0000000000000000E+00 
    5.0000000000088307E-01     8.3333333333333348E-01     0.0000000000000000E+00 
    2.5000000000068640E-01     9.1666666666666674E-01     0.0000000000000000E+00 
    7.5000000000070155E-01     9.1666666666666674E-01     0.0000000000000000E+00 
[...]
CELL_DATA 768 
SCALARS Pressure double 1 
LOOKUP_TABLE default 

    1.8244842450108878E+00 
    1.7316357666559179E+00 
    1.7018935167484128E+00 
    1.7584050161094102E+00 
    1.6714155780946121E+00 
    1.6261726620162775E+00 
    1.6221984320245195E+00 
    1.6585652858520545E+00 
    1.6453846857003167E+00 
    1.6173950232967644E+00 
    1.6119273603088333E+00 
    1.6322399649549795E+00 
    1.7095167200668702E+00 
    1.6756208518958631E+00 
    1.6522674984441537E+00 
    1.6719186607905436E+00 
    1.5870556928466428E+00 
    1.5501462614182904E+00 
    1.5570082337305837E+00 
    1.5888788492251815E+00 
    1.5133974795061038E+00 
    1.4758482462633236E+00 
    1.4932548378284622E+00 
    1.5253992448417062E+00 
    1.5367703039381444E+00 
    1.5100517822751516E+00 
    1.5259527983559762E+00 
    1.5472935559235348E+00 
    1.5899465464087057E+00 
    1.5631989506513027E+00 
    1.5685769179312177E+00 
    1.5902577932807356E+00 
    1.6409373442366015E+00 
    1.6285569943066340E+00 
    1.6057785710215691E+00 
    1.6149615733012839E+00 
    1.6142540930515110E+00 
    1.5984721666871100E+00 
    1.5789372745066093E+00 
    1.5935366208982484E+00 
    1.5745522428069489E+00 
    1.5601887831027486E+00 
    1.5417411807261556E+00 
    1.5566835263301988E+00 
    1.5935904925679496E+00 
    1.5860247175156941E+00 
    1.5687822925249215E+00 
    1.5767205186113149E+00 
    1.8245280268373318E+00 
    1.7584631064350857E+00 
    1.7020972306884612E+00 
    1.7318289247362266E+00 
    1.7095856819889670E+00 
    1.6719855885426631E+00 
    1.6524523447323611E+00 
    1.6758182995769968E+00 
    1.6456899039495112E+00 
    1.6324990447762731E+00 
    1.6122217149422793E+00 
    1.6177375743631395E+00 
    1.6717405589500258E+00 
    1.6588852349320906E+00 
    1.6225793052461948E+00 
    1.6265635142170811E+00 
    1.6410033383881604E+00 
    1.6150162895971163E+00 
    1.6059122626242182E+00 
    1.6287251713830357E+00 
    1.5936152026513091E+00 
    1.5767540060048433E+00 
    1.5688015748688664E+00 
    1.5860926056343152E+00 
    1.5746011231693042E+00 
    1.5565881920448368E+00 
    1.5415123191381803E+00 
    1.5601548804254033E+00 
    1.6144766287870422E+00 
    1.5936876387222756E+00 
    1.5790578085773419E+00 
    1.5986964475654650E+00 
    1.5873702671869603E+00 
    1.5891800389495094E+00 
    1.5570870725984802E+00 
    1.5501866695709485E+00 
    1.5902152926501645E+00 
    1.5904781452102641E+00 
    1.5686548717108286E+00 
    1.5632760099417478E+00 
    1.5366147093331217E+00 
    1.5471730908993051E+00 
    1.5256000776567793E+00 
    1.5096476603249978E+00 
    1.5131494248426831E+00 
    1.5252014466877619E+00 
    1.4928294686373393E+00 
    1.4754066620119151E+00 
    1.4158380495282323E+00 
    1.3755680218159543E+00 
    1.3616693401505597E+00 
    1.3967577269328724E+00 
    1.3355455468164152E+00 
    1.2973178181432212E+00 
    1.2940252550755631E+00 
    1.3270141867429504E+00 
    1.3176086556343889E+00 
    1.2897979633164991E+00 
    1.2845587525129671E+00 
    1.3070861948730050E+00 
    1.3769549871246285E+00 
    1.3469833354475529E+00 
    1.3311439146997310E+00 
    1.3560236557353182E+00 
    1.2628937426202493E+00 
    1.2343268815200346E+00 
    1.2377000428801246E+00 
    1.2638645000340467E+00 
    1.2134129800352351E+00 
    1.2009337097241626E+00 
    1.2027840170275956E+00 
    1.2170918589383128E+00 
    1.2196164891119254E+00 
    1.2037598543684067E+00 
    1.2040401356172761E+00 
    1.2211084333408466E+00 
    1.2637981263342821E+00 
    1.2398280090302474E+00 
    1.2408734418281739E+00 
    1.2627204197939772E+00 
    1.3319205661606326E+00 
    1.3095394907962985E+00 
    1.2812128092220265E+00 
    1.3033354893367026E+00 
    1.2887034491365890E+00 
    1.2699575541376087E+00 
    1.2472624831058803E+00 
    1.2625988017088690E+00 
    1.2351982990928310E+00 
    1.2252518738896723E+00 
    1.2047105213109932E+00 
    1.2072318561442112E+00 
    1.2690355230725907E+00 
    1.2489846908625788E+00 
    1.2119604426162010E+00 
    1.2228732540194682E+00 
    1.4461256936847058E+00 
    1.4247063605616257E+00 
    1.4454437133135862E+00 
    1.4665030947771811E+00 
    1.4026062998738096E+00 
    1.3795687096235669E+00 
    1.4014602576505537E+00 
    1.4238126997397775E+00 
    1.4447066098265926E+00 
    1.4230522208939695E+00 
    1.4441499830209070E+00 
    1.4651096819555378E+00 
    1.4863158376856405E+00 
    1.4657699700356759E+00 
    1.4854992651982135E+00 
    1.5053715759712079E+00 
    1.3566496736398175E+00 
    1.3337078237817521E+00 
    1.3668381943312113E+00 
    1.3823529881180356E+00 
    1.3089976681764468E+00 
    1.2819067563498034E+00 
    1.3340887539384854E+00 
    1.3507645134817132E+00 
    1.3894964299788788E+00 
    1.3804496570538309E+00 
    1.4230648974044222E+00 
    1.4259017771606901E+00 
    1.4074642397037869E+00 
    1.3985283843563947E+00 
    1.4288499578041689E+00 
    1.4318534596451034E+00 
    1.5221577212653772E+00 
    1.5007370314328692E+00 
    1.5117845272056509E+00 
    1.5365834262894817E+00 
    1.4785254936400560E+00 
    1.4554999667181183E+00 
    1.4577352736875671E+00 
    1.4854588709821994E+00 
    1.4922992891783955E+00 
    1.4600195891130843E+00 
    1.4623591072959223E+00 
    1.4990689158065786E+00 
    1.5497351479519921E+00 
    1.5223555909152009E+00 
    1.5324854806642185E+00 
    1.5614919029889487E+00 
    1.1978333095323361E+00 
    1.1835234424962406E+00 
    1.1786325636928698E+00 
    1.1950782258583583E+00 
    1.1588455377345095E+00 
    1.1244067087450476E+00 
    1.1229291320172545E+00 
    1.1543785031747160E+00 
    1.1508649709497332E+00 
    1.1224039096365181E+00 
    1.1228006166658369E+00 
    1.1482844339176246E+00 
    1.1923662989095754E+00 
    1.1743958551610609E+00 
    1.1707986589484920E+00 
    1.1897424124699107E+00 
    1.0822433856952323E+00 
    1.0337406553935387E+00 
    1.0446551993538087E+00 
    1.0862137180525193E+00 
    9.8073344896259407E-01 
    9.2437774215339774E-01 
    9.5160126200867623E-01 
    9.9948570956967175E-01 
    1.0185314082162036E+00 
    9.7874317274558464E-01 
    1.0061862685537601E+00 
    1.0383094886393287E+00 
    1.0909560056455496E+00 
    1.0562210659206388E+00 
    1.0686593352975844E+00 
    1.0965817166976082E+00 
    1.1860937546015704E+00 
    1.1638669714746410E+00 
    1.1504642524379201E+00 
    1.1802223360578226E+00 
    1.1393527209035026E+00 
    1.1133288635157090E+00 
    1.0902685359273665E+00 
    1.1202276480169862E+00 
    1.0973278680763705E+00 
    1.0644640769435538E+00 
    1.0363715822474631E+00 
    1.0703327213386804E+00 
    1.1720857154831206E+00 
    1.1329895385818980E+00 
    1.1088858109499347E+00 
    1.1579934133312397E+00 
    1.0940012626596323E+00 
    1.0628623047697676E+00 
    1.0115592398927320E+00 
    1.0321244710535189E+00 
    1.0333284628684380E+00 
    1.0048052837676247E+00 
    9.7096822664162630E-01 
    9.9119893396386560E-01 
    9.4896420054412967E-01 
    9.3665499044235523E-01 
    9.0187120910268392E-01 
    9.0629249623370611E-01 
    9.7305681352134532E-01 
    9.6106877885639808E-01 
    9.1050702377046966E-01 
    9.1450438895151243E-01 
    9.7500720994960577E-01 
    9.4357618206395300E-01 
    9.1339189895080086E-01 
    9.4510230261036765E-01 
    9.1202773196911313E-01 
    8.7980105389152441E-01 
    8.4816277173467047E-01 
    8.8118058400865484E-01 
    8.4985078548118964E-01 
    8.1621404262250263E-01 
    7.8444092435132906E-01 
    8.1828599596645646E-01 
    9.1461527416521560E-01 
    8.8255484033947085E-01 
    8.5131480402388815E-01 
    8.8362501679515371E-01 
    8.5594975785082683E-01 
    8.5961468204326941E-01 
    8.0778099692808958E-01 
    7.9639692448813082E-01 
    8.6306399395381406E-01 
    8.6635180249917543E-01 
    8.3001933625054758E-01 
    8.1890371881267299E-01 
    7.7440929651745116E-01 
    7.9303375831119882E-01 
    7.5542599279566269E-01 
    7.2987225790732235E-01 
    7.3816584724706424E-01 
    7.5612904244450885E-01 
    7.0604471495874754E-01 
    6.8419922770770769E-01 
    1.5616610736277838E+00 
    1.5321888255254128E+00 
    1.5218622375205841E+00 
    1.5496402902825894E+00 
    1.4981037293905948E+00 
    1.4607763488464696E+00 
    1.4585806772054815E+00 
    1.4912911841906891E+00 
    1.4844464894353213E+00 
    1.4564286523434173E+00 
    1.4543184259214386E+00 
    1.4775392351805978E+00 
    1.5362823095206442E+00 
    1.5111457900228440E+00 
    1.5000112225685787E+00 
    1.5216962611323639E+00 
    1.4215008856865536E+00 
    1.3795709321391074E+00 
    1.3885754668255477E+00 
    1.4244878861944215E+00 
    1.3340704430345955E+00 
    1.2823478204671654E+00 
    1.3091544537662128E+00 
    1.3504725971369971E+00 
    1.3663666002658372E+00 
    1.3336147112406067E+00 
    1.3563744495985677E+00 
    1.3817906770348980E+00 
    1.4275608435437850E+00 
    1.3975968858276322E+00 
    1.4065678794005032E+00 
    1.4306924759924475E+00 
    1.5047899122757284E+00 
    1.4846924881770631E+00 
    1.4649972252367724E+00 
    1.4857319149005650E+00 
    1.4641230129544838E+00 
    1.4430622148645413E+00 
    1.4221618995865091E+00 
    1.4438418813155298E+00 
    1.4231264059040241E+00 
    1.4008352202524061E+00 
    1.3791576545835893E+00 
    1.4020954182536740E+00 
    1.4659577518118783E+00 
    1.4448075953002437E+00 
    1.4241785701488934E+00 
    1.4456424206377307E+00 
    1.4154123913506729E+00 
    1.3963458831369344E+00 
    1.3614102418715626E+00 
    1.3752734336672785E+00 
    1.3766039249580269E+00 
    1.3557941992500757E+00 
    1.3310602685934387E+00 
    1.3467904642616400E+00 
    1.3175272594466749E+00 
    1.3070730612121793E+00 
    1.2845547648655937E+00 
    1.2897078067918442E+00 
    1.3353624419719183E+00 
    1.3268583486999059E+00 
    1.2938592063502832E+00 
    1.2970925859353932E+00 
    1.3318497779968366E+00 
    1.3034620184519741E+00 
    1.2814089953352132E+00 
    1.3095722226758499E+00 
    1.2693394572598926E+00 
    1.2232774034396272E+00 
    1.2123751052706000E+00 
    1.2493005813552129E+00 
    1.2354623429421749E+00 
    1.2075637066225440E+00 
    1.2048699339215092E+00 
    1.2253756459534142E+00 
    1.2887757961142341E+00 
    1.2627786364177087E+00 
    1.2473577372631268E+00 
    1.2700025085198954E+00 
    1.2626005023659452E+00 
    1.2636293297850030E+00 
    1.2372972383102441E+00 
    1.2338016191505503E+00 
    1.2636387850748245E+00 
    1.2626543403647619E+00 
    1.2407861478066817E+00 
    1.2395688039247275E+00 
    1.2192631935768263E+00 
    1.2209783413602946E+00 
    1.2039067595966579E+00 
    1.2033879938429968E+00 
    1.2127548682012810E+00 
    1.2165638759314601E+00 
    1.2022051303468395E+00 
    1.2002581579618421E+00 
    8.3345828641294728E-01 
    7.6903754533904611E-01 
    7.4742527172303286E-01 
    8.0447592044648519E-01 
    6.9989105967261545E-01 
    6.2321914282589119E-01 
    6.1956974626489680E-01 
    6.8652070016484268E-01 
    6.7455958213879796E-01 
    6.1785645988584537E-01 
    6.1805574360602578E-01 
    6.6441339028837498E-01 
    7.7562560659731872E-01 
    7.2662283153036977E-01 
    7.0722256327684119E-01 
    7.4763805580747822E-01 
    5.3391976881108139E-01 
    4.2047015886606570E-01 
    4.5474856672297143E-01 
    5.4406089263755075E-01 
    2.5878550687531526E-01 
    0.0000000000000000E+00 
    1.8796035969756272E-01 
    3.4159963085880768E-01 
    4.1216742641257542E-01 
    3.2189526114957462E-01 
    4.2253155378174667E-01 
    4.7312507066500764E-01 
    5.5620052738299852E-01 
    4.8902053820849611E-01 
    5.2232968719576178E-01 
    5.6972600314894428E-01 
    7.1910202558021152E-01 
    6.8288331586592277E-01 
    6.5486114827117947E-01 
    6.9148736952916301E-01 
    6.4395426942444289E-01 
    6.0109735795414654E-01 
    5.6598187645160281E-01 
    6.1358121794497034E-01 
    5.8703687965808005E-01 
    5.3260737993286555E-01 
    5.0238568885187362E-01 
    5.6617418531359365E-01 
    6.6872820872938776E-01 
    6.3185688561747622E-01 
    6.1603568423131672E-01 
    6.5352180970374874E-01 
    1.0947659406986701E+00 
    1.0319983220000739E+00 
    1.0111317909096778E+00 
    1.0632119838345508E+00 
    9.7171973096371511E-01 
    9.1212133611348878E-01 
    9.0825667082428407E-01 
    9.5965875273544488E-01 
    9.4749221643051318E-01 
    9.0420324952128961E-01 
    8.9997100488245974E-01 
    9.3522790757956553E-01 
    1.0333385324395512E+00 
    9.9052426658774451E-01 
    9.7011840197438681E-01 
    1.0045318826029292E+00 
    8.5333527120186248E-01 
    7.9478436608681724E-01 
    8.0606447542669535E-01 
    8.5721905827279754E-01 
    7.3772987504791721E-01 
    6.8445950940746048E-01 
    7.0609577566879755E-01 
    7.5540783704142211E-01 
    7.7348598188206874E-01 
    7.2972718232424150E-01 
    7.5511780476903112E-01 
    7.9207178524226574E-01 
    8.6090998748360803E-01 
    8.1727273565504621E-01 
    8.2848226502056321E-01 
    8.6446748430766607E-01 
    9.7450749766921263E-01 
    9.4409883761644908E-01 
    9.1230920589566977E-01 
    9.4290713755409916E-01 
    9.1316431176798829E-01 
    8.8188615954238891E-01 
    8.4980441790471195E-01 
    8.8119105460122948E-01 
    8.4876836265673306E-01 
    8.1721733435293775E-01 
    7.8394466386682349E-01 
    8.1562209216240977E-01 
    9.1136637172542789E-01 
    8.8025642707184404E-01 
    8.4753539421532620E-01 
    8.7926112648170862E-01 
    1.1585020387476050E+00 
    1.1093989747741457E+00 
    1.1335690336502826E+00 
    1.1725968042258046E+00 
    1.0707077781078471E+00 
    1.0365537781059704E+00 
    1.0649745748135555E+00 
    1.0979216427487792E+00 
    1.1208983038888702E+00 
    1.0910061360533778E+00 
    1.1141364760521597E+00 
    1.1400258741013223E+00 
    1.1806548888014428E+00 
    1.1510647263797000E+00 
    1.1643633356143919E+00 
    1.1863794729810155E+00 
    1.0061997234002023E+00 
    9.7855747018550232E-01 
    1.0189055889805065E+00 
    1.0387577586908163E+00 
    9.5124176629252943E-01 
    9.2387631049872521E-01 
    9.8079241901006087E-01 
    9.9971368055413745E-01 
    1.0454627738512523E+00 
    1.0345082338260319E+00 
    1.0833527434791712E+00 
    1.0872753680178395E+00 
    1.0694140964731751E+00 
    1.0570126643275546E+00 
    1.0919505385282846E+00 
    1.0974825216050728E+00 
    1.1897672534615218E+00 
    1.1711080701468721E+00 
    1.1745542098872863E+00 
    1.1921662513042670E+00 
    1.1488860824255562E+00 
    1.1236487686601679E+00 
    1.1233185915803452E+00 
    1.1514423267451903E+00 
    1.1548817663086826E+00 
    1.1239085312554422E+00 
    1.1254226844236024E+00 
    1.1592842891232507E+00 
    1.1946550528142967E+00 
    1.1786334256577813E+00 
    1.1833708818718331E+00 
    1.1972567797001790E+00 
    6.5367900388068023E-01 
    6.1628948768358494E-01 
    6.3250079338217802E-01 
    6.6908620845830946E-01 
    5.6651783296226255E-01 
    5.0276024683675291E-01 
    5.3361580250201546E-01 
    5.8794418134602278E-01 
    6.1485873481694076E-01 
    5.6749590620844326E-01 
    6.0290255695722972E-01 
    6.4540682986904685E-01 
    6.9189288218805434E-01 
    6.5577004852387288E-01 
    6.8382398136864309E-01 
    7.1944207644064651E-01 
    4.2290261505449761E-01 
    3.2220285181138691E-01 
    4.1325993458857080E-01 
    4.7418759177452691E-01 
    1.8813437003074160E-01 
    0.0000000000000000E+00 
    2.5951126820095555E-01 
    3.4254984736082500E-01 
    4.5660172005751370E-01 
    4.2216528967137174E-01 
    5.3642634904861364E-01 
    5.4649468743353380E-01 
    5.2397132836944549E-01 
    4.9079936534227930E-01 
    5.5845901838684142E-01 
    5.7172013975119473E-01 
    7.4779850663317782E-01 
    7.0806498437489995E-01 
    7.2739215242123767E-01 
    7.7563181803577408E-01 
    6.6590431988043253E-01 
    6.2003415726577504E-01 
    6.2005035685136789E-01 
    6.7613884811380087E-01 
    6.8806857884714712E-01 
    6.2189543826611271E-01 
    6.2556751912637443E-01 
    7.0131702298200493E-01 
    8.0431592438353205E-01 
    7.4803293854433628E-01 
    7.6942554397829499E-01 
    8.3313052265461274E-01 
    1.1935519653849433E+00 
    1.2565765798752093E+00 
    1.2504856486499072E+00 
    1.1924516327635963E+00 
    1.3172295464146144E+00 
    1.3748070642814885E+00 
    1.3597353391017195E+00 
    1.3064119042552844E+00 
    1.2971315801537382E+00 
    1.3458805124865718E+00 
    1.3330115455836935E+00 
    1.2891911866330259E+00 
    1.1927639141336763E+00 
    1.2460224456867135E+00 
    1.2430207477525241E+00 
    1.1944104044982480E+00 
    1.4275411573032724E+00 
    1.4752501348717497E+00 
    1.4489094532564428E+00 
    1.4069654179224733E+00 
    1.5184108633525890E+00 
    1.5572614849826991E+00 
    1.5263552838167422E+00 
    1.4884291968674119E+00 
    1.4573762364546543E+00 
    1.4921444364068910E+00 
    1.4550360153659847E+00 
    1.4251870309838901E+00 
    1.3872216978033238E+00 
    1.4227859834990570E+00 
    1.3966182005318095E+00 
    1.3680554095674848E+00 
    1.2004445039663252E+00 
    1.2498553445655078E+00 
    1.2677407926032764E+00 
    1.2120172026168488E+00 
    1.2956505512763079E+00 
    1.3384987534866888E+00 
    1.3623915190173728E+00 
    1.3171918147894763E+00 
    1.3408397388368489E+00 
    1.3871848310396762E+00 
    1.4143224824798455E+00 
    1.3687989765108772E+00 
    1.2275115502162104E+00 
    1.2890758036961685E+00 
    1.3175340920403695E+00 
    1.2530349139425234E+00 
    1.1287245524973688E+00 
    1.0633019587842225E+00 
    1.0717674229485163E+00 
    1.1321843684001947E+00 
    9.9786533724225635E-01 
    9.3294654301634039E-01 
    9.5193025607415971E-01 
    1.0115704918781039E+00 
    1.0252623017464992E+00 
    9.7082275327946455E-01 
    9.8974417223096645E-01 
    1.0390391016102181E+00 
    1.1364546890407325E+00 
    1.0805103540402148E+00 
    1.0895194929161949E+00 
    1.1414167618740079E+00 
    8.7033174059196805E-01 
    8.1022628798420193E-01 
    8.4694685620400589E-01 
    8.9715215531531944E-01 
    7.5170293709144076E-01 
    6.9510561242545410E-01 
    7.4850195178392087E-01 
    7.9743586323320126E-01 
    8.4424489592237117E-01 
    8.0461819459553419E-01 
    8.6218584146747179E-01 
    8.9184802740625191E-01 
    9.2396200080129731E-01 
    8.8400493803742497E-01 
    9.2139120009091435E-01 
    9.5090200449311946E-01 
    1.1434426241628659E+00 
    1.0894086833078538E+00 
    1.0785825821834252E+00 
    1.1408796032797113E+00 
    1.0380515811920124E+00 
    9.8854287387223150E-01 
    9.6669707505842661E-01 
    1.0212507432989961E+00 
    1.0031727306229128E+00 
    9.4441134170276142E-01 
    9.2153410176175843E-01 
    9.8328494291159518E-01 
    1.1350059022399996E+00 
    1.0652579828982762E+00 
    1.0478395272848373E+00 
    1.1226454089547964E+00 
    1.2534888306359886E+00 
    1.3175051939713642E+00 
    1.2887967339232713E+00 
    1.2276135710073921E+00 
    1.3679283769387487E+00 
    1.4127628789027662E+00 
    1.3859458753626270E+00 
    1.3400399406278700E+00 
    1.3164611649891158E+00 
    1.3613986493901318E+00 
    1.3377104775242568E+00 
    1.2950134216576292E+00 
    1.2118038158637399E+00 
    1.2673154771683572E+00 
    1.2493618005057026E+00 
    1.2000286857487250E+00 
    1.4534521328198529E+00 
    1.4911814247597623E+00 
    1.4565163604178848E+00 
    1.4239399801063932E+00 
    1.5260685570188832E+00 
    1.5574114703277753E+00 
    1.5183824181861358E+00 
    1.4880456045280228E+00 
    1.4485063485168732E+00 
    1.4751436283147423E+00 
    1.4274217766839055E+00 
    1.4066081092473284E+00 
    1.3956268676848307E+00 
    1.4220552968448856E+00 
    1.3866302176982046E+00 
    1.3672765461213470E+00 
    1.1938856959321225E+00 
    1.2425035982390833E+00 
    1.2455752185582996E+00 
    1.1922757110452005E+00 
    1.2886159365277430E+00 
    1.3323528026408280E+00 
    1.3453689846251173E+00 