# vtk DataFile Version 2.0
Pressure Field Data 
ASCII 
DATASET UNSTRUCTURED_GRID 

POINTS 801 double 

    0.0000000000000000E+00     0.0000000000000000E+00     0.0000000000000000E+00 
    1.0000000000000000E+00     0.0000000000000000E+00     0.0000000000000000E+00 
    1.0000000000000000E+00     1.0000000000000000E+00     0.0000000000000000E+00 
    0.0000000000000000E+00     1.0000000000000000E+00     0.0000000000000000E+00 
    2.5000000000000000E-01     2.5000000000000000E-01     0.0000000000000000E+00 
    7.5000000000000000E-01     2.5000000000000000E-01     0.0000000000000000E+00 
    7.5000000000000000E-01     7.5000000000000000E-01     0.0000000000000000E+00 
    2.5000000000000000E-01     7.5000000000000000E-01     0.0000000000000000E+00 
    2.4999999999941941E-01     0.0000000000000000E+00     0.0000000000000000E+00 
    4.9999999999869399E-01     0.0000000000000000E+00     0.0000000000000000E+00 
    7.4999999999934697E-01     0.0000000000000000E+00     0.0000000000000000E+00 
    1.2499999999977940E-01     0.0000000000000000E+00     0.0000000000000000E+00 
    3.7499999999905670E-01     0.0000000000000000E+00     0.0000000000000000E+00 
    6.2499999999902045E-01     0.0000000000000000E+00     0.0000000000000000E+00 
    8.7499999999967348E-01     0.0000000000000000E+00     0.0000000000000000E+00 
    6.2499999999889699E-02     0.0000000000000000E+00     0.0000000000000000E+00 
    1.8749999999959940E-01     0.0000000000000000E+00     0.0000000000000000E+00 
    3.1249999999923811E-01     0.0000000000000000E+00     0.0000000000000000E+00 
    4.3749999999887529E-01     0.0000000000000000E+00     0.0000000000000000E+00 
    5.6249999999885725E-01     0.0000000000000000E+00     0.0000000000000000E+00 
    6.8749999999918376E-01     0.0000000000000000E+00     0.0000000000000000E+00 
    8.1249999999951017E-01     0.0000000000000000E+00     0.0000000000000000E+00 
    9.3749999999983680E-01     0.0000000000000000E+00     0.0000000000000000E+00 
    1.0000000000000000E+00     2.4999999999941941E-01     0.0000000000000000E+00 
    1.0000000000000000E+00     4.9999999999869399E-01     0.0000000000000000E+00 
    1.0000000000000000E+00     7.4999999999934697E-01     0.0000000000000000E+00 
    1.0000000000000000E+00     1.2499999999977940E-01     0.0000000000000000E+00 
    1.0000000000000000E+00     3.7499999999905670E-01     0.0000000000000000E+00 
    1.0000000000000000E+00     6.2499999999902045E-01     0.0000000000000000E+00 
    1.0000000000000000E+00     8.7499999999967348E-01     0.0000000000000000E+00 
    1.0000000000000000E+00     6.2499999999889699E-02     0.0000000000000000E+00 
    1.0000000000000000E+00     1.8749999999959940E-01     0.0000000000000000E+00 
    1.0000000000000000E+00     3.1249999999923811E-01     0.0000000000000000E+00 
    1.0000000000000000E+00     4.3749999999887529E-01     0.0000000000000000E+00 
    1.0000000000000000E+00     5.6249999999885725E-01     0.0000000000000000E+00 
    1.0000000000000000E+00     6.8749999999918376E-01     0.0000000000000000E+00 
    1.0000000000000000E+00     8.1249999999951017E-01     0.0000000000000000E+00 
    1.0000000000000000E+00     9.3749999999983680E-01     0.0000000000000000E+00 
    7.5000000000112044E-01     1.0000000000000000E+00     0.0000000000000000E+00 
    5.0000000000205913E-01     1.0000000000000000E+00     0.0000000000000000E+00 
    2.5000000000102962E-01     1.0000000000000000E+00     0.0000000000000000E+00 
    8.7499999999991362E-01     1.0000000000000000E+00     0.0000000000000000E+00 
    6.2499999999988309E-01     1.0000000000000000E+00     0.0000000000000000E+00 
    3.7499999999869987E-01     1.0000000000000000E+00     0.0000000000000000E+00 
    1.2499999999880820E-01     1.0000000000000000E+00     0.0000000000000000E+00 
    9.3749999999995681E-01     1.0000000000000000E+00     0.0000000000000000E+00 
    8.1250000000051703E-01     1.0000000000000000E+00     0.0000000000000000E+00 
    6.8750000000050182E-01     1.0000000000000000E+00     0.0000000000000000E+00 
    5.6250000000097111E-01     1.0000000000000000E+00     0.0000000000000000E+00 
    4.3750000000037947E-01     1.0000000000000000E+00     0.0000000000000000E+00 
    3.1249999999986477E-01     1.0000000000000000E+00     0.0000000000000000E+00 
    1.8749999999991890E-01     1.0000000000000000E+00     0.0000000000000000E+00 
    6.2499999999404102E-02     1.0000000000000000E+00     0.0000000000000000E+00 
    0.0000000000000000E+00     7.5000000000112044E-01     0.0000000000000000E+00 
    0.0000000000000000E+00     5.0000000000205913E-01     0.0000000000000000E+00 
    0.0000000000000000E+00     2.5000000000102962E-01     0.0000000000000000E+00 
    0.0000000000000000E+00     8.7499999999991362E-01     0.0000000000000000E+00 
    0.0000000000000000E+00     6.2499999999988309E-01     0.0000000000000000E+00 
    0.0000000000000000E+00     3.7499999999869987E-01     0.0000000000000000E+00 
    0.0000000000000000E+00     1.2499999999880820E-01     0.0000000000000000E+00 
    0.0000000000000000E+00     9.3749999999995681E-01     0.0000000000000000E+00 
    0.0000000000000000E+00     8.1250000000051703E-01     0.0000000000000000E+00 
    0.0000000000000000E+00     6.8750000000050182E-01     0.0000000000000000E+00 
    0.0000000000000000E+00     5.6250000000097111E-01     0.0000000000000000E+00 
    0.0000000000000000E+00     4.3750000000037947E-01     0.0000000000000000E+00 
    0.0000000000000000E+00     3.1249999999986477E-01     0.0000000000000000E+00 
    0.0000000000000000E+00     1.8749999999991890E-01     0.0000000000000000E+00 
    0.0000000000000000E+00     6.2499999999404102E-02     0.0000000000000000E+00 
    4.9999999999972200E-01     2.5000000000000000E-01     0.0000000000000000E+00 
    3.7500000000067490E-01     2.5000000000000000E-01     0.0000000000000000E+00 
    6.2500000000042988E-01     2.5000000000000000E-01     0.0000000000000000E+00 
    3.1250000000033751E-01     2.5000000000000000E-01     0.0000000000000000E+00 
    4.3750000000019851E-01     2.5000000000000000E-01     0.0000000000000000E+00 
    5.6250000000007594E-01     2.5000000000000000E-01     0.0000000000000000E+00 
    6.8750000000021494E-01     2.5000000000000000E-01     0.0000000000000000E+00 
    7.5000000000000000E-01     4.9999999999972200E-01     0.0000000000000000E+00 
    7.5000000000000000E-01     3.7500000000067490E-01     0.0000000000000000E+00 
    7.5000000000000000E-01     6.2500000000042988E-01     0.0000000000000000E+00 
    7.5000000000000000E-01     3.1250000000033751E-01     0.0000000000000000E+00 
    7.5000000000000000E-01     4.3750000000019851E-01     0.0000000000000000E+00 
    7.5000000000000000E-01     5.6250000000007594E-01     0.0000000000000000E+00 
    7.5000000000000000E-01     6.8750000000021494E-01     0.0000000000000000E+00 
    5.0000000000118039E-01     7.5000000000000000E-01     0.0000000000000000E+00 
    6.2500000000161415E-01     7.5000000000000000E-01     0.0000000000000000E+00 
    3.7500000000140910E-01     7.5000000000000000E-01     0.0000000000000000E+00 
    6.8750000000080713E-01     7.5000000000000000E-01     0.0000000000000000E+00 
    5.6250000000139733E-01     7.5000000000000000E-01     0.0000000000000000E+00 
    4.3750000000129469E-01     7.5000000000000000E-01     0.0000000000000000E+00 
    3.1250000000070460E-01     7.5000000000000000E-01     0.0000000000000000E+00 
    2.5000000000000000E-01     5.0000000000118039E-01     0.0000000000000000E+00 
    2.5000000000000000E-01     6.2500000000161415E-01     0.0000000000000000E+00 
    2.5000000000000000E-01     3.7500000000140910E-01     0.0000000000000000E+00 
    2.5000000000000000E-01     6.8750000000080713E-01     0.0000000000000000E+00 
    2.5000000000000000E-01     5.6250000000139733E-01     0.0000000000000000E+00 
    2.5000000000000000E-01     4.3750000000129469E-01     0.0000000000000000E+00 
    2.5000000000000000E-01     3.1250000000070460E-01     0.0000000000000000E+00 
    3.7499999999934702E-01     1.2500000000000000E-01     0.0000000000000000E+00 
    1.2500000000000000E-01     1.2500000000000000E-01     0.0000000000000000E+00 
    1.2500000000000000E-01     3.7500000000102962E-01     0.0000000000000000E+00 
    8.7500000000000000E-01     1.2500000000000000E-01     0.0000000000000000E+00 
    6.2499999999934697E-01     1.2500000000000000E-01     0.0000000000000000E+00 
    8.7500000000000000E-01     3.7499999999934702E-01     0.0000000000000000E+00 
    8.7500000000000000E-01     6.2499999999934697E-01     0.0000000000000000E+00 
    1.2500000000000000E-01     6.2500000000102962E-01     0.0000000000000000E+00 
    1.2500000000000000E-01     8.7500000000000000E-01     0.0000000000000000E+00 
    8.7500000000000000E-01     8.7500000000000000E-01     0.0000000000000000E+00 
    6.2500000000102962E-01     8.7500000000000000E-01     0.0000000000000000E+00 
    3.7500000000102962E-01     8.7500000000000000E-01     0.0000000000000000E+00 
    2.4999999999957681E-01     8.3333333333333329E-02     0.0000000000000000E+00 
    8.3333333333333329E-02     2.5000000000068640E-01     0.0000000000000000E+00 
    7.4999999999956468E-01     8.3333333333333329E-02     0.0000000000000000E+00 
    4.9999999999951827E-01     1.6666666666666671E-01     0.0000000000000000E+00 
    9.1666666666666674E-01     2.4999999999957681E-01     0.0000000000000000E+00 
    8.3333333333333337E-01     4.9999999999951827E-01     0.0000000000000000E+00 
    1.6666666666666671E-01     5.0000000000088307E-01     0.0000000000000000E+00 
    8.3333333333333329E-02     7.5000000000070155E-01     0.0000000000000000E+00 
    9.1666666666666674E-01     7.4999999999956468E-01     0.0000000000000000E+00 
    5.0000000000088307E-01     8.3333333333333348E-01     0.0000000000000000E+00 
    2.5000000000068640E-01     9.1666666666666674E-01     0.0000000000000000E+00 
    7.5000000000070155E-01     9.1666666666666674E-01     0.0000000000000000E+00 
[...]
CELL_DATA 768 
SCALARS Pressure double 1 
LOOKUP_TABLE default 

    3.1130905713127679E+00 
    3.0167148012998544E+00 
    2.9847802526687897E+00 
    3.0451381798768407E+00 
    2.9504035544542124E+00 
    2.8956370251232899E+00 
    2.8905838556005370E+00 
    2.9355394044805228E+00 
    2.9197971734642345E+00 
    2.8843786139466485E+00 
    2.8771808711260221E+00 
    2.9035196830276120E+00 
    2.9932978009414772E+00 
    2.9555176621455717E+00 
    2.9281921079724729E+00 
    2.9513238162690159E+00 
    2.8431963982121369E+00 
    2.7899891565790877E+00 
    2.8000943748298499E+00 
    2.8457552064312490E+00 
    2.7343366640757294E+00 
    2.6755150801533447E+00 
    2.7028541304208473E+00 
    2.7526872681545229E+00 
    2.7698594988368268E+00 
    2.7288861006049538E+00 
    2.7532132035679013E+00 
    2.7855745696316596E+00 
    2.8472597800112891E+00 
    2.8091326302831865E+00 
    2.8169294506384230E+00 
    2.8477061175048672E+00 
    2.9143341948695083E+00 
    2.8988862443330454E+00 
    2.8690446628191504E+00 
    2.8812045751346016E+00 
    2.8803827716302437E+00 
    2.8591536278972804E+00 
    2.8318588269792113E+00 
    2.8523549566635871E+00 
    2.8255110430320736E+00 
    2.8046557115702746E+00 
    2.7770664693507654E+00 
    2.7992938133943879E+00 
    2.8523404401018015E+00 
    2.8418172343192669E+00 
    2.8169804875141051E+00 
    2.8282994788063220E+00 
    3.1131385738164163E+00 
    3.0452003250226234E+00 
    2.9849860099906174E+00 
    3.0169147941084380E+00 
    2.9933722428206542E+00 
    2.9513992786222389E+00 
    2.9283822216963702E+00 
    2.9557140995022357E+00 
    2.9200711631257374E+00 
    2.9037416622458063E+00 
    2.8774051089453772E+00 
    2.8846607206799288E+00 
    2.9507069704493243E+00 
    2.9358307914368353E+00 
    2.8909142229703582E+00 
    2.8959778798837732E+00 
    2.9144111574477400E+00 
    2.8812543349354680E+00 
    2.8691409044670575E+00 
    2.8990583291456167E+00 
    2.8523205845280772E+00 
    2.8282510898383233E+00 
    2.8168096656321002E+00 
    2.8417748877573517E+00 
    2.8253815978188301E+00 
    2.7989048043413058E+00 
    2.7764626867726445E+00 
    2.8043773962106946E+00 
    2.8805626825701380E+00 
    2.8524107341766953E+00 
    2.8318348573308985E+00 
    2.8592908694563834E+00 
    2.8434357151029244E+00 
    2.8459777073106296E+00 
    2.7999766671160966E+00 
    2.7898041823392719E+00 
    2.8474395577389666E+00 
    2.8478235307931876E+00 
    2.8168285900476278E+00 
    2.8090206454224989E+00 
    2.7693644655919480E+00 
    2.7851532347101755E+00 
    2.7524003862574866E+00 
    2.7279541670814371E+00 
    2.7336475074648909E+00 
    2.7521031289058424E+00 
    2.7018378553751905E+00 
    2.6744178145108393E+00 
    2.5786237701695347E+00 
    2.5121498047701198E+00 
    2.4890427476862844E+00 
    2.5472075868609054E+00 
    2.4454057790663724E+00 
    2.3813332499996549E+00 
    2.3757653172446114E+00 
    2.4311180472121965E+00 
    2.4153111076079559E+00 
    2.3685535977958185E+00 
    2.3595501748285002E+00 
    2.3975382176511313E+00 
    2.5144724214411847E+00 
    2.4645503909210023E+00 
    2.4380298972197481E+00 
    2.4797335913825713E+00 
    2.3237171412360440E+00 
    2.2760092184517364E+00 
    2.2814516028557144E+00 
    2.3252047766460815E+00 
    2.2381246158034123E+00 
    2.2116421126308445E+00 
    2.2163554777943966E+00 
    2.2452261809076171E+00 
    2.2494388723630374E+00 
    2.2195853788430773E+00 
    2.2205337459938232E+00 
    2.2512035425304529E+00 
    2.3248325416075901E+00 
    2.2844185246005333E+00 
    2.2854263144885980E+00 
    2.3226698389253753E+00 
    2.4394376368085293E+00 
    2.4016121392224798E+00 
    2.3532701971326415E+00 
    2.3910437021592417E+00 
    2.3663441797627391E+00 
    2.3346400430774192E+00 
    2.2956985661641274E+00 
    2.3215875724534683E+00 
    2.2738262028773653E+00 
    2.2573868321164534E+00 
    2.2209231851845952E+00 
    2.2240503758376065E+00 
    2.3320774684493784E+00 
    2.2973973563846886E+00 
    2.2314821767607103E+00 
    2.2494503228096239E+00 
    2.6278141442931839E+00 
    2.5929474828306112E+00 
    2.6264900499636483E+00 
    2.6603893045065075E+00 
    2.5567953716179681E+00 
    2.5189429641940526E+00 
    2.5550931827480219E+00 
    2.5914698299770667E+00 
    2.6252473881957674E+00 
    2.5903556540367192E+00 
    2.6243631627498596E+00 
    2.6578169791630919E+00 
    2.6916430504300606E+00 
    2.6589738350767353E+00 
    2.6901206054045108E+00 
    2.7213283969536417E+00 
    2.4810150865703480E+00 
    2.4428088102117305E+00 
    2.4983213882323096E+00 
    2.5237835127684130E+00 
    2.4014578846548855E+00 
    2.3549918120542084E+00 
    2.4442069173568943E+00 
    2.4719397269117458E+00 
    2.5357315826834128E+00 
    2.5207957427103458E+00 
    2.5900500608973571E+00 
    2.5948090238406056E+00 
    2.5650513794574121E+00 
    2.5505100621464676E+00 
    2.5997012732190097E+00 
    2.6045922430986708E+00 
    2.7471354437903175E+00 
    2.7138615411629310E+00 
    2.7308838734257148E+00 
    2.7690307477900116E+00 
    2.6789559327715380E+00 
    2.6424206350751098E+00 
    2.6458891037849406E+00 
    2.6897428864384398E+00 
    2.7003289573767373E+00 
    2.6494068489180491E+00 
    2.6530361426468985E+00 
    2.7107989062763638E+00 
    2.7887323543770668E+00 
    2.7470456217253787E+00 
    2.7624283231412008E+00 
    2.8060713137168629E+00 
    2.2049791472998983E+00 
    2.1775778080349073E+00 
    2.1686051271742692E+00 
    2.2000448678550550E+00 
    2.1305580556881876E+00 
    2.0646865271916250E+00 
    2.0622437634246209E+00 
    2.1224066072547667E+00 
    2.1170724515075614E+00 
    2.0623041976240346E+00 
    2.0650037664648582E+00 
    2.1143596055139202E+00 
    2.1967135609926998E+00 
    2.1622131564746865E+00 
    2.1576236851209361E+00 
    2.1939009292874569E+00 
    1.9824969546893729E+00 
    1.8878171258312744E+00 
    1.9095177135895784E+00 
    1.9904449193104841E+00 
    1.7837744584471158E+00 
    1.6728251351079924E+00 
    1.7268214279225889E+00 
    1.8210517171538789E+00 
    1.8598413670173901E+00 
    1.7819878103645095E+00 
    1.8395427443151680E+00 
    1.9019098606856790E+00 
    2.0004641629311806E+00 
    1.9332259275019392E+00 
    1.9603075029450701E+00 
    2.0134421704898187E+00 
    2.1869505697514153E+00 
    2.1450677468294681E+00 
    2.1192270544727116E+00 
    2.1748050906026086E+00 
    2.0983279751969692E+00 
    2.0480794306724941E+00 
    2.0047342802308359E+00 
    2.0620686943002720E+00 
    2.0184675389283169E+00 
    1.9557794873980012E+00 
    1.9016841928815966E+00 
    1.9669059263288666E+00 
    2.1587699631539246E+00 
    2.0857225218975062E+00 
    2.0400560621920687E+00 
    2.1332158488508002E+00 
    2.0124445963724344E+00 
    1.9526085995893570E+00 
    1.8527449096151789E+00 
    1.8929268897704625E+00 
    1.8955844085603939E+00 
    1.8399945329644178E+00 
    1.7734942907816267E+00 
    1.8131716506487583E+00 
    1.7300699573908029E+00 
    1.7058320967690692E+00 
    1.6348273885373894E+00 
    1.6429938236515969E+00 
    1.7767415237632100E+00 
    1.7533594230046921E+00 
    1.6501521087711952E+00 
    1.6574160448519017E+00 
    1.7788760850949901E+00 
    1.7125091960089767E+00 
    1.6533267174123514E+00 
    1.7204575066016929E+00 
    1.6475797412058362E+00 
    1.5838494011062718E+00 
    1.5218570083015197E+00 
    1.5867069233376538E+00 
    1.5246919667501877E+00 
    1.4596654383997074E+00 
    1.3985108331039142E+00 
    1.4626391523828535E+00 
    1.6600333382012347E+00 
    1.5915559372295653E+00 
    1.5274622897804278E+00 
    1.5957585173482274E+00 
    1.5363372942922351E+00 
    1.5438569352399698E+00 
    1.4425713358118843E+00 
    1.4210691748307289E+00 
    1.5515446947734803E+00 
    1.5589713741606708E+00 
    1.4850265730640482E+00 
    1.4636648660025875E+00 
    1.3793760690518526E+00 
    1.4143681897548053E+00 
    1.3438063370530715E+00 
    1.2963687803179076E+00 
    1.3121616889952668E+00 
    1.3452864592186327E+00 
    1.2527742131916186E+00 
    1.2137770852390661E+00 
    2.8059981964000769E+00 
    2.7616580522255463E+00 
    2.7460009832818377E+00 
    2.7882899495326998E+00 
    2.7090759264425261E+00 
    2.6504101519031718E+00 
    2.6468731729965631E+00 
    2.6985043634947958E+00 
    2.6878406954236866E+00 
    2.6434241555795048E+00 
    2.6400467166652244E+00 
    2.6770098260005981E+00 
    2.7682898200449406E+00 
    2.7296121129559525E+00 
    2.7124151328450772E+00 
    2.7461462739887024E+00 
    2.5872909932701251E+00 
    2.5186600995101158E+00 
    2.5335415549671607E+00 
    2.5921511307898908E+00 
    2.4430864131701218E+00 
    2.3545047684660703E+00 
    2.4006385730094086E+00 
    2.4705094100082161E+00 
    2.4966758655488603E+00 
    2.4416797150878207E+00 
    2.4796921188762320E+00 
    2.5220531131726349E+00 
    2.5970929048094513E+00 
    2.5482601798994393E+00 
    2.5628442854536537E+00 
    2.6020941575541210E+00 
    2.7201095685629078E+00 
    2.6884673679834203E+00 
    2.6572832943168008E+00 
    2.6903589670101429E+00 
    2.6557635519769351E+00 
    2.6220298273711369E+00 
    2.5882253155191437E+00 
    2.6232775840432425E+00 
    2.5897162585323543E+00 
    2.5533372579082658E+00 
    2.5174897415897597E+00 
    2.5552724934590532E+00 
    2.6590926620341504E+00 
    2.6249414376199334E+00 
    2.5915025267171528E+00 
    2.6265424372315387E+00 
    2.5773337361641429E+00 
    2.5458630879516702E+00 
    2.4878571289229048E+00 
    2.5109500419585764E+00 
    2.5131530019723480E+00 
    2.4785332343816888E+00 
    2.4370191661910416E+00 
    2.4634248858720311E+00 
    2.4142956266680926E+00 
    2.3965671916698961E+00 
    2.3585131422122259E+00 
    2.3674432891444592E+00 
    2.4442905012078908E+00 
    2.4300203996460570E+00 
    2.3745731392243381E+00 
    2.3800622634975661E+00 
    2.4384061136275910E+00 
    2.3902818970066280E+00 
    2.3525431951106652E+00 
    2.4006957606097519E+00 
    2.3316985339594423E+00 
    2.2495080505420093E+00 
    2.2313788461944659E+00 
    2.2969108864980448E+00 
    2.2730156782770732E+00 
    2.2234149931373217E+00 
    2.2197525962465083E+00 
    2.2561810937509370E+00 
    2.3653981540542515E+00 
    2.3206954443268550E+00 
    2.2945728935607215E+00 
    2.3335647561074535E+00 
    2.3223142160998487E+00 
    2.3238613857195696E+00 
    2.2798430737506363E+00 
    2.2742467112722071E+00 
    2.3235411393601493E+00 
    2.3214375684968065E+00 
    2.2840501959484087E+00 
    2.2829167688192178E+00 
    2.2476497094382673E+00 
    2.2496196956929269E+00 
    2.2189722671316345E+00 
    2.2178394990408035E+00 
    2.2359162727076383E+00 
    2.2432433673090371E+00 
    2.2143744575189555E+00 
    2.2095786264282822E+00 
    1.4925902739492249E+00 
    1.3698746756652049E+00 
    1.3292732066053632E+00 
    1.4368705304531451E+00 
    1.2412038846796201E+00 
    1.1015361821217782E+00 
    1.0948678901552154E+00 
    1.2165819111692489E+00 
    1.1945922855541766E+00 
    1.0916197169636410E+00 
    1.0917433602870001E+00 
    1.1759265626541804E+00 
    1.3820337412453179E+00 
    1.2904516262331343E+00 
    1.2544436669800785E+00 
    1.3293560838921217E+00 
    9.4093629868784090E-01 
    7.3962370534698130E-01 
    7.9921020393848163E-01 
    9.5855555513238533E-01 
    4.5475020663752791E-01 
    0.0000000000000000E+00 
    3.2571811228358533E-01 
    5.9812785816238223E-01 
    7.2300970129158437E-01 
    5.6362494922779904E-01 
    7.4249290618774300E-01 
    8.3151476279226799E-01 
    9.7996900345094395E-01 
    8.5974251340627372E-01 
    9.1910384243981424E-01 
    1.0042015820814518E+00 
    1.2762801193090831E+00 
    1.2095765679165824E+00 
    1.1583152128198717E+00 
    1.2254055218248396E+00 
    1.1384816437738916E+00 
    1.0607849606973805E+00 
    9.9747258939210115E-01 
    1.0833274000724535E+00 
    1.0357574084485399E+00 
    9.3800884402171347E-01 
    8.8476128086339001E-01 
    9.9900615457920550E-01 
    1.1842330337314395E+00 
    1.1168973123842538E+00 
    1.0893147257580522E+00 
    1.1583794139015504E+00 
    2.0162545884933434E+00 
    1.8977737850454028E+00 
    1.8578865142456282E+00 
    1.9572526901471143E+00 
    1.7802739490597623E+00 
    1.6579045972937143E+00 
    1.6504006601190684E+00 
    1.7568538575701604E+00 
    1.7335364947288796E+00 
    1.6432179736215597E+00 
    1.6351352098870457E+00 
    1.7093718810997811E+00 
    1.9008848108189682E+00 
    1.8184874033378362E+00 
    1.7788870242930623E+00 
    1.8459169966290376E+00 
    1.5346644263020743E+00 
    1.4201243331362337E+00 
    1.4415796551864872E+00 
    1.5422985052984641E+00 
    1.3122869518310030E+00 
    1.2145867449127579E+00 
    1.2537474321117743E+00 
    1.3454148577584923E+00 
    1.3796514297557820E+00 
    1.2975722107997278E+00 
    1.3453240473237011E+00 
    1.4151942485128155E+00 
    1.5502197147386094E+00 
    1.4631064877785569E+00 
    1.4851159876325006E+00 
    1.5581397990191759E+00 
    1.7855957974466123E+00 
    1.7259000638718718E+00 
    1.6572403401796767E+00 
    1.7183468177546855E+00 
    1.6627356044324024E+00 
    1.5955110784848541E+00 
    1.5276441298052565E+00 
    1.5926423195227892E+00 
    1.5259412578541065E+00 
    1.4637286306008492E+00 
    1.4002399992216419E+00 
    1.4616810781540748E+00 
    1.6517363002784782E+00 
    1.5892702392947340E+00 
    1.5245415510222833E+00 
    1.5874377412266474E+00 
    2.1345848240975154E+00 
    2.0431524595963162E+00 
    2.0879202494937656E+00 
    2.1595309328001564E+00 
    1.9712278935688630E+00 
    1.9071271942243126E+00 
    1.9605514267991928E+00 
    2.0220298857525565E+00 
    2.0647065119670951E+00 
    2.0089630089266599E+00 
    2.0514119504570627E+00 
    2.1001118291207512E+00 
    2.1747544195118551E+00 
    2.1205085403582662E+00 
    2.1455322401665664E+00 
    2.1863320357534768E+00 
    1.8467613577316666E+00 
    1.7887474186479799E+00 
    1.8671077879725839E+00 
    1.9087277646660004E+00 
    1.7322844033254008E+00 
    1.6774792656223874E+00 
    1.7899515029144886E+00 
    1.8276437764506108E+00 
    1.9162003353266133E+00 
    1.8944954106026402E+00 
    1.9881316878868009E+00 
    1.9959233111122516E+00 
    1.9663201084967921E+00 
    1.9399263462153888E+00 
    2.0057941555125667E+00 
    2.0183691106391288E+00 
    2.1931069033177009E+00 
    2.1579709494502337E+00 
    2.1625503196182319E+00 
    2.1957265460646767E+00 
    2.1160074351198754E+00 
    2.0681766664258876E+00 
    2.0657040839328200E+00 
    2.1188582137441001E+00 
    2.1239845780105089E+00 
    2.0657613513818194E+00 
    2.0682601594896100E+00 
    2.1319228527209311E+00 
    2.1986491781256401E+00 
    2.1685719177326308E+00 
    2.1771242613560031E+00 
    2.2032588883243127E+00 
    1.1588785220278885E+00 
    1.0899669365042333E+00 
    1.1186735412431772E+00 
    1.1855769144911026E+00 
    9.9977598425146075E-01 
    8.8553430341417461E-01 
    9.4021218379151894E-01 
    1.0379024576157110E+00 
    1.0865291440539111E+00 
    1.0009304516584512E+00 
    1.0651098575691831E+00 
    1.1423806135049841E+00 
    1.2273442607632741E+00 
    1.1610101597000093E+00 
    1.2127683545922374E+00 
    1.2786391105171160E+00 
    7.4322765002373459E-01 
    5.6423815774373520E-01 
    7.2526582583686727E-01 
    8.3374169766177519E-01 
    3.2606869313451159E-01 
    0.0000000000000000E+00 
    4.5633314259257829E-01 
    6.0011107038631650E-01 
    8.0312551811725408E-01 
    7.4324698987664661E-01 
    9.4640162231504599E-01 
    9.6389612592931007E-01 
    9.2268791270927519E-01 
    8.6354177488651318E-01 
    9.8500317353794797E-01 
    1.0087512778779464E+00 
    1.3319105427039499E+00 
    1.2578617023335956E+00 
    1.2940649705335143E+00 
    1.3847519877013574E+00 
    1.1801957030702364E+00 
    1.0966093227863376E+00 
    1.0969612448437269E+00 
    1.1992132022976731E+00 
    1.2213179185207623E+00 
    1.1004979256956482E+00 
    1.1072405880008733E+00 
    1.2458649710661778E+00 
    1.4397667785381294E+00 
    1.3328939888670581E+00 
    1.3733790349854071E+00 
    1.4956611734421217E+00 
    2.1671556094237667E+00 
    2.2801733877714692E+00 
    2.2701296641599322E+00 
    2.1661561765517736E+00 
    2.3878274979796990E+00 
    2.4888747655610266E+00 
    2.4631937712017073E+00 
    2.3694358530763178E+00 
    2.3544725490962137E+00 
    2.4401659082607461E+00 
    2.4193598029543559E+00 
    2.3425625424625451E+00 
    2.1688534158110495E+00 
    2.2638985918224006E+00 
    2.2611563576442641E+00 
    2.1750890369949292E+00 
    2.5802249442176470E+00 
    2.6616648888552437E+00 
    2.6179262425443213E+00 
    2.5454639334459550E+00 
    2.7340252211179608E+00 
    2.7965643822295156E+00 
    2.7478952808091126E+00 
    2.6853683472977803E+00 
    2.6352323705038141E+00 
    2.6938123558067342E+00 
    2.6346813678540109E+00 
    2.5832085104599214E+00 
    2.5125657807216073E+00 
    2.5749461733546992E+00 
    2.5321353486653471E+00 
    2.4810407099943794E+00 
    2.1901211474388478E+00 
    2.2765374276327170E+00 
    2.3117459529833551E+00 
    2.2155079259525974E+00 
    2.3565108828886934E+00 
    2.4309696443283260E+00 
    2.4747902785197882E+00 
    2.3971902602263295E+00 
    2.4418331335270942E+00 
    2.5203570833445652E+00 
    2.5681734580893174E+00 
    2.4914347671180104E+00 
    2.2478138588781418E+00 
    2.3531623650227882E+00 
    2.4028465025735293E+00 
    2.2908094420325789E+00 
    2.0499288354850402E+00 
    1.9301857375127303E+00 
    1.9470255638707938E+00 
    2.0576481943573008E+00 
    1.8091650827945673E+00 
    1.6879779417521312E+00 
    1.7242502788418874E+00 
    1.8356531710039645E+00 
    1.8630256711236901E+00 
    1.7610248253745198E+00 
    1.7987801122871210E+00 
    1.8916562892988658E+00 
    2.0680874364024042E+00 
    1.9654756460719307E+00 
    1.9856412629329678E+00 
    2.0810747720168674E+00 
    1.5703261938634325E+00 
    1.4570423278180964E+00 
    1.5266287152246691E+00 
    1.6213350453558029E+00 
    1.3468150790533366E+00 
    1.2411256958588401E+00 
    1.3405023154487088E+00 
    1.4329113726221883E+00 
    1.5223067091776947E+00 
    1.4468852539667665E+00 
    1.5595006154166846E+00 
    1.6156319071163978E+00 
    1.6729613943813562E+00 
    1.5977546494119825E+00 
    1.6710436053116606E+00 
    1.7258151111325437E+00 
    2.0899806476684621E+00 
    1.9901697223491086E+00 
    1.9762678150446600E+00 
    2.0919063577935058E+00 
    1.8937425062754882E+00 
    1.7994114322443853E+00 
    1.7610686196109147E+00 
    1.8671242460874544E+00 
    1.8393376775540391E+00 
    1.7222017094194686E+00 
    1.6829228780645822E+00 
    1.8101007374548925E+00 
    2.0893812573611816E+00 
    1.9594323715861892E+00 
    1.9374661227357461E+00 
    2.0769685573194843E+00 
    2.2904816002264501E+00 
    2.4014208563909305E+00 
    2.3522440750566203E+00 
    2.2479568423886054E+00 
    2.4891034821423412E+00 
    2.5653543239798275E+00 
    2.5182041848985630E+00 
    2.4401467621058024E+00 
    2.3959895486633007E+00 
    2.4731840543827164E+00 
    2.4298215919859443E+00 
    2.3557055859183218E+00 
    2.2157587746887204E+00 
    2.3111786583025835E+00 
    2.2761825161688343E+00 
    2.1903103729933315E+00 
    2.6320790330727082E+00 
    2.6921311228018197E+00 
    2.6337823142039025E+00 
    2.5811724952040698E+00 
    2.7471851776117369E+00 
    2.7965446266736742E+00 
    2.7338522919132053E+00 
    2.6846189775503491E+00 
    2.6172291872793814E+00 
    2.6614392685622712E+00 
    2.5800200718617372E+00 
    2.5449017154177702E+00 
    2.5305682737356490E+00 
    2.5737664249455583E+00 
    2.5116730360174251E+00 
    2.4798824719445993E+00 
    2.1750799028620209E+00 
    2.2608294299729730E+00 
    2.2635865209904598E+00 
    2.1687150273228308E+00 
    2.3419345920036987E+00 
    2.4184739444874439E+00 
    2.4394731213372705E+00 