# vtk DataFile Version 2.0
Pressure Field Data 
ASCII 
DATASET UNSTRUCTURED_GRID 

POINTS 801 double 

    0.0000000000000000E+00     0.0000000000000000E+00     0.0000000000000000E+00 
    1.0000000000000000E+00     0.0000000000000000E+00     0.0000000000000000E+00 
    1.0000000000000000E+00     1.0000000000000000E+00     0.0000000000000000E+00 
    0.0000000000000000E+00     1.0000000000000000E+00     0.0000000000000000E+00 
    2.5000000000000000E-01     2.5000000000000000E-01     0.0000000000000000E+00 
    7.5000000000000000E-01     2.5000000000000000E-01     0.0000000000000000E+00 
    7.5000000000000000E-01     7.5000000000000000E-01     0.0000000000000000E+00 
    2.5000000000000000E-01     7.5000000000000000E-01     0.0000000000000000E+00 
    2.4999999999941941E-01     0.0000000000000000E+00     0.0000000000000000E+00 
    4.9999999999869399E-01     0.0000000000000000E+00     0.0000000000000000E+00 
    7.4999999999934697E-01     0.0000000000000000E+00     0.0000000000000000E+00 
    1.2499999999977940E-01     0.0000000000000000E+00     0.0000000000000000E+00 
    3.7499999999905670E-01     0.0000000000000000E+00     0.0000000000000000E+00 
    6.2499999999902045E-01     0.0000000000000000E+00     0.0000000000000000E+00 
    8.7499999999967348E-01     0.0000000000000000E+00     0.0000000000000000E+00 
    6.2499999999889699E-02     0.0000000000000000E+00     0.0000000000000000E+00 
    1.8749999999959940E-01     0.0000000000000000E+00     0.0000000000000000E+00 
    3.1249999999923811E-01     0.0000000000000000E+00     0.0000000000000000E+00 
    4.3749999999887529E-01     0.0000000000000000E+00     0.0000000000000000E+00 
    5.6249999999885725E-01     0.0000000000000000E+00     0.0000000000000000E+00 
    6.8749999999918376E-01     0.0000000000000000E+00     0.0000000000000000E+00 
    8.1249999999951017E-01     0.0000000000000000E+00     0.0000000000000000E+00 
    9.3749999999983680E-01     0.0000000000000000E+00     0.0000000000000000E+00 
    1.0000000000000000E+00     2.4999999999941941E-01     0.0000000000000000E+00 
    1.0000000000000000E+00     4.9999999999869399E-01     0.0000000000000000E+00 
    1.0000000000000000E+00     7.4999999999934697E-01     0.0000000000000000E+00 
    1.0000000000000000E+00     1.2499999999977940E-01     0.0000000000000000E+00 
    1.0000000000000000E+00     3.7499999999905670E-01     0.0000000000000000E+00 
    1.0000000000000000E+00     6.2499999999902045E-01     0.0000000000000000E+00 
    1.0000000000000000E+00     8.7499999999967348E-01     0.0000000000000000E+00 
    1.0000000000000000E+00     6.2499999999889699E-02     0.0000000000000000E+00 
    1.0000000000000000E+00     1.8749999999959940E-01     0.0000000000000000E+00 
    1.0000000000000000E+00     3.1249999999923811E-01     0.0000000000000000E+00 
    1.0000000000000000E+00     4.3749999999887529E-01     0.0000000000000000E+00 
    1.0000000000000000E+00     5.6249999999885725E-01     0.0000000000000000E+00 
    1.0000000000000000E+00     6.8749999999918376E-01     0.0000000000000000E+00 
    1.0000000000000000E+00     8.1249999999951017E-01     0.0000000000000000E+00 
    1.0000000000000000E+00     9.3749999999983680E-01     0.0000000000000000E+00 
    7.5000000000112044E-01     1.0000000000000000E+00     0.0000000000000000E+00 
    5.0000000000205913E-01     1.0000000000000000E+00     0.0000000000000000E+00 
    2.5000000000102962E-01     1.0000000000000000E+00     0.0000000000000000E+00 
    8.7499999999991362E-01     1.0000000000000000E+00     0.0000000000000000E+00 
    6.2499999999988309E-01     1.0000000000000000E+00     0.0000000000000000E+00 
    3.7499999999869987E-01     1.0000000000000000E+00     0.0000000000000000E+00 
    1.2499999999880820E-01     1.0000000000000000E+00     0.0000000000000000E+00 
    9.3749999999995681E-01     1.0000000000000000E+00     0.0000000000000000E+00 
    8.1250000000051703E-01     1.0000000000000000E+00     0.0000000000000000E+00 
    6.8750000000050182E-01     1.0000000000000000E+00     0.0000000000000000E+00 
    5.6250000000097111E-01     1.0000000000000000E+00     0.0000000000000000E+00 
    4.3750000000037947E-01     1.0000000000000000E+00     0.0000000000000000E+00 
    3.1249999999986477E-01     1.0000000000000000E+00     0.0000000000000000E+00 
    1.8749999999991890E-01     1.0000000000000000E+00     0.0000000000000000E+00 
    6.2499999999404102E-02     1.0000000000000000E+00     0.0000000000000000E+00 
    0.0000000000000000E+00     7.5000000000112044E-01     0.0000000000000000E+00 
    0.0000000000000000E+00     5.0000000000205913E-01     0.0000000000000000E+00 
    0.0000000000000000E+00     2.5000000000102962E-01     0.0000000000000000E+00 
    0.0000000000000000E+00     8.7499999999991362E-01     0.0000000000000000E+00 
    0.0000000000000000E+00     6.2499999999988309E-01     0.0000000000000000E+00 
    0.0000000000000000E+00     3.7499999999869987E-01     0.0000000000000000E+00 
    0.0000000000000000E+00     1.2499999999880820E-01     0.0000000000000000E+00 
    0.0000000000000000E+00     9.3749999999995681E-01     0.0000000000000000E+00 
    0.0000000000000000E+00     8.1250000000051703E-01     0.0000000000000000E+00 
    0.0000000000000000E+00     6.8750000000050182E-01     0.0000000000000000E+00 
    0.0000000000000000E+00     5.6250000000097111E-01     0.0000000000000000E+00 
    0.0000000000000000E+00     4.3750000000037947E-01     0.0000000000000000E+00 
    0.0000000000000000E+00     3.1249999999986477E-01     0.0000000000000000E+00 
    0.0000000000000000E+00     1.8749999999991890E-01     0.0000000000000000E+00 
    0.0000000000000000E+00     6.2499999999404102E-02     0.0000000000000000E+00 
    4.9999999999972200E-01     2.5000000000000000E-01     0.0000000000000000E+00 
    3.7500000000067490E-01     2.5000000000000000E-01     0.0000000000000000E+00 
    6.2500000000042988E-01     2.5000000000000000E-01     0.0000000000000000E+00 
    3.1250000000033751E-01     2.5000000000000000E-01     0.0000000000000000E+00 
    4.3750000000019851E-01     2.5000000000000000E-01     0.0000000000000000E+00 
    5.6250000000007594E-01     2.5000000000000000E-01     0.0000000000000000E+00 
    6.8750000000021494E-01     2.5000000000000000E-01     0.0000000000000000E+00 
    7.5000000000000000E-01     4.9999999999972200E-01     0.0000000000000000E+00 
    7.5000000000000000E-01     3.7500000000067490E-01     0.0000000000000000E+00 
    7.5000000000000000E-01     6.2500000000042988E-01     0.0000000000000000E+00 
    7.5000000000000000E-01     3.1250000000033751E-01     0.0000000000000000E+00 
    7.5000000000000000E-01     4.3750000000019851E-01     0.0000000000000000E+00 
    7.5000000000000000E-01     5.6250000000007594E-01     0.0000000000000000E+00 
    7.5000000000000000E-01     6.8750000000021494E-01     0.0000000000000000E+00 
    5.0000000000118039E-01     7.5000000000000000E-01     0.0000000000000000E+00 
    6.2500000000161415E-01     7.5000000000000000E-01     0.0000000000000000E+00 
    3.7500000000140910E-01     7.5000000000000000E-01     0.0000000000000000E+00 
    6.8750000000080713E-01     7.5000000000000000E-01     0.0000000000000000E+00 
    5.6250000000139733E-01     7.5000000000000000E-01     0.0000000000000000E+00 
    4.3750000000129469E-01     7.5000000000000000E-01     0.0000000000000000E+00 
    3.1250000000070460E-01     7.5000000000000000E-01     0.0000000000000000E+00 
    2.5000000000000000E-01     5.0000000000118039E-01     0.0000000000000000E+00 
    2.5000000000000000E-01     6.2500000000161415E-01     0.0000000000000000E+00 
    2.5000000000000000E-01     3.7500000000140910E-01     0.0000000000000000E+00 
    2.5000000000000000E-01     6.8750000000080713E-01     0.0000000000000000E+00 
    2.5000000000000000E-01     5.6250000000139733E-01     0.0000000000000000E+00 
    2.5000000000000000E-01     4.3750000000129469E-01     0.0000000000000000E+00 
    2.5000000000000000E-01     3.1250000000070460E-01     0.0000000000000000E+00 
    3.7499999999934702E-01     1.2500000000000000E-01     0.0000000000000000E+00 
    1.2500000000000000E-01     1.2500000000000000E-01     0.0000000000000000E+00 
    1.2500000000000000E-01     3.7500000000102962E-01     0.0000000000000000E+00 
    8.7500000000000000E-01     1.2500000000000000E-01     0.0000000000000000E+00 
    6.2499999999934697E-01     1.2500000000000000E-01     0.0000000000000000E+00 
    8.7500000000000000E-01     3.7499999999934702E-01     0.0000000000000000E+00 
    8.7500000000000000E-01     6.2499999999934697E-01     0.0000000000000000E+00 
    1.2500000000000000E-01     6.2500000000102962E-01     0.0000000000000000E+00 
    1.2500000000000000E-01     8.7500000000000000E-01     0.0000000000000000E+00 
    8.7500000000000000E-01     8.7500000000000000E-01     0.0000000000000000E+00 
    6.2500000000102962E-01     8.7500000000000000E-01     0.0000000000000000E+00 
    3.7500000000102962E-01     8.7500000000000000E-01     0.0000000000000000E+00 
    2.4999999999957681E-01     8.3333333333333329E-02     0.0000000000000000E+00 
    8.3333333333333329E-02     2.5000000000068640E-01     0.0000000000000000E+00 
    7.4999999999956468E-01     8.3333333333333329E-02     0.0000000000000000E+00 
    4.9999999999951827E-01     1.6666666666666671E-01     0.0000000000000000E+00 
    9.1666666666666674E-01     2.4999999999957681E-01     0.0000000000000000E+00 
    8.3333333333333337E-01     4.9999999999951827E-01     0.0000000000000000E+00 
    1.6666666666666671E-01     5.0000000000088307E-01     0.0000000000000000E+00 
    8.3333333333333329E-02     7.5000000000070155E-01     0.0000000000000000E+00 
    9.1666666666666674E-01     7.4999999999956468E-01     0.0000000000000000E+00 
    5.0000000000088307E-01     8.3333333333333348E-01     0.0000000000000000E+00 
    2.5000000000068640E-01     9.1666666666666674E-01     0.0000000000000000E+00 
    7.5000000000070155E-01     9.1666666666666674E-01     0.0000000000000000E+00 
[...]
CELL_DATA 768 
SCALARS Pressure double 1 
LOOKUP_TABLE default 

    2.2750603739200610E+00 
    2.1812047235656595E+00 
    2.1508504057932121E+00 
    2.2084454637070525E+00 
    2.1192598347742688E+00 
    2.0713165683028638E+00 
    2.0670381813257213E+00 
    2.1058511106350704E+00 
    2.0919628408740993E+00 
    2.0618420783590170E+00 
    2.0558940577208622E+00 
    2.0779494248478114E+00 
    2.1587473309358178E+00 
    2.1237584746269138E+00 
    2.0993106977662896E+00 
    2.1199516272918917E+00 
    2.0283399637038517E+00 
    1.9866175844833802E+00 
    1.9944536216972277E+00 
    2.0303831253606996E+00 
    1.9442291991863179E+00 
    1.9002605382388031E+00 
    1.9206874695764031E+00 
    1.9581485702689367E+00 
    1.9712800864781121E+00 
    1.9402997804439281E+00 
    1.9587715169418094E+00 
    1.9833841131294239E+00 
    2.0315903657117760E+00 
    2.0015084632391447E+00 
    2.0076290825468437E+00 
    2.0319620694056706E+00 
    2.0873032717970172E+00 
    2.0740393931877112E+00 
    2.0492629393760331E+00 
    2.0593195312226724E+00 
    2.0585149237311500E+00 
    2.0411402169937940E+00 
    2.0193610035329459E+00 
    2.0357070989173258E+00 
    2.0144526028700303E+00 
    1.9981467845064003E+00 
    1.9770089403539370E+00 
    1.9941498168355354E+00 
    2.0358193789611514E+00 
    2.0273699228338034E+00 
    2.0079323652467611E+00 
    2.0168957721530907E+00 
    2.2751056603192450E+00 
    2.2085057063391140E+00 
    2.1510592976788026E+00 
    2.1814033022075181E+00 
    2.1588191365444374E+00 
    2.1200225290868113E+00 
    2.0995014913036210E+00 
    2.1239598298082725E+00 
    2.0922654924107698E+00 
    2.0782044036359206E+00 
    2.0561769395754168E+00 
    2.0621751328384472E+00 
    2.1195871546254947E+00 
    2.1061703339050424E+00 
    2.0674122044876899E+00 
    2.0717011199364266E+00 
    2.0873744306333042E+00 
    2.0593754823076762E+00 
    2.0493935300511854E+00 
    2.0742142775442178E+00 
    2.0358355338407277E+00 
    2.0169138398655524E+00 
    2.0079145817362347E+00 
    2.0274178114906558E+00 
    2.0144648102306477E+00 
    1.9939885644270161E+00 
    1.9766894714667111E+00 
    1.9980574372265032E+00 
    2.0587330982761056E+00 
    2.0358412695878121E+00 
    2.0194520796234010E+00 
    2.0413491200414007E+00 
    2.0286420561271221E+00 
    2.0306712218933947E+00 
    1.9944943442461101E+00 
    1.9866149524159560E+00 
    2.0318437277131514E+00 
    2.0321632351266299E+00 
    2.0076692000354126E+00 
    2.0015468325495922E+00 
    1.9710504238841882E+00 
    1.9831947498840827E+00 
    1.9583089566238876E+00 
    1.9397796699477028E+00 
    1.9438939046214097E+00 
    1.9578714136044051E+00 
    1.9201436343889791E+00 
    1.8996954273173756E+00 
    1.8289425882344699E+00 
    1.7805861436993533E+00 
    1.7637944951152371E+00 
    1.8060197295005762E+00 
    1.7322876687686362E+00 
    1.6860005412785835E+00 
    1.6819620857935602E+00 
    1.7219228336122123E+00 
    1.7104364606603495E+00 
    1.6767397544535942E+00 
    1.6702395082673214E+00 
    1.6975294077902285E+00 
    1.7821087688055237E+00 
    1.7459654640747071E+00 
    1.7266469303477074E+00 
    1.7567047418541475E+00 
    1.6442592027548188E+00 
    1.6096551689059877E+00 
    1.6136516220754624E+00 
    1.6453798874223853E+00 
    1.5844734539554817E+00 
    1.5697370040839860E+00 
    1.5717174398529934E+00 
    1.5887638930165993E+00 
    1.5915728632813115E+00 
    1.5724858498429213E+00 
    1.5723421442138819E+00 
    1.5930606895802009E+00 
    1.6451895965292043E+00 
    1.6160702367879005E+00 
    1.6171156001360885E+00 
    1.6437216003132837E+00 
    1.7273250611778688E+00 
    1.7002475901188716E+00 
    1.6655748747862491E+00 
    1.6923592075929781E+00 
    1.6750283402756159E+00 
    1.6523536250990982E+00 
    1.6246360887290181E+00 
    1.6430910710544133E+00 
    1.6095031844583916E+00 
    1.5977337501684710E+00 
    1.5726299186353594E+00 
    1.5751770048590856E+00 
    1.6502240834611708E+00 
    1.6260091057283033E+00 
    1.5804478198315990E+00 
    1.5932259473715067E+00 
    1.8650446002799819E+00 
    1.8394617227021450E+00 
    1.8641269988156328E+00 
    1.8891545137018315E+00 
    1.8129076663141155E+00 
    1.7850700413848759E+00 
    1.8113658752815496E+00 
    1.8382536988474274E+00 
    1.8631387929897576E+00 
    1.8372254144709592E+00 
    1.8623917160074732E+00 
    1.8873365936301090E+00 
    1.9124752744411428E+00 
    1.8881969760234165E+00 
    1.9114534807388488E+00 
    1.9347927724946008E+00 
    1.7572247862787502E+00 
    1.7292389389232934E+00 
    1.7693636918969597E+00 
    1.7882360050657204E+00 
    1.6990163750631684E+00 
    1.6658304546091027E+00 
    1.7293938643462567E+00 
    1.7497651346878498E+00 
    1.7966190161282070E+00 
    1.7856069200519551E+00 
    1.8369459919664546E+00 
    1.8404077930154918E+00 
    1.8184403555987894E+00 
    1.8075985040762497E+00 
    1.8440020458924100E+00 
    1.8476538937491545E+00 
    1.9543394887506123E+00 
    1.9293170945183031E+00 
    1.9422115521552079E+00 
    1.9710410663149267E+00 
    1.9031590900808026E+00 
    1.8758456471974507E+00 
    1.8784566845281017E+00 
    1.9112995891720617E+00 
    1.9193246783029922E+00 
    1.8811363898167179E+00 
    1.8838956046255879E+00 
    1.9272597195190557E+00 
    1.9861810347269182E+00 
    1.9545097393549307E+00 
    1.9662494463302400E+00 
    1.9996213265617748E+00 
    1.5661017984432450E+00 
    1.5484206378318379E+00 
    1.5420951023233802E+00 
    1.5625349785443343E+00 
    1.5175771296062563E+00 
    1.4742444291807890E+00 
    1.4722145503854398E+00 
    1.5117492222364683E+00 
    1.5069187888637663E+00 
    1.4712464829878198E+00 
    1.4713929456922648E+00 
    1.5032309730374551E+00 
    1.5586847953298471E+00 
    1.5363196648691217E+00 
    1.5312997706050173E+00 
    1.5548624691220780E+00 
    1.4212297760163246E+00 
    1.3599158827561699E+00 
    1.3736265318011460E+00 
    1.4261625140489382E+00 
    1.2928044617967642E+00 
    1.2211905069859352E+00 
    1.2556815621137298E+00 
    1.3164610554364933E+00 
    1.3402265509798537E+00 
    1.2897816278154901E+00 
    1.3241875880026934E+00 
    1.3648430657286477E+00 
    1.4318204650158566E+00 
    1.3879170437505972E+00 
    1.4032104737785500E+00 
    1.4384908174528976E+00 
    1.5497575029032511E+00 
    1.5221610490147808E+00 
    1.5050001774401232E+00 
    1.5419009960551444E+00 
    1.4916667590460615E+00 
    1.4592363684801057E+00 
    1.4300892796578337E+00 
    1.4674180604913725E+00 
    1.4384827624953480E+00 
    1.3974899882452287E+00 
    1.3619944710980898E+00 
    1.4044412569442486E+00 
    1.5312952613151860E+00 
    1.4828313996784805E+00 
    1.4524798309027565E+00 
    1.5135158769111374E+00 
    1.4337577425976595E+00 
    1.3948399236858882E+00 
    1.3302562165733596E+00 
    1.3561228089398181E+00 
    1.3578626620233003E+00 
    1.3220987910227935E+00 
    1.2792338624070574E+00 
    1.3046617238329075E+00 
    1.2510961830319853E+00 
    1.2356128738226104E+00 
    1.1912120525788934E+00 
    1.1967164268545918E+00 
    1.2814989384033790E+00 
    1.2663527958967777E+00 
    1.2019996350573017E+00 
    1.2070549466473346E+00 
    1.2846773578999402E+00 
    1.2451943339706233E+00 
    1.2066021468258710E+00 
    1.2466534162749170E+00 
    1.2057392342833508E+00 
    1.1648686694455133E+00 
    1.1237786736870101E+00 
    1.1658941797343245E+00 
    1.1252874809830360E+00 
    1.0821765500639120E+00 
    1.0406783010005169E+00 
    1.0843289799510403E+00 
    1.2077453105517073E+00 
    1.1669916186013192E+00 
    1.1267313662505345E+00 
    1.1680431126621333E+00 
    1.1320438594174478E+00 
    1.1368308124103998E+00 
    1.0701741891074235E+00 
    1.0554252125960588E+00 
    1.1413890159496058E+00 
    1.1457594232793817E+00 
    1.0991381537701375E+00 
    1.0846467403168150E+00 
    1.0272023878783998E+00 
    1.0514692194736568E+00 
    1.0027652910506104E+00 
    9.6943422291448356E-01 
    9.8015515057814706E-01 
    1.0034355952414360E+00 
    9.3845873255027035E-01 
    9.1024183933917424E-01 
    1.9997473500851948E+00 
    1.9658386775762882E+00 
    1.9538775105502428E+00 
    1.9860102903168735E+00 
    1.9260862631467870E+00 
    1.8820275849599812E+00 
    1.8794186474903785E+00 
    1.9180991696297214E+00 
    1.9100653962179439E+00 
    1.8768812698987460E+00 
    1.8744080996030996E+00 
    1.9019492116570376E+00 
    1.9706345523198825E+00 
    1.9414130070139166E+00 
    1.9284139355681842E+00 
    1.9537469290260105E+00 
    1.8351100454359945E+00 
    1.7845656766316498E+00 
    1.7955184391777685E+00 
    1.8387250833036435E+00 
    1.7293240641824839E+00 
    1.6662711082824506E+00 
    1.6991564550808032E+00 
    1.7493925845521241E+00 
    1.7687867499734158E+00 
    1.7291019372642289E+00 
    1.7568795038142109E+00 
    1.7875536055996617E+00 
    1.8424478575722127E+00 
    1.8064744433599069E+00 
    1.8173510998237870E+00 
    1.8462406455634908E+00 
    1.9340589729009294E+00 
    1.9104512141246219E+00 
    1.8872396865022367E+00 
    1.9117441174589185E+00 
    1.8861211793927952E+00 
    1.8610618038730706E+00 
    1.8361391118682029E+00 
    1.8620744111629643E+00 
    1.8374064860014869E+00 
    1.8106023681026000E+00 
    1.7845557115630808E+00 
    1.8122611933032204E+00 
    1.8884687411066277E+00 
    1.8633332055428464E+00 
    1.8387883847063227E+00 
    1.8644260409219897E+00 
    1.8283869396814334E+00 
    1.8054779904305434E+00 
    1.7634324556714764E+00 
    1.7801825325842242E+00 
    1.7816446669843453E+00 
    1.7563972670605488E+00 
    1.7265081238466047E+00 
    1.7456874801039832E+00 
    1.7102921560760804E+00 
    1.6974730893289036E+00 
    1.6701959270661142E+00 
    1.6765866064835135E+00 
    1.7320161654968975E+00 
    1.7216853703003614E+00 
    1.6817135065926681E+00 
    1.6856790242037341E+00 
    1.7272148159858192E+00 
    1.6924797801686746E+00 
    1.6657777853677664E+00 
    1.7002545863454728E+00 
    1.6505358616664414E+00 
    1.5936092082124638E+00 
    1.5808760675923741E+00 
    1.6263439762748089E+00 
    1.6097913880932273E+00 
    1.5755425062075854E+00 
    1.5728080294495628E+00 
    1.5978631598610129E+00 
    1.6750813133375813E+00 
    1.6432783152652164E+00 
    1.6247266728856422E+00 
    1.6523763649384164E+00 
    1.6438560194660745E+00 
    1.6450506659051245E+00 
    1.6131186897873360E+00 
    1.6089690191120949E+00 
    1.6449577648863729E+00 
    1.6436086830484733E+00 
    1.6169823226656939E+00 
    1.6157205584804140E+00 
    1.5911095740375354E+00 
    1.5928798080577478E+00 
    1.5721622181541299E+00 
    1.5720033380014731E+00 
    1.5836242008762687E+00 
    1.5880797105304847E+00 
    1.5709714351695132E+00 
    1.5688661218130704E+00 
    1.1057907976730323E+00 
    1.0217894214654453E+00 
    9.9328728863570181E-01 
    1.0679054587984367E+00 
    9.3079629845461143E-01 
    8.2928935455889885E-01 
    8.2453274210908345E-01 
    9.1310056413635732E-01 
    8.9725559724360571E-01 
    8.2243151288261651E-01 
    8.2288137916619342E-01 
    8.8388894496535253E-01 
    1.0298285437663310E+00 
    9.6572141066866024E-01 
    9.4009286212945564E-01 
    9.9292946069376697E-01 
    7.1176732482554750E-01 
    5.6225811316826191E-01 
    6.0830551487245432E-01 
    7.2557009772683700E-01 
    3.4710247002052874E-01 
    0.0000000000000000E+00 
    2.5566506282340851E-01 
    4.5912363103517390E-01 
    5.5219930784588678E-01 
    4.3269540278964663E-01 
    5.6555370717788522E-01 
    6.3245594880615696E-01 
    7.4178496501624636E-01 
    6.5349795534762189E-01 
    6.9728699619910084E-01 
    7.5958572474037189E-01 
    9.5549954413173555E-01 
    9.0813937728857874E-01 
    8.7143526924982917E-01 
    9.1939544754708480E-01 
    8.5705890515669347E-01 
    8.0074966693683780E-01 
    7.5467109218950079E-01 
    8.1723796573738727E-01 
    7.8242865589571753E-01 
    7.1077970043216854E-01 
    6.7088389130929871E-01 
    7.5496861477815114E-01 
    8.8974488615933267E-01 
    8.4136479896848038E-01 
    8.2070222109395241E-01 
    8.7017026682064891E-01 
    1.4343407411049385E+00 
    1.3556022344857133E+00 
    1.3293417308584361E+00 
    1.3949274976869024E+00 
    1.2794869672075073E+00 
    1.2037727886349383E+00 
    1.1987957967733649E+00 
    1.2641952716719869E+00 
    1.2487823387710710E+00 
    1.1936159471407564E+00 
    1.1882501194897430E+00 
    1.2332622747694353E+00 
    1.3575017881151787E+00 
    1.3033807321874591E+00 
    1.2776532389587318E+00 
    1.3213181915122814E+00 
    1.1284222038721634E+00 
    1.0529113279594742E+00 
    1.0674948566609390E+00 
    1.1334065851188682E+00 
    9.7901983847077401E-01 
    9.1005632951147197E-01 
    9.3795589043165639E-01 
    1.0019255841887067E+00 
    1.0253597929189082E+00 
    9.6854711863121090E-01 
    1.0014986511021629E+00 
    1.0494482514028709E+00 
    1.1381734438775222E+00 
    1.0819900933989270E+00 
    1.0964869889280737E+00 
    1.1427731633731446E+00 
    1.2834944037374167E+00 
    1.2447600636731946E+00 
    1.2044391880340772E+00 
    1.2436254603459989E+00 
    1.2052505759943641E+00 
    1.1651798520652168E+00 
    1.1240342387920306E+00 
    1.1644587583689763E+00 
    1.1229558127934622E+00 
    1.0820631989520240E+00 
    1.0390143354201600E+00 
    1.0802678279465938E+00 
    1.2039476535852409E+00 
    1.1637598529324478E+00 
    1.1217944312592041E+00 
    1.1629842800251000E+00 
    1.5139402853987693E+00 
    1.4528593274902304E+00 
    1.4833850231762493E+00 
    1.5318036683775773E+00 
    1.4046191899792277E+00 
    1.3618838923869929E+00 
    1.3978994373755127E+00 
    1.4390285245869601E+00 
    1.4681560171406025E+00 
    1.4308926295083932E+00 
    1.4602131049194056E+00 
    1.4924808920399546E+00 
    1.5423801787552442E+00 
    1.5056684081154177E+00 
    1.5227592209133014E+00 
    1.5500971086057778E+00 
    1.3237711326822492E+00 
    1.2889755978636708E+00 
    1.3403827805162196E+00 
    1.3651297572502850E+00 
    1.2544083391229073E+00 
    1.2194633752086588E+00 
    1.2922491242023226E+00 
    1.3163227452267945E+00 
    1.3745783194493457E+00 
    1.3607931997627449E+00 
    1.4228019162369479E+00 
    1.4276161201031667E+00 
    1.4040292358416724E+00 
    1.3888246093618339E+00 
    1.4331152639740177E+00 
    1.4396009876240099E+00 
    1.5548855842110858E+00 
    1.5316845759483992E+00 
    1.5365144536795701E+00 
    1.5584202653191470E+00 
    1.5039893804775049E+00 
    1.4724671348529097E+00 
    1.4724509542586242E+00 
    1.5076638948933476E+00 
    1.5123982132725122E+00 
    1.4735446642442407E+00 
    1.4756498314835564E+00 
    1.5181257996085973E+00 
    1.5619823679820266E+00 
    1.5420756021409092E+00 
    1.5481900426928323E+00 
    1.5653495754121505E+00 
    8.7016571913094209E-01 
    8.2083008666936452E-01 
    8.4175282196185774E-01 
    8.8978691257247167E-01 
    7.5521467529651798E-01 
    6.7118663374620058E-01 
    7.1164602790094256E-01 
    7.8313621429029145E-01 
    8.1819810867372800E-01 
    7.5597713380257336E-01 
    8.0218970683191826E-01 
    8.5799617408657114E-01 
    9.1925358297974191E-01 
    8.7192523123421117E-01 
    9.0840781488110356E-01 
    9.5501892939095845E-01 
    5.6583257427569378E-01 
    4.3284275504427616E-01 
    5.5306238259603413E-01 
    6.3339672140027992E-01 
    2.5554788219760172E-01 
    0.0000000000000000E+00 
    3.4709246681020534E-01 
    4.5956750962297283E-01 
    6.0979948903309389E-01 
    5.6344623297223517E-01 
    7.1392408463129020E-01 
    7.2765151961074170E-01 
    6.9877982581668863E-01 
    6.5506766417286733E-01 
    7.4372364777733613E-01 
    7.6128571651454469E-01 
    9.9200268932304614E-01 
    9.4000454924269505E-01 
    9.6533992983663020E-01 
    1.0285268935844014E+00 
    8.8466406114317564E-01 
    8.2435258308426040E-01 
    8.2406487731263889E-01 
    8.9798348596552624E-01 
    9.1366093185523134E-01 
    8.2627787261540875E-01 
    8.3103910297606731E-01 
    9.3111281832326465E-01 
    1.0662456858815130E+00 
    9.9252420216991843E-01 
    1.0206422874765138E+00 
    1.1038964677289105E+00 
    1.5513080226221656E+00 
    1.6290171495563741E+00 
    1.6217322218549544E+00 
    1.5502134504342837E+00 
    1.7035618783972826E+00 
    1.7740633346145931E+00 
    1.7558073597253585E+00 
    1.6904713097312170E+00 
    1.6794186823175399E+00 
    1.7391529205908760E+00 
    1.7237964207746266E+00 
    1.6701387750265615E+00 
    1.5510986085597882E+00 
    1.6166398405954272E+00 
    1.6135111986030475E+00 
    1.5538386364076060E+00 
    1.8383363993156887E+00 
    1.8961604967733567E+00 
    1.8645809512912888E+00 
    1.8134945432768528E+00 
    1.9480903601263251E+00 
    1.9939798010757295E+00 
    1.9578100517871724E+00 
    1.9125004713809288E+00 
    1.8756185864861277E+00 
    1.9175371863772819E+00 
    1.8734915034650601E+00 
    1.8372370716978077E+00 
    1.7897521067522046E+00 
    1.8333190839186813E+00 
    1.8019934154658481E+00 
    1.7667682481526181E+00 
    1.5621322630581316E+00 
    1.6225706007249703E+00 
    1.6452150955624787E+00 
    1.5773036870813009E+00 
    1.6785906705781974E+00 
    1.7309419751559292E+00 
    1.7606213815951539E+00 
    1.7055543637219448E+00 
    1.7351318485390730E+00 
    1.7914433509044823E+00 
    1.8245423494182944E+00 
    1.7691197593328907E+00 
    1.5973019953017369E+00 
    1.6720762856729037E+00 
    1.7063178058480521E+00 
    1.6276432196082122E+00 
    1.4711009316712673E+00 
    1.3898950534630616E+00 
    1.4006565928378669E+00 
    1.4756441627378512E+00 
    1.3083664431625175E+00 
    1.2271346225807445E+00 
    1.2511256420450774E+00 
    1.3256895656790491E+00 
    1.3431941891295347E+00 
    1.2751575387893974E+00 
    1.2993546079666536E+00 
    1.3609824181871215E+00 
    1.4814506079021874E+00 
    1.4119982612516735E+00 
    1.4238839032555148E+00 
    1.4883541973834857E+00 
    1.1484022583206555E+00 
    1.0724209014828157E+00 
    1.1191931078351363E+00 
    1.1823895370200275E+00 
    9.9796875888129655E-01 
    9.2561164134688090E-01 
    9.9453181138563107E-01 
    1.0565856741319235E+00 
    1.1166190272266829E+00 
    1.0669093094713513E+00 
    1.1408884618415354E+00 
    1.1775738430868932E+00 
    1.2164875542763698E+00 
    1.1664889722182712E+00 
    1.2142308344005381E+00 
    1.2508345140803507E+00 
    1.4918329019274879E+00 
    1.4246128157647673E+00 
    1.4122191006596820E+00 
    1.4898524297014943E+00 
    1.3604861732426807E+00 
    1.2984451965395765E+00 
    1.2717349127619728E+00 
    1.3403870254846513E+00 
    1.3188511372454097E+00 
    1.2445428941062486E+00 
    1.2168212908922806E+00 
    1.2954074172063141E+00 
    1.4840390891929589E+00 
    1.3969680728393858E+00 
    1.3771518434798802E+00 
    1.4706622502591771E+00 
    1.6280616447511000E+00 
    1.7062252524173021E+00 
    1.6716767762370990E+00 
    1.5972872565234408E+00 
    1.7681001178208864E+00 
    1.8227300456114812E+00 
    1.7899835564707671E+00 
    1.7341686709590782E+00 
    1.7046493391053235E+00 
    1.7594314642510394E+00 
    1.7299782393031840E+00 
    1.6777807483825999E+00 
    1.5769119438781654E+00 
    1.6446286994094168E+00 
    1.6218952389190848E+00 
    1.5615051050570210E+00 
    1.8716349513504984E+00 
    1.9163715961925962E+00 
    1.8745831291400938E+00 
    1.8357635161324108E+00 
    1.9574163542517282E+00 
    1.9940984549249634E+00 
    1.9480286983634001E+00 
    1.9120156998247508E+00 
    1.8640848514675088E+00 
    1.8960210183568456E+00 
    1.8381875405437833E+00 
    1.8130568488133503E+00 
    1.8008096244427141E+00 
    1.8324381016265725E+00 
    1.7890328966467617E+00 
    1.7658248485358554E+00 
    1.5530973609188614E+00 
    1.6128155027792581E+00 
    1.6160458414915291E+00 
    1.5504274826025952E+00 
    1.6694039336851019E+00 
    1.7229839593559970E+00 
    1.7385217047976240E+00 