# vtk DataFile Version 2.0
Pressure Field Data 
ASCII 
DATASET UNSTRUCTURED_GRID 

POINTS 801 double 

    0.0000000000000000E+00     0.0000000000000000E+00     0.0000000000000000E+00 
    1.0000000000000000E+00     0.0000000000000000E+00     0.0000000000000000E+00 
    1.0000000000000000E+00     1.0000000000000000E+00     0.0000000000000000E+00 
    0.0000000000000000E+00     1.0000000000000000E+00     0.0000000000000000E+00 
    2.5000000000000000E-01     2.5000000000000000E-01     0.0000000000000000E+00 
    7.5000000000000000E-01     2.5000000000000000E-01     0.0000000000000000E+00 
    7.5000000000000000E-01     7.5000000000000000E-01     0.0000000000000000E+00 
    2.5000000000000000E-01     7.5000000000000000E-01     0.0000000000000000E+00 
    2.4999999999941941E-01     0.0000000000000000E+00     0.0000000000000000E+00 
    4.9999999999869399E-01     0.0000000000000000E+00     0.0000000000000000E+00 
    7.4999999999934697E-01     0.0000000000000000E+00     0.0000000000000000E+00 
    1.2499999999977940E-01     0.0000000000000000E+00     0.0000000000000000E+00 
    3.7499999999905670E-01     0.0000000000000000E+00     0.0000000000000000E+00 
    6.2499999999902045E-01     0.0000000000000000E+00     0.0000000000000000E+00 
    8.7499999999967348E-01     0.0000000000000000E+00     0.0000000000000000E+00 
    6.2499999999889699E-02     0.0000000000000000E+00     0.0000000000000000E+00 
    1.8749999999959940E-01     0.0000000000000000E+00     0.0000000000000000E+00 
    3.1249999999923811E-01     0.0000000000000000E+00     0.0000000000000000E+00 
    4.3749999999887529E-01     0.0000000000000000E+00     0.0000000000000000E+00 
    5.6249999999885725E-01     0.0000000000000000E+00     0.0000000000000000E+00 
    6.8749999999918376E-01     0.0000000000000000E+00     0.0000000000000000E+00 
    8.1249999999951017E-01     0.0000000000000000E+00     0.0000000000000000E+00 
    9.3749999999983680E-01     0.0000000000000000E+00     0.0000000000000000E+00 
    1.0000000000000000E+00     2.4999999999941941E-01     0.0000000000000000E+00 
    1.0000000000000000E+00     4.9999999999869399E-01     0.0000000000000000E+00 
    1.0000000000000000E+00     7.4999999999934697E-01     0.0000000000000000E+00 
    1.0000000000000000E+00     1.2499999999977940E-01     0.0000000000000000E+00 
    1.0000000000000000E+00     3.7499999999905670E-01     0.0000000000000000E+00 
    1.0000000000000000E+00     6.2499999999902045E-01     0.0000000000000000E+00 
    1.0000000000000000E+00     8.7499999999967348E-01     0.0000000000000000E+00 
    1.0000000000000000E+00     6.2499999999889699E-02     0.0000000000000000E+00 
    1.0000000000000000E+00     1.8749999999959940E-01     0.0000000000000000E+00 
    1.0000000000000000E+00     3.1249999999923811E-01     0.0000000000000000E+00 
    1.0000000000000000E+00     4.3749999999887529E-01     0.0000000000000000E+00 
    1.0000000000000000E+00     5.6249999999885725E-01     0.0000000000000000E+00 
    1.0000000000000000E+00     6.8749999999918376E-01     0.0000000000000000E+00 
    1.0000000000000000E+00     8.1249999999951017E-01     0.0000000000000000E+00 
    1.0000000000000000E+00     9.3749999999983680E-01     0.0000000000000000E+00 
    7.5000000000112044E-01     1.0000000000000000E+00     0.0000000000000000E+00 
    5.0000000000205913E-01     1.0000000000000000E+00     0.0000000000000000E+00 
    2.5000000000102962E-01     1.0000000000000000E+00     0.0000000000000000E+00 
    8.7499999999991362E-01     1.0000000000000000E+00     0.0000000000000000E+00 
    6.2499999999988309E-01     1.0000000000000000E+00     0.0000000000000000E+00 
    3.7499999999869987E-01     1.0000000000000000E+00     0.0000000000000000E+00 
    1.2499999999880820E-01     1.0000000000000000E+00     0.0000000000000000E+00 
    9.3749999999995681E-01     1.0000000000000000E+00     0.0000000000000000E+00 
    8.1250000000051703E-01     1.0000000000000000E+00     0.0000000000000000E+00 
    6.8750000000050182E-01     1.0000000000000000E+00     0.0000000000000000E+00 
    5.6250000000097111E-01     1.0000000000000000E+00     0.0000000000000000E+00 
    4.3750000000037947E-01     1.0000000000000000E+00     0.0000000000000000E+00 
    3.1249999999986477E-01     1.0000000000000000E+00     0.0000000000000000E+00 
    1.8749999999991890E-01     1.0000000000000000E+00     0.0000000000000000E+00 
    6.2499999999404102E-02     1.0000000000000000E+00     0.0000000000000000E+00 
    0.0000000000000000E+00     7.5000000000112044E-01     0.0000000000000000E+00 
    0.0000000000000000E+00     5.0000000000205913E-01     0.0000000000000000E+00 
    0.0000000000000000E+00     2.5000000000102962E-01     0.0000000000000000E+00 
    0.0000000000000000E+00     8.7499999999991362E-01     0.0000000000000000E+00 
    0.0000000000000000E+00     6.2499999999988309E-01     0.0000000000000000E+00 
    0.0000000000000000E+00     3.7499999999869987E-01     0.0000000000000000E+00 
    0.0000000000000000E+00     1.2499999999880820E-01     0.0000000000000000E+00 
    0.0000000000000000E+00     9.3749999999995681E-01     0.0000000000000000E+00 
    0.0000000000000000E+00     8.1250000000051703E-01     0.0000000000000000E+00 
    0.0000000000000000E+00     6.8750000000050182E-01     0.0000000000000000E+00 
    0.0000000000000000E+00     5.6250000000097111E-01     0.0000000000000000E+00 
    0.0000000000000000E+00     4.3750000000037947E-01     0.0000000000000000E+00 
    0.0000000000000000E+00     3.1249999999986477E-01     0.0000000000000000E+00 
    0.0000000000000000E+00     1.8749999999991890E-01     0.0000000000000000E+00 
    0.0000000000000000E+00     6.2499999999404102E-02     0.0000000000000000E+00 
    4.9999999999972200E-01     2.5000000000000000E-01     0.0000000000000000E+00 
    3.7500000000067490E-01     2.5000000000000000E-01     0.0000000000000000E+00 
    6.2500000000042988E-01     2.5000000000000000E-01     0.0000000000000000E+00 
    3.1250000000033751E-01     2.5000000000000000E-01     0.0000000000000000E+00 
    4.3750000000019851E-01     2.5000000000000000E-01     0.0000000000000000E+00 
    5.6250000000007594E-01     2.5000000000000000E-01     0.0000000000000000E+00 
    6.8750000000021494E-01     2.5000000000000000E-01     0.0000000000000000E+00 
    7.5000000000000000E-01     4.9999999999972200E-01     0.0000000000000000E+00 
    7.5000000000000000E-01     3.7500000000067490E-01     0.0000000000000000E+00 
    7.5000000000000000E-01     6.2500000000042988E-01     0.0000000000000000E+00 
    7.5000000000000000E-01     3.1250000000033751E-01     0.0000000000000000E+00 
    7.5000000000000000E-01     4.3750000000019851E-01     0.0000000000000000E+00 
    7.5000000000000000E-01     5.6250000000007594E-01     0.0000000000000000E+00 
    7.5000000000000000E-01     6.8750000000021494E-01     0.0000000000000000E+00 
    5.0000000000118039E-01     7.5000000000000000E-01     0.0000000000000000E+00 
    6.2500000000161415E-01     7.5000000000000000E-01     0.0000000000000000E+00 
    3.7500000000140910E-01     7.5000000000000000E-01     0.0000000000000000E+00 
    6.8750000000080713E-01     7.5000000000000000E-01     0.0000000000000000E+00 
    5.6250000000139733E-01     7.5000000000000000E-01     0.0000000000000000E+00 
    4.3750000000129469E-01     7.5000000000000000E-01     0.0000000000000000E+00 
    3.1250000000070460E-01     7.5000000000000000E-01     0.0000000000000000E+00 
    2.5000000000000000E-01     5.0000000000118039E-01     0.0000000000000000E+00 
    2.5000000000000000E-01     6.2500000000161415E-01     0.0000000000000000E+00 
    2.5000000000000000E-01     3.7500000000140910E-01     0.0000000000000000E+00 
    2.5000000000000000E-01     6.8750000000080713E-01     0.0000000000000000E+00 
    2.5000000000000000E-01     5.6250000000139733E-01     0.0000000000000000E+00 
    2.5000000000000000E-01     4.3750000000129469E-01     0.0000000000000000E+00 
    2.5000000000000000E-01     3.1250000000070460E-01     0.0000000000000000E+00 
    3.7499999999934702E-01     1.2500000000000000E-01     0.0000000000000000E+00 
    1.2500000000000000E-01     1.2500000000000000E-01     0.0000000000000000E+00 
    1.2500000000000000E-01     3.7500000000102962E-01     0.0000000000000000E+00 
    8.7500000000000000E-01     1.2500000000000000E-01     0.0000000000000000E+00 
    6.2499999999934697E-01     1.2500000000000000E-01     0.0000000000000000E+00 
    8.7500000000000000E-01     3.7499999999934702E-01     0.0000000000000000E+00 
    8.7500000000000000E-01     6.2499999999934697E-01     0.0000000000000000E+00 
    1.2500000000000000E-01     6.2500000000102962E-01     0.0000000000000000E+00 
    1.2500000000000000E-01     8.7500000000000000E-01     0.0000000000000000E+00 
    8.7500000000000000E-01     8.7500000000000000E-01     0.0000000000000000E+00 
    6.2500000000102962E-01     8.7500000000000000E-01     0.0000000000000000E+00 
    3.7500000000102962E-01     8.7500000000000000E-01     0.0000000000000000E+00 
    2.4999999999957681E-01     8.3333333333333329E-02     0.0000000000000000E+00 
    8.3333333333333329E-02     2.5000000000068640E-01     0.0000000000000000E+00 
    7.4999999999956468E-01     8.3333333333333329E-02     0.0000000000000000E+00 
    4.9999999999951827E-01     1.6666666666666671E-01     0.0000000000000000E+00 
    9.1666666666666674E-01     2.4999999999957681E-01     0.0000000000000000E+00 
    8.3333333333333337E-01     4.9999999999951827E-01     0.0000000000000000E+00 
    1.6666666666666671E-01     5.0000000000088307E-01     0.0000000000000000E+00 
    8.3333333333333329E-02     7.5000000000070155E-01     0.0000000000000000E+00 
    9.1666666666666674E-01     7.4999999999956468E-01     0.0000000000000000E+00 
    5.0000000000088307E-01     8.3333333333333348E-01     0.0000000000000000E+00 
    2.5000000000068640E-01     9.1666666666666674E-01     0.0000000000000000E+00 
    7.5000000000070155E-01     9.1666666666666674E-01     0.0000000000000000E+00 
[...]
CELL_DATA 768 
SCALARS Pressure double 1 
LOOKUP_TABLE default 

    3.4794986203575164E+00 
    3.3791317258256535E+00 
    3.3445631648449048E+00 
    3.4094088875688979E+00 
    3.3056322991988223E+00 
    3.2395164559325718E+00 
    3.2331571553543261E+00 
    3.2883081191431036E+00 
    3.2693742704005349E+00 
    3.2252067295701599E+00 
    3.2158401275196860E+00 
    3.2491610727978411E+00 
    3.3539449477822276E+00 
    3.3115726914484838E+00 
    3.2792556956200500E+00 
    3.3064640318061005E+00 
    3.1717592090996845E+00 
    3.1007739781001149E+00 
    3.1142979645354902E+00 
    3.1750788671808716E+00 
    3.0258592141876726E+00 
    2.9468045145851898E+00 
    2.9837929707256654E+00 
    3.0506601567661442E+00 
    3.0739021065162002E+00 
    3.0191309675736324E+00 
    3.0522849137158605E+00 
    3.0952010996858186E+00 
    3.1769652213928423E+00 
    3.1263534131058228E+00 
    3.1367524325264431E+00 
    3.1774443662617058E+00 
    3.2620938763080178E+00 
    3.2431155850458384E+00 
    3.2050464712581723E+00 
    3.2205142215445632E+00 
    3.2198000647316780E+00 
    3.1924273558891620E+00 
    3.1565950169001118E+00 
    3.1834621105510088E+00 
    3.1484413360620036E+00 
    3.1208529149219579E+00 
    3.0846962688151622E+00 
    3.1144408145110551E+00 
    3.1832851300688252E+00 
    3.1697248612039637E+00 
    3.1376121836732564E+00 
    3.1520192988481730E+00 
    3.4795455654510836E+00 
    3.4094653412515692E+00 
    3.3447315907643596E+00 
    3.3793021481246126E+00 
    3.3540123333265655E+00 
    3.3065326237476893E+00 
    3.2794041442973216E+00 
    3.3117267537061745E+00 
    3.2695503913422801E+00 
    3.2492772568118098E+00 
    3.2159035276368662E+00 
    3.2253371608219803E+00 
    3.3058545385247737E+00 
    3.2885091971208089E+00 
    3.2333472524165821E+00 
    3.2397217445339668E+00 
    3.2621589759776106E+00 
    3.2205225394949699E+00 
    3.2050121729401191E+00 
    3.2432288008577816E+00 
    3.1831812417549292E+00 
    3.1518530106491989E+00 
    3.1370873566223882E+00 
    3.1694473614524243E+00 
    3.1479186562251367E+00 
    3.1134477400047031E+00 
    3.0833244751509423E+00 
    3.1200336610263371E+00 
    3.2198560435606085E+00 
    3.1832967897136046E+00 
    3.1562542487304395E+00 
    3.1923748189719090E+00 
    3.1717776509370905E+00 
    3.1750832822707427E+00 
    3.1137649872243425E+00 
    3.1001387398677456E+00 
    3.1769256871821039E+00 
    3.1773370789379789E+00 
    3.1362739723659359E+00 
    3.1258480068214451E+00 
    3.0727629732089414E+00 
    3.0941628096793314E+00 
    3.0506277139581814E+00 
    3.0172998410336209E+00 
    3.0244420309224456E+00 
    3.0493895328598044E+00 
    2.9818247526849659E+00 
    2.9448211924971033E+00 
    2.8151266293369321E+00 
    2.7156190256885218E+00 
    2.6769851738930162E+00 
    2.7693501064558377E+00 
    2.5998679995339815E+00 
    2.4892004360362310E+00 
    2.4804994294510676E+00 
    2.5742321811581546E+00 
    2.5460413725865987E+00 
    2.4696250839689040E+00 
    2.4563621616544360E+00 
    2.5161736721863459E+00 
    2.7174356658421126E+00 
    2.6327802096217607E+00 
    2.5843005279847526E+00 
    2.6564504865804546E+00 
    2.3987977980830530E+00 
    2.3261143222942975E+00 
    2.3350959246875558E+00 
    2.4015847814725388E+00 
    2.2740695366239163E+00 
    2.2437224089827486E+00 
    2.2489009737304948E+00 
    2.2838072119331403E+00 
    2.2913199207570027E+00 
    2.2528054085876317E+00 
    2.2556889708198660E+00 
    2.2967747816421129E+00 
    2.4019528885468993E+00 
    2.3413661027344226E+00 
    2.3452235818076996E+00 
    2.3999304383061983E+00 
    2.5850184504358560E+00 
    2.5225670687521808E+00 
    2.4484499331251772E+00 
    2.5060150953212927E+00 
    2.4672170109737581E+00 
    2.4189423566381500E+00 
    2.3623754838400419E+00 
    2.4013859552074464E+00 
    2.3350084868806325E+00 
    2.3089279652222374E+00 
    2.2600357342106654E+00 
    2.2690106673956869E+00 
    2.4202228477023504E+00 
    2.3699033195408115E+00 
    2.2828483294344042E+00 
    2.3100188181377539E+00 
    2.8826025170347895E+00 
    2.8352781287265656E+00 
    2.8814655904887050E+00 
    2.9269454779252708E+00 
    2.7825576807652856E+00 
    2.7202792367087998E+00 
    2.7764195783669012E+00 
    2.8325158056852273E+00 
    2.8792895183858684E+00 
    2.8289523781954831E+00 
    2.8768876235003868E+00 
    2.9235285139649019E+00 
    2.9693158801719948E+00 
    2.9254090267858923E+00 
    2.9676292973135694E+00 
    3.0097330821669486E+00 
    2.6528631324640171E+00 
    2.5867528600099434E+00 
    2.6743911020843631E+00 
    2.7214314869619129E+00 
    2.5217479177917457E+00 
    2.4545801474187146E+00 
    2.5858908762527806E+00 
    2.6296686252424641E+00 
    2.7307341801976448E+00 
    2.7058014717798904E+00 
    2.8155800133775961E+00 
    2.8248387645148991E+00 
    2.7872835699865530E+00 
    2.7583593361571497E+00 
    2.8363250470413983E+00 
    2.8470331102303077E+00 
    3.0451355414749424E+00 
    3.0002833224621908E+00 
    3.0241526965220582E+00 
    3.0750632755038030E+00 
    2.9523632716826067E+00 
    2.9012344218222101E+00 
    2.9049176297957433E+00 
    2.9674096135727837E+00 
    2.9823518046319513E+00 
    2.9084154957762052E+00 
    2.9124996912208267E+00 
    2.9970558723245335E+00 
    3.1015097135900045E+00 
    3.0469255912697015E+00 
    3.0679513691586489E+00 
    3.1238698749754228E+00 
    2.2365623297132737E+00 
    2.2056388396264355E+00 
    2.1954512353717024E+00 
    2.2309494521604059E+00 
    2.1528120393506378E+00 
    2.0797802115939530E+00 
    2.0768189826011079E+00 
    2.1435435579749873E+00 
    2.1367675528203582E+00 
    2.0761347814833337E+00 
    2.0776332354290257E+00 
    2.1323242614828999E+00 
    2.2263338276477129E+00 
    2.1873523526463674E+00 
    2.1811260906975551E+00 
    2.2226080889088942E+00 
    1.9908499789579135E+00 
    1.8903623881428362E+00 
    1.9127594765261366E+00 
    1.9991263567191384E+00 
    1.7824936665421383E+00 
    1.6700764325845170E+00 
    1.7239054032756376E+00 
    1.8202608017769035E+00 
    1.8593461886510618E+00 
    1.7784675102280878E+00 
    1.8345411156785019E+00 
    1.9005693868824582E+00 
    2.0094263557057133E+00 
    1.9370304695017895E+00 
    1.9635583108242576E+00 
    2.0219444155098856E+00 
    2.2171320350486541E+00 
    2.1679630441355195E+00 
    2.1408715272355310E+00 
    2.2071096151084970E+00 
    2.1143745016842335E+00 
    2.0581388723197507E+00 
    2.0097502951259880E+00 
    2.0744917260195463E+00 
    2.0265468436101308E+00 
    1.9558086015370533E+00 
    1.8973726665692365E+00 
    1.9697252898254258E+00 
    2.1923541128793067E+00 
    2.1049464482721496E+00 
    2.0540793255985776E+00 
    2.1648211697104967E+00 
    2.0206734681401359E+00 
    1.9540143965274663E+00 
    1.8471518453877385E+00 
    1.8903152477951111E+00 
    1.8916670384549630E+00 
    1.8321877316420214E+00 
    1.7632397619904041E+00 
    1.8048394446656499E+00 
    1.7191552955306111E+00 
    1.6941906540255316E+00 
    1.6250943531733306E+00 
    1.6340029316004667E+00 
    1.7685600773687606E+00 
    1.7438975900020790E+00 
    1.6425664272801705E+00 
    1.6507210342160568E+00 
    1.7709863922952451E+00 
    1.7074378611827923E+00 
    1.6473706244829045E+00 
    1.7107440184714673E+00 
    1.6444041188993448E+00 
    1.5813576913204461E+00 
    1.5197646910822937E+00 
    1.5838035444406644E+00 
    1.5229960047141737E+00 
    1.4583564756511842E+00 
    1.3979631870126623E+00 
    1.4622991914584929E+00 
    1.6500178723971271E+00 
    1.5867132701399134E+00 
    1.5258889180989725E+00 
    1.5889428554848462E+00 
    1.5349921224558893E+00 
    1.5421070894941200E+00 
    1.4424621799118760E+00 
    1.4209213100614402E+00 
    1.5488280174445384E+00 
    1.5552253263981464E+00 
    1.4848795893397080E+00 
    1.4636321583618539E+00 
    1.3792417520481257E+00 
    1.4142860662797472E+00 
    1.3435058755709979E+00 
    1.2961399531467170E+00 
    1.3120147885189466E+00 
    1.3451310336115672E+00 
    1.2526070352673448E+00 
    1.2136764892127521E+00 
    3.1234782840094217E+00 
    3.0664693443784463E+00 
    3.0452387038463122E+00 
    3.1005235131777176E+00 
    2.9948079672844341E+00 
    2.9101362185010395E+00 
    2.9059307482388914E+00 
    2.9802517281170755E+00 
    2.9652537281910152E+00 
    2.9022263422103967E+00 
    2.8981189024395921E+00 
    2.9497504218080834E+00 
    3.0736065528223842E+00 
    3.0223220979504148E+00 
    2.9981319113685507E+00 
    3.0433272649682617E+00 
    2.8148590076901230E+00 
    2.7097481716051042E+00 
    2.7337757426573317E+00 
    2.8234972741891475E+00 
    2.5940452602301787E+00 
    2.4655162124832222E+00 
    2.5321850108732971E+00 
    2.6368211426098367E+00 
    2.6808355868724822E+00 
    2.5959089950788101E+00 
    2.6614577825856731E+00 
    2.7268372869611581E+00 
    2.8341135172666343E+00 
    2.7602467229489172E+00 
    2.7872712035313962E+00 
    2.8440754514149327E+00 
    3.0075726328385111E+00 
    2.9649454295220754E+00 
    2.9222599772590594E+00 
    2.9669346569664738E+00 
    2.9201918479060138E+00 
    2.8732446371170934E+00 
    2.8261335025085530E+00 
    2.8755220321472943E+00 
    2.8295040269032947E+00 
    2.7772687359399808E+00 
    2.7259365294810332E+00 
    2.7821701338009150E+00 
    2.9245086608778164E+00 
    2.8782527629228469E+00 
    2.8329051450244025E+00 
    2.8806620424773777E+00 
    2.8146353667394042E+00 
    2.7702578203336725E+00 
    2.6845501450554363E+00 
    2.7205849809529394E+00 
    2.7221489775208751E+00 
    2.6662011498119438E+00 
    2.5968069858620018E+00 
    2.6440675378518521E+00 
    2.5587542680348077E+00 
    2.5286623855924812E+00 
    2.4676039995801906E+00 
    2.4804033684870284E+00 
    2.6107979851388978E+00 
    2.5862999615032178E+00 
    2.4910279444686494E+00 
    2.4995649338171710E+00 
    2.5952331723627826E+00 
    2.5178346835591658E+00 
    2.4614195683871594E+00 
    2.5347633411401884E+00 
    2.4325747262428408E+00 
    2.3211767283216114E+00 
    2.2941305931406797E+00 
    2.3821853126657051E+00 
    2.3465420617339436E+00 
    2.2799139402276927E+00 
    2.2703571300026790E+00 
    2.3196477911277591E+00 
    2.4795934200896004E+00 
    2.4135562075694983E+00 
    2.3735505354443145E+00 
    2.4303786114477681E+00 
    2.4089035094294595E+00 
    2.4118579030127689E+00 
    2.3446552899375845E+00 
    2.3353282710527097E+00 
    2.4124678217175739E+00 
    2.4107940412367950E+00 
    2.3556834005600193E+00 
    2.3513197171812368E+00 
    2.3006988410342735E+00 
    2.3067251201945758E+00 
    2.2652755296680653E+00 
    2.2618432117164615E+00 
    2.2826539620805710E+00 
    2.2927358084785983E+00 
    2.2574738214739103E+00 
    2.2520699198253449E+00 
    1.4906873737878721E+00 
    1.3686437369143765E+00 
    1.3282754255217328E+00 
    1.4353674272751185E+00 
    1.2404222345221776E+00 
    1.1010367044261329E+00 
    1.0944012073904741E+00 
    1.2159031676303673E+00 
    1.1940297109965381E+00 
    1.0911999027850996E+00 
    1.0913800062169812E+00 
    1.1754814153109350E+00 
    1.3810348371417032E+00 
    1.2897103542930610E+00 
    1.2539251188802365E+00 
    1.3287887909043929E+00 
    9.4063396998162196E-01 
    7.3946493828589721E-01 
    7.9903833645729416E-01 
    9.5825459614861641E-01 
    4.5469071751963969E-01 
    0.0000000000000000E+00 
    3.2570584684246318E-01 
    5.9805196793512261E-01 
    7.2292672397994406E-01 
    5.6360935873786722E-01 
    7.4248357196143822E-01 
    8.3143677306943764E-01 
    9.7968127545561046E-01 
    8.5956972933641485E-01 
    9.1894118657324442E-01 
    1.0039387861929727E+00 
    1.2759254579502279E+00 
    1.2092228405256999E+00 
    1.1580964401168530E+00 
    1.2251800913681101E+00 
    1.1381617085754718E+00 
    1.0605131304198938E+00 
    9.9730469494406093E-01 
    1.0831312665799055E+00 
    1.0356768733111943E+00 
    9.3793471728066002E-01 
    8.8476797052023692E-01 
    9.9903483579826480E-01 
    1.1841360768197404E+00 
    1.1168127883989107E+00 
    1.0893716709485934E+00 
    1.1584524146088613E+00 
    2.0294846499003891E+00 
    1.8971441661173358E+00 
    1.8533195710696131E+00 
    1.9620238738406324E+00 
    1.7729819250720227E+00 
    1.6529267494508095E+00 
    1.6446329649329878E+00 
    1.7479516194449649E+00 
    1.7228618432056699E+00 
    1.6360944272611182E+00 
    1.6273561472076803E+00 
    1.6977981811739640E+00 
    1.8989314166238542E+00 
    1.8104169746147234E+00 
    1.7683395879733212E+00 
    1.8387599358711053E+00 
    1.5356909702377939E+00 
    1.4217438209808471E+00 
    1.4433294084026016E+00 
    1.5430139501137348E+00 
    1.3133172856578024E+00 
    1.2152027747262009E+00 
    1.2545119824514464E+00 
    1.3465742643749379E+00 
    1.3808878614833588E+00 
    1.2984353643632720E+00 
    1.3461796627012457E+00 
    1.4163697265041939E+00 
    1.5500793390628969E+00 
    1.4649118810069006E+00 
    1.4865713133658671E+00 
    1.5569569430181844E+00 
    1.7769038112433180E+00 
    1.7153272921759446E+00 
    1.6514208948252882E+00 
    1.7127223274664050E+00 
    1.6533107717049822E+00 
    1.5912151652141950E+00 
    1.5280381515379078E+00 
    1.5896963785199945E+00 
    1.5259931006555378E+00 
    1.4647172371848329E+00 
    1.4009182978022745E+00 
    1.4617571021263227E+00 
    1.6492763956692971E+00 
    1.5876820810996304E+00 
    1.5236845568759434E+00 
    1.5859199906893597E+00 
    2.1749291153138515E+00 
    2.0633268492481345E+00 
    2.1148680423244839E+00 
    2.2028919933964657E+00 
    1.9782525885606392E+00 
    1.9052267968143743E+00 
    1.9646749607598630E+00 
    2.0359660963802786E+00 
    2.0844410898442103E+00 
    2.0194072470681741E+00 
    2.0682592992655295E+00 
    2.1246124961251307E+00 
    2.2176338077993076E+00 
    2.1511673740146464E+00 
    2.1782309677792426E+00 
    2.2273543389256627E+00 
    1.8418131813298435E+00 
    1.7851361472832563E+00 
    1.8675244162541857E+00 
    1.9090522315669773E+00 
    1.7299987571975819E+00 
    1.6755167839614469E+00 
    1.7897687345071482E+00 
    1.8280119895418820E+00 
    1.9220363555061097E+00 
    1.8994435863584109E+00 
    2.0011177708313843E+00 
    2.0093586951947850E+00 
    1.9729850344473294E+00 
    1.9463950238082017E+00 
    2.0195971607418652E+00 
    2.0320148340868016E+00 
    2.2322511391850139E+00 
    2.1910481614366826E+00 
    2.1969940169756370E+00 
    2.2355247328026344E+00 
    2.1425036501833770E+00 
    2.0879562553613944E+00 
    2.0865674855535903E+00 
    2.1469110775774771E+00 
    2.1535837567174601E+00 
    2.0873750944950697E+00 
    2.0904258241618230E+00 
    2.1628014597016554E+00 
    2.2397257991345962E+00 
    2.2048439265892750E+00 
    2.2148059642408184E+00 
    2.2450772076706293E+00 
    1.1591897017964785E+00 
    1.0901725338119712E+00 
    1.1190197480700601E+00 
    1.1860750083213585E+00 
    9.9990832986739775E-01 
    8.8561495313557548E-01 
    9.4037783740045067E-01 
    1.0381430545455927E+00 
    1.0868617194990939E+00 
    1.0011757907029077E+00 
    1.0654203777062885E+00 
    1.1427725244945786E+00 
    1.2279602325444314E+00 
    1.1614595151393725E+00 
    1.2132663771828214E+00 
    1.2792849310172567E+00 
    7.4327658448213507E-01 
    5.6426843723937836E-01 
    7.2536626735703791E-01 
    8.3386457729277230E-01 
    3.2608438309069920E-01 
    0.0000000000000000E+00 
    4.5639340767561581E-01 
    6.0019142939122705E-01 
    8.0328618424705067E-01 
    7.4339038781956390E-01 
    9.4662856741298429E-01 
    9.6413117005125792E-01 
    9.2288594899468768E-01 
    8.6371868916238048E-01 
    9.8525066205564238E-01 
    1.0090153982087260E+00 
    1.3324456471729582E+00 
    1.2583089152079934E+00 
    1.2943639735345147E+00 
    1.3849547372682720E+00 
    1.1805740740265109E+00 
    1.0969265969698339E+00 
    1.0972549980247102E+00 
    1.1995310301635278E+00 
    1.2215631507994076E+00 
    1.1007698680911315E+00 
    1.1074969239298025E+00 
    1.2460415891965073E+00 
    1.4394611146812157E+00 
    1.3329832073197119E+00 
    1.3732542399551013E+00 
    1.4948825137272568E+00 
    2.2935851550813608E+00 
    2.4344524779021333E+00 
    2.4195236120165546E+00 
    2.2893771070483599E+00 
    2.5709623756087723E+00 
    2.7011434959896468E+00 
    2.6666763105661264E+00 
    2.5457619371405791E+00 
    2.5232602937372213E+00 
    2.6344390767491705E+00 
    2.6036198302245843E+00 
    2.5027219433644126E+00 
    2.2869775413009106E+00 
    2.4071908626916536E+00 
    2.3968439444856351E+00 
    2.2860756777438569E+00 
    2.8204958000992661E+00 
    2.9281999741661533E+00 
    2.8692567786404894E+00 
    2.7739009114911104E+00 
    3.0248574548748874E+00 
    3.1084148425757596E+00 
    3.0428854039291973E+00 
    2.9590946943317409E+00 
    2.8892771711993945E+00 
    2.9666593073703207E+00 
    2.8811635136086471E+00 
    2.8148016204642623E+00 
    2.7286412208943340E+00 
    2.8098820177343469E+00 
    2.7490145309565293E+00 
    2.6838103609067621E+00 
    2.2934901542795632E+00 
    2.4074831438695452E+00 
    2.4421055428890694E+00 
    2.3117490414828374E+00 
    2.5140630204001342E+00 
    2.6141649905503135E+00 
    2.6675609698291312E+00 
    2.5597169421698411E+00 
    2.6095117786808224E+00 
    2.7233061131944383E+00 
    2.7815551723430199E+00 
    2.6639723554436325E+00 
    2.3368156811687641E+00 
    2.4827589814613993E+00 
    2.5314987284376089E+00 
    2.3740000889914774E+00 
    2.1505598189426625E+00 
    2.0071415316893138E+00 
    2.0248326273170805E+00 
    2.1573546843184417E+00 
    1.8653465055923522E+00 
    1.7266170246086106E+00 
    1.7662378663967147E+00 
    1.8941450705854996E+00 
    1.9218829260441574E+00 
    1.8048686980966528E+00 
    1.8429445235250841E+00 
    1.9489389058898225E+00 
    2.1645683917054472E+00 
    2.0419182791132151E+00 
    2.0585078345770085E+00 
    2.1719961686040499E+00 
    1.5950405496790343E+00 
    1.4711016761225035E+00 
    1.5450353617218238E+00 
    1.6502244850199885E+00 
    1.3531248753182716E+00 
    1.2424799580782648E+00 
    1.3438146549484347E+00 
    1.4428237130425496E+00 
    1.5349257019864386E+00 
    1.4517790025283048E+00 
    1.5643578418332038E+00 
    1.6294049350074837E+00 
    1.7048097585248581E+00 
    1.6193613571948535E+00 
    1.6944335481743826E+00 
    1.7593155558452973E+00 
    2.1718114721609436E+00 
    2.0543644612920011E+00 
    2.0261918095046152E+00 
    2.1607236436615400E+00 
    1.9434715632211141E+00 
    1.8375984400523797E+00 
    1.7877395928584583E+00 
    1.9032384709774086E+00 
    1.8596064256877629E+00 
    1.7365138823832382E+00 
    1.6839226536454213E+00 
    1.8119206506858094E+00 
    2.1420293329402438E+00 
    1.9920766822144700E+00 
    1.9494305210184784E+00 
    2.1095500311581539E+00 
    2.3839687736363544E+00 
    2.5389974624857596E+00 
    2.4884025718037601E+00 
    2.3444515235173342E+00 
    2.6677476823761919E+00 
    2.7812545799882611E+00 
    2.7235052899506513E+00 
    2.6124840568067307E+00 
    2.5621146479073924E+00 
    2.6681114765689502E+00 
    2.6149341370738539E+00 
    2.5160297673809255E+00 
    2.3174064035448669E+00 
    2.4463301308053018E+00 
    2.4105934917106722E+00 
    2.2975259735939213E+00 
    2.8792030503592936E+00 
    2.9644993193995539E+00 
    2.8877698872229538E+00 
    2.8136209621113353E+00 
    3.0413888077158515E+00 
    3.1081271113717035E+00 
    3.0244678455836032E+00 
    2.9579432528000180E+00 
    2.8684757156601228E+00 
    2.9278614712004765E+00 
    2.8202839116232630E+00 
    2.7734905129527432E+00 
    2.7484703096616281E+00 
    2.8089873915633632E+00 
    2.7282587165277175E+00 
    2.6837536453303779E+00 
    2.2887270156082455E+00 
    2.3989103613567946E+00 
    2.4083907467341046E+00 
    2.2885698814446096E+00 
    2.5040327363101302E+00 
    2.6041103503956426E+00 
    2.6345220664402502E+00 