# vtk DataFile Version 2.0
Pressure Field Data 
ASCII 
DATASET UNSTRUCTURED_GRID 

POINTS 801 double 

    0.0000000000000000E+00     0.0000000000000000E+00     0.0000000000000000E+00 
    1.0000000000000000E+00     0.0000000000000000E+00     0.0000000000000000E+00 
    1.0000000000000000E+00     1.0000000000000000E+00     0.0000000000000000E+00 
    0.0000000000000000E+00     1.0000000000000000E+00     0.0000000000000000E+00 
    2.5000000000000000E-01     2.5000000000000000E-01     0.0000000000000000E+00 
    7.5000000000000000E-01     2.5000000000000000E-01     0.0000000000000000E+00 
    7.5000000000000000E-01     7.5000000000000000E-01     0.0000000000000000E+00 
    2.5000000000000000E-01     7.5000000000000000E-01     0.0000000000000000E+00 
    2.4999999999941941E-01     0.0000000000000000E+00     0.0000000000000000E+00 
    4.9999999999869399E-01     0.0000000000000000E+00     0.0000000000000000E+00 
    7.4999999999934697E-01     0.0000000000000000E+00     0.0000000000000000E+00 
    1.2499999999977940E-01     0.0000000000000000E+00     0.0000000000000000E+00 
    3.7499999999905670E-01     0.0000000000000000E+00     0.0000000000000000E+00 
    6.2499999999902045E-01     0.0000000000000000E+00     0.0000000000000000E+00 
    8.7499999999967348E-01     0.0000000000000000E+00     0.0000000000000000E+00 
    6.2499999999889699E-02     0.0000000000000000E+00     0.0000000000000000E+00 
    1.8749999999959940E-01     0.0000000000000000E+00     0.0000000000000000E+00 
    3.1249999999923811E-01     0.0000000000000000E+00     0.0000000000000000E+00 
    4.3749999999887529E-01     0.0000000000000000E+00     0.0000000000000000E+00 
    5.6249999999885725E-01     0.0000000000000000E+00     0.0000000000000000E+00 
    6.8749999999918376E-01     0.0000000000000000E+00     0.0000000000000000E+00 
    8.1249999999951017E-01     0.0000000000000000E+00     0.0000000000000000E+00 
    9.3749999999983680E-01     0.0000000000000000E+00     0.0000000000000000E+00 
    1.0000000000000000E+00     2.4999999999941941E-01     0.0000000000000000E+00 
    1.0000000000000000E+00     4.9999999999869399E-01     0.0000000000000000E+00 
    1.0000000000000000E+00     7.4999999999934697E-01     0.0000000000000000E+00 
    1.0000000000000000E+00     1.2499999999977940E-01     0.0000000000000000E+00 
    1.0000000000000000E+00     3.7499999999905670E-01     0.0000000000000000E+00 
    1.0000000000000000E+00     6.2499999999902045E-01     0.0000000000000000E+00 
    1.0000000000000000E+00     8.7499999999967348E-01     0.0000000000000000E+00 
    1.0000000000000000E+00     6.2499999999889699E-02     0.0000000000000000E+00 
    1.0000000000000000E+00     1.8749999999959940E-01     0.0000000000000000E+00 
    1.0000000000000000E+00     3.1249999999923811E-01     0.0000000000000000E+00 
    1.0000000000000000E+00     4.3749999999887529E-01     0.0000000000000000E+00 
    1.0000000000000000E+00     5.6249999999885725E-01     0.0000000000000000E+00 
    1.0000000000000000E+00     6.8749999999918376E-01     0.0000000000000000E+00 
    1.0000000000000000E+00     8.1249999999951017E-01     0.0000000000000000E+00 
    1.0000000000000000E+00     9.3749999999983680E-01     0.0000000000000000E+00 
    7.5000000000112044E-01     1.0000000000000000E+00     0.0000000000000000E+00 
    5.0000000000205913E-01     1.0000000000000000E+00     0.0000000000000000E+00 
    2.5000000000102962E-01     1.0000000000000000E+00     0.0000000000000000E+00 
    8.7499999999991362E-01     1.0000000000000000E+00     0.0000000000000000E+00 
    6.2499999999988309E-01     1.0000000000000000E+00     0.0000000000000000E+00 
    3.7499999999869987E-01     1.0000000000000000E+00     0.0000000000000000E+00 
    1.2499999999880820E-01     1.0000000000000000E+00     0.0000000000000000E+00 
    9.3749999999995681E-01     1.0000000000000000E+00     0.0000000000000000E+00 
    8.1250000000051703E-01     1.0000000000000000E+00     0.0000000000000000E+00 
    6.8750000000050182E-01     1.0000000000000000E+00     0.0000000000000000E+00 
    5.6250000000097111E-01     1.0000000000000000E+00     0.0000000000000000E+00 
    4.3750000000037947E-01     1.0000000000000000E+00     0.0000000000000000E+00 
    3.1249999999986477E-01     1.0000000000000000E+00     0.0000000000000000E+00 
    1.8749999999991890E-01     1.0000000000000000E+00     0.0000000000000000E+00 
    6.2499999999404102E-02     1.0000000000000000E+00     0.0000000000000000E+00 
    0.0000000000000000E+00     7.5000000000112044E-01     0.0000000000000000E+00 
    0.0000000000000000E+00     5.0000000000205913E-01     0.0000000000000000E+00 
    0.0000000000000000E+00     2.5000000000102962E-01     0.0000000000000000E+00 
    0.0000000000000000E+00     8.7499999999991362E-01     0.0000000000000000E+00 
    0.0000000000000000E+00     6.2499999999988309E-01     0.0000000000000000E+00 
    0.0000000000000000E+00     3.7499999999869987E-01     0.0000000000000000E+00 
    0.0000000000000000E+00     1.2499999999880820E-01     0.0000000000000000E+00 
    0.0000000000000000E+00     9.3749999999995681E-01     0.0000000000000000E+00 
    0.0000000000000000E+00     8.1250000000051703E-01     0.0000000000000000E+00 
    0.0000000000000000E+00     6.8750000000050182E-01     0.0000000000000000E+00 
    0.0000000000000000E+00     5.6250000000097111E-01     0.0000000000000000E+00 
    0.0000000000000000E+00     4.3750000000037947E-01     0.0000000000000000E+00 
    0.0000000000000000E+00     3.1249999999986477E-01     0.0000000000000000E+00 
    0.0000000000000000E+00     1.8749999999991890E-01     0.0000000000000000E+00 
    0.0000000000000000E+00     6.2499999999404102E-02     0.0000000000000000E+00 
    4.9999999999972200E-01     2.5000000000000000E-01     0.0000000000000000E+00 
    3.7500000000067490E-01     2.5000000000000000E-01     0.0000000000000000E+00 
    6.2500000000042988E-01     2.5000000000000000E-01     0.0000000000000000E+00 
    3.1250000000033751E-01     2.5000000000000000E-01     0.0000000000000000E+00 
    4.3750000000019851E-01     2.5000000000000000E-01     0.0000000000000000E+00 
    5.6250000000007594E-01     2.5000000000000000E-01     0.0000000000000000E+00 
    6.8750000000021494E-01     2.5000000000000000E-01     0.0000000000000000E+00 
    7.5000000000000000E-01     4.9999999999972200E-01     0.0000000000000000E+00 
    7.5000000000000000E-01     3.7500000000067490E-01     0.0000000000000000E+00 
    7.5000000000000000E-01     6.2500000000042988E-01     0.0000000000000000E+00 
    7.5000000000000000E-01     3.1250000000033751E-01     0.0000000000000000E+00 
    7.5000000000000000E-01     4.3750000000019851E-01     0.0000000000000000E+00 
    7.5000000000000000E-01     5.6250000000007594E-01     0.0000000000000000E+00 
    7.5000000000000000E-01     6.8750000000021494E-01     0.0000000000000000E+00 
    5.0000000000118039E-01     7.5000000000000000E-01     0.0000000000000000E+00 
    6.2500000000161415E-01     7.5000000000000000E-01     0.0000000000000000E+00 
    3.7500000000140910E-01     7.5000000000000000E-01     0.0000000000000000E+00 
    6.8750000000080713E-01     7.5000000000000000E-01     0.0000000000000000E+00 
    5.6250000000139733E-01     7.5000000000000000E-01     0.0000000000000000E+00 
    4.3750000000129469E-01     7.5000000000000000E-01     0.0000000000000000E+00 
    3.1250000000070460E-01     7.5000000000000000E-01     0.0000000000000000E+00 
    2.5000000000000000E-01     5.0000000000118039E-01     0.0000000000000000E+00 
    2.5000000000000000E-01     6.2500000000161415E-01     0.0000000000000000E+00 
    2.5000000000000000E-01     3.7500000000140910E-01     0.0000000000000000E+00 
    2.5000000000000000E-01     6.8750000000080713E-01     0.0000000000000000E+00 
    2.5000000000000000E-01     5.6250000000139733E-01     0.0000000000000000E+00 
    2.5000000000000000E-01     4.3750000000129469E-01     0.0000000000000000E+00 
    2.5000000000000000E-01     3.1250000000070460E-01     0.0000000000000000E+00 
    3.7499999999934702E-01     1.2500000000000000E-01     0.0000000000000000E+00 
    1.2500000000000000E-01     1.2500000000000000E-01     0.0000000000000000E+00 
    1.2500000000000000E-01     3.7500000000102962E-01     0.0000000000000000E+00 
    8.7500000000000000E-01     1.2500000000000000E-01     0.0000000000000000E+00 
    6.2499999999934697E-01     1.2500000000000000E-01     0.0000000000000000E+00 
    8.7500000000000000E-01     3.7499999999934702E-01     0.0000000000000000E+00 
    8.7500000000000000E-01     6.2499999999934697E-01     0.0000000000000000E+00 
    1.2500000000000000E-01     6.2500000000102962E-01     0.0000000000000000E+00 
    1.2500000000000000E-01     8.7500000000000000E-01     0.0000000000000000E+00 
    8.7500000000000000E-01     8.7500000000000000E-01     0.0000000000000000E+00 
    6.2500000000102962E-01     8.7500000000000000E-01     0.0000000000000000E+00 
    3.7500000000102962E-01     8.7500000000000000E-01     0.0000000000000000E+00 
    2.4999999999957681E-01     8.3333333333333329E-02     0.0000000000000000E+00 
    8.3333333333333329E-02     2.5000000000068640E-01     0.0000000000000000E+00 
    7.4999999999956468E-01     8.3333333333333329E-02     0.0000000000000000E+00 
    4.9999999999951827E-01     1.6666666666666671E-01     0.0000000000000000E+00 
    9.1666666666666674E-01     2.4999999999957681E-01     0.0000000000000000E+00 
    8.3333333333333337E-01     4.9999999999951827E-01     0.0000000000000000E+00 
    1.6666666666666671E-01     5.0000000000088307E-01     0.0000000000000000E+00 
    8.3333333333333329E-02     7.5000000000070155E-01     0.0000000000000000E+00 
    9.1666666666666674E-01     7.4999999999956468E-01     0.0000000000000000E+00 
    5.0000000000088307E-01     8.3333333333333348E-01     0.0000000000000000E+00 
    2.5000000000068640E-01     9.1666666666666674E-01     0.0000000000000000E+00 
    7.5000000000070155E-01     9.1666666666666674E-01     0.0000000000000000E+00 
[...]
CELL_DATA 768 
SCALARS Pressure double 1 
LOOKUP_TABLE default 

    3.6392443758896245E+00 
    3.5345189331302005E+00 
    3.4969529348411270E+00 
    3.5668179056729872E+00 
    3.4528528332222455E+00 
    3.3736882560616608E+00 
    3.3658612092549456E+00 
    3.4326315223744990E+00 
    3.4098705746542972E+00 
    3.3559770386962127E+00 
    3.3444311884635645E+00 
    3.3851168498904802E+00 
    3.5071811448106840E+00 
    3.4595416062672864E+00 
    3.4212936189161005E+00 
    3.4531565566789304E+00 
    3.2904405044289584E+00 
    3.2045844225041584E+00 
    3.2210206919286235E+00 
    3.2945262612548465E+00 
    3.1141800758958054E+00 
    3.0100999984596015E+00 
    3.0601329448215453E+00 
    3.1446001298512196E+00 
    3.1725180145009206E+00 
    3.1046909612004194E+00 
    3.1448417177467931E+00 
    3.1980287685909041E+00 
    3.2969094667266292E+00 
    3.2357396243136680E+00 
    3.2485666278997978E+00 
    3.2976834380297668E+00 
    3.4004928626691684E+00 
    3.3777123484727536E+00 
    3.3319272305200873E+00 
    3.3505609344155340E+00 
    3.3494426456026289E+00 
    3.3160876530368486E+00 
    3.2729108994020626E+00 
    3.3057637368695385E+00 
    3.2633542950973653E+00 
    3.2292026298675114E+00 
    3.1838091840977394E+00 
    3.2205506071358760E+00 
    3.3063827055127066E+00 
    3.2897226009932412E+00 
    3.2501044189657549E+00 
    3.2686603846872018E+00 
    3.6392986901009641E+00 
    3.5669070978773734E+00 
    3.4972947849576297E+00 
    3.5348100202870141E+00 
    3.5073044711354764E+00 
    3.4532981878379787E+00 
    3.4216816600651314E+00 
    3.4599089690205242E+00 
    3.4104859888687082E+00 
    3.3856710431395811E+00 
    3.3451808168695369E+00 
    3.3568583345989502E+00 
    3.4534302694010761E+00 
    3.4332361761897299E+00 
    3.3668230399917576E+00 
    3.3746548617994980E+00 
    3.4006374862355386E+00 
    3.3506433654655261E+00 
    3.3321150805438040E+00 
    3.3780658557028289E+00 
    3.3064011527145225E+00 
    3.2687849720671243E+00 
    3.2504360966956445E+00 
    3.2898094408247465E+00 
    3.2635391371512150E+00 
    3.2209801419008506E+00 
    3.1843723250097851E+00 
    3.2296574903661832E+00 
    3.3499126375163475E+00 
    3.3060029412531722E+00 
    3.2733582810204478E+00 
    3.3166832725580910E+00 
    3.2917301846853486E+00 
    3.2957253623580534E+00 
    3.2221917218647897E+00 
    3.2058323963994679E+00 
    3.2979476470130753E+00 
    3.2984859377958942E+00 
    3.2492868042718044E+00 
    3.2367126353845168E+00 
    3.1734550038836549E+00 
    3.1987266399495824E+00 
    3.1455163915675528E+00 
    3.1057034391810912E+00 
    3.1153998493380906E+00 
    3.1457114359496647E+00 
    3.0614382676837089E+00 
    3.0116475153893800E+00 
    2.8171867492593639E+00 
    2.7013190814872985E+00 
    2.6626212978627750E+00 
    2.7610135372868432E+00 
    2.5913739413889645E+00 
    2.4900048389820650E+00 
    2.4817174268034723E+00 
    2.5686797283940765E+00 
    2.5442326347241595E+00 
    2.4713771803438878E+00 
    2.4588281762009081E+00 
    2.5175042468221944E+00 
    2.7051793533115243E+00 
    2.6228709571742752E+00 
    2.5811429839390230E+00 
    2.6481335188287254E+00 
    2.4012905173350920E+00 
    2.3293419777997051E+00 
    2.3382981316164213E+00 
    2.4041427125815491E+00 
    2.2776074855385695E+00 
    2.2473846178101837E+00 
    2.2525286547568326E+00 
    2.2873009935047390E+00 
    2.2948334763865050E+00 
    2.2564220387208898E+00 
    2.2593655389591527E+00 
    2.3004162835614981E+00 
    2.4047270643738456E+00 
    2.3446559394990625E+00 
    2.3487526971649166E+00 
    2.4031001465657940E+00 
    2.5845588158515902E+00 
    2.5254582661018854E+00 
    2.4542314104154976E+00 
    2.5115587655267060E+00 
    2.4710452204683606E+00 
    2.4225020090330829E+00 
    2.3662980506647417E+00 
    2.4060878914508890E+00 
    2.3395424139028136E+00 
    2.3128521489498053E+00 
    2.2638945891376361E+00 
    2.2732495286420313E+00 
    2.4266312979710913E+00 
    2.3754631045345880E+00 
    2.2876310816683851E+00 
    2.3152339299096161E+00 
    2.9128864332535267E+00 
    2.8433232538071320E+00 
    2.9059210725969771E+00 
    2.9777785405828627E+00 
    2.7777551604752682E+00 
    2.7127997649228770E+00 
    2.7738713965221575E+00 
    2.8386165329440112E+00 
    2.8992641118907652E+00 
    2.8350165057451360E+00 
    2.8956214798333244E+00 
    2.9587590751738295E+00 
    3.0369198181226005E+00 
    2.9676975021539116E+00 
    3.0262070516741768E+00 
    3.0893467345772687E+00 
    2.6506233475217940E+00 
    2.5904114849371855E+00 
    2.6782127406937013E+00 
    2.7204812813954931E+00 
    2.5274754825218726E+00 
    2.4602984267675878E+00 
    2.5918174161437424E+00 
    2.6353990701296817E+00 
    2.7394673574242785E+00 
    2.7146071572716455E+00 
    2.8321791208847151E+00 
    2.8405734000505412E+00 
    2.7901158965995205E+00 
    2.7646503207454072E+00 
    2.8495546779022081E+00 
    2.8590858900293163E+00 
    3.1326191824175296E+00 
    3.0683118345437284E+00 
    3.0962655982172311E+00 
    3.1682345175015816E+00 
    2.9961462071410563E+00 
    2.9275893964653155E+00 
    2.9327797960544872E+00 
    3.0140106450851700E+00 
    3.0324247448422614E+00 
    2.9385252436350662E+00 
    2.9449363415397793E+00 
    3.0514459270168302E+00 
    3.2007631281064106E+00 
    3.1226956426506089E+00 
    3.1491167233306987E+00 
    3.2304721804731593E+00 
    2.2402361284582328E+00 
    2.2093350788293105E+00 
    2.1991464227133068E+00 
    2.2346147118725495E+00 
    2.1564847891915822E+00 
    2.0833504748321516E+00 
    2.0803873474446921E+00 
    2.1472100397579470E+00 
    2.1404398491839678E+00 
    2.0797102592003549E+00 
    2.0812292008472011E+00 
    2.1360191978159966E+00 
    2.2300049753280198E+00 
    2.1910544976485919E+00 
    2.1848666082392061E+00 
    2.2263286170292402E+00 
    1.9942214725306622E+00 
    1.8934602249868691E+00 
    1.9159238785376598E+00 
    2.0025212739064977E+00 
    1.7852688270003407E+00 
    1.6725001357275415E+00 
    1.7264986027647045E+00 
    1.8231523985180871E+00 
    1.8623609414734430E+00 
    1.7812336961927988E+00 
    1.8374896891831731E+00 
    1.9037188759487293E+00 
    2.0128542491121988E+00 
    1.9402697756181242E+00 
    1.9668857539541871E+00 
    2.0254174943706986E+00 
    2.2209849241759159E+00 
    2.1717781859191594E+00 
    2.1447535319180764E+00 
    2.2111759008973584E+00 
    2.1180908681794337E+00 
    2.0617196417285011E+00 
    2.0132285344744121E+00 
    2.0781715499532663E+00 
    2.0301344251714446E+00 
    1.9591458528551264E+00 
    1.9005349859814953E+00 
    1.9731544397900580E+00 
    2.1966378075908817E+00 
    2.1088433176363703E+00 
    2.0578663146073741E+00 
    2.1691645771270887E+00 
    2.0243526755967762E+00 
    1.9574141980753681E+00 
    1.8501749632327955E+00 
    1.8935007269829007E+00 
    1.8948305122635121E+00 
    1.8351411454397986E+00 
    1.7659686764558309E+00 
    1.8077116846584176E+00 
    1.7217412477713734E+00 
    1.6966920639697873E+00 
    1.6273654552143386E+00 
    1.6363028053318895E+00 
    1.7713190034385415E+00 
    1.7465692643191815E+00 
    1.6448950100966302E+00 
    1.6530779913453402E+00 
    1.7737345727263187E+00 
    1.7099797689857474E+00 
    1.6497191465962944E+00 
    1.7132982448362091E+00 
    1.6467451451842099E+00 
    1.5835002731566807E+00 
    1.5217100568048698E+00 
    1.5859490860753751E+00 
    1.5249415667730521E+00 
    1.4601004324157583E+00 
    1.3995003477078631E+00 
    1.4640395837341094E+00 
    1.6523732521630112E+00 
    1.5888625546416035E+00 
    1.5278346038423021E+00 
    1.5910951603203651E+00 
    1.5369522873585810E+00 
    1.5440930276251488E+00 
    1.4441029729396013E+00 
    1.4224803283121576E+00 
    1.5508394981254192E+00 
    1.5572618880322455E+00 
    1.4866817666185383E+00 
    1.4653541299964488E+00 
    1.3806732683080121E+00 
    1.4158544758132607E+00 
    1.3448415981545965E+00 
    1.2972788960612625E+00 
    1.3131620212811752E+00 
    1.3464222678918512E+00 
    1.2535389750964918E+00 
    1.2143867212897990E+00 
    3.2307569838198900E+00 
    3.1490008357225960E+00 
    3.1225711759494685E+00 
    3.2010169410392093E+00 
    3.0518863267787468E+00 
    2.9450826643190720E+00 
    2.9387204949814598E+00 
    3.0329719878338071E+00 
    3.0147556353831995E+00 
    2.9331080177067412E+00 
    2.9281333000995904E+00 
    2.9972526944592222E+00 
    3.1684783047396001E+00 
    3.0964451332991967E+00 
    3.0690242174776405E+00 
    3.1330235666948121E+00 
    2.8323327397396194E+00 
    2.7152699656805179E+00 
    2.7400722751996041E+00 
    2.8407798412972740E+00 
    2.5931630381862587E+00 
    2.4621708561680569E+00 
    2.5291981395114167E+00 
    2.6365878761643784E+00 
    2.6792940151242184E+00 
    2.5919882508049690E+00 
    2.6520583681938592E+00 
    2.7215089196109106E+00 
    2.8498713635873574E+00 
    2.7652716972353968E+00 
    2.7908045199291380E+00 
    2.8595866249697637E+00 
    3.0901489930514923E+00 
    3.0276609399172063E+00 
    2.9694101559205208E+00 
    3.0383795454609497E+00 
    2.9601008610895323E+00 
    2.8963142763656955E+00 
    2.8357785876009025E+00 
    2.9003998524699401E+00 
    2.8397151250422814E+00 
    2.7749068245931823E+00 
    2.7141711282715466E+00 
    2.7791301995817324E+00 
    2.9793351550803782E+00 
    2.9073039525994129E+00 
    2.8447899036246134E+00 
    2.9145461682603893E+00 
    2.8188330706561846E+00 
    2.7626506399553916E+00 
    2.6644902177560112E+00 
    2.7031657140122523E+00 
    2.7068353956669471E+00 
    2.6498394075593259E+00 
    2.5830958278848648E+00 
    2.6247653717240098E+00 
    2.5462465167377135E+00 
    2.5195380137703558E+00 
    2.4607655126879715E+00 
    2.4732054791044282E+00 
    2.5933070692316709E+00 
    2.5706163511621059E+00 
    2.4834315374721703E+00 
    2.4916132175182009E+00 
    2.5863400979947713E+00 
    2.5134603843891323E+00 
    2.4562787194635805E+00 
    2.5274218944884406E+00 
    2.4286080873014293E+00 
    2.3172375768894664E+00 
    2.2897273048501416E+00 
    2.3775276365446696E+00 
    2.3415325615384308E+00 
    2.2752151245747805E+00 
    2.2655134227067912E+00 
    2.3145267336485285E+00 
    2.4730600625246630E+00 
    2.4080971430820486E+00 
    2.3680806409247688E+00 
    2.4243768666295575E+00 
    2.4024705803554118E+00 
    2.4054488857821390E+00 
    2.3390120862565555E+00 
    2.3297574449386107E+00 
    2.4061782219630410E+00 
    2.4047154918875320E+00 
    2.3501351243041233E+00 
    2.3456800476388868E+00 
    2.2954989620524877E+00 
    2.3015483336508944E+00 
    2.2603788837248668E+00 
    2.2569444838171395E+00 
    2.2775826818643785E+00 
    2.2875770830494653E+00 
    2.2526090448462517E+00 
    2.2472505485708489E+00 
    1.4925459059687636E+00 
    1.3701333273520477E+00 
    1.3296413310427897E+00 
    1.4370522238898484E+00 
    1.2415543886105014E+00 
    1.1018367160288887E+00 
    1.0951743641859331E+00 
    1.2169617569514044E+00 
    1.1950090016087567E+00 
    1.0919396915586606E+00 
    1.0920792990134802E+00 
    1.1763739705432505E+00 
    1.3825422271534635E+00 
    1.2909480820336936E+00 
    1.2550275896596141E+00 
    1.3301123707188687E+00 
    9.4114354810133449E-01 
    7.3973958150143571E-01 
    7.9934255248458330E-01 
    9.5877374542063298E-01 
    4.5479521901403197E-01 
    0.0000000000000000E+00 
    3.2572917827878717E-01 
    5.9818977817682450E-01 
    7.2308984436398871E-01 
    5.6364776298404962E-01 
    7.4253189787747231E-01 
    8.3161832464880681E-01 
    9.8020272211150372E-01 
    8.5989507251586628E-01 
    9.1928024398570019E-01 
    1.0044554216808634E+00 
    1.2770419325279507E+00 
    1.2101434158733222E+00 
    1.1587834079145742E+00 
    1.2260573121711673E+00 
    1.1389024057379149E+00 
    1.0610938106677050E+00 
    9.9770146845874186E-01 
    1.0836591086399929E+00 
    1.0359866439252761E+00 
    9.3815692746938983E-01 
    8.8483060926443069E-01 
    9.9912755925478647E-01 
    1.1847340554224577E+00 
    1.1172412111523209E+00 
    1.0895115648046036E+00 
    1.1586836898007000E+00 
    2.0258911098992374E+00 
    1.8939710125569387E+00 
    1.8502874477690807E+00 
    1.9586277901232108E+00 
    1.7702288085005236E+00 
    1.6505832570074561E+00 
    1.6423153928698833E+00 
    1.7452811585396839E+00 
    1.7202749433723807E+00 
    1.6338031510974906E+00 
    1.6250912181435797E+00 
    1.6952942987038635E+00 
    1.8957395624455651E+00 
    1.8075291369659996E+00 
    1.7655942061904930E+00 
    1.8357716067439489E+00 
    1.5337441689577136E+00 
    1.4201878160066270E+00 
    1.4416918945682131E+00 
    1.5410393260264861E+00 
    1.3121615168648129E+00 
    1.2144763864221813E+00 
    1.2535657813074910E+00 
    1.3452765332140544E+00 
    1.3794516063690165E+00 
    1.2972845624119693E+00 
    1.3448347560535114E+00 
    1.4147983089601959E+00 
    1.5480770369536188E+00 
    1.4631931045014823E+00 
    1.4847720748575919E+00 
    1.5549271006684369E+00 
    1.7741270994033855E+00 
    1.7127611503454265E+00 
    1.6490662505266145E+00 
    1.7101608883533415E+00 
    1.6509544639617826E+00 
    1.5890677565171774E+00 
    1.5260956349430139E+00 
    1.5875473590159799E+00 
    1.5240465623555635E+00 
    1.4629755187044000E+00 
    1.3993747834202390E+00 
    1.4600085863024508E+00 
    1.6469224172625350E+00 
    1.5855312543956066E+00 
    1.5217336568039226E+00 
    1.5837672948347519E+00 
    2.1710743403211090E+00 
    2.0596564405571773E+00 
    2.1109640120329711E+00 
    2.1987418816691293E+00 
    1.9748048210529017E+00 
    1.9020103554961598E+00 
    1.9612449523408679E+00 
    2.0323024893170158E+00 
    2.0805630189586375E+00 
    2.0157669644040892E+00 
    2.0644137663837543E+00 
    2.1205346811213359E+00 
    2.2132259245317787E+00 
    2.1470399599288270E+00 
    2.1739092442208161E+00 
    2.2227692558219729E+00 
    1.8388114924032477E+00 
    1.7823280121999168E+00 
    1.8644273054110663E+00 
    1.9058113098846032E+00 
    1.7273759441176912E+00 
    1.6730728709442093E+00 
    1.7869394707025610E+00 
    1.8250509089876417E+00 
    1.9187385535605717E+00 
    1.8962250063685406E+00 
    1.9975175761450150E+00 
    2.0057276077778239E+00 
    1.9695076625951118E+00 
    1.9430096019879501E+00 
    2.0159289969526091E+00 
    2.0283043725989183E+00 
    2.2275761690162312E+00 
    2.1866185496714969E+00 
    2.1925157148718553E+00 
    2.2308113943647601E+00 
    2.1383193771898497E+00 
    2.0840148823886526E+00 
    2.0826238859305475E+00 
    2.1426927367466404E+00 
    2.1493268696014849E+00 
    2.0834220106717614E+00 
    2.0864547658431203E+00 
    2.1584933011162089E+00 
    2.2349868644385960E+00 
    2.2003144118633946E+00 
    2.2102168628263552E+00 
    2.2403030950823859E+00 
    1.1589400454790511E+00 
    1.0900135647913494E+00 
    1.1185722737578623E+00 
    1.1854595337397449E+00 
    9.9979791310826516E-01 
    8.8553808366231845E-01 
    9.4013973665643880E-01 
    1.0378148652748009E+00 
    1.0863147078541950E+00 
    1.0007615336540585E+00 
    1.0648209164785560E+00 
    1.1420128154781048E+00 
    1.2270669273336283E+00 
    1.1607541911181420E+00 
    1.2123286046384432E+00 
    1.2781546980832608E+00 
    7.4321874382361119E-01 
    5.6422477561491902E-01 
    7.2519456932205251E-01 
    8.3367090278951017E-01 
    3.2605903623555454E-01 
    0.0000000000000000E+00 
    4.5628548152464821E-01 
    6.0004785091333135E-01 
    8.0297156097342870E-01 
    7.4310702355527047E-01 
    9.4610442595870958E-01 
    9.6359678054940878E-01 
    9.2253210390996621E-01 
    8.6338081340223527E-01 
    9.8471312831873314E-01 
    1.0084817807122157E+00 
    1.3311109612565153E+00 
    1.2571911022988227E+00 
    1.2931127479885527E+00 
    1.3834388458798361E+00 
    1.1796636011777453E+00 
    1.0962089369386498E+00 
    1.0964973631703767E+00 
    1.1985347415930294E+00 
    1.2204884570029781E+00 
    1.0999794665557818E+00 
    1.1066801834395283E+00 
    1.2448944604505958E+00 
    1.4377691413550211E+00 
    1.3316056355806840E+00 
    1.3717542861543517E+00 
    1.4930163132501861E+00 
    2.3126908515469271E+00 
    2.4591169022428323E+00 
    2.4424485075084079E+00 
    2.3075031411064622E+00 
    2.6025982270039143E+00 
    2.7415741135557554E+00 
    2.7029980616202383E+00 
    2.5746373159696891E+00 
    2.5485880479825340E+00 
    2.6660257792698845E+00 
    2.6300915235852944E+00 
    2.5239888962115753E+00 
    2.3032460730497530E+00 
    2.4275140612582713E+00 
    2.4139796075620952E+00 
    2.2998649980643910E+00 
    2.8717018454812542E+00 
    2.9922271592188170E+00 
    2.9225794172559856E+00 
    2.8185450667010525E+00 
    3.1043106206123632E+00 
    3.2059853677697188E+00 
    3.1181882425881544E+00 
    3.0226025333267557E+00 
    2.9370506311243023E+00 
    3.0203912419445031E+00 
    2.9148683393592281E+00 
    2.8477522303210634E+00 
    2.7662996686630463E+00 
    2.8523202846876861E+00 
    2.7808958160428170E+00 
    2.7143502025341912E+00 
    2.3047094242749537E+00 
    2.4218417299833033E+00 
    2.4539485660512841E+00 
    2.3205458189941823E+00 
    2.5324512884999697E+00 
    2.6378356876499915E+00 
    2.6901690703785892E+00 
    2.5759259356085153E+00 
    2.6229508996494455E+00 
    2.7441169837619035E+00 
    2.7996849622485800E+00 
    2.6741180617447124E+00 
    2.3435642501734155E+00 
    2.4919485217481179E+00 
    2.5381851439856233E+00 
    2.3795097213018064E+00 
    2.1648431439198164E+00 
    2.0177383295845348E+00 
    2.0349382862625851E+00 
    2.1706222810839484E+00 
    1.8729124091053431E+00 
    1.7317048229431604E+00 
    1.7714026139734895E+00 
    1.9015684970507660E+00 
    1.9287797049329127E+00 
    1.8098714813982848E+00 
    1.8475196908095310E+00 
    1.9549064193779286E+00 
    2.1760137081225301E+00 
    2.0509591902527968E+00 
    2.0659433156988816E+00 
    2.1809150478248251E+00 
    1.5981616545560917E+00 
    1.4726928334600893E+00 
    1.5467663178279156E+00 
    1.6535277991046982E+00 
    1.3535728878083153E+00 
    1.2421342036363812E+00 
    1.3431595351019587E+00 
    1.4432425731249183E+00 
    1.5352691694494405E+00 
    1.4508407477715486E+00 
    1.5631123592059766E+00 
    1.6295736560289880E+00 
    1.7081325823740281E+00 
    1.6211211321908021E+00 
    1.6960631200876646E+00 
    1.7624606136110628E+00 
    2.1776538143202862E+00 
    2.0595361716444796E+00 
    2.0288167348225623E+00 
    2.1633171929506636E+00 
    1.9477885389219203E+00 
    1.8409932135017442E+00 
    1.7894904738184008E+00 
    1.9055179277592846E+00 
    1.8598390437557382E+00 
    1.7366228673749655E+00 
    1.6823902445504868E+00 
    1.8101221441269699E+00 
    2.1415752931262486E+00 
    1.9921947384556666E+00 
    1.9472007578878856E+00 
    2.1065583169514324E+00 
    2.3812022591858999E+00 
    2.5394221922511169E+00 
    2.4928720045227095E+00 
    2.3447754893040904E+00 
    2.6747592180728770E+00 
    2.7998373746416862E+00 
    2.7442590779153853E+00 
    2.6234765928130157E+00 
    2.5763511490821265E+00 
    2.6903254950750308E+00 
    2.6380023117358569E+00 
    2.5327925412801804E+00 
    2.3213547198160791E+00 
    2.4546407503111611E+00 
    2.4223140676581920E+00 
    2.3051913113630285E+00 
    2.9149701067379206E+00 
    3.0207030720186965E+00 
    2.9371625473628997E+00 
    2.8478167421883622E+00 
    3.1181661359536426E+00 
    3.2060967345517923E+00 
    3.1043143559778534E+00 
    3.0226097803706873E+00 
    2.9225681433077231E+00 
    2.9921995570821505E+00 
    2.8716807961837589E+00 
    2.8185382287235505E+00 
    2.7809604545520172E+00 
    2.8523693416950890E+00 
    2.7663249686796680E+00 
    2.7144279892103595E+00 
    2.3000387885141227E+00 
    2.4142293060941045E+00 
    2.4276130091034900E+00 
    2.3032391622631048E+00 
    2.5242029419839973E+00 
    2.6302155493506727E+00 
    2.6660800548090524E+00 