# vtk DataFile Version 2.0
Pressure Field Data 
ASCII 
DATASET UNSTRUCTURED_GRID 

POINTS 801 double 

    0.0000000000000000E+00     0.0000000000000000E+00     0.0000000000000000E+00 
    1.0000000000000000E+00     0.0000000000000000E+00     0.0000000000000000E+00 
    1.0000000000000000E+00     1.0000000000000000E+00     0.0000000000000000E+00 
    0.0000000000000000E+00     1.0000000000000000E+00     0.0000000000000000E+00 
    2.5000000000000000E-01     2.5000000000000000E-01     0.0000000000000000E+00 
    7.5000000000000000E-01     2.5000000000000000E-01     0.0000000000000000E+00 
    7.5000000000000000E-01     7.5000000000000000E-01     0.0000000000000000E+00 
    2.5000000000000000E-01     7.5000000000000000E-01     0.0000000000000000E+00 
    2.4999999999941941E-01     0.0000000000000000E+00     0.0000000000000000E+00 
    4.9999999999869399E-01     0.0000000000000000E+00     0.0000000000000000E+00 
    7.4999999999934697E-01     0.0000000000000000E+00     0.0000000000000000E+00 
    1.2499999999977940E-01     0.0000000000000000E+00     0.0000000000000000E+00 
    3.7499999999905670E-01     0.0000000000000000E+00     0.0000000000000000E+00 
    6.2499999999902045E-01     0.0000000000000000E+00     0.0000000000000000E+00 
    8.7499999999967348E-01     0.0000000000000000E+00     0.0000000000000000E+00 
    6.2499999999889699E-02     0.0000000000000000E+00     0.0000000000000000E+00 
    1.8749999999959940E-01     0.0000000000000000E+00     0.0000000000000000E+00 
    3.1249999999923811E-01     0.0000000000000000E+00     0.0000000000000000E+00 
    4.3749999999887529E-01     0.0000000000000000E+00     0.0000000000000000E+00 
    5.6249999999885725E-01     0.0000000000000000E+00     0.0000000000000000E+00 
    6.8749999999918376E-01     0.0000000000000000E+00     0.0000000000000000E+00 
    8.1249999999951017E-01     0.0000000000000000E+00     0.0000000000000000E+00 
    9.3749999999983680E-01     0.0000000000000000E+00     0.0000000000000000E+00 
    1.0000000000000000E+00     2.4999999999941941E-01     0.0000000000000000E+00 
    1.0000000000000000E+00     4.9999999999869399E-01     0.0000000000000000E+00 
    1.0000000000000000E+00     7.4999999999934697E-01     0.0000000000000000E+00 
    1.0000000000000000E+00     1.2499999999977940E-01     0.0000000000000000E+00 
    1.0000000000000000E+00     3.7499999999905670E-01     0.0000000000000000E+00 
    1.0000000000000000E+00     6.2499999999902045E-01     0.0000000000000000E+00 
    1.0000000000000000E+00     8.7499999999967348E-01     0.0000000000000000E+00 
    1.0000000000000000E+00     6.2499999999889699E-02     0.0000000000000000E+00 
    1.0000000000000000E+00     1.8749999999959940E-01     0.0000000000000000E+00 
    1.0000000000000000E+00     3.1249999999923811E-01     0.0000000000000000E+00 
    1.0000000000000000E+00     4.3749999999887529E-01     0.0000000000000000E+00 
    1.0000000000000000E+00     5.6249999999885725E-01     0.0000000000000000E+00 
    1.0000000000000000E+00     6.8749999999918376E-01     0.0000000000000000E+00 
    1.0000000000000000E+00     8.1249999999951017E-01     0.0000000000000000E+00 
    1.0000000000000000E+00     9.3749999999983680E-01     0.0000000000000000E+00 
    7.5000000000112044E-01     1.0000000000000000E+00     0.0000000000000000E+00 
    5.0000000000205913E-01     1.0000000000000000E+00     0.0000000000000000E+00 
    2.5000000000102962E-01     1.0000000000000000E+00     0.0000000000000000E+00 
    8.7499999999991362E-01     1.0000000000000000E+00     0.0000000000000000E+00 
    6.2499999999988309E-01     1.0000000000000000E+00     0.0000000000000000E+00 
    3.7499999999869987E-01     1.0000000000000000E+00     0.0000000000000000E+00 
    1.2499999999880820E-01     1.0000000000000000E+00     0.0000000000000000E+00 
    9.3749999999995681E-01     1.0000000000000000E+00     0.0000000000000000E+00 
    8.1250000000051703E-01     1.0000000000000000E+00     0.0000000000000000E+00 
    6.8750000000050182E-01     1.0000000000000000E+00     0.0000000000000000E+00 
    5.6250000000097111E-01     1.0000000000000000E+00     0.0000000000000000E+00 
    4.3750000000037947E-01     1.0000000000000000E+00     0.0000000000000000E+00 
    3.1249999999986477E-01     1.0000000000000000E+00     0.0000000000000000E+00 
    1.8749999999991890E-01     1.0000000000000000E+00     0.0000000000000000E+00 
    6.2499999999404102E-02     1.0000000000000000E+00     0.0000000000000000E+00 
    0.0000000000000000E+00     7.5000000000112044E-01     0.0000000000000000E+00 
    0.0000000000000000E+00     5.0000000000205913E-01     0.0000000000000000E+00 
    0.0000000000000000E+00     2.5000000000102962E-01     0.0000000000000000E+00 
    0.0000000000000000E+00     8.7499999999991362E-01     0.0000000000000000E+00 
    0.0000000000000000E+00     6.2499999999988309E-01     0.0000000000000000E+00 
    0.0000000000000000E+00     3.7499999999869987E-01     0.0000000000000000E+00 
    0.0000000000000000E+00     1.2499999999880820E-01     0.0000000000000000E+00 
    0.0000000000000000E+00     9.3749999999995681E-01     0.0000000000000000E+00 
    0.0000000000000000E+00     8.1250000000051703E-01     0.0000000000000000E+00 
    0.0000000000000000E+00     6.8750000000050182E-01     0.0000000000000000E+00 
    0.0000000000000000E+00     5.6250000000097111E-01     0.0000000000000000E+00 
    0.0000000000000000E+00     4.3750000000037947E-01     0.0000000000000000E+00 
    0.0000000000000000E+00     3.1249999999986477E-01     0.0000000000000000E+00 
    0.0000000000000000E+00     1.8749999999991890E-01     0.0000000000000000E+00 
    0.0000000000000000E+00     6.2499999999404102E-02     0.0000000000000000E+00 
    4.9999999999972200E-01     2.5000000000000000E-01     0.0000000000000000E+00 
    3.7500000000067490E-01     2.5000000000000000E-01     0.0000000000000000E+00 
    6.2500000000042988E-01     2.5000000000000000E-01     0.0000000000000000E+00 
    3.1250000000033751E-01     2.5000000000000000E-01     0.0000000000000000E+00 
    4.3750000000019851E-01     2.5000000000000000E-01     0.0000000000000000E+00 
    5.6250000000007594E-01     2.5000000000000000E-01     0.0000000000000000E+00 
    6.8750000000021494E-01     2.5000000000000000E-01     0.0000000000000000E+00 
    7.5000000000000000E-01     4.9999999999972200E-01     0.0000000000000000E+00 
    7.5000000000000000E-01     3.7500000000067490E-01     0.0000000000000000E+00 
    7.5000000000000000E-01     6.2500000000042988E-01     0.0000000000000000E+00 
    7.5000000000000000E-01     3.1250000000033751E-01     0.0000000000000000E+00 
    7.5000000000000000E-01     4.3750000000019851E-01     0.0000000000000000E+00 
    7.5000000000000000E-01     5.6250000000007594E-01     0.0000000000000000E+00 
    7.5000000000000000E-01     6.8750000000021494E-01     0.0000000000000000E+00 
    5.0000000000118039E-01     7.5000000000000000E-01     0.0000000000000000E+00 
    6.2500000000161415E-01     7.5000000000000000E-01     0.0000000000000000E+00 
    3.7500000000140910E-01     7.5000000000000000E-01     0.0000000000000000E+00 
    6.8750000000080713E-01     7.5000000000000000E-01     0.0000000000000000E+00 
    5.6250000000139733E-01     7.5000000000000000E-01     0.0000000000000000E+00 
    4.3750000000129469E-01     7.5000000000000000E-01     0.0000000000000000E+00 
    3.1250000000070460E-01     7.5000000000000000E-01     0.0000000000000000E+00 
    2.5000000000000000E-01     5.0000000000118039E-01     0.0000000000000000E+00 
    2.5000000000000000E-01     6.2500000000161415E-01     0.0000000000000000E+00 
    2.5000000000000000E-01     3.7500000000140910E-01     0.0000000000000000E+00 
    2.5000000000000000E-01     6.8750000000080713E-01     0.0000000000000000E+00 
    2.5000000000000000E-01     5.6250000000139733E-01     0.0000000000000000E+00 
    2.5000000000000000E-01     4.3750000000129469E-01     0.0000000000000000E+00 
    2.5000000000000000E-01     3.1250000000070460E-01     0.0000000000000000E+00 
    3.7499999999934702E-01     1.2500000000000000E-01     0.0000000000000000E+00 
    1.2500000000000000E-01     1.2500000000000000E-01     0.0000000000000000E+00 
    1.2500000000000000E-01     3.7500000000102962E-01     0.0000000000000000E+00 
    8.7500000000000000E-01     1.2500000000000000E-01     0.0000000000000000E+00 
    6.2499999999934697E-01     1.2500000000000000E-01     0.0000000000000000E+00 
    8.7500000000000000E-01     3.7499999999934702E-01     0.0000000000000000E+00 
    8.7500000000000000E-01     6.2499999999934697E-01     0.0000000000000000E+00 
    1.2500000000000000E-01     6.2500000000102962E-01     0.0000000000000000E+00 
    1.2500000000000000E-01     8.7500000000000000E-01     0.0000000000000000E+00 
    8.7500000000000000E-01     8.7500000000000000E-01     0.0000000000000000E+00 
    6.2500000000102962E-01     8.7500000000000000E-01     0.0000000000000000E+00 
    3.7500000000102962E-01     8.7500000000000000E-01     0.0000000000000000E+00 
    2.4999999999957681E-01     8.3333333333333329E-02     0.0000000000000000E+00 
    8.3333333333333329E-02     2.5000000000068640E-01     0.0000000000000000E+00 
    7.4999999999956468E-01     8.3333333333333329E-02     0.0000000000000000E+00 
    4.9999999999951827E-01     1.6666666666666671E-01     0.0000000000000000E+00 
    9.1666666666666674E-01     2.4999999999957681E-01     0.0000000000000000E+00 
    8.3333333333333337E-01     4.9999999999951827E-01     0.0000000000000000E+00 
    1.6666666666666671E-01     5.0000000000088307E-01     0.0000000000000000E+00 
    8.3333333333333329E-02     7.5000000000070155E-01     0.0000000000000000E+00 
    9.1666666666666674E-01     7.4999999999956468E-01     0.0000000000000000E+00 
    5.0000000000088307E-01     8.3333333333333348E-01     0.0000000000000000E+00 
    2.5000000000068640E-01     9.1666666666666674E-01     0.0000000000000000E+00 
    7.5000000000070155E-01     9.1666666666666674E-01     0.0000000000000000E+00 
[...]
CELL_DATA 768 
SCALARS Pressure double 1 
LOOKUP_TABLE default 

    3.9621152582995243E+00 
    3.8282327623915515E+00 
    3.7715268229707761E+00 
    3.8724077597645223E+00 
    3.6986765418330494E+00 
    3.5479858896574754E+00 
    3.5329411238318493E+00 
    3.6625772573139486E+00 
    3.6203079157098315E+00 
    3.5125402550195455E+00 
    3.4861523597542083E+00 
    3.5700735919706865E+00 
    3.7850013863048195E+00 
    3.7080011191966773E+00 
    3.6387832441590326E+00 
    3.6945972722406313E+00 
    3.3835197486460178E+00 
    3.2432772031991557E+00 
    3.2679684062038015E+00 
    3.3902692289082577E+00 
    3.1158269424889755E+00 
    2.9942558732774476E+00 
    3.0496666303100248E+00 
    3.1561957148463380E+00 
    3.1948558466313255E+00 
    3.1041380971592738E+00 
    3.1565044904379480E+00 
    3.2307842942998701E+00 
    3.3934505730642210E+00 
    3.2900644425905070E+00 
    3.3088349682891485E+00 
    3.3933088238490603E+00 
    3.5921565019146420E+00 
    3.5466758915128209E+00 
    3.4467346708535644E+00 
    3.4808948160552653E+00 
    3.4896663726555621E+00 
    3.4252062638706313E+00 
    3.3461956921329503E+00 
    3.4009187225085773E+00 
    3.3263127319151726E+00 
    3.2754206280701141E+00 
    3.2092840656548161E+00 
    3.2598495980826567E+00 
    3.3937963516669498E+00 
    3.3669718990902431E+00 
    3.3005481290475185E+00 
    3.3261729475728670E+00 
    3.9621786301766511E+00 
    3.8724943219173360E+00 
    3.7718046741167179E+00 
    3.8284736325969617E+00 
    3.7851186038562141E+00 
    3.6947373427948222E+00 
    3.6391779004983045E+00 
    3.7082930968095753E+00 
    3.6210102050634103E+00 
    3.5710614936490455E+00 
    3.4879363991361871E+00 
    3.5143219991128629E+00 
    3.6991703225992216E+00 
    3.6631619645588631E+00 
    3.5346333411305455E+00 
    3.5495997960204284E+00 
    3.5923516660600106E+00 
    3.4810405428587039E+00 
    3.4472118375199372E+00 
    3.5473021390520962E+00 
    3.3938936756848257E+00 
    3.3262231081585067E+00 
    3.3006870923180589E+00 
    3.3673090089006839E+00 
    3.3268287147197171E+00 
    3.2599804136652986E+00 
    3.2093679299224758E+00 
    3.2759507013228113E+00 
    3.4908211973269765E+00 
    3.4017224002340889E+00 
    3.3471150010002195E+00 
    3.4264971418526207E+00 
    3.3855641580284819E+00 
    3.3922042455296739E+00 
    3.2691433803048286E+00 
    3.2443889252165130E+00 
    3.3951501778617081E+00 
    3.3946794948972712E+00 
    3.3097978247967941E+00 
    3.2911555973740390E+00 
    3.1953761849041578E+00 
    3.2312651121671303E+00 
    3.1564824026083151E+00 
    3.1040940151846601E+00 
    3.1162344680405161E+00 
    3.1566848770733738E+00 
    3.0496284854070304E+00 
    2.9942190844291043E+00 
    2.8141379104529838E+00 
    2.7004613577986309E+00 
    2.6623987842460934E+00 
    2.7599460831335727E+00 
    2.5914474115928350E+00 
    2.4904752734934736E+00 
    2.4822269061328002E+00 
    2.5689375916800863E+00 
    2.5446554435740922E+00 
    2.4719340986699909E+00 
    2.4594383491283960E+00 
    2.5180666330951933E+00 
    2.7050453206117138E+00 
    2.6230636850173079E+00 
    2.5816384189400630E+00 
    2.6485603917193199E+00 
    2.4018820030510049E+00 
    2.3299230431098734E+00 
    2.3388926566099286E+00 
    2.4047409387161225E+00 
    2.2781419224106636E+00 
    2.2478838158439580E+00 
    2.2530463784539259E+00 
    2.2878565393927031E+00 
    2.2954146158793955E+00 
    2.2569669388761406E+00 
    2.2599442764585924E+00 
    2.3010284528151521E+00 
    2.4053418922974199E+00 
    2.3452686149812960E+00 
    2.3493908057892550E+00 
    2.4037397835712939E+00 
    2.5853262790718485E+00 
    2.5261630884343687E+00 
    2.4550152818759789E+00 
    2.5124550199587410E+00 
    2.4717227258944727E+00 
    2.4231656634423198E+00 
    2.3669695750391733E+00 
    2.4068012573170043E+00 
    2.3402439047452592E+00 
    2.3135011535531551E+00 
    2.2645115525037141E+00 
    2.2739118802763287E+00 
    2.4275205597434999E+00 
    2.3762355709775917E+00 
    2.2883494464121963E+00 
    2.3160301351670567E+00 
    2.9034929058664796E+00 
    2.8403609670910899E+00 
    2.9016871632596115E+00 
    2.9655914125507183E+00 
    2.7771313758867286E+00 
    2.7131689049207552E+00 
    2.7744168850529487E+00 
    2.8381462082910698E+00 
    2.8995459261273604E+00 
    2.8361042811430006E+00 
    2.8978787219340436E+00 
    2.9609232343630967E+00 
    3.0273544077820995E+00 
    2.9631662847218685E+00 
    3.0241764738756438E+00 
    3.0879825461936763E+00 
    2.6514960778730390E+00 
    2.5914890591595836E+00 
    2.6796099741058375E+00 
    2.7215867484480891E+00 
    2.5285639329903487E+00 
    2.4612929790635132E+00 
    2.5931793034596540E+00 
    2.6368541139176243E+00 
    2.7416858873727201E+00 
    2.7167553558246209E+00 
    2.8361104747252299E+00 
    2.8444103768435620E+00 
    2.7917559035987942E+00 
    2.7667264551238775E+00 
    2.8529968590154740E+00 
    2.8618112760699224E+00 
    3.1423644390313070E+00 
    3.0722207770954975E+00 
    3.1073350883975284E+00 
    3.1895756001651252E+00 
    3.0021355406729358E+00 
    2.9319214945763852E+00 
    2.9386297736643394E+00 
    3.0235391106158183E+00 
    3.0448436539773294E+00 
    2.9455398342076058E+00 
    2.9527344339558863E+00 
    3.0661908382325720E+00 
    3.2327554892002746E+00 
    3.1412282192972460E+00 
    3.1740556551331047E+00 
    3.2712718884339105E+00 
    2.2407359475930257E+00 
    2.2098388537420179E+00 
    2.1996594065592361E+00 
    2.2351275967195181E+00 
    2.1569917854365475E+00 
    2.0838494847869207E+00 
    2.0808902181526334E+00 
    2.1477232987167789E+00 
    2.1409644406297268E+00 
    2.0802217088351291E+00 
    2.0817523173469130E+00 
    2.1365600465865544E+00 
    2.2305386910395133E+00 
    2.1915864551763993E+00 
    2.1854207654305218E+00 
    2.2268913023667927E+00 
    1.9947028872607586E+00 
    1.8939097198398216E+00 
    1.9163834355517071E+00 
    2.0030080152276115E+00 
    1.7856744343845854E+00 
    1.6728555606399387E+00 
    1.7268787359738900E+00 
    1.8235751301803549E+00 
    1.8628032042976570E+00 
    1.7816401195616183E+00 
    1.8379256453978088E+00 
    1.9041844353628874E+00 
    2.0133499237211581E+00 
    1.9407428811626630E+00 
    1.9673760872555648E+00 
    2.0259255664455185E+00 
    2.2215794899328900E+00 
    2.1723547912876295E+00 
    2.1453448399697903E+00 
    2.2118019145284409E+00 
    2.1186445870910915E+00 
    2.0622483842073804E+00 
    2.0137463131000470E+00 
    2.0787249730677990E+00 
    2.0306766856316267E+00 
    1.9596441921590420E+00 
    1.9010073381999548E+00 
    1.9736728135898447E+00 
    2.1972914319746297E+00 
    2.1094369787328699E+00 
    2.0584442195715504E+00 
    2.1698296649289670E+00 
    2.0249108235689159E+00 
    1.9579286620476126E+00 
    1.8506289540474576E+00 
    1.8939807260740005E+00 
    1.8953056696199768E+00 
    1.8355807893485210E+00 
    1.7663734590104447E+00 
    1.8081403549944475E+00 
    1.7221247023508781E+00 
    1.6970618001569446E+00 
    1.6277001335741075E+00 
    1.6366422241448806E+00 
    1.7717307771624395E+00 
    1.7469668962928320E+00 
    1.6452392222514525E+00 
    1.6534269659262586E+00 
    1.7741405304442193E+00 
    1.7103535623582695E+00 
    1.6500645854325193E+00 
    1.7136751567390491E+00 
    1.6470889698328173E+00 
    1.5838151872788175E+00 
    1.5219962927687849E+00 
    1.5862645035794254E+00 
    1.5252276948827324E+00 
    1.4603572534007956E+00 
    1.3997269726217905E+00 
    1.4642957425661660E+00 
    1.6527202822820455E+00 
    1.5891786576464833E+00 
    1.5281207178778764E+00 
    1.5914118799271004E+00 
    1.5372411138572053E+00 
    1.5443855369972275E+00 
    1.4443449012462570E+00 
    1.4227105658313390E+00 
    1.5511356608930442E+00 
    1.5575616524254317E+00 
    1.4869470407813572E+00 
    1.4656078489011750E+00 
    1.3808847858438009E+00 
    1.4160857571620959E+00 
    1.3450390471756846E+00 
    1.2974477227026697E+00 
    1.3133323245615016E+00 
    1.3466134430013186E+00 
    1.2536775981946080E+00 
    1.2144929207116160E+00 
    3.2712727328050204E+00 
    3.1735946994973840E+00 
    3.1405883442581426E+00 
    3.2325829193876827E+00 
    3.0650505965260497E+00 
    2.9510897805414347E+00 
    2.9439067808974317E+00 
    3.0436101844297943E+00 
    3.0222819495302535E+00 
    2.9370632002488297E+00 
    2.9304833473105121E+00 
    3.0009436593162300E+00 
    3.1892775848392017E+00 
    3.1065442862083361E+00 
    3.0714025992417859E+00 
    3.1419744502415625E+00 
    2.8345425940560869E+00 
    2.7157856037583135E+00 
    2.7406404478304616E+00 
    2.8428727702889414E+00 
    2.5929834799089004E+00 
    2.4617210198366588E+00 
    2.5287846504622578E+00 
    2.6364685865464419E+00 
    2.6790827030267055E+00 
    2.5915140825085574E+00 
    2.6513344013835822E+00 
    2.7209690762730134E+00 
    2.8515262311741196E+00 
    2.7656607799928681E+00 
    2.7907213521678655E+00 
    2.8604627616584564E+00 
    3.0875117369278939E+00 
    3.0233248543088367E+00 
    2.9623920875737553E+00 
    3.0269355413983239E+00 
    2.9598014335030820E+00 
    2.8966054652520996E+00 
    2.8350804834301946E+00 
    2.8986200333033252E+00 
    2.8374750218682125E+00 
    2.7737755934131112E+00 
    2.7129076810555270E+00 
    2.7768227817260582E+00 
    2.9652755497240726E+00 
    2.9011871437392069E+00 
    2.8401094564788743E+00 
    2.9033608197974710E+00 
    2.8141394700210252E+00 
    2.7599471611779354E+00 
    2.6626564876233294E+00 
    2.7006822545953546E+00 
    2.7050757886397294E+00 
    2.6486721939026285E+00 
    2.5820301902733673E+00 
    2.6233670902496828E+00 
    2.5451182699470523E+00 
    2.5185733578095721E+00 
    2.4598891531263587E+00 
    2.4722586942595965E+00 
    2.5917936271605413E+00 
    2.5693011838514264E+00 
    2.4824209063256548E+00 
    2.4905502912125135E+00 
    2.5855478335730400E+00 
    2.5128558125543905E+00 
    2.4555978547734276E+00 
    2.5266010749854031E+00 
    2.4280685722003703E+00 
    2.3167070874981004E+00 
    2.2891359663824540E+00 
    2.3769086166719053E+00 
    2.3408679198429625E+00 
    2.2745731945378043E+00 
    2.2648316464560629E+00 
    2.3138301001399286E+00 
    2.4722488472909272E+00 
    2.4073817311302217E+00 
    2.3673531133206365E+00 
    2.4235873027471988E+00 
    2.4016204814402475E+00 
    2.4046029941555584E+00 
    2.3382331819660136E+00 
    2.3289773769725168E+00 
    2.4053491460458063E+00 
    2.4039141819873882E+00 
    2.3493858540168193E+00 
    2.3449094757566211E+00 
    2.2947524173926332E+00 
    2.3008223596580417E+00 
    2.2596624344731220E+00 
    2.2562053510088274E+00 
    2.2768231222904176E+00 
    2.2868204145985285E+00 
    2.2518584645543434E+00 
    2.2464987076396397E+00 
    1.4928196694691946E+00 
    1.3703531469884336E+00 
    1.3298428825760369E+00 
    1.4373005294806598E+00 
    1.2417208923042029E+00 
    1.1019527775208631E+00 
    1.0952866017305629E+00 
    1.2171173508047486E+00 
    1.1951529501042115E+00 
    1.0920473130247026E+00 
    1.0921813853317359E+00 
    1.1765053025644470E+00 
    1.3827645509718614E+00 
    1.2911306878569644E+00 
    1.2551903324050109E+00 
    1.3303077620414059E+00 
    9.4121583896601302E-01 
    7.3977759623234463E-01 
    7.9938516178348429E-01 
    9.5884780025483296E-01 
    4.5480938750701272E-01 
    0.0000000000000000E+00 
    3.2573250390037939E-01 
    5.9820888688252083E-01 
    7.2311299699839082E-01 
    5.6365368716044673E-01 
    7.4253979940167736E-01 
    8.3164483828347768E-01 
    9.8027762739575952E-01 
    8.5994139164431815E-01 
    9.1932927197392300E-01 
    1.0045302800024809E+00 
    1.2772070973332559E+00 
    1.2102794573664601E+00 
    1.1588852954927076E+00 
    1.2261875063587422E+00 
    1.1390114372964355E+00 
    1.0611786687884754E+00 
    9.9775959511514545E-01 
    1.0837370787062182E+00 
    1.0360330779453759E+00 
    9.3819004928413197E-01 
    8.8484122856843506E-01 
    9.9914296224165133E-01 
    1.1848235010207926E+00 
    1.1173054767133235E+00 
    1.0895340597042311E+00 
    1.1587196117578784E+00 
    2.0253932420419538E+00 
    1.8935219785024888E+00 
    1.8498538958860229E+00 
    1.9581490435074391E+00 
    1.7698314949376146E+00 
    1.6502402179907054E+00 
    1.6419755832689726E+00 
    1.7448937385475909E+00 
    1.7198974212577123E+00 
    1.6334665443258671E+00 
    1.6247578028795706E+00 
    1.6949268691480854E+00 
    1.8952812473472691E+00 
    1.8071111549496341E+00 
    1.7651926573909080E+00 
    1.8353354785666014E+00 
    1.5334573676830539E+00 
    1.4199587680130066E+00 
    1.4414507109088026E+00 
    1.5407483652552059E+00 
    1.3119924324601970E+00 
    1.2143716341171349E+00 
    1.2534284772108746E+00 
    1.3450863847020853E+00 
    1.3792408750105116E+00 
    1.2971170771945797E+00 
    1.3446384114009400E+00 
    1.4145674691383689E+00 
    1.5477818768898002E+00 
    1.4629399018750922E+00 
    1.4845068734724056E+00 
    1.5546277226488496E+00 
    1.7737170096139345E+00 
    1.7123826454769453E+00 
    1.6487175936409333E+00 
    1.7097804351531023E+00 
    1.6506069161057872E+00 
    1.5887508947962126E+00 
    1.5258089974574602E+00 
    1.5872298481430636E+00 
    1.5237592987747546E+00 
    1.4627191995056883E+00 
    1.3991487280192074E+00 
    1.4597515523871010E+00 
    1.6465724910315243E+00 
    1.5852128673507822E+00 
    1.5214456617428891E+00 
    1.5834480919499114E+00 
    2.1705457382290039E+00 
    2.0591420953974602E+00 
    2.1104129027291396E+00 
    2.1981684846989231E+00 
    1.9743107618109528E+00 
    1.9015405320423500E+00 
    1.9607412670185489E+00 
    2.0317735350316091E+00 
    2.0799959607663210E+00 
    2.0152270204461638E+00 
    2.0638360825612532E+00 
    2.1199278818199860E+00 
    2.2126055504542195E+00 
    2.1464466714485089E+00 
    2.1732740508524793E+00 
    2.2221053353561775E+00 
    1.8383669976725598E+00 
    1.7819090687339558E+00 
    1.8639623749450196E+00 
    1.9053290966635266E+00 
    1.7269839895593324E+00 
    1.6727084970915191E+00 
    1.7865138106642660E+00 
    1.8246049684535603E+00 
    1.9182358169260552E+00 
    1.8957347255005226E+00 
    1.9969596387791313E+00 
    2.0051666904038261E+00 
    1.9689859277302979E+00 
    1.9424967499213697E+00 
    2.0153666644103061E+00 
    2.0277421144290733E+00 
    2.2268762044631050E+00 
    2.1859496375296956E+00 
    2.1918236521503247E+00 
    2.2300872024571237E+00 
    2.1376832291873651E+00 
    2.0834133527893539E+00 
    2.0820134987989567E+00 
    2.1420394982222222E+00 
    2.1486596003318761E+00 
    2.0828054135622347E+00 
    2.0858344070227286E+00 
    2.1578168581225992E+00 
    2.2342473757092489E+00 
    2.1996066274489814E+00 
    2.2094982006090178E+00 
    2.2395578630366302E+00 
    1.1589056963616318E+00 
    1.0899929400870179E+00 
    1.1185099333486990E+00 
    1.1853716949546682E+00 
    9.9978459739007575E-01 
    8.8552947554572359E-01 
    9.4010881816874337E-01 
    1.0377706025401146E+00 
    1.0862391328268879E+00 
    1.0007058393534956E+00 
    1.0647387073340164E+00 
    1.1419062822637176E+00 
    1.2269384129518861E+00 
    1.1606543803289624E+00 
    1.2121946877223455E+00 
    1.2779911870083216E+00 
    7.4321235743636282E-01 
    5.6421984253838309E-01 
    7.2517287049273582E-01 
    8.3364619844879384E-01 
    3.2605612344611024E-01 
    0.0000000000000000E+00 
    4.5627193567565782E-01 
    6.0002975746400888E-01 
    8.0293067802889551E-01 
    7.4307024172764047E-01 
    9.4603432924761532E-01 
    9.6352506287204664E-01 
    9.2248528108980588E-01 
    8.6333642602370475E-01 
    9.8464062752628723E-01 
    1.0084093727980437E+00 
    1.3309170373871300E+00 
    1.2570305945878970E+00 
    1.2929323766322824E+00 
    1.3832176012784303E+00 
    1.1795349942643010E+00 
    1.0961096155530063E+00 
    1.0963925538743000E+00 
    1.1983936403211808E+00 
    1.2203357040686411E+00 
    1.0998699384623818E+00 
    1.1065665844970651E+00 
    1.2447304941063142E+00 
    1.4375210128283680E+00 
    1.3314060116556001E+00 
    1.3715357815550069E+00 
    1.4927413219832208E+00 
    2.3177859018468316E+00 
    2.4658188437686199E+00 
    2.4486285794461735E+00 
    2.3123119978480884E+00 
    2.6114392684748573E+00 
    2.7533387056485252E+00 
    2.7133230565289685E+00 
    2.5825970113488643E+00 
    2.5554022099469718E+00 
    2.6747212875418325E+00 
    2.6371336611232898E+00 
    2.5295590568038526E+00 
    2.3074949009887216E+00 
    2.4328967744625567E+00 
    2.4184152329466282E+00 
    2.3033879287806491E+00 
    2.8874366888979361E+00 
    3.0132300616910754E+00 
    2.9388368548096637E+00 
    2.8317145099794474E+00 
    3.1324525296546732E+00 
    3.2437159893358221E+00 
    3.1429593752258400E+00 
    3.0426765399343707E+00 
    2.9504902152736179E+00 
    3.0353448788842550E+00 
    2.9231112049260579E+00 
    2.8562018317627835E+00 
    2.7768935460538700E+00 
    2.8643017319353539E+00 
    2.7893157992898612E+00 
    2.7225571915572058E+00 
    2.3074934185106089E+00 
    2.4254794288157977E+00 
    2.4568830057048419E+00 
    2.3226314885052348E+00 
    2.5371759170457984E+00 
    2.6440114372680026E+00 
    2.6959525417690600E+00 
    2.5800156363467184E+00 
    2.6262774336804151E+00 
    2.7493039145975176E+00 
    2.8040559663829772E+00 
    2.6765947865033373E+00 
    2.3450305434802869E+00 
    2.4941618632530513E+00 
    2.5397282274808113E+00 
    2.3805150557592869E+00 
    2.1685946687091278E+00 
    2.0205175941034028E+00 
    2.0375862589877864E+00 
    2.1740682103075382E+00 
    1.8749012558223812E+00 
    1.7330495474654519E+00 
    1.7727936617235642E+00 
    1.9035365939723317E+00 
    1.9306204112521255E+00 
    1.8112408954409915E+00 
    1.8487942303648286E+00 
    1.9565143876505702E+00 
    2.1789370287258851E+00 
    2.0533199192207143E+00 
    2.0678828586848552E+00 
    2.1831593444609885E+00 
    1.5989969251647622E+00 
    1.4731365452358891E+00 
    1.5472899614772666E+00 
    1.6544444185134282E+00 
    1.3537287992072591E+00 
    1.2420981374448743E+00 
    1.3431001272240286E+00 
    1.4434427183808543E+00 
    1.5354920360352280E+00 
    1.4507553088458061E+00 
    1.5629905411424034E+00 
    1.6297873163745726E+00 
    1.7090814604560616E+00 
    1.6216876962459856E+00 
    1.6966245253892862E+00 
    1.7633848704743051E+00 
    2.1791395424749838E+00 
    2.0609196497329898E+00 
    2.0296128318013498E+00 
    2.1640637572209531E+00 
    1.9489962734716264E+00 
    1.8419866912074041E+00 
    1.7900969798609998E+00 
    1.9062508169569041E+00 
    1.8601066702305520E+00 
    1.7368469109984366E+00 
    1.6822350896451408E+00 
    1.8099377304589344E+00 
    2.1416801787128721E+00 
    1.9924375537363543E+00 
    1.9469488658445215E+00 
    2.1061715063122222E+00 
    2.3808481405673358E+00 
    2.5395028470488601E+00 
    2.4937644069710876E+00 
    2.3449850357424364E+00 
    2.6756927267890309E+00 
    2.8025983825211367E+00 
    2.7480596620313160E+00 
    2.6254423837240313E+00 
    2.5792668380642376E+00 
    2.6949316649739257E+00 
    2.6431919814842604E+00 
    2.5365329437085928E+00 
    2.3223149774039773E+00 
    2.4564172535518551E+00 
    2.4249740990982867E+00 
    2.3070103151502446E+00 
    2.9215959665899649E+00 
    3.0343038155822866E+00 
    2.9495218087632415E+00 
    2.8549303393304624E+00 
    3.1425289611068110E+00 
    3.2436759330388032E+00 
    3.1322937802815649E+00 
    3.0421753548368300E+00 
    2.9383377213393782E+00 
    3.0130360448141595E+00 
    2.8872698340023524E+00 
    2.8312885065586704E+00 
    2.7882789247970186E+00 
    2.8634821256154641E+00 
    2.7762283763694469E+00 
    2.7217289996585499E+00 
    2.3027778609354499E+00 
    2.4178685122301498E+00 
    2.4324071509873071E+00 
    2.3069140322319970E+00 
    2.5289705107907636E+00 
    2.6364478964987632E+00 
    2.6741650229890097E+00 