# vtk DataFile Version 2.0
Pressure Field Data 
ASCII 
DATASET UNSTRUCTURED_GRID 

POINTS 2213 double 

    0.0000000000000000E+00     0.0000000000000000E+00     0.0000000000000000E+00 
    5.0000000000000000E-01     0.0000000000000000E+00     0.0000000000000000E+00 
    1.0000000000000000E+00     0.0000000000000000E+00     0.0000000000000000E+00 
    1.0000000000000000E+00     5.0000000000000000E-01     0.0000000000000000E+00 
    1.0000000000000000E+00     1.0000000000000000E+00     0.0000000000000000E+00 
    5.0000000000000000E-01     1.0000000000000000E+00     0.0000000000000000E+00 
    0.0000000000000000E+00     1.0000000000000000E+00     0.0000000000000000E+00 
    0.0000000000000000E+00     5.0000000000000000E-01     0.0000000000000000E+00 
    1.5624999999971041E-02     0.0000000000000000E+00     0.0000000000000000E+00 
    3.1249999999936742E-02     0.0000000000000000E+00     0.0000000000000000E+00 
    4.6874999999913257E-02     0.0000000000000000E+00     0.0000000000000000E+00 
    6.2499999999889783E-02     0.0000000000000000E+00     0.0000000000000000E+00 
    7.8124999999844805E-02     0.0000000000000000E+00     0.0000000000000000E+00 
    9.3749999999799827E-02     0.0000000000000000E+00     0.0000000000000000E+00 
    1.0937499999975490E-01     0.0000000000000000E+00     0.0000000000000000E+00 
    1.2499999999970990E-01     0.0000000000000000E+00     0.0000000000000000E+00 
    1.4062499999966460E-01     0.0000000000000000E+00     0.0000000000000000E+00 
    1.5624999999961930E-01     0.0000000000000000E+00     0.0000000000000000E+00 
    1.7187499999957390E-01     0.0000000000000000E+00     0.0000000000000000E+00 
    1.8749999999952860E-01     0.0000000000000000E+00     0.0000000000000000E+00 
    2.0312499999948330E-01     0.0000000000000000E+00     0.0000000000000000E+00 
    2.1874999999943801E-01     0.0000000000000000E+00     0.0000000000000000E+00 
    2.3437499999939271E-01     0.0000000000000000E+00     0.0000000000000000E+00 
    2.4999999999934730E-01     0.0000000000000000E+00     0.0000000000000000E+00 
    2.6562499999938810E-01     0.0000000000000000E+00     0.0000000000000000E+00 
    2.8124999999942890E-01     0.0000000000000000E+00     0.0000000000000000E+00 
    2.9687499999946970E-01     0.0000000000000000E+00     0.0000000000000000E+00 
    3.1249999999951050E-01     0.0000000000000000E+00     0.0000000000000000E+00 
    3.2812499999955130E-01     0.0000000000000000E+00     0.0000000000000000E+00 
    3.4374999999959210E-01     0.0000000000000000E+00     0.0000000000000000E+00 
    3.5937499999963290E-01     0.0000000000000000E+00     0.0000000000000000E+00 
    3.7499999999967371E-01     0.0000000000000000E+00     0.0000000000000000E+00 
    3.9062499999971451E-01     0.0000000000000000E+00     0.0000000000000000E+00 
    4.0624999999975520E-01     0.0000000000000000E+00     0.0000000000000000E+00 
    4.2187499999979600E-01     0.0000000000000000E+00     0.0000000000000000E+00 
    4.3749999999983680E-01     0.0000000000000000E+00     0.0000000000000000E+00 
    4.5312499999987760E-01     0.0000000000000000E+00     0.0000000000000000E+00 
    4.6874999999991840E-01     0.0000000000000000E+00     0.0000000000000000E+00 
    4.8437499999995920E-01     0.0000000000000000E+00     0.0000000000000000E+00 
    5.1562499999992384E-01     0.0000000000000000E+00     0.0000000000000000E+00 
    5.3124999999985478E-01     0.0000000000000000E+00     0.0000000000000000E+00 
    5.4687499999994527E-01     0.0000000000000000E+00     0.0000000000000000E+00 
    5.6249999999998668E-01     0.0000000000000000E+00     0.0000000000000000E+00 
    5.7812499999998068E-01     0.0000000000000000E+00     0.0000000000000000E+00 
    5.9374999999994749E-01     0.0000000000000000E+00     0.0000000000000000E+00 
    6.0937499999997913E-01     0.0000000000000000E+00     0.0000000000000000E+00 
    6.2500000000000000E-01     0.0000000000000000E+00     0.0000000000000000E+00 
    6.4062499999998945E-01     0.0000000000000000E+00     0.0000000000000000E+00 
    6.5624999999996603E-01     0.0000000000000000E+00     0.0000000000000000E+00 
    6.7187499999995337E-01     0.0000000000000000E+00     0.0000000000000000E+00 
    6.8749999999998734E-01     0.0000000000000000E+00     0.0000000000000000E+00 
    7.0312499999998124E-01     0.0000000000000000E+00     0.0000000000000000E+00 
    7.1874999999997025E-01     0.0000000000000000E+00     0.0000000000000000E+00 
    7.3437499999999034E-01     0.0000000000000000E+00     0.0000000000000000E+00 
    7.5000000000000000E-01     0.0000000000000000E+00     0.0000000000000000E+00 
    7.6562499999996902E-01     0.0000000000000000E+00     0.0000000000000000E+00 
    7.8124999999993228E-01     0.0000000000000000E+00     0.0000000000000000E+00 
    7.9687499999989997E-01     0.0000000000000000E+00     0.0000000000000000E+00 
    8.1249999999996247E-01     0.0000000000000000E+00     0.0000000000000000E+00 
    8.2812499999999578E-01     0.0000000000000000E+00     0.0000000000000000E+00 
    8.4374999999999556E-01     0.0000000000000000E+00     0.0000000000000000E+00 
    8.5937500000000111E-01     0.0000000000000000E+00     0.0000000000000000E+00 
    8.7499999999997691E-01     0.0000000000000000E+00     0.0000000000000000E+00 
    8.9062500000000921E-01     0.0000000000000000E+00     0.0000000000000000E+00 
    9.0625000000004452E-01     0.0000000000000000E+00     0.0000000000000000E+00 
    9.2187500000005529E-01     0.0000000000000000E+00     0.0000000000000000E+00 
    9.3750000000012723E-01     0.0000000000000000E+00     0.0000000000000000E+00 
    9.5312500000011835E-01     0.0000000000000000E+00     0.0000000000000000E+00 
    9.6875000000005151E-01     0.0000000000000000E+00     0.0000000000000000E+00 
    9.8437500000003086E-01     0.0000000000000000E+00     0.0000000000000000E+00 
    1.0000000000000000E+00     1.5624999999971041E-02     0.0000000000000000E+00 
    1.0000000000000000E+00     3.1249999999936742E-02     0.0000000000000000E+00 
    1.0000000000000000E+00     4.6874999999913257E-02     0.0000000000000000E+00 
    1.0000000000000000E+00     6.2499999999889783E-02     0.0000000000000000E+00 
    1.0000000000000000E+00     7.8124999999844805E-02     0.0000000000000000E+00 
    1.0000000000000000E+00     9.3749999999799827E-02     0.0000000000000000E+00 
    1.0000000000000000E+00     1.0937499999975490E-01     0.0000000000000000E+00 
    1.0000000000000000E+00     1.2499999999970990E-01     0.0000000000000000E+00 
    1.0000000000000000E+00     1.4062499999966460E-01     0.0000000000000000E+00 
    1.0000000000000000E+00     1.5624999999961930E-01     0.0000000000000000E+00 
    1.0000000000000000E+00     1.7187499999957390E-01     0.0000000000000000E+00 
    1.0000000000000000E+00     1.8749999999952860E-01     0.0000000000000000E+00 
    1.0000000000000000E+00     2.0312499999948330E-01     0.0000000000000000E+00 
    1.0000000000000000E+00     2.1874999999943801E-01     0.0000000000000000E+00 
    1.0000000000000000E+00     2.3437499999939271E-01     0.0000000000000000E+00 
    1.0000000000000000E+00     2.4999999999934730E-01     0.0000000000000000E+00 
    1.0000000000000000E+00     2.6562499999938810E-01     0.0000000000000000E+00 
    1.0000000000000000E+00     2.8124999999942890E-01     0.0000000000000000E+00 
    1.0000000000000000E+00     2.9687499999946970E-01     0.0000000000000000E+00 
    1.0000000000000000E+00     3.1249999999951050E-01     0.0000000000000000E+00 
    1.0000000000000000E+00     3.2812499999955130E-01     0.0000000000000000E+00 
    1.0000000000000000E+00     3.4374999999959210E-01     0.0000000000000000E+00 
    1.0000000000000000E+00     3.5937499999963290E-01     0.0000000000000000E+00 
    1.0000000000000000E+00     3.7499999999967371E-01     0.0000000000000000E+00 
    1.0000000000000000E+00     3.9062499999971451E-01     0.0000000000000000E+00 
    1.0000000000000000E+00     4.0624999999975520E-01     0.0000000000000000E+00 
    1.0000000000000000E+00     4.2187499999979600E-01     0.0000000000000000E+00 
    1.0000000000000000E+00     4.3749999999983680E-01     0.0000000000000000E+00 
    1.0000000000000000E+00     4.5312499999987760E-01     0.0000000000000000E+00 
    1.0000000000000000E+00     4.6874999999991840E-01     0.0000000000000000E+00 
    1.0000000000000000E+00     4.8437499999995920E-01     0.0000000000000000E+00 
    1.0000000000000000E+00     5.1562499999992384E-01     0.0000000000000000E+00 
    1.0000000000000000E+00     5.3124999999985478E-01     0.0000000000000000E+00 
    1.0000000000000000E+00     5.4687499999994527E-01     0.0000000000000000E+00 
    1.0000000000000000E+00     5.6249999999998668E-01     0.0000000000000000E+00 
    1.0000000000000000E+00     5.7812499999998068E-01     0.0000000000000000E+00 
    1.0000000000000000E+00     5.9374999999994749E-01     0.0000000000000000E+00 
    1.0000000000000000E+00     6.0937499999997913E-01     0.0000000000000000E+00 
    1.0000000000000000E+00     6.2500000000000000E-01     0.0000000000000000E+00 
    1.0000000000000000E+00     6.4062499999998945E-01     0.0000000000000000E+00 
    1.0000000000000000E+00     6.5624999999996603E-01     0.0000000000000000E+00 
    1.0000000000000000E+00     6.7187499999995337E-01     0.0000000000000000E+00 
    1.0000000000000000E+00     6.8749999999998734E-01     0.0000000000000000E+00 
    1.0000000000000000E+00     7.0312499999998124E-01     0.0000000000000000E+00 
    1.0000000000000000E+00     7.1874999999997025E-01     0.0000000000000000E+00 
    1.0000000000000000E+00     7.3437499999999034E-01     0.0000000000000000E+00 
    1.0000000000000000E+00     7.5000000000000000E-01     0.0000000000000000E+00 
    1.0000000000000000E+00     7.6562499999996902E-01     0.0000000000000000E+00 
    1.0000000000000000E+00     7.8124999999993228E-01     0.0000000000000000E+00 
    1.0000000000000000E+00     7.9687499999989997E-01     0.0000000000000000E+00 
[...]
CELL_DATA 2084 
SCALARS Pressure double 1 
LOOKUP_TABLE default 

    2.8512200686779110E+00 
    2.8815531709086573E+00 
    3.0804436743680514E+00 
    2.8823737609055837E+00 
    2.9944154294567755E+00 
    2.9483434064529614E+00 
    2.8204747874816758E+00 
    2.9319952366309137E+00 
    2.9428376624616730E+00 
    2.9988606070890182E+00 
    3.0744687921871656E+00 
    2.8361543445626398E+00 
    2.9202238729350842E+00 
    2.8786615415228849E+00 
    2.8459677820566323E+00 
    2.8672992039719762E+00 
    3.0335201213966023E+00 
    2.9005762946800773E+00 
    3.1071837329343657E+00 
    2.8588487943582224E+00 
    2.8627313868422610E+00 
    2.9766058281721310E+00 
    2.8654947322349851E+00 
    2.9159312018973371E+00 
    2.8549193636241315E+00 
    2.9175598564444694E+00 
    2.8736297138805962E+00 
    2.8238816107071241E+00 
    2.9249126898104993E+00 
    2.8889888029309807E+00 
    2.8120207571768936E+00 
    2.9327715976981983E+00 
    2.7983344410910345E+00 
    2.8620182543158710E+00 
    2.8401170559424607E+00 
    2.9879218443261162E+00 
    2.8947901933289280E+00 
    2.8901991563060148E+00 
    2.9765897142238291E+00 
    2.9338021579768379E+00 
    2.8268158197318374E+00 
    3.0036527887847972E+00 
    2.8553324365859054E+00 
    2.9555737548999166E+00 
    2.9473586391229545E+00 
    2.8348040341972545E+00 
    3.0019509159512840E+00 
    2.8166913433724594E+00 
    2.8189949057935277E+00 
    2.9211201818588188E+00 
    2.9182866835873109E+00 
    2.8230762453537230E+00 
    2.8344433788383716E+00 
    2.9039595911032090E+00 
    2.9051859567240275E+00 
    2.8268339348107312E+00 
    2.8042705262920276E+00 
    2.9622116832250391E+00 
    2.9740174832685189E+00 
    2.9127057455739300E+00 
    2.9113458727613759E+00 
    2.8594494334342890E+00 
    2.8388390517245679E+00 
    2.8762940705541324E+00 
    2.9993761281169298E+00 
    2.9082733023313789E+00 
    2.9426796126402559E+00 
    2.8331088417892141E+00 
    2.8174315131189913E+00 
    2.8165972007952012E+00 
    2.8528475407441349E+00 
    3.1376800513121359E+00 
    2.9183933516199692E+00 
    3.0574588168928729E+00 
    2.9702128801036647E+00 
    3.0548326086560573E+00 
    2.9136449000946749E+00 
    2.9910534953612293E+00 
    2.8358063045832784E+00 
    3.0088848622893845E+00 
    2.8662454734134966E+00 
    2.9334273236129285E+00 
    2.9608064374043930E+00 
    2.8106758628752737E+00 
    2.9480179478033945E+00 
    2.8640219791083141E+00 
    2.8976625462340109E+00 
    2.9506590235101000E+00 
    2.9715247058728984E+00 
    2.9622459769762788E+00 
    2.9434085452388876E+00 
    2.9397248966447611E+00 
    2.8683420479530408E+00 
    2.9603133495801854E+00 
    2.9003291456668157E+00 
    2.8230803101587392E+00 
    2.8846818142836916E+00 
    2.9260113305262667E+00 
    2.9844614944454810E+00 
    2.8888941273417710E+00 
    2.9966762812502274E+00 
    2.9580130042252630E+00 
    2.9743162607030302E+00 
    2.9757150203255698E+00 
    2.9007834232117515E+00 
    2.9597559317224920E+00 
    2.9310069718395009E+00 
    2.9851589066647417E+00 
    2.8486797995565638E+00 
    3.1702641931006501E+00 
    2.8715278748755697E+00 
    2.9249459345009416E+00 
    2.9572232963498903E+00 
    3.0135664209368138E+00 
    3.0682112119507585E+00 
    2.8778207506694100E+00 
    2.9604615482717862E+00 
    2.9570510566651844E+00 
    2.8911471688901660E+00 
    2.8562904282902615E+00 
    2.9075439338079345E+00 
    2.9730616392664695E+00 
    2.8565175224212758E+00 
    3.0417531598763827E+00 
    2.9296516018523717E+00 
    2.9736065000655869E+00 
    2.9096354471127031E+00 
    2.8565607957297297E+00 
    2.8953962825270803E+00 
    2.8660787628547668E+00 
    3.0643844601026560E+00 
    3.0771577107358388E+00 
    2.8292315980934246E+00 
    2.9993138181146421E+00 
    2.9847225265742696E+00 
    2.9110792576482587E+00 
    2.9651013524100263E+00 
    2.8552493073680014E+00 
    2.9830943217253121E+00 
    3.0476331131929468E+00 
    2.9463917727898701E+00 
    3.0914741747444228E+00 
    3.0577346099985006E+00 
    2.9295856906871420E+00 
    2.8783496267736415E+00 
    2.9251874032998733E+00 
    2.9583789192415599E+00 
    2.9818137519136303E+00 
    2.9003651841171005E+00 
    2.9452058695538366E+00 
    2.9510334118515611E+00 
    3.0486627447027232E+00 
    3.1244359681310985E+00 
    2.8996418535107140E+00 
    2.9093440551431531E+00 
    3.1070992878306276E+00 
    2.8651195140715502E+00 
    2.9539974282533059E+00 
    2.9043485812765222E+00 
    3.0413406175984221E+00 
    3.2510569654331056E+00 
    3.1898443479138439E+00 
    3.1281577849954965E+00 
    3.1491177479031305E+00 
    3.0992628142161815E+00 
    3.1161994761725467E+00 
    2.9561805834082282E+00 
    3.1634778235731034E+00 
    2.9470819117281435E+00 
    3.1089326868149083E+00 
    2.9474126112912695E+00 
    3.0345079664525483E+00 
    3.0530130477953574E+00 
    2.9882157766940902E+00 
    3.0268857437774601E+00 
    2.8871086182715651E+00 
    3.0299631708744732E+00 
    2.9373600932828610E+00 
    2.9453828759848495E+00 
    2.9442022600037570E+00 
    2.9699057411795260E+00 
    2.8847905386582893E+00 
    3.0352567733617066E+00 
    2.9723768660160914E+00 
    2.9685509785396071E+00 
    2.8024786324966238E+00 
    2.9939100298204462E+00 
    3.0596999149762638E+00 
    2.8930847239167430E+00 
    3.0161765042946125E+00 
    3.0750121250036324E+00 
    3.0979366624806142E+00 
    2.9703467100426448E+00 
    2.9107649916552494E+00 
    2.8760440853679299E+00 
    2.8957054888617653E+00 
    3.0011578855760850E+00 
    2.9623742727871867E+00 
    2.9071284755136673E+00 
    3.0058293375432226E+00 
    2.9371907472430321E+00 
    2.8981884972927467E+00 
    2.9699148935368100E+00 
    2.8373687840185147E+00 
    2.8973933853046918E+00 
    3.0788173712536335E+00 
    3.0004072265871913E+00 
    2.8885648373789019E+00 
    3.0247822465817964E+00 
    3.0167212795446003E+00 
    2.9036921953943517E+00 
    2.9262492811662595E+00 
    2.9323169862467018E+00 
    2.9902064146302019E+00 
    2.9863208543754229E+00 
    3.0525589632828320E+00 
    2.9211477547256122E+00 
    2.9869144198251987E+00 
    3.0018334764827030E+00 
    2.9085929163489599E+00 
    2.9164116901192503E+00 
    2.7929886996316986E+00 
    2.9107281084211425E+00 
    3.0883347427743586E+00 
    2.9619135829957335E+00 
    2.9856432839956457E+00 
    2.9372531355184428E+00 
    2.9857784066145179E+00 
    2.8961053361836151E+00 
    2.8826466429657573E+00 
    2.8543594701172235E+00 
    2.8928721075060335E+00 
    2.8592236266565694E+00 
    2.9214405457645216E+00 
    2.9717133297129421E+00 
    2.8733904054908863E+00 
    3.0189102549558209E+00 
    3.0212204627898385E+00 
    2.9177287463038470E+00 
    2.8828719882600384E+00 
    2.9717557846446643E+00 
    2.9033358676080967E+00 
    2.8445233118623818E+00 
    2.8961488406278093E+00 
    2.8511990830860503E+00 
    2.8521297228580087E+00 
    2.9080028202648993E+00 
    2.9574754367649447E+00 
    3.0387827520576880E+00 
    2.8399022715067290E+00 
    2.8940899169977405E+00 
    2.8699913861721504E+00 
    2.8936853604091133E+00 
    3.1367975686060676E+00 
    2.8569942480446571E+00 
    2.9320328238060789E+00 
    2.8689128519895499E+00 
    2.9103853785301790E+00 
    2.8796304090271421E+00 
    2.9192954759095855E+00 
    2.8687572518673412E+00 
    2.9155627483069613E+00 
    2.8816130804301894E+00 
    2.9191699205454595E+00 
    2.8770633802261685E+00 
    2.8757574639026191E+00 
    2.8508335439114942E+00 
    2.8621479140345230E+00 
    3.0190296420388232E+00 
    2.8292471507930088E+00 
    2.8397512881633125E+00 
    2.8895724541514580E+00 
    2.8731443430996886E+00 
    3.2061517507695165E+00 
    2.8924919642673905E+00 
    2.9886674266746942E+00 
    2.8843989824311680E+00 
    2.8237650676655348E+00 
    2.9063642114944819E+00 
    2.8630906607144024E+00 
    2.9224193031807943E+00 
    2.8776154263283433E+00 
    2.8779049981216991E+00 
    2.8904867994795160E+00 
    2.8534631413790899E+00 
    2.8922571713583718E+00 
    2.8784713168119969E+00 
    2.8298407607088638E+00 
    2.8669850131125481E+00 
    2.8668458028064987E+00 
    2.8868044475723074E+00 
    2.8218278440097064E+00 
    2.8699001136085500E+00 
    2.8865502871733222E+00 
    2.9212261856854513E+00 
    2.8562724398177162E+00 
    2.8435243114289088E+00 
    3.0010074218810998E+00 
    2.8569784742314783E+00 
    2.9447149902988676E+00 
    3.2061643017054475E+00 
    3.0122818639642608E+00 
    2.9454294043687579E+00 
    3.0347748217760246E+00 
    2.8738999305842765E+00 
    2.8671125215233868E+00 
    2.8420817248276382E+00 
    2.8462630593701568E+00 
    2.8473412703625680E+00 
    2.8395705019064286E+00 
    3.0381008239786320E+00 
    2.8441933112588202E+00 
    2.9075525173285031E+00 
    3.0169534018108011E+00 
    2.9207746308698375E+00 
    2.8564318839957896E+00 
    2.9818693710363195E+00 
    2.8372469573662804E+00 
    2.8375371038821657E+00 
    2.8476193171022270E+00 
    3.1736167395311008E+00 
    2.9585342968124917E+00 
    3.0271316580941035E+00 
    3.0330254918781301E+00 
    2.9310035702362502E+00 
    3.0029868238377841E+00 
    2.8599194962141605E+00 
    2.7853182664332365E+00 
    3.3505882192918621E+00 
    2.8110580271129404E+00 
    2.8284131936976680E+00 
    2.8275541836976856E+00 
    2.9467074871230321E+00 
    3.0159185579015237E+00 
    2.7846904308054463E+00 
    3.0706863565569158E+00 
    3.0928557589330956E+00 
    2.9318532388311924E+00 
    2.8784737059607695E+00 
    3.0569201237365613E+00 
    2.9340322849898777E+00 
    2.8490903221513295E+00 
    3.0267783557480437E+00 
    2.8193035595416696E+00 
    2.8180279755758351E+00 
    2.9440270122983581E+00 
    2.8881743436201512E+00 
    2.7943769353350714E+00 
    2.8780700156581842E+00 
    2.8035689643115043E+00 
    3.0467772388174410E+00 
    2.8108050648788403E+00 
    2.8664513102553566E+00 
    3.0139668136932385E+00 
    2.8877145777971909E+00 
    2.9341686066801707E+00 
    2.8088652886744310E+00 
    2.9120257741238018E+00 
    2.9181408850336448E+00 
    2.8501044683840098E+00 
    2.8882871503866712E+00 
    3.0208712953364469E+00 
    2.8034082207404287E+00 
    2.8859221117174148E+00 
    2.8548058780184187E+00 
    2.8557887092305090E+00 
    2.9045298198736105E+00 
    2.8477548430439241E+00 
    2.8948194290692260E+00 
    3.0340868510506978E+00 
    3.0497321980327596E+00 
    2.8002751112108784E+00 
    3.2174436974373242E+00 
    2.9101163208786880E+00 
    2.8702104083294717E+00 
    3.0790498621038696E+00 
    2.9383828037418218E+00 
    2.9552883689259453E+00 
    2.8549162709823870E+00 
    2.8465710483850888E+00 
    2.9754479722163047E+00 
    2.9326329487449798E+00 
    2.7949754730109433E+00 
    2.8547686522643514E+00 
    3.1078894188010113E+00 
    2.9271820556090367E+00 
    3.0072349569877028E+00 
    2.9445946024829452E+00 
    3.0215259184145298E+00 
    2.9753977592554546E+00 
    2.7928169470197148E+00 
    2.8314154570178363E+00 
    2.8801810901399367E+00 
    3.0513166779397118E+00 
    3.0051405588484381E+00 
    2.8759791802375148E+00 
    2.8478194617306292E+00 
    2.8743095030001098E+00 
    2.8606329918994766E+00 
    2.9891337208196518E+00 
    2.8509940605624693E+00 
    2.9540295414917948E+00 
    3.1494341357691655E+00 
    2.8446811071435416E+00 
    3.1131476097268078E+00 
    2.8987074171570621E+00 
    3.1285527555193413E+00 
    3.0160436864910869E+00 
    3.2632416745517867E+00 
    2.8671086379154480E+00 
    3.0029694436846244E+00 
    2.9189708874109450E+00 
    2.8395948585857749E+00 
    3.0313850984233723E+00 
    2.9097318885829497E+00 
    3.0409466719501581E+00 
    2.8438283934195629E+00 
    3.0057266897443555E+00 
    2.8994104856944927E+00 
    2.9360078326691017E+00 
    2.8095763064468611E+00 
    2.8478610514464791E+00 
    2.8342580762777705E+00 
    3.0733528142344659E+00 
    2.8692662952243539E+00 
    3.1402758535737583E+00 
    3.0908825404646283E+00 
    2.8585676190834439E+00 
    2.8973026619410502E+00 
    2.8806307067031272E+00 
    2.8074042300149435E+00 
    2.9031048728647080E+00 
    3.0201470375050676E+00 
    2.8574997292750353E+00 
    2.8172025772959159E+00 
    3.1687162349649647E+00 
    2.9891260079341686E+00 
    2.7856208677818355E+00 
    2.7849210160802889E+00 
    2.8295039667184771E+00 
    2.8367628378478797E+00 
    2.8149270667971122E+00 
    2.8040151643860969E+00 
    2.8758473024907465E+00 
    2.8645965351170948E+00 
    2.7777500962758652E+00 
    2.7773796311055889E+00 
    2.7386807286681090E+00 
    2.6659580608181681E+00 
    2.6604889687418511E+00 
    2.6691988920121577E+00 
    2.6903427290426096E+00 
    2.6878039108160809E+00 
    2.7535542017540093E+00 
    2.6393951917747516E+00 
    2.7380877763591198E+00 
    2.6490606324188648E+00 
    2.7158015774904309E+00 
    2.6831977826285560E+00 
    2.6806444212399794E+00 
    2.6541853828694077E+00 
    2.6424117193620096E+00 
    2.8005852950502521E+00 
    2.7505772511003572E+00 
    2.7789772824934298E+00 
    2.7459912430330382E+00 
    2.7003307412249802E+00 
    2.6438298154845494E+00 
    2.6375086278206474E+00 
    2.7957860329466850E+00 
    2.7129343726281410E+00 
    2.6366621447630600E+00 
    2.6896084869181385E+00 
    2.7693118241467083E+00 
    2.7694821533645455E+00 
    2.6157925776462179E+00 
    2.6372296243155811E+00 
    2.7159231038363387E+00 
    2.7804927716967458E+00 
    2.7538310868678599E+00 
    2.6997669028756182E+00 
    2.6690248127627210E+00 
    2.8098227866631347E+00 
    2.7816287734872049E+00 
    2.7690492492523400E+00 
    2.8273270706559557E+00 
    2.6683716363494066E+00 
    2.6857849688798230E+00 
    2.6798248654162853E+00 
    2.7936269968958736E+00 
    2.6845347823094747E+00 
    2.7747567203399290E+00 
    2.7296680715477337E+00 
    2.7263992464811473E+00 
    2.7102997427326976E+00 
    2.7139359849211480E+00 
    2.7812395171177866E+00 
    2.7766562345337782E+00 
    2.7220748143722870E+00 
    2.6604437603714679E+00 
    2.7117977689298325E+00 
    2.7058993997126710E+00 
    2.6377183928740928E+00 
    2.7567896137877694E+00 
    2.6423142271140838E+00 
    2.7808320295456430E+00 
    2.6497870624279520E+00 
    2.7394917959293177E+00 
    2.6751181951988841E+00 
    2.6136089018789312E+00 
    2.6129953023237227E+00 
    2.6207181328094578E+00 
    2.6165135292541564E+00 
    2.7095332597757800E+00 
    2.6170390371706889E+00 
    2.6422531554893292E+00 
    2.6457153212276641E+00 
    2.8146972568084561E+00 
    2.7144564077783349E+00 
    2.6419981777239649E+00 
    2.7802117508729851E+00 
    2.6925568042836656E+00 
    2.6724705237870707E+00 
    2.7608617619423654E+00 
    2.8116418587034921E+00 
    2.7454882338413960E+00 
    2.7485548781374098E+00 
    2.7208575479941035E+00 
    2.7376785982602900E+00 
    2.7651172610640660E+00 
    2.7620176766551263E+00 
    2.7584906141190024E+00 
    2.7633745700832213E+00 
    2.7271485644803093E+00 
    2.7767119440439196E+00 
    2.7766744332215367E+00 
    2.7421320054085743E+00 
    2.7519483370824771E+00 
    2.7995728982760948E+00 
    2.7638117083214286E+00 
    2.7736051556469707E+00 
    2.8036249480111275E+00 
    2.6904878271754797E+00 
    2.6772316884595124E+00 
    2.7404144222529712E+00 
    2.7819262616310572E+00 
    2.8122740525850847E+00 
    2.7772017052407292E+00 
    2.6179355371000006E+00 
    2.6730199959012082E+00 
    2.7373275988695687E+00 
    2.7048701778703581E+00 
    2.6533476211687779E+00 
    2.7646972844611990E+00 
    2.7361026374187332E+00 
    2.6480125065644455E+00 
    2.7538526722207668E+00 
    2.6633625117417155E+00 
    2.6782805523346345E+00 
    2.6729772118654958E+00 
    2.7429396396919876E+00 
    2.7747010160276604E+00 
    2.7961021901648109E+00 
    2.7625528672083726E+00 
    2.7900291933268297E+00 
    2.6593549837109847E+00 
    2.6445413953704899E+00 
    2.7959663091977571E+00 
    2.7579819550880709E+00 
    2.6149343476576021E+00 
    2.6158541261322563E+00 
    2.8077563712520663E+00 
    2.7287709520307311E+00 
    2.7664453601798540E+00 
    2.7374530310430925E+00 
    2.6935157601231516E+00 
    2.7412247064749575E+00 
    2.7558455408167988E+00 
    2.7251805674929344E+00 
    2.7196158523944494E+00 
    2.7192978024780321E+00 
    2.6146109194588072E+00 
    2.7858849466098148E+00 
    2.8279379176406589E+00 
    2.6156387438105213E+00 
    2.6151390992014774E+00 
    2.6162178902692159E+00 
    2.6153974057505511E+00 
    2.6208583587585261E+00 
    2.7675857162012520E+00 
    2.6968144190572589E+00 
    2.6313832028922053E+00 
    2.7534728963838382E+00 
    2.7509750155765440E+00 
    2.6877641540828292E+00 
    2.7073257990538520E+00 
    2.6968687225840395E+00 
    2.7233581002111840E+00 
    2.7925028593986374E+00 
    2.6149599694909069E+00 
    2.6160426624786250E+00 
    2.6658707507384811E+00 
    2.7150635519139383E+00 
    2.7709920797692189E+00 
    2.6422516866142884E+00 
    2.7955222585558488E+00 
    2.6194387661841452E+00 
    2.6910224285221918E+00 
    2.6110195018919287E+00 
    2.6114534460868999E+00 
    2.6335863827048263E+00 
    2.7964505134624620E+00 
    2.7362551651781755E+00 
    2.7036422000193037E+00 
    2.7271925204834861E+00 
    2.7489248043045240E+00 
    2.6199782363182016E+00 
    2.7006728580242605E+00 
    2.7375386953789196E+00 
    2.7952305587063080E+00 
    2.7851331250746383E+00 
    2.7813388832474901E+00 
    2.7961076892205652E+00 
    2.8027722284715586E+00 
    2.7209167735460711E+00 
    2.6452349646702711E+00 
    2.7471685995577939E+00 
    2.7451110648267303E+00 
    2.6948744831978262E+00 
    2.6208324432300198E+00 
    2.7419297515432808E+00 
    2.7592789347380582E+00 
    2.7683895034559929E+00 
    2.7545060916974342E+00 
    2.6181609630545903E+00 
    2.7486803797490258E+00 
    2.7435525826170677E+00 
    2.6272474200696987E+00 
    2.6565688084488315E+00 
    2.7366673282190406E+00 
    2.7522162411179858E+00 
    2.7462664676728279E+00 
    2.7609168409778602E+00 
    2.7598566489388294E+00 
    2.7932641875333579E+00 
    2.7407875029456021E+00 
    2.7743360462323756E+00 
    2.7321351349330159E+00 
    2.7488760221934276E+00 
    2.6189139941084525E+00 
    2.8101897751077738E+00 
    2.7889869921808361E+00 
    2.8016864803766377E+00 
    2.6939297474094448E+00 
    2.6794070069804858E+00 
    2.6619156547130989E+00 
    2.7662180960223131E+00 
    2.7372315748878164E+00 
    2.7702422602394963E+00 
    2.6851972139728835E+00 
    2.6309935144088805E+00 
    2.6508895215820720E+00 
    2.7814003242823153E+00 
    2.6464926172497272E+00 
    2.7221419151773159E+00 
    2.6653256157004468E+00 
    2.7801276097230052E+00 
    2.7346879002844933E+00 
    2.7187612204142404E+00 
    2.8050057091938472E+00 
    2.7982594638389875E+00 
    2.7057109530753940E+00 
    2.6950385736752382E+00 
    2.6700054397213435E+00 
    2.7125373493255784E+00 
    2.7689830264028346E+00 
    2.6163333718667841E+00 
    2.7915088335113420E+00 
    2.8050674234144499E+00 
    2.7035399949100984E+00 
    2.6977795736938015E+00 
    2.6390961341201784E+00 
    2.6202174157077391E+00 
    2.8004239497061443E+00 
    2.6801959460350586E+00 
    2.7382240185790359E+00 
    2.7038093271135613E+00 
    2.7498655645778056E+00 
    2.6529758832458521E+00 
    2.7246082062047079E+00 
    2.8000632193110921E+00 
    2.6689372368764275E+00 
    2.7027774685841712E+00 
    2.6617022894094764E+00 
    2.7130963138482116E+00 
    2.8069613523309029E+00 
    2.6750895001659964E+00 
    2.7363690167031716E+00 
    2.6864262940107801E+00 
    2.6324072266175733E+00 
    2.7600373276455077E+00 
    2.7601486469915026E+00 
    2.7447374696142082E+00 
    2.6846444651862353E+00 
    2.6810247189924885E+00 
    2.6413264583996394E+00 
    2.7396491223348343E+00 
    2.7590255277252216E+00 
    2.7210663824889449E+00 
    2.6426792943689095E+00 
    2.6768005940892419E+00 