# vtk DataFile Version 2.0
Pressure Field Data 
ASCII 
DATASET UNSTRUCTURED_GRID 

POINTS 2213 double 

    0.0000000000000000E+00     0.0000000000000000E+00     0.0000000000000000E+00 
    5.0000000000000000E-01     0.0000000000000000E+00     0.0000000000000000E+00 
    1.0000000000000000E+00     0.0000000000000000E+00     0.0000000000000000E+00 
    1.0000000000000000E+00     5.0000000000000000E-01     0.0000000000000000E+00 
    1.0000000000000000E+00     1.0000000000000000E+00     0.0000000000000000E+00 
    5.0000000000000000E-01     1.0000000000000000E+00     0.0000000000000000E+00 
    0.0000000000000000E+00     1.0000000000000000E+00     0.0000000000000000E+00 
    0.0000000000000000E+00     5.0000000000000000E-01     0.0000000000000000E+00 
    1.5624999999971041E-02     0.0000000000000000E+00     0.0000000000000000E+00 
    3.1249999999936742E-02     0.0000000000000000E+00     0.0000000000000000E+00 
    4.6874999999913257E-02     0.0000000000000000E+00     0.0000000000000000E+00 
    6.2499999999889783E-02     0.0000000000000000E+00     0.0000000000000000E+00 
    7.8124999999844805E-02     0.0000000000000000E+00     0.0000000000000000E+00 
    9.3749999999799827E-02     0.0000000000000000E+00     0.0000000000000000E+00 
    1.0937499999975490E-01     0.0000000000000000E+00     0.0000000000000000E+00 
    1.2499999999970990E-01     0.0000000000000000E+00     0.0000000000000000E+00 
    1.4062499999966460E-01     0.0000000000000000E+00     0.0000000000000000E+00 
    1.5624999999961930E-01     0.0000000000000000E+00     0.0000000000000000E+00 
    1.7187499999957390E-01     0.0000000000000000E+00     0.0000000000000000E+00 
    1.8749999999952860E-01     0.0000000000000000E+00     0.0000000000000000E+00 
    2.0312499999948330E-01     0.0000000000000000E+00     0.0000000000000000E+00 
    2.1874999999943801E-01     0.0000000000000000E+00     0.0000000000000000E+00 
    2.3437499999939271E-01     0.0000000000000000E+00     0.0000000000000000E+00 
    2.4999999999934730E-01     0.0000000000000000E+00     0.0000000000000000E+00 
    2.6562499999938810E-01     0.0000000000000000E+00     0.0000000000000000E+00 
    2.8124999999942890E-01     0.0000000000000000E+00     0.0000000000000000E+00 
    2.9687499999946970E-01     0.0000000000000000E+00     0.0000000000000000E+00 
    3.1249999999951050E-01     0.0000000000000000E+00     0.0000000000000000E+00 
    3.2812499999955130E-01     0.0000000000000000E+00     0.0000000000000000E+00 
    3.4374999999959210E-01     0.0000000000000000E+00     0.0000000000000000E+00 
    3.5937499999963290E-01     0.0000000000000000E+00     0.0000000000000000E+00 
    3.7499999999967371E-01     0.0000000000000000E+00     0.0000000000000000E+00 
    3.9062499999971451E-01     0.0000000000000000E+00     0.0000000000000000E+00 
    4.0624999999975520E-01     0.0000000000000000E+00     0.0000000000000000E+00 
    4.2187499999979600E-01     0.0000000000000000E+00     0.0000000000000000E+00 
    4.3749999999983680E-01     0.0000000000000000E+00     0.0000000000000000E+00 
    4.5312499999987760E-01     0.0000000000000000E+00     0.0000000000000000E+00 
    4.6874999999991840E-01     0.0000000000000000E+00     0.0000000000000000E+00 
    4.8437499999995920E-01     0.0000000000000000E+00     0.0000000000000000E+00 
    5.1562499999992384E-01     0.0000000000000000E+00     0.0000000000000000E+00 
    5.3124999999985478E-01     0.0000000000000000E+00     0.0000000000000000E+00 
    5.4687499999994527E-01     0.0000000000000000E+00     0.0000000000000000E+00 
    5.6249999999998668E-01     0.0000000000000000E+00     0.0000000000000000E+00 
    5.7812499999998068E-01     0.0000000000000000E+00     0.0000000000000000E+00 
    5.9374999999994749E-01     0.0000000000000000E+00     0.0000000000000000E+00 
    6.0937499999997913E-01     0.0000000000000000E+00     0.0000000000000000E+00 
    6.2500000000000000E-01     0.0000000000000000E+00     0.0000000000000000E+00 
    6.4062499999998945E-01     0.0000000000000000E+00     0.0000000000000000E+00 
    6.5624999999996603E-01     0.0000000000000000E+00     0.0000000000000000E+00 
    6.7187499999995337E-01     0.0000000000000000E+00     0.0000000000000000E+00 
    6.8749999999998734E-01     0.0000000000000000E+00     0.0000000000000000E+00 
    7.0312499999998124E-01     0.0000000000000000E+00     0.0000000000000000E+00 
    7.1874999999997025E-01     0.0000000000000000E+00     0.0000000000000000E+00 
    7.3437499999999034E-01     0.0000000000000000E+00     0.0000000000000000E+00 
    7.5000000000000000E-01     0.0000000000000000E+00     0.0000000000000000E+00 
    7.6562499999996902E-01     0.0000000000000000E+00     0.0000000000000000E+00 
    7.8124999999993228E-01     0.0000000000000000E+00     0.0000000000000000E+00 
    7.9687499999989997E-01     0.0000000000000000E+00     0.0000000000000000E+00 
    8.1249999999996247E-01     0.0000000000000000E+00     0.0000000000000000E+00 
    8.2812499999999578E-01     0.0000000000000000E+00     0.0000000000000000E+00 
    8.4374999999999556E-01     0.0000000000000000E+00     0.0000000000000000E+00 
    8.5937500000000111E-01     0.0000000000000000E+00     0.0000000000000000E+00 
    8.7499999999997691E-01     0.0000000000000000E+00     0.0000000000000000E+00 
    8.9062500000000921E-01     0.0000000000000000E+00     0.0000000000000000E+00 
    9.0625000000004452E-01     0.0000000000000000E+00     0.0000000000000000E+00 
    9.2187500000005529E-01     0.0000000000000000E+00     0.0000000000000000E+00 
    9.3750000000012723E-01     0.0000000000000000E+00     0.0000000000000000E+00 
    9.5312500000011835E-01     0.0000000000000000E+00     0.0000000000000000E+00 
    9.6875000000005151E-01     0.0000000000000000E+00     0.0000000000000000E+00 
    9.8437500000003086E-01     0.0000000000000000E+00     0.0000000000000000E+00 
    1.0000000000000000E+00     1.5624999999971041E-02     0.0000000000000000E+00 
    1.0000000000000000E+00     3.1249999999936742E-02     0.0000000000000000E+00 
    1.0000000000000000E+00     4.6874999999913257E-02     0.0000000000000000E+00 
    1.0000000000000000E+00     6.2499999999889783E-02     0.0000000000000000E+00 
    1.0000000000000000E+00     7.8124999999844805E-02     0.0000000000000000E+00 
    1.0000000000000000E+00     9.3749999999799827E-02     0.0000000000000000E+00 
    1.0000000000000000E+00     1.0937499999975490E-01     0.0000000000000000E+00 
    1.0000000000000000E+00     1.2499999999970990E-01     0.0000000000000000E+00 
    1.0000000000000000E+00     1.4062499999966460E-01     0.0000000000000000E+00 
    1.0000000000000000E+00     1.5624999999961930E-01     0.0000000000000000E+00 
    1.0000000000000000E+00     1.7187499999957390E-01     0.0000000000000000E+00 
    1.0000000000000000E+00     1.8749999999952860E-01     0.0000000000000000E+00 
    1.0000000000000000E+00     2.0312499999948330E-01     0.0000000000000000E+00 
    1.0000000000000000E+00     2.1874999999943801E-01     0.0000000000000000E+00 
    1.0000000000000000E+00     2.3437499999939271E-01     0.0000000000000000E+00 
    1.0000000000000000E+00     2.4999999999934730E-01     0.0000000000000000E+00 
    1.0000000000000000E+00     2.6562499999938810E-01     0.0000000000000000E+00 
    1.0000000000000000E+00     2.8124999999942890E-01     0.0000000000000000E+00 
    1.0000000000000000E+00     2.9687499999946970E-01     0.0000000000000000E+00 
    1.0000000000000000E+00     3.1249999999951050E-01     0.0000000000000000E+00 
    1.0000000000000000E+00     3.2812499999955130E-01     0.0000000000000000E+00 
    1.0000000000000000E+00     3.4374999999959210E-01     0.0000000000000000E+00 
    1.0000000000000000E+00     3.5937499999963290E-01     0.0000000000000000E+00 
    1.0000000000000000E+00     3.7499999999967371E-01     0.0000000000000000E+00 
    1.0000000000000000E+00     3.9062499999971451E-01     0.0000000000000000E+00 
    1.0000000000000000E+00     4.0624999999975520E-01     0.0000000000000000E+00 
    1.0000000000000000E+00     4.2187499999979600E-01     0.0000000000000000E+00 
    1.0000000000000000E+00     4.3749999999983680E-01     0.0000000000000000E+00 
    1.0000000000000000E+00     4.5312499999987760E-01     0.0000000000000000E+00 
    1.0000000000000000E+00     4.6874999999991840E-01     0.0000000000000000E+00 
    1.0000000000000000E+00     4.8437499999995920E-01     0.0000000000000000E+00 
    1.0000000000000000E+00     5.1562499999992384E-01     0.0000000000000000E+00 
    1.0000000000000000E+00     5.3124999999985478E-01     0.0000000000000000E+00 
    1.0000000000000000E+00     5.4687499999994527E-01     0.0000000000000000E+00 
    1.0000000000000000E+00     5.6249999999998668E-01     0.0000000000000000E+00 
    1.0000000000000000E+00     5.7812499999998068E-01     0.0000000000000000E+00 
    1.0000000000000000E+00     5.9374999999994749E-01     0.0000000000000000E+00 
    1.0000000000000000E+00     6.0937499999997913E-01     0.0000000000000000E+00 
    1.0000000000000000E+00     6.2500000000000000E-01     0.0000000000000000E+00 
    1.0000000000000000E+00     6.4062499999998945E-01     0.0000000000000000E+00 
    1.0000000000000000E+00     6.5624999999996603E-01     0.0000000000000000E+00 
    1.0000000000000000E+00     6.7187499999995337E-01     0.0000000000000000E+00 
    1.0000000000000000E+00     6.8749999999998734E-01     0.0000000000000000E+00 
    1.0000000000000000E+00     7.0312499999998124E-01     0.0000000000000000E+00 
    1.0000000000000000E+00     7.1874999999997025E-01     0.0000000000000000E+00 
    1.0000000000000000E+00     7.3437499999999034E-01     0.0000000000000000E+00 
    1.0000000000000000E+00     7.5000000000000000E-01     0.0000000000000000E+00 
    1.0000000000000000E+00     7.6562499999996902E-01     0.0000000000000000E+00 
    1.0000000000000000E+00     7.8124999999993228E-01     0.0000000000000000E+00 
    1.0000000000000000E+00     7.9687499999989997E-01     0.0000000000000000E+00 
[...]
CELL_DATA 2084 
SCALARS Pressure double 1 
LOOKUP_TABLE default 

    2.0754058870478622E+00 
    2.1001023724342871E+00 
    2.2775983142272098E+00 
    2.1007722432938736E+00 
    2.1974843186161732E+00 
    2.1566619137538399E+00 
    2.0506521283786485E+00 
    2.1425484616563262E+00 
    2.1518846889337326E+00 
    2.2015192095284752E+00 
    2.2719101548580958E+00 
    2.0633447157158415E+00 
    2.1324817408291468E+00 
    2.0977397772683455E+00 
    2.0709965051449153E+00 
    2.0884389709545648E+00 
    2.2333353775147109E+00 
    2.1159164847064411E+00 
    2.3032562049739460E+00 
    2.0814489511959238E+00 
    2.0847125645460154E+00 
    2.1815177475481020E+00 
    2.0869685321542053E+00 
    2.1288346801118756E+00 
    2.0782485432537130E+00 
    2.1302319750991097E+00 
    2.0936115212250228E+00 
    2.0536049007822950E+00 
    2.1364769858886508E+00 
    2.1061205406496670E+00 
    2.0439920355480994E+00 
    2.1431238312013070E+00 
    2.0336441377919958E+00 
    2.0840394543805711E+00 
    2.0665021208582597E+00 
    2.1916559697061540E+00 
    2.1110837493364034E+00 
    2.1072660438999269E+00 
    2.1814998496939864E+00 
    2.1440296429411170E+00 
    2.0556767116052979E+00 
    2.2058678377947367E+00 
    2.0785278942816152E+00 
    2.1629237498368714E+00 
    2.1558065108675089E+00 
    2.0620543239129838E+00 
    2.2043302657193751E+00 
    2.0479539432598250E+00 
    2.0494796010950149E+00 
    2.1331684454689417E+00 
    2.1308313084380623E+00 
    2.0529782934773202E+00 
    2.0619929414833300E+00 
    2.1187474346177111E+00 
    2.1197850857891063E+00 
    2.0559605239005556E+00 
    2.0382442820370850E+00 
    2.1687845699735147E+00 
    2.1792322319358437E+00 
    2.1260393519252272E+00 
    2.1248443980870442E+00 
    2.0820522703803461E+00 
    2.0652581892756783E+00 
    2.0956391464434634E+00 
    2.2019824242291586E+00 
    2.1222812807158120E+00 
    2.1517208549321749E+00 
    2.0606871383445600E+00 
    2.0485289925635191E+00 
    2.0475933199911029E+00 
    2.0765192351634445E+00 
    2.3328399616368207E+00 
    2.1309375707171561E+00 
    2.2557815665653158E+00 
    2.1758483027416986E+00 
    2.2532890774207970E+00 
    2.1269085599437454E+00 
    2.1944586101939874E+00 
    2.0630726001033675E+00 
    2.2106481251453958E+00 
    2.0875742170225458E+00 
    2.1436880635838826E+00 
    2.1675544326547653E+00 
    2.0432361105551977E+00 
    2.1563789983739841E+00 
    2.0855925340506296E+00 
    2.1134854045280211E+00 
    2.1586676369851054E+00 
    2.1770006109844293E+00 
    2.1688158837987270E+00 
    2.1523698087993748E+00 
    2.1491542494266644E+00 
    2.0892742681039849E+00 
    2.1671239100929229E+00 
    2.1155761642556175E+00 
    2.0527202983813719E+00 
    2.1026948253183875E+00 
    2.1373605570658825E+00 
    2.1885291321064115E+00 
    2.1060495483501063E+00 
    2.1995470394792602E+00 
    2.1650905987821831E+00 
    2.1794959915934555E+00 
    2.1807295626951855E+00 
    2.1159630938483414E+00 
    2.1666241854084674E+00 
    2.1416790359871114E+00 
    2.1891683181776056E+00 
    2.0733654888159969E+00 
    2.3647279970741550E+00 
    2.0918919063225627E+00 
    2.1364975361634522E+00 
    2.1643993923462550E+00 
    2.2149372212448899E+00 
    2.2659281454398301E+00 
    2.0970436222162627E+00 
    2.1672418071280291E+00 
    2.1642523370532767E+00 
    2.1079278707876994E+00 
    2.0794305736472620E+00 
    2.1217590055260689E+00 
    2.1783754054116531E+00 
    2.0796434916586941E+00 
    2.2410340236806907E+00 
    2.1405351228736436E+00 
    2.1788454081717066E+00 
    2.1235314964832823E+00 
    2.0796642772439902E+00 
    2.1114786620299424E+00 
    2.0872748613022289E+00 
    2.2622990551539721E+00 
    2.2744423956591584E+00 
    2.0576081185452648E+00 
    2.2019426960913981E+00 
    2.1887860416993794E+00 
    2.1246251775959628E+00 
    2.1713220329593774E+00 
    2.0785731648604422E+00 
    2.1873243374127931E+00 
    2.2465346791588017E+00 
    2.1549636122192810E+00 
    2.2881082665008399E+00 
    2.2560283829036218E+00 
    2.1404319555979856E+00 
    2.0973362442504206E+00 
    2.1367037775487252E+00 
    2.1654195517527950E+00 
    2.1861576232181488E+00 
    2.1156030144881979E+00 
    2.1539211841613684E+00 
    2.1589916692292999E+00 
    2.2474774716061447E+00 
    2.3199255809366517E+00 
    2.1150412198832522E+00 
    2.1232439491435930E+00 
    2.3031577966135139E+00 
    2.0864814462438979E+00 
    2.1615526189174363E+00 
    2.1190456972021505E+00 
    2.2406417733954247E+00 
    2.4446215078031632E+00 
    2.3840330716526807E+00 
    2.3235838998003535E+00 
    2.3440105532425166E+00 
    2.2956344004538893E+00 
    2.3119697135918802E+00 
    2.1634857939587042E+00 
    2.3580930622827267E+00 
    2.1555594444780484E+00 
    2.3049113436639392E+00 
    2.1558495821742074E+00 
    2.2342545679544670E+00 
    2.2516007306834722E+00 
    2.1919255350907121E+00 
    2.2271956934022348E+00 
    2.1047069854660219E+00 
    2.2300584385985203E+00 
    2.1471533645831604E+00 
    2.1540862254515885E+00 
    2.1530667003722304E+00 
    2.1755699140210756E+00 
    2.1027976895499245E+00 
    2.2349696446644653E+00 
    2.1777731958212381E+00 
    2.1743764023602865E+00 
    2.0365192649906887E+00 
    2.1970226994236461E+00 
    2.2578692701429404E+00 
    2.1096541488596028E+00 
    2.2173222460748621E+00 
    2.2723844777834032E+00 
    2.2943181745084922E+00 
    2.1759719072480785E+00 
    2.1244656683331620E+00 
    2.0955882399935266E+00 
    2.1118356569267767E+00 
    2.2035987481076127E+00 
    2.1689279735056015E+00 
    2.1214068370415409E+00 
    2.2078314094968232E+00 
    2.1470011365022050E+00 
    2.1139008876930583E+00 
    2.1755815162623655E+00 
    2.0643226768149470E+00 
    2.1132183438685748E+00 
    2.2760054222725565E+00 
    2.2029253924297381E+00 
    2.1059142491037393E+00 
    2.2252588221713681E+00 
    2.2178362259986550E+00 
    2.1184127950019342E+00 
    2.1375354707198788E+00 
    2.1427856865374868E+00 
    2.1936979452310368E+00 
    2.1901953647090542E+00 
    2.2511509089312396E+00 
    2.1331682815007649E+00 
    2.1907561791600125E+00 
    2.2042357247123543E+00 
    2.1226033102732060E+00 
    2.1291942637267613E+00 
    2.0295055673838052E+00 
    2.1244308214149501E+00 
    2.2851091981198839E+00 
    2.1685209031744770E+00 
    2.1896052487372009E+00 
    2.1470514613140921E+00 
    2.1897250393206265E+00 
    2.1121798192445773E+00 
    2.1008895822335618E+00 
    2.0779401942004734E+00 
    2.1094921048184041E+00 
    2.0818791449361962E+00 
    2.1334930694835821E+00 
    2.1771568814958178E+00 
    2.0934222311800204E+00 
    2.2198534545616431E+00 
    2.2219598541274235E+00 
    2.1303441098289309E+00 
    2.1011724870848192E+00 
    2.1772148825507598E+00 
    2.1181527148350376E+00 
    2.0700214626523503E+00 
    2.1121639569927866E+00 
    2.0753691243976213E+00 
    2.0759419045216934E+00 
    2.1221407981687270E+00 
    2.1645903134572122E+00 
    2.2382221836872418E+00 
    2.0661057406325902E+00 
    2.1105060075587811E+00 
    2.0904816094209040E+00 
    2.1100926007771195E+00 
    2.3319577249236434E+00 
    2.0800659391852672E+00 
    2.1425776266272898E+00 
    2.0897641028196068E+00 
    2.1240338352999033E+00 
    2.0985485258540941E+00 
    2.1316535710477074E+00 
    2.0895725017486009E+00 
    2.1284300948640102E+00 
    2.1000813859716549E+00 
    2.1316002328423527E+00 
    2.0962648892482010E+00 
    2.0953635472763921E+00 
    2.0749295271321335E+00 
    2.0840946277897139E+00 
    2.2199384084918101E+00 
    2.0578452000367409E+00 
    2.0660015061135946E+00 
    2.1065996052595821E+00 
    2.0931290666304347E+00 
    2.4000903651134027E+00 
    2.1091351584603091E+00 
    2.1923035995869551E+00 
    2.1023987085653153E+00 
    2.0535334632013336E+00 
    2.1207130256669555E+00 
    2.0850214592271401E+00 
    2.1342534517032954E+00 
    2.0967094300085334E+00 
    2.0971194220130100E+00 
    2.1074149906058257E+00 
    2.0771144057006667E+00 
    2.1089739554366620E+00 
    2.0975898043494570E+00 
    2.0583279814957316E+00 
    2.0879974486634163E+00 
    2.0880693233914256E+00 
    2.1043435392335543E+00 
    2.0517200338583752E+00 
    2.0905326567528766E+00 
    2.1041937633383960E+00 
    2.1333042299108009E+00 
    2.0792892023097251E+00 
    2.0690169729942909E+00 
    2.2034522520960031E+00 
    2.0800565385712306E+00 
    2.1534440006173599E+00 
    2.4001428494489900E+00 
    2.2137476408215462E+00 
    2.1541276226842738E+00 
    2.2345015637064152E+00 
    2.0936987282931048E+00 
    2.0881038832335688E+00 
    2.0680777463887319E+00 
    2.0712111233851527E+00 
    2.0722930280440521E+00 
    2.0658766405682276E+00 
    2.2376179880390756E+00 
    2.0697452662905715E+00 
    2.1217793589783076E+00 
    2.2180345770356586E+00 
    2.1329435623916559E+00 
    2.0796131461260483E+00 
    2.1862079441333879E+00 
    2.0639793873241703E+00 
    2.0644566504202668E+00 
    2.0725167638856061E+00 
    2.3680320500412977E+00 
    2.1655549031337662E+00 
    2.2274209394212674E+00 
    2.2328824307753128E+00 
    2.1416759074210217E+00 
    2.2052824926890908E+00 
    2.0824343507319267E+00 
    2.0232060384081070E+00 
    2.5437418714762674E+00 
    2.0432379258933868E+00 
    2.0569394784953752E+00 
    2.0565312024867257E+00 
    2.1551798139967326E+00 
    2.2170975631948240E+00 
    2.0231159006488735E+00 
    2.2682821529542796E+00 
    2.2894485505015196E+00 
    2.1424173689778949E+00 
    2.0974200857611924E+00 
    2.2552727936410943E+00 
    2.1442690523274326E+00 
    2.0735014168524932E+00 
    2.2270733525018742E+00 
    2.0497296340932976E+00 
    2.0490167336042919E+00 
    2.1528681810863688E+00 
    2.1054351578874124E+00 
    2.0302147804088282E+00 
    2.0971436631036524E+00 
    2.0377062793973195E+00 
    2.2457145024674525E+00 
    2.0430410921334077E+00 
    2.0876202395767742E+00 
    2.2152742976142568E+00 
    2.1051967997339709E+00 
    2.1443906262439136E+00 
    2.0418411466482596E+00 
    2.1255258410200053E+00 
    2.1307238351613176E+00 
    2.0745167698480831E+00 
    2.1056829925154399E+00 
    2.2216286827300062E+00 
    2.0372511540854346E+00 
    2.1037227509363006E+00 
    2.0782728551744536E+00 
    2.0789165581764713E+00 
    2.1192191770440099E+00 
    2.0724797711289673E+00 
    2.1111072123104075E+00 
    2.2338844863758140E+00 
    2.2484779005818250E+00 
    2.0351528206651279E+00 
    2.4112762883951704E+00 
    2.1239151869181638E+00 
    2.0907094333224365E+00 
    2.2762529797298909E+00 
    2.1480266002786044E+00 
    2.1626889213820775E+00 
    2.0783927487221030E+00 
    2.0716742057767075E+00 
    2.1804920990549888E+00 
    2.1430960222341082E+00 
    2.0306847723643719E+00 
    2.0780795365797839E+00 
    2.3039115895898101E+00 
    2.1384087248505947E+00 
    2.2091248089439972E+00 
    2.1533417427171244E+00 
    2.2222322830975063E+00 
    2.1804418504472278E+00 
    2.0293773304362652E+00 
    2.0593315935938912E+00 
    2.0989373830231450E+00 
    2.2499753327544014E+00 
    2.2072186709740902E+00 
    2.0955141426795953E+00 
    2.0726758813411843E+00 
    2.0941660391894317E+00 
    2.0830276120138187E+00 
    2.1927311466874979E+00 
    2.0751053497628122E+00 
    2.1615951098312731E+00 
    2.3442881856249098E+00 
    2.0699390835437934E+00 
    2.3090075570075101E+00 
    2.1142126648938269E+00 
    2.3239209731005679E+00 
    2.2171813515561323E+00 
    2.4567656480641968E+00 
    2.0882136722331621E+00 
    2.2052376192736789E+00 
    2.1313158313812659E+00 
    2.0660672433402190E+00 
    2.2313670124564187E+00 
    2.1234819548682156E+00 
    2.2402663165045804E+00 
    2.0693066922998558E+00 
    2.2077569119792502E+00 
    2.1149312078693701E+00 
    2.1459138750168951E+00 
    2.0420700943545436E+00 
    2.0726871225012604E+00 
    2.0618163266704621E+00 
    2.2708224083581272E+00 
    2.0900012745732228E+00 
    2.3353584635580953E+00 
    2.2875683636257427E+00 
    2.0811676732080469E+00 
    2.1131833827665938E+00 
    2.0993515022401281E+00 
    2.0406973723892472E+00 
    2.1180204616577480E+00 
    2.2209616432163126E+00 
    2.0804769276043755E+00 
    2.0483642118566374E+00 
    2.3631948246614849E+00 
    2.1927300881830734E+00 
    2.0234414155419995E+00 
    2.0232955712666643E+00 
    2.0578082731203020E+00 
    2.0635942702676040E+00 
    2.0465748106296897E+00 
    2.0377189249575394E+00 
    2.0953615713375546E+00 
    2.0861523328157259E+00 
    2.0173851613758802E+00 
    2.0175189503762114E+00 
    1.9883634781639381E+00 
    1.9364271595629012E+00 
    1.9305665540031380E+00 
    1.9356982771270328E+00 
    1.9524820713674038E+00 
    1.9502336741040307E+00 
    1.9994643862902775E+00 
    1.9183079075152834E+00 
    1.9876986942191854E+00 
    1.9222239499372347E+00 
    1.9707248844693963E+00 
    1.9474278846285396E+00 
    1.9451977420273938E+00 
    1.9244609484095458E+00 
    1.9178212412876434E+00 
    2.0350451568105528E+00 
    1.9970087770359355E+00 
    2.0182859572318281E+00 
    1.9932760014366000E+00 
    1.9588194500428582E+00 
    1.9171512310574790E+00 
    1.9146972795945310E+00 
    2.0313297871763432E+00 
    1.9681087396838874E+00 
    1.9166399825905178E+00 
    1.9527348578742523E+00 
    2.0113722987279217E+00 
    2.0110606493667409E+00 
    1.9064147691546016E+00 
    1.9159421707870654E+00 
    1.9704012256466703E+00 
    2.0194835659658459E+00 
    1.9990716288675425E+00 
    1.9596987448271064E+00 
    1.9375422090879528E+00 
    2.0422793865149211E+00 
    2.0204151695673103E+00 
    2.0111603512829181E+00 
    2.0562428198959246E+00 
    1.9369880216258775E+00 
    1.9499545420314581E+00 
    1.9458534531704752E+00 
    2.0296247520206210E+00 
    1.9488390483850357E+00 
    2.0150589863581638E+00 
    1.9816722403022158E+00 
    1.9785589990613681E+00 
    1.9660906073891637E+00 
    1.9701940095055284E+00 
    2.0200212974344947E+00 
    2.0166047908129410E+00 
    1.9761247546775300E+00 
    1.9316457166839465E+00 
    1.9679637104269367E+00 
    1.9634664970671714E+00 
    1.9192346768247008E+00 
    2.0018823511557868E+00 
    1.9217433236311505E+00 
    2.0197055325211108E+00 
    1.9243760528379019E+00 
    1.9883979938542438E+00 
    1.9420667876147240E+00 
    1.9044339402636055E+00 
    1.9057010259369460E+00 
    1.9051504431620114E+00 
    1.8972944822476916E+00 
    1.9662789543494199E+00 
    1.8980855894112523E+00 
    1.9162853552958363E+00 
    1.9181324193657143E+00 
    2.0461878410981478E+00 
    1.9702211648479415E+00 
    1.9180190387162015E+00 
    2.0192311892917734E+00 
    1.9540192482014709E+00 
    1.9388857759337059E+00 
    2.0044850537177661E+00 
    2.0437476852639129E+00 
    1.9928520045929703E+00 
    1.9951924737694602E+00 
    1.9752085034254823E+00 
    1.9870566252722925E+00 
    2.0076092790661626E+00 
    2.0052350695214023E+00 
    2.0027936699627515E+00 
    2.0063612664511901E+00 
    1.9790133016191460E+00 
    2.0170018226385387E+00 
    2.0165588081071113E+00 
    1.9903553645254057E+00 
    1.9977366748160141E+00 
    2.0343104063801309E+00 
    2.0066077244237710E+00 
    2.0141611106631805E+00 
    2.0375005180035117E+00 
    1.9529377190149972E+00 
    1.9428519499079908E+00 
    1.9889038424326086E+00 
    2.0207367708058346E+00 
    2.0442630069444117E+00 
    2.0169234854490310E+00 
    1.9054697089310568E+00 
    1.9411878171969381E+00 
    1.9873198259067524E+00 
    1.9636149438278920E+00 
    1.9248644029313047E+00 
    2.0074893119170261E+00 
    1.9860559465490206E+00 
    1.9248934109431528E+00 
    1.9993164030080508E+00 
    1.9337177211395136E+00 
    1.9445766784383800E+00 
    1.9410383402195164E+00 
    1.9915117819602324E+00 
    2.0152040140231704E+00 
    2.0317374705318278E+00 
    2.0062194055933804E+00 
    2.0268844849857794E+00 
    1.9319615945169888E+00 
    1.9188681075214182E+00 
    2.0314506548673110E+00 
    2.0022741733806790E+00 
    1.9055155961733010E+00 
    1.9042727268376569E+00 
    2.0409025625818442E+00 
    1.9804360240543768E+00 
    2.0086358655346568E+00 
    1.9866370602221688E+00 
    1.9554036535375205E+00 
    1.9895497196643215E+00 
    2.0006670668777842E+00 
    1.9780905142163130E+00 
    1.9736616340933264E+00 
    1.9734485734637655E+00 
    1.8954871900034098E+00 
    2.0236840727282774E+00 
    2.0566586567426839E+00 
    1.8961961568340955E+00 
    1.8957729860037236E+00 
    1.8971123922686217E+00 
    1.8962272077520241E+00 
    1.9037161550988044E+00 
    2.0095210707807247E+00 
    1.9573719428079337E+00 
    1.9147465816289448E+00 
    1.9989065967396613E+00 
    1.9968313307180732E+00 
    1.9496116969041752E+00 
    1.9653369037648445E+00 
    1.9578740883328911E+00 
    1.9770012828261672E+00 
    2.0287505675739612E+00 
    1.8956562988655659E+00 
    1.8966811898918832E+00 
    1.9346399324712589E+00 
    1.9701140688069230E+00 
    2.0122772721824540E+00 
    1.9157919059406130E+00 
    2.0311000086734401E+00 
    1.9008285541108352E+00 
    1.9517496984482561E+00 
    1.9051290455138534E+00 
    1.9040788716171284E+00 
    1.9130113738219399E+00 
    2.0318237833268120E+00 
    1.9860933048015184E+00 
    1.9617318342736667E+00 
    1.9790985513037611E+00 
    1.9952522954114538E+00 
    1.9031141938717049E+00 
    1.9598502279532171E+00 
    1.9868603721780773E+00 
    2.0309107737638268E+00 
    2.0234430976762465E+00 
    2.0204470329806283E+00 
    2.0315684093220732E+00 
    2.0369216569130288E+00 
    1.9748251758322022E+00 
    1.9177842880423532E+00 
    1.9939020420329363E+00 
    1.9923314135531878E+00 
    1.9546917816731237E+00 
    1.9025266046217930E+00 
    1.9899086915511492E+00 
    2.0031454775688795E+00 
    2.0101717390103135E+00 
    1.9995070043038174E+00 
    1.9036797492625455E+00 
    1.9951051026211875E+00 
    1.9912434259093816E+00 
    1.9130919644831539E+00 
    1.9267103216656298E+00 
    1.9865591717414279E+00 
    1.9979220947702938E+00 
    1.9934507432364998E+00 
    2.0045383008692781E+00 
    2.0036918792924236E+00 
    2.0297011480778200E+00 
    1.9893627397911795E+00 
    2.0147618257438960E+00 
    1.9828932046496197E+00 
    1.9953781982789731E+00 
    1.8999255014376886E+00 
    2.0425731517093815E+00 
    2.0261689656823627E+00 
    2.0359962834530703E+00 
    1.9555947261436752E+00 
    1.9441070525541102E+00 
    1.9308897565452099E+00 
    2.0085028048642153E+00 
    1.9867517462575972E+00 
    2.0116135701555504E+00 
    1.9476831729026420E+00 
    1.9138369434395663E+00 
    1.9256222501401670E+00 
    2.0204007527297589E+00 
    1.9216268706519761E+00 
    1.9754904054993518E+00 
    1.9326277597098906E+00 
    2.0191708976848362E+00 
    1.9845146249492531E+00 
    1.9731183412534097E+00 
    2.0385005099480908E+00 
    2.0332319332537576E+00 
    1.9635259632295738E+00 
    1.9557377927974327E+00 
    1.9387247290070464E+00 
    1.9684331853913029E+00 
    2.0110407927082439E+00 
    1.8978168551563190E+00 
    2.0279913095319260E+00 
    2.0385426700212701E+00 
    1.9618769518571282E+00 
    1.9577995559561117E+00 
    1.9145451593427047E+00 
    1.9023168839036300E+00 
    2.0352386229910620E+00 
    1.9443529720505253E+00 
    1.9872552953105451E+00 
    1.9623333244101022E+00 
    1.9966724960228903E+00 
    1.9267775503183586E+00 
    1.9770669742941818E+00 
    2.0348643858663165E+00 
    1.9354870346767439E+00 
    1.9605284000384429E+00 
    1.9329029554058601E+00 
    1.9685883217049502E+00 
    2.0403180580849880E+00 
    1.9401454494773041E+00 
    1.9856914050832291E+00 
    1.9495856483469807E+00 
    1.9154621582098648E+00 
    2.0043502397807647E+00 
    2.0039599532069157E+00 
    1.9928147472314648E+00 
    1.9483978266959985E+00 
    1.9460352628829478E+00 
    1.9197447893221358E+00 
    1.9884048160558006E+00 
    2.0035081861676716E+00 
    1.9743676053693551E+00 
    1.9169086310519505E+00 
    1.9428994950556073E+00 