# vtk DataFile Version 2.0
Pressure Field Data 
ASCII 
DATASET UNSTRUCTURED_GRID 

POINTS 2213 double 

    0.0000000000000000E+00     0.0000000000000000E+00     0.0000000000000000E+00 
    5.0000000000000000E-01     0.0000000000000000E+00     0.0000000000000000E+00 
    1.0000000000000000E+00     0.0000000000000000E+00     0.0000000000000000E+00 
    1.0000000000000000E+00     5.0000000000000000E-01     0.0000000000000000E+00 
    1.0000000000000000E+00     1.0000000000000000E+00     0.0000000000000000E+00 
    5.0000000000000000E-01     1.0000000000000000E+00     0.0000000000000000E+00 
    0.0000000000000000E+00     1.0000000000000000E+00     0.0000000000000000E+00 
    0.0000000000000000E+00     5.0000000000000000E-01     0.0000000000000000E+00 
    1.5624999999971041E-02     0.0000000000000000E+00     0.0000000000000000E+00 
    3.1249999999936742E-02     0.0000000000000000E+00     0.0000000000000000E+00 
    4.6874999999913257E-02     0.0000000000000000E+00     0.0000000000000000E+00 
    6.2499999999889783E-02     0.0000000000000000E+00     0.0000000000000000E+00 
    7.8124999999844805E-02     0.0000000000000000E+00     0.0000000000000000E+00 
    9.3749999999799827E-02     0.0000000000000000E+00     0.0000000000000000E+00 
    1.0937499999975490E-01     0.0000000000000000E+00     0.0000000000000000E+00 
    1.2499999999970990E-01     0.0000000000000000E+00     0.0000000000000000E+00 
    1.4062499999966460E-01     0.0000000000000000E+00     0.0000000000000000E+00 
    1.5624999999961930E-01     0.0000000000000000E+00     0.0000000000000000E+00 
    1.7187499999957390E-01     0.0000000000000000E+00     0.0000000000000000E+00 
    1.8749999999952860E-01     0.0000000000000000E+00     0.0000000000000000E+00 
    2.0312499999948330E-01     0.0000000000000000E+00     0.0000000000000000E+00 
    2.1874999999943801E-01     0.0000000000000000E+00     0.0000000000000000E+00 
    2.3437499999939271E-01     0.0000000000000000E+00     0.0000000000000000E+00 
    2.4999999999934730E-01     0.0000000000000000E+00     0.0000000000000000E+00 
    2.6562499999938810E-01     0.0000000000000000E+00     0.0000000000000000E+00 
    2.8124999999942890E-01     0.0000000000000000E+00     0.0000000000000000E+00 
    2.9687499999946970E-01     0.0000000000000000E+00     0.0000000000000000E+00 
    3.1249999999951050E-01     0.0000000000000000E+00     0.0000000000000000E+00 
    3.2812499999955130E-01     0.0000000000000000E+00     0.0000000000000000E+00 
    3.4374999999959210E-01     0.0000000000000000E+00     0.0000000000000000E+00 
    3.5937499999963290E-01     0.0000000000000000E+00     0.0000000000000000E+00 
    3.7499999999967371E-01     0.0000000000000000E+00     0.0000000000000000E+00 
    3.9062499999971451E-01     0.0000000000000000E+00     0.0000000000000000E+00 
    4.0624999999975520E-01     0.0000000000000000E+00     0.0000000000000000E+00 
    4.2187499999979600E-01     0.0000000000000000E+00     0.0000000000000000E+00 
    4.3749999999983680E-01     0.0000000000000000E+00     0.0000000000000000E+00 
    4.5312499999987760E-01     0.0000000000000000E+00     0.0000000000000000E+00 
    4.6874999999991840E-01     0.0000000000000000E+00     0.0000000000000000E+00 
    4.8437499999995920E-01     0.0000000000000000E+00     0.0000000000000000E+00 
    5.1562499999992384E-01     0.0000000000000000E+00     0.0000000000000000E+00 
    5.3124999999985478E-01     0.0000000000000000E+00     0.0000000000000000E+00 
    5.4687499999994527E-01     0.0000000000000000E+00     0.0000000000000000E+00 
    5.6249999999998668E-01     0.0000000000000000E+00     0.0000000000000000E+00 
    5.7812499999998068E-01     0.0000000000000000E+00     0.0000000000000000E+00 
    5.9374999999994749E-01     0.0000000000000000E+00     0.0000000000000000E+00 
    6.0937499999997913E-01     0.0000000000000000E+00     0.0000000000000000E+00 
    6.2500000000000000E-01     0.0000000000000000E+00     0.0000000000000000E+00 
    6.4062499999998945E-01     0.0000000000000000E+00     0.0000000000000000E+00 
    6.5624999999996603E-01     0.0000000000000000E+00     0.0000000000000000E+00 
    6.7187499999995337E-01     0.0000000000000000E+00     0.0000000000000000E+00 
    6.8749999999998734E-01     0.0000000000000000E+00     0.0000000000000000E+00 
    7.0312499999998124E-01     0.0000000000000000E+00     0.0000000000000000E+00 
    7.1874999999997025E-01     0.0000000000000000E+00     0.0000000000000000E+00 
    7.3437499999999034E-01     0.0000000000000000E+00     0.0000000000000000E+00 
    7.5000000000000000E-01     0.0000000000000000E+00     0.0000000000000000E+00 
    7.6562499999996902E-01     0.0000000000000000E+00     0.0000000000000000E+00 
    7.8124999999993228E-01     0.0000000000000000E+00     0.0000000000000000E+00 
    7.9687499999989997E-01     0.0000000000000000E+00     0.0000000000000000E+00 
    8.1249999999996247E-01     0.0000000000000000E+00     0.0000000000000000E+00 
    8.2812499999999578E-01     0.0000000000000000E+00     0.0000000000000000E+00 
    8.4374999999999556E-01     0.0000000000000000E+00     0.0000000000000000E+00 
    8.5937500000000111E-01     0.0000000000000000E+00     0.0000000000000000E+00 
    8.7499999999997691E-01     0.0000000000000000E+00     0.0000000000000000E+00 
    8.9062500000000921E-01     0.0000000000000000E+00     0.0000000000000000E+00 
    9.0625000000004452E-01     0.0000000000000000E+00     0.0000000000000000E+00 
    9.2187500000005529E-01     0.0000000000000000E+00     0.0000000000000000E+00 
    9.3750000000012723E-01     0.0000000000000000E+00     0.0000000000000000E+00 
    9.5312500000011835E-01     0.0000000000000000E+00     0.0000000000000000E+00 
    9.6875000000005151E-01     0.0000000000000000E+00     0.0000000000000000E+00 
    9.8437500000003086E-01     0.0000000000000000E+00     0.0000000000000000E+00 
    1.0000000000000000E+00     1.5624999999971041E-02     0.0000000000000000E+00 
    1.0000000000000000E+00     3.1249999999936742E-02     0.0000000000000000E+00 
    1.0000000000000000E+00     4.6874999999913257E-02     0.0000000000000000E+00 
    1.0000000000000000E+00     6.2499999999889783E-02     0.0000000000000000E+00 
    1.0000000000000000E+00     7.8124999999844805E-02     0.0000000000000000E+00 
    1.0000000000000000E+00     9.3749999999799827E-02     0.0000000000000000E+00 
    1.0000000000000000E+00     1.0937499999975490E-01     0.0000000000000000E+00 
    1.0000000000000000E+00     1.2499999999970990E-01     0.0000000000000000E+00 
    1.0000000000000000E+00     1.4062499999966460E-01     0.0000000000000000E+00 
    1.0000000000000000E+00     1.5624999999961930E-01     0.0000000000000000E+00 
    1.0000000000000000E+00     1.7187499999957390E-01     0.0000000000000000E+00 
    1.0000000000000000E+00     1.8749999999952860E-01     0.0000000000000000E+00 
    1.0000000000000000E+00     2.0312499999948330E-01     0.0000000000000000E+00 
    1.0000000000000000E+00     2.1874999999943801E-01     0.0000000000000000E+00 
    1.0000000000000000E+00     2.3437499999939271E-01     0.0000000000000000E+00 
    1.0000000000000000E+00     2.4999999999934730E-01     0.0000000000000000E+00 
    1.0000000000000000E+00     2.6562499999938810E-01     0.0000000000000000E+00 
    1.0000000000000000E+00     2.8124999999942890E-01     0.0000000000000000E+00 
    1.0000000000000000E+00     2.9687499999946970E-01     0.0000000000000000E+00 
    1.0000000000000000E+00     3.1249999999951050E-01     0.0000000000000000E+00 
    1.0000000000000000E+00     3.2812499999955130E-01     0.0000000000000000E+00 
    1.0000000000000000E+00     3.4374999999959210E-01     0.0000000000000000E+00 
    1.0000000000000000E+00     3.5937499999963290E-01     0.0000000000000000E+00 
    1.0000000000000000E+00     3.7499999999967371E-01     0.0000000000000000E+00 
    1.0000000000000000E+00     3.9062499999971451E-01     0.0000000000000000E+00 
    1.0000000000000000E+00     4.0624999999975520E-01     0.0000000000000000E+00 
    1.0000000000000000E+00     4.2187499999979600E-01     0.0000000000000000E+00 
    1.0000000000000000E+00     4.3749999999983680E-01     0.0000000000000000E+00 
    1.0000000000000000E+00     4.5312499999987760E-01     0.0000000000000000E+00 
    1.0000000000000000E+00     4.6874999999991840E-01     0.0000000000000000E+00 
    1.0000000000000000E+00     4.8437499999995920E-01     0.0000000000000000E+00 
    1.0000000000000000E+00     5.1562499999992384E-01     0.0000000000000000E+00 
    1.0000000000000000E+00     5.3124999999985478E-01     0.0000000000000000E+00 
    1.0000000000000000E+00     5.4687499999994527E-01     0.0000000000000000E+00 
    1.0000000000000000E+00     5.6249999999998668E-01     0.0000000000000000E+00 
    1.0000000000000000E+00     5.7812499999998068E-01     0.0000000000000000E+00 
    1.0000000000000000E+00     5.9374999999994749E-01     0.0000000000000000E+00 
    1.0000000000000000E+00     6.0937499999997913E-01     0.0000000000000000E+00 
    1.0000000000000000E+00     6.2500000000000000E-01     0.0000000000000000E+00 
    1.0000000000000000E+00     6.4062499999998945E-01     0.0000000000000000E+00 
    1.0000000000000000E+00     6.5624999999996603E-01     0.0000000000000000E+00 
    1.0000000000000000E+00     6.7187499999995337E-01     0.0000000000000000E+00 
    1.0000000000000000E+00     6.8749999999998734E-01     0.0000000000000000E+00 
    1.0000000000000000E+00     7.0312499999998124E-01     0.0000000000000000E+00 
    1.0000000000000000E+00     7.1874999999997025E-01     0.0000000000000000E+00 
    1.0000000000000000E+00     7.3437499999999034E-01     0.0000000000000000E+00 
    1.0000000000000000E+00     7.5000000000000000E-01     0.0000000000000000E+00 
    1.0000000000000000E+00     7.6562499999996902E-01     0.0000000000000000E+00 
    1.0000000000000000E+00     7.8124999999993228E-01     0.0000000000000000E+00 
    1.0000000000000000E+00     7.9687499999989997E-01     0.0000000000000000E+00 
[...]
CELL_DATA 2084 
SCALARS Pressure double 1 
LOOKUP_TABLE default 

    2.9549177662612003E+00 
    2.9904679598350747E+00 
    3.2086801311514450E+00 
    2.9914231225992478E+00 
    3.1170767848302825E+00 
    3.0661484018254805E+00 
    2.9182031660851586E+00 
    3.0477712198199245E+00 
    3.0599960315849657E+00 
    3.1219058093225662E+00 
    3.2024297418021432E+00 
    2.9369290251788751E+00 
    3.0346288779597570E+00 
    2.9866708467076526E+00 
    2.9488037170184360E+00 
    2.9734230977006315E+00 
    3.1592161215101111E+00 
    3.0119991725875588E+00 
    3.2364698796796123E+00 
    2.9640754252548516E+00 
    2.9685863683020886E+00 
    3.0975512231116853E+00 
    2.9713303671429037E+00 
    3.0297538424156847E+00 
    2.9594268831175063E+00 
    3.0313996978290465E+00 
    2.9811536661356519E+00 
    2.9223647608729397E+00 
    3.0398040351733444E+00 
    2.9987845671036832E+00 
    2.9081077867466538E+00 
    3.0487283033935122E+00 
    2.8911996932293795E+00 
    2.9678219611835801E+00 
    2.9417098918884559E+00 
    3.1099819354605840E+00 
    3.0053668109153198E+00 
    3.0000438590050731E+00 
    3.0975578644946546E+00 
    3.0499072972885553E+00 
    2.9259139714868443E+00 
    3.1270836177165608E+00 
    2.9595633183312833E+00 
    3.0742783749099445E+00 
    3.0650518159739950E+00 
    2.9356930887987551E+00 
    3.1252569815998861E+00 
    2.9134942387233909E+00 
    2.9165284905938127E+00 
    3.0355830873977947E+00 
    3.0323172345311362E+00 
    2.9212085896850590E+00 
    2.9346904063729990E+00 
    3.0159176602667666E+00 
    3.0172721228815060E+00 
    2.9255757829439220E+00 
    2.8985295323346412E+00 
    3.0816700710132134E+00 
    3.0947226640590211E+00 
    3.0260373482522165E+00 
    3.0244380031970572E+00 
    2.9642702077740148E+00 
    2.9401709428043472E+00 
    2.9840982275376393E+00 
    3.1224596604257879E+00 
    3.0209686380866239E+00 
    3.0598954018669811E+00 
    2.9334678954295450E+00 
    2.9145521438598618E+00 
    2.9137678974507502E+00 
    2.9566646021923564E+00 
    3.2678625863978121E+00 
    3.0323713294571073E+00 
    3.1845734070815648E+00 
    3.0905350935555385E+00 
    3.1818168853151061E+00 
    3.0269921353892029E+00 
    3.1133908183657701E+00 
    2.9363651142208167E+00 
    3.1327551534821381E+00 
    2.9722578575557450E+00 
    3.0494718324216228E+00 
    3.0801260649373283E+00 
    2.9063448518155233E+00 
    3.0658615983459887E+00 
    2.9697973657199208E+00 
    3.0087216440591193E+00 
    3.0687886194634530E+00 
    3.0919432788480852E+00 
    3.0816776666341696E+00 
    3.0606961356639952E+00 
    3.0565717327694117E+00 
    2.9751593773437874E+00 
    3.0795703597812358E+00 
    3.0118389624408493E+00 
    2.9215982883635760E+00 
    2.9937215837457769E+00 
    3.0411283879096835E+00 
    3.1061791014718541E+00 
    2.9986888259867324E+00 
    3.1195186457839434E+00 
    3.0770317581470406E+00 
    3.0950566724892887E+00 
    3.0965691551692678E+00 
    3.0123708790852288E+00 
    3.0789677755029952E+00 
    3.0467657213546984E+00 
    3.1069441007624099E+00 
    2.9516009175669407E+00 
    3.3011398046640208E+00 
    2.9784519732904151E+00 
    3.0398917932481551E+00 
    3.0760853355806832E+00 
    3.1378055574142603E+00 
    3.1959035737215866E+00 
    2.9857372928657813E+00 
    3.0797413990570250E+00 
    3.0759265787346410E+00 
    3.0013086474078663E+00 
    2.9612637369968340E+00 
    3.0200619398260229E+00 
    3.0936797298355416E+00 
    2.9614883274407200E+00 
    3.1679532426234034E+00 
    3.0451399075730872E+00 
    3.0942502411754846E+00 
    3.0223795512139149E+00 
    2.9615682056835726E+00 
    3.0062207678705701E+00 
    2.9722354549375365E+00 
    3.1918841462135559E+00 
    3.2052649788524379E+00 
    2.9290043045930982E+00 
    3.1223844533998877E+00 
    3.1064696948861665E+00 
    3.0241483542565550E+00 
    3.0848448891217704E+00 
    2.9600436441782825E+00 
    3.1046820790062455E+00 
    3.1741954124371916E+00 
    3.0640569130845918E+00 
    3.2202105078253012E+00 
    3.1848734066011524E+00 
    3.0451785282310677E+00 
    2.9865125396340919E+00 
    3.0402516687212544E+00 
    3.0774168525347410E+00 
    3.1032875382234946E+00 
    3.0118730955150181E+00 
    3.0627322389889624E+00 
    3.0691945131888327E+00 
    3.1753020306629920E+00 
    3.2542924282676426E+00 
    3.0111160859734598E+00 
    3.0222826018112663E+00 
    3.2363978682023249E+00 
    2.9710554565175809E+00 
    3.0725231300180549E+00 
    3.0166024147911736E+00 
    3.1675246753710291E+00 
    3.3828366588519811E+00 
    3.3209952044979403E+00 
    3.2580791131238387E+00 
    3.2795651326055300E+00 
    3.2282589011925160E+00 
    3.2457813416813233E+00 
    3.0749664499404883E+00 
    3.2942024735518252E+00 
    3.0648370631064963E+00 
    3.2383090035582289E+00 
    3.0652136922363775E+00 
    3.1602637096908581E+00 
    3.1798752784862376E+00 
    3.1102972190462821E+00 
    3.1521155028336332E+00 
    2.9965575228359116E+00 
    3.1553974778409035E+00 
    3.0539240831501768E+00 
    3.0629483869703589E+00 
    3.0616159137298102E+00 
    3.0901749999315458E+00 
    2.9940733334801588E+00 
    3.1610521897643342E+00 
    3.0929099286739818E+00 
    3.0886746692660219E+00 
    2.8966274097941755E+00 
    3.1165147774177901E+00 
    3.1869598122277232E+00 
    3.0037123545292781E+00 
    3.1406080173763038E+00 
    3.2030351038033880E+00 
    3.2269197299374008E+00 
    3.0906626399884010E+00 
    3.0238007997172143E+00 
    2.9836457587545646E+00 
    3.0067231440781375E+00 
    3.1243902324777011E+00 
    3.0817938418712574E+00 
    3.0196187737245666E+00 
    3.1294635634647388E+00 
    3.0536728341224579E+00 
    3.0095672663013189E+00 
    3.0901757380826376E+00 
    2.9381371203602620E+00 
    3.0086319902870144E+00 
    3.2070171790283815E+00 
    3.1235547946466786E+00 
    2.9982768878962314E+00 
    3.1498590074178181E+00 
    3.1412012916787968E+00 
    3.0157174407646261E+00 
    3.0413763854561884E+00 
    3.0482699761916434E+00 
    3.1124659758925524E+00 
    3.1082220017158351E+00 
    3.1794164203290696E+00 
    3.0355828801877527E+00 
    3.1088709689495451E+00 
    3.1251176415283370E+00 
    3.0214091205615934E+00 
    3.0302669198831413E+00 
    2.8847145847754092E+00 
    3.0238268316853238E+00 
    3.2169366471038301E+00 
    3.0812883388505319E+00 
    3.1074498155002117E+00 
    3.0537667576139653E+00 
    3.1076416179090822E+00 
    3.0070673818021727E+00 
    2.9915214737963050E+00 
    2.9583312450293602E+00 
    3.0032748460095466E+00 
    2.9640830356492724E+00 
    3.0360164993493766E+00 
    3.0921665138516130E+00 
    2.9806601161978135E+00 
    3.1435516414990343E+00 
    3.1460447774000340E+00 
    3.0318183424186786E+00 
    2.9919987608847114E+00 
    3.0921796487307796E+00 
    3.0153677675066723E+00 
    2.9469878917532961E+00 
    3.0071891401597148E+00 
    2.9551693509473096E+00 
    2.9558549565226455E+00 
    3.0207585307575946E+00 
    3.0763927164060108E+00 
    3.1648257710611958E+00 
    2.9413824210427224E+00 
    3.0047130677543485E+00 
    2.9768367479964017E+00 
    3.0043371938843975E+00 
    3.2669788722453541E+00 
    2.9617470896432367E+00 
    3.0478045851646711E+00 
    2.9755841911443088E+00 
    3.0233490594656236E+00 
    2.9879927106919077E+00 
    3.0335574296280328E+00 
    2.9757175028849128E+00 
    3.0292636667177932E+00 
    2.9904419488763541E+00 
    3.0332252053539857E+00 
    2.9849734534639101E+00 
    2.9834604722623204E+00 
    2.9545808045347730E+00 
    2.9677688318356421E+00 
    3.1436842780031999E+00 
    2.9288575444010623E+00 
    2.9414059808328763E+00 
    2.9994502184277838E+00 
    2.9807101180302040E+00 
    3.3375541890441607E+00 
    3.0030333901287767E+00 
    3.1107997129321059E+00 
    2.9936943688635500E+00 
    2.9219362717219344E+00 
    3.0188486171740223E+00 
    2.9687486681885842E+00 
    3.0370289730668185E+00 
    2.9855994164271049E+00 
    2.9857818699483016E+00 
    3.0006297303445075E+00 
    2.9579345685675733E+00 
    3.0027018443644171E+00 
    2.9867010211901666E+00 
    2.9293508163111506E+00 
    2.9732118216785031E+00 
    2.9728846535160969E+00 
    2.9963560859866294E+00 
    2.9198648148246407E+00 
    2.9770180325740752E+00 
    2.9961962737144558E+00 
    3.0357612197535242E+00 
    2.9606565218474121E+00 
    2.9457677813987746E+00 
    3.1242372251185753E+00 
    2.9613147204906634E+00 
    3.0621537720903218E+00 
    3.3375270026721804E+00 
    3.1364311981497477E+00 
    3.0628845185345694E+00 
    3.1605447196231169E+00 
    2.9814249739492586E+00 
    2.9733680280204657E+00 
    2.9438602146310959E+00 
    2.9488619966580996E+00 
    2.9499508259819058E+00 
    2.9414003060557325E+00 
    3.1640786921808086E+00 
    2.9467982642516728E+00 
    3.0199731560574428E+00 
    3.1414567086715524E+00 
    3.0352152262333059E+00 
    2.9606981428580696E+00 
    3.1033677119748124E+00 
    2.9381870512265937E+00 
    2.9383239132864292E+00 
    2.9504581675085770E+00 
    3.3045399433841682E+00 
    3.0775237746550030E+00 
    3.1523826379144122E+00 
    3.1586718252166301E+00 
    3.0468145659635013E+00 
    3.1263712200606459E+00 
    2.9652338458168086E+00 
    2.8756349486960628E+00 
    3.4827841092965910E+00 
    2.9068838578091354E+00 
    2.9276765800219895E+00 
    2.9264220508569343E+00 
    3.0643890873657735E+00 
    3.1403382605745418E+00 
    2.8745271860558224E+00 
    3.1984928559038956E+00 
    3.2216331340414079E+00 
    3.0477528759491204E+00 
    2.9866003030282102E+00 
    3.1840066820583162E+00 
    3.0502109328200935E+00 
    2.9523818031956739E+00 
    3.1520135100421185E+00 
    2.9167800917293025E+00 
    2.9150042373841187E+00 
    3.0613842876680133E+00 
    2.9978328548796114E+00 
    2.8867322906271138E+00 
    2.9863029638373977E+00 
    2.8976055138540833E+00 
    3.1733062979132023E+00 
    2.9065633804759679E+00 
    2.9728391777352825E+00 
    3.1382537912230863E+00 
    2.9975319840238832E+00 
    3.0503735166189525E+00 
    2.9039581904438938E+00 
    3.0253426263880709E+00 
    3.0320711198723287E+00 
    2.9534474201356291E+00 
    2.9978213715362982E+00 
    3.1456773031530680E+00 
    2.8976292930089111E+00 
    2.9951149235232082E+00 
    2.9594449031572831E+00 
    2.9602919814355135E+00 
    3.0167914603286370E+00 
    2.9511575509028187E+00 
    3.0053662733280091E+00 
    3.1597994203696897E+00 
    3.1764353132997747E+00 
    2.8935456385983653E+00 
    3.3489529112465282E+00 
    3.0230930858216709E+00 
    2.9772609366193685E+00 
    3.2072383945066716E+00 
    3.0551060830447105E+00 
    3.0739630360597285E+00 
    2.9591489541936231E+00 
    2.9490739489607720E+00 
    3.0962554759640653E+00 
    3.0484832245204556E+00 
    2.8874001239347979E+00 
    2.9589999240743632E+00 
    3.2372234557849113E+00 
    3.0424790144342313E+00 
    3.1309854480795463E+00 
    3.0620199651620683E+00 
    3.1463831209752948E+00 
    3.0962082110199347E+00 
    2.8844593450652156E+00 
    2.9312849500690756E+00 
    2.9888944486030722E+00 
    3.1781025399075036E+00 
    3.1287127933916721E+00 
    2.9840285461366505E+00 
    2.9505274009028497E+00 
    2.9819995252954152E+00 
    2.9657830968308323E+00 
    3.1112816522620466E+00 
    2.9550070586899038E+00 
    3.0725655381115704E+00 
    3.2799198237767517E+00 
    2.9470056650432070E+00 
    3.2426413614993663E+00 
    3.0099668190891955E+00 
    3.2585291027431218E+00 
    3.1404848371977079E+00 
    3.3950641194718068E+00 
    2.9737993717932847E+00 
    3.1263525099219311E+00 
    3.0331245585956133E+00 
    2.9412987181981762E+00 
    3.1569265791355043E+00 
    3.0225908269610322E+00 
    3.1671124450498418E+00 
    2.9464838992472764E+00 
    3.1293424209306524E+00 
    3.0109256726963505E+00 
    3.0523846143591462E+00 
    2.9052654331332159E+00 
    2.9511840612334370E+00 
    2.9349024494428630E+00 
    3.2012845898420750E+00 
    2.9763027527080332E+00 
    3.2705353940976818E+00 
    3.2195700518399275E+00 
    2.9634990277944109E+00 
    3.0082173747173302E+00 
    2.9893479328057229E+00 
    2.9022098252209592E+00 
    3.0151135445289108E+00 
    3.1449012042477809E+00 
    2.9619370256227522E+00 
    2.9140293888117359E+00 
    3.2995757924661526E+00 
    3.1112651502748618E+00 
    2.8759840284119491E+00 
    2.8747923926301788E+00 
    2.9289867903454669E+00 
    2.9376213828230058E+00 
    2.9113223423296186E+00 
    2.8984070837400928E+00 
    2.9838725102800039E+00 
    2.9708610742045822E+00 
    2.8663167619314005E+00 
    2.8655049082027046E+00 
    2.8169580292553285E+00 
    2.7135114459893166E+00 
    2.7118078883227819E+00 
    2.7372096834775776E+00 
    2.7530909713796423E+00 
    2.7553042291333609E+00 
    2.8358487160548207E+00 
    2.6751985576914814E+00 
    2.8175121167527033E+00 
    2.6957216677932512E+00 
    2.7887738699811155E+00 
    2.7426975105216100E+00 
    2.7447267316569723E+00 
    2.7197390699594890E+00 
    2.6902324836120868E+00 
    2.8947287919512243E+00 
    2.8335294617034954E+00 
    2.8701852894180959E+00 
    2.8267417427266235E+00 
    2.7730279946125247E+00 
    2.7040716358646422E+00 
    2.6751448935718738E+00 
    2.8901460501782181E+00 
    2.7897641635174497E+00 
    2.6709475691667839E+00 
    2.7515281608456110E+00 
    2.8555204582602385E+00 
    2.8561085498429697E+00 
    2.6478267056927245E+00 
    2.6733194162542966E+00 
    2.7927225401214768E+00 
    2.8699577717475004E+00 
    2.8377990538425140E+00 
    2.7669105742785138E+00 
    2.7199341664430272E+00 
    2.9061115499984327E+00 
    2.8734135141678996E+00 
    2.8552860542634511E+00 
    2.9272963869615363E+00 
    2.7190682648898532E+00 
    2.7463544139528446E+00 
    2.7370984803581178E+00 
    2.8862304245200909E+00 
    2.7455124621329130E+00 
    2.8631981225243415E+00 
    2.8054985941751132E+00 
    2.8025186279240173E+00 
    2.7871939271502861E+00 
    2.7847403394163734E+00 
    2.8721608259134532E+00 
    2.8673424822277433E+00 
    2.7954746129054802E+00 
    2.7048240793415008E+00 
    2.7824465518503971E+00 
    2.7756878239828811E+00 
    2.6720425571383775E+00 
    2.8400005164616551E+00 
    2.6776783066542120E+00 
    2.8719501306567206E+00 
    2.6915510540149898E+00 
    2.8185880455184558E+00 
    2.7320784133079221E+00 
    2.6451439187922547E+00 
    2.6444774035326861E+00 
    2.6518452177215646E+00 
    2.6698429448506880E+00 
    2.7796314738558450E+00 
    2.6680823260434630E+00 
    2.7014529793931441E+00 
    2.7098841914839387E+00 
    2.9125998130871422E+00 
    2.7871910347459257E+00 
    2.6850918230827494E+00 
    2.8714515621729944E+00 
    2.7564370999158454E+00 
    2.7364059155617637E+00 
    2.8455499015724013E+00 
    2.9088829247858596E+00 
    2.8265202316123053E+00 
    2.8300632139344746E+00 
    2.7940142321057970E+00 
    2.8161764919019845E+00 
    2.8530669231098473E+00 
    2.8499277709070947E+00 
    2.8447420520531868E+00 
    2.8516769309993601E+00 
    2.8043338578733046E+00 
    2.8647334522156020E+00 
    2.8650380311823622E+00 
    2.8220875052766337E+00 
    2.8344492261189211E+00 
    2.8947728841923710E+00 
    2.8518088146652909E+00 
    2.8640175026181312E+00 
    2.8995615014090617E+00 
    2.7546375016424234E+00 
    2.7352198869829940E+00 
    2.8215345932004072E+00 
    2.8731965655988425E+00 
    2.9097043815445813E+00 
    2.8682188282733581E+00 
    2.6486238801849424E+00 
    2.7260114005802167E+00 
    2.8154413216124392E+00 
    2.7727217499452181E+00 
    2.7122970086651677E+00 
    2.8525536673254037E+00 
    2.8160373802511232E+00 
    2.6853323295622382E+00 
    2.8387442551884319E+00 
    2.7138682773229141E+00 
    2.7355248705028314E+00 
    2.7262753599259493E+00 
    2.8224873289442853E+00 
    2.8642604147827475E+00 
    2.8900471960475560E+00 
    2.8473035317210496E+00 
    2.8834974007191851E+00 
    2.7024431061351191E+00 
    2.6976680313058989E+00 
    2.8900326793812252E+00 
    2.8450289358028877E+00 
    2.6461611673309369E+00 
    2.6469404708709647E+00 
    2.9033550298326269E+00 
    2.8047348402371561E+00 
    2.8543308198409805E+00 
    2.8183330462411966E+00 
    2.7575098445569139E+00 
    2.8221119678063862E+00 
    2.8394800040875730E+00 
    2.8012042463353182E+00 
    2.7929515209112070E+00 
    2.7923988685782120E+00 
    2.6706434434410178E+00 
    2.8785590765086080E+00 
    2.9281267998829388E+00 
    2.6722679909455804E+00 
    2.6720227079587482E+00 
    2.6697322104274166E+00 
    2.6704553544791287E+00 
    2.6544366189431026E+00 
    2.8553625811278525E+00 
    2.7638440111102551E+00 
    2.6650605780617456E+00 
    2.8361702817358321E+00 
    2.8355091532887964E+00 
    2.7589785730110035E+00 
    2.7762521169132799E+00 
    2.7618096200446436E+00 
    2.7974681266676686E+00 
    2.8851842113331720E+00 
    2.6716777084999421E+00 
    2.6715509169816873E+00 
    2.7184684872794151E+00 
    2.7882597508239764E+00 
    2.8603713661379895E+00 
    2.7039469380204419E+00 
    2.8890393665581979E+00 
    2.6571676999607106E+00 
    2.7633964128401103E+00 
    2.6422678882001720E+00 
    2.6428507604017457E+00 
    2.6678565209440506E+00 
    2.8903901074386127E+00 
    2.8167394589326245E+00 
    2.7731808857429083E+00 
    2.8039279883175672E+00 
    2.8334435018817330E+00 
    2.6512829758347278E+00 
    2.7676823102131833E+00 
    2.8167381559558304E+00 
    2.8895924083341642E+00 
    2.8751713502557572E+00 
    2.8711880695208358E+00 
    2.8903820962005038E+00 
    2.8981582881176475E+00 
    2.7964211248231141E+00 
    2.7091515841655407E+00 
    2.8317232392008580E+00 
    2.8295922124892843E+00 
    2.7671827422044921E+00 
    2.6547211495175187E+00 
    2.8260384016949436E+00 
    2.8468479796442812E+00 
    2.8577808543990995E+00 
    2.8412602994008269E+00 
    2.6487547826042621E+00 
    2.8342460341150923E+00 
    2.8279471037048904E+00 
    2.6608846476109980E+00 
    2.7172071648189782E+00 
    2.8162216917263829E+00 
    2.8378378733826604E+00 
    2.8303253097206413E+00 
    2.8454999379358505E+00 
    2.8446666656087758E+00 
    2.8852044066355411E+00 
    2.8232674594230196E+00 
    2.8622718525260602E+00 
    2.8093512564484904E+00 
    2.8310141404228202E+00 
    2.6667837355700610E+00 
    2.9067914724676802E+00 
    2.8818446192071296E+00 
    2.8972503264949494E+00 
    2.7585331576958758E+00 
    2.7402005419512561E+00 
    2.7247768774117000E+00 
    2.8530389430366547E+00 
    2.8184492990828556E+00 
    2.8574412132905094E+00 
    2.7534994362439913E+00 
    2.6642768518716715E+00 
    2.6916543104334241E+00 
    2.8719935080787762E+00 
    2.6887304091431097E+00 
    2.7964499736851640E+00 
    2.7336670685575339E+00 
    2.8702468310358409E+00 
    2.8154447991377225E+00 
    2.7943659225801123E+00 
    2.9001828525144675E+00 
    2.8916476874700927E+00 
    2.7743452724870918E+00 
    2.7602041645009217E+00 
    2.7226587173845709E+00 
    2.7838545909282324E+00 
    2.8557217997832169E+00 
    2.6631135682648508E+00 
    2.8833501195828144E+00 
    2.8999719889024447E+00 
    2.7718353576355659E+00 
    2.7635221873860303E+00 
    2.6872170923686918E+00 
    2.6576955403384810E+00 
    2.8940136945510200E+00 
    2.7475127802468582E+00 
    2.8212821561412458E+00 
    2.7737970861214429E+00 
    2.8313528342325420E+00 
    2.6928004296471557E+00 
    2.8016254055207326E+00 
    2.8944345985471291E+00 
    2.7357505410996410E+00 
    2.7788453319206816E+00 
    2.7090527522470138E+00 
    2.7862467421923975E+00 
    2.9020356791196238E+00 
    2.7419052597367748E+00 
    2.8195359683554155E+00 
    2.7479771642696225E+00 
    2.6662344380477112E+00 
    2.8439520912946841E+00 
    2.8444996852281608E+00 
    2.8250073422481967E+00 
    2.7450467940748515E+00 
    2.7420607086501576E+00 
    2.6764852625667865E+00 
    2.8197399986469174E+00 
    2.8431995615485475E+00 
    2.7977420874150387E+00 
    2.6998992252876013E+00 
    2.7330534384284806E+00 