# vtk DataFile Version 2.0
Pressure Field Data 
ASCII 
DATASET UNSTRUCTURED_GRID 

POINTS 2213 double 

    0.0000000000000000E+00     0.0000000000000000E+00     0.0000000000000000E+00 
    5.0000000000000000E-01     0.0000000000000000E+00     0.0000000000000000E+00 
    1.0000000000000000E+00     0.0000000000000000E+00     0.0000000000000000E+00 
    1.0000000000000000E+00     5.0000000000000000E-01     0.0000000000000000E+00 
    1.0000000000000000E+00     1.0000000000000000E+00     0.0000000000000000E+00 
    5.0000000000000000E-01     1.0000000000000000E+00     0.0000000000000000E+00 
    0.0000000000000000E+00     1.0000000000000000E+00     0.0000000000000000E+00 
    0.0000000000000000E+00     5.0000000000000000E-01     0.0000000000000000E+00 
    1.5624999999971041E-02     0.0000000000000000E+00     0.0000000000000000E+00 
    3.1249999999936742E-02     0.0000000000000000E+00     0.0000000000000000E+00 
    4.6874999999913257E-02     0.0000000000000000E+00     0.0000000000000000E+00 
    6.2499999999889783E-02     0.0000000000000000E+00     0.0000000000000000E+00 
    7.8124999999844805E-02     0.0000000000000000E+00     0.0000000000000000E+00 
    9.3749999999799827E-02     0.0000000000000000E+00     0.0000000000000000E+00 
    1.0937499999975490E-01     0.0000000000000000E+00     0.0000000000000000E+00 
    1.2499999999970990E-01     0.0000000000000000E+00     0.0000000000000000E+00 
    1.4062499999966460E-01     0.0000000000000000E+00     0.0000000000000000E+00 
    1.5624999999961930E-01     0.0000000000000000E+00     0.0000000000000000E+00 
    1.7187499999957390E-01     0.0000000000000000E+00     0.0000000000000000E+00 
    1.8749999999952860E-01     0.0000000000000000E+00     0.0000000000000000E+00 
    2.0312499999948330E-01     0.0000000000000000E+00     0.0000000000000000E+00 
    2.1874999999943801E-01     0.0000000000000000E+00     0.0000000000000000E+00 
    2.3437499999939271E-01     0.0000000000000000E+00     0.0000000000000000E+00 
    2.4999999999934730E-01     0.0000000000000000E+00     0.0000000000000000E+00 
    2.6562499999938810E-01     0.0000000000000000E+00     0.0000000000000000E+00 
    2.8124999999942890E-01     0.0000000000000000E+00     0.0000000000000000E+00 
    2.9687499999946970E-01     0.0000000000000000E+00     0.0000000000000000E+00 
    3.1249999999951050E-01     0.0000000000000000E+00     0.0000000000000000E+00 
    3.2812499999955130E-01     0.0000000000000000E+00     0.0000000000000000E+00 
    3.4374999999959210E-01     0.0000000000000000E+00     0.0000000000000000E+00 
    3.5937499999963290E-01     0.0000000000000000E+00     0.0000000000000000E+00 
    3.7499999999967371E-01     0.0000000000000000E+00     0.0000000000000000E+00 
    3.9062499999971451E-01     0.0000000000000000E+00     0.0000000000000000E+00 
    4.0624999999975520E-01     0.0000000000000000E+00     0.0000000000000000E+00 
    4.2187499999979600E-01     0.0000000000000000E+00     0.0000000000000000E+00 
    4.3749999999983680E-01     0.0000000000000000E+00     0.0000000000000000E+00 
    4.5312499999987760E-01     0.0000000000000000E+00     0.0000000000000000E+00 
    4.6874999999991840E-01     0.0000000000000000E+00     0.0000000000000000E+00 
    4.8437499999995920E-01     0.0000000000000000E+00     0.0000000000000000E+00 
    5.1562499999992384E-01     0.0000000000000000E+00     0.0000000000000000E+00 
    5.3124999999985478E-01     0.0000000000000000E+00     0.0000000000000000E+00 
    5.4687499999994527E-01     0.0000000000000000E+00     0.0000000000000000E+00 
    5.6249999999998668E-01     0.0000000000000000E+00     0.0000000000000000E+00 
    5.7812499999998068E-01     0.0000000000000000E+00     0.0000000000000000E+00 
    5.9374999999994749E-01     0.0000000000000000E+00     0.0000000000000000E+00 
    6.0937499999997913E-01     0.0000000000000000E+00     0.0000000000000000E+00 
    6.2500000000000000E-01     0.0000000000000000E+00     0.0000000000000000E+00 
    6.4062499999998945E-01     0.0000000000000000E+00     0.0000000000000000E+00 
    6.5624999999996603E-01     0.0000000000000000E+00     0.0000000000000000E+00 
    6.7187499999995337E-01     0.0000000000000000E+00     0.0000000000000000E+00 
    6.8749999999998734E-01     0.0000000000000000E+00     0.0000000000000000E+00 
    7.0312499999998124E-01     0.0000000000000000E+00     0.0000000000000000E+00 
    7.1874999999997025E-01     0.0000000000000000E+00     0.0000000000000000E+00 
    7.3437499999999034E-01     0.0000000000000000E+00     0.0000000000000000E+00 
    7.5000000000000000E-01     0.0000000000000000E+00     0.0000000000000000E+00 
    7.6562499999996902E-01     0.0000000000000000E+00     0.0000000000000000E+00 
    7.8124999999993228E-01     0.0000000000000000E+00     0.0000000000000000E+00 
    7.9687499999989997E-01     0.0000000000000000E+00     0.0000000000000000E+00 
    8.1249999999996247E-01     0.0000000000000000E+00     0.0000000000000000E+00 
    8.2812499999999578E-01     0.0000000000000000E+00     0.0000000000000000E+00 
    8.4374999999999556E-01     0.0000000000000000E+00     0.0000000000000000E+00 
    8.5937500000000111E-01     0.0000000000000000E+00     0.0000000000000000E+00 
    8.7499999999997691E-01     0.0000000000000000E+00     0.0000000000000000E+00 
    8.9062500000000921E-01     0.0000000000000000E+00     0.0000000000000000E+00 
    9.0625000000004452E-01     0.0000000000000000E+00     0.0000000000000000E+00 
    9.2187500000005529E-01     0.0000000000000000E+00     0.0000000000000000E+00 
    9.3750000000012723E-01     0.0000000000000000E+00     0.0000000000000000E+00 
    9.5312500000011835E-01     0.0000000000000000E+00     0.0000000000000000E+00 
    9.6875000000005151E-01     0.0000000000000000E+00     0.0000000000000000E+00 
    9.8437500000003086E-01     0.0000000000000000E+00     0.0000000000000000E+00 
    1.0000000000000000E+00     1.5624999999971041E-02     0.0000000000000000E+00 
    1.0000000000000000E+00     3.1249999999936742E-02     0.0000000000000000E+00 
    1.0000000000000000E+00     4.6874999999913257E-02     0.0000000000000000E+00 
    1.0000000000000000E+00     6.2499999999889783E-02     0.0000000000000000E+00 
    1.0000000000000000E+00     7.8124999999844805E-02     0.0000000000000000E+00 
    1.0000000000000000E+00     9.3749999999799827E-02     0.0000000000000000E+00 
    1.0000000000000000E+00     1.0937499999975490E-01     0.0000000000000000E+00 
    1.0000000000000000E+00     1.2499999999970990E-01     0.0000000000000000E+00 
    1.0000000000000000E+00     1.4062499999966460E-01     0.0000000000000000E+00 
    1.0000000000000000E+00     1.5624999999961930E-01     0.0000000000000000E+00 
    1.0000000000000000E+00     1.7187499999957390E-01     0.0000000000000000E+00 
    1.0000000000000000E+00     1.8749999999952860E-01     0.0000000000000000E+00 
    1.0000000000000000E+00     2.0312499999948330E-01     0.0000000000000000E+00 
    1.0000000000000000E+00     2.1874999999943801E-01     0.0000000000000000E+00 
    1.0000000000000000E+00     2.3437499999939271E-01     0.0000000000000000E+00 
    1.0000000000000000E+00     2.4999999999934730E-01     0.0000000000000000E+00 
    1.0000000000000000E+00     2.6562499999938810E-01     0.0000000000000000E+00 
    1.0000000000000000E+00     2.8124999999942890E-01     0.0000000000000000E+00 
    1.0000000000000000E+00     2.9687499999946970E-01     0.0000000000000000E+00 
    1.0000000000000000E+00     3.1249999999951050E-01     0.0000000000000000E+00 
    1.0000000000000000E+00     3.2812499999955130E-01     0.0000000000000000E+00 
    1.0000000000000000E+00     3.4374999999959210E-01     0.0000000000000000E+00 
    1.0000000000000000E+00     3.5937499999963290E-01     0.0000000000000000E+00 
    1.0000000000000000E+00     3.7499999999967371E-01     0.0000000000000000E+00 
    1.0000000000000000E+00     3.9062499999971451E-01     0.0000000000000000E+00 
    1.0000000000000000E+00     4.0624999999975520E-01     0.0000000000000000E+00 
    1.0000000000000000E+00     4.2187499999979600E-01     0.0000000000000000E+00 
    1.0000000000000000E+00     4.3749999999983680E-01     0.0000000000000000E+00 
    1.0000000000000000E+00     4.5312499999987760E-01     0.0000000000000000E+00 
    1.0000000000000000E+00     4.6874999999991840E-01     0.0000000000000000E+00 
    1.0000000000000000E+00     4.8437499999995920E-01     0.0000000000000000E+00 
    1.0000000000000000E+00     5.1562499999992384E-01     0.0000000000000000E+00 
    1.0000000000000000E+00     5.3124999999985478E-01     0.0000000000000000E+00 
    1.0000000000000000E+00     5.4687499999994527E-01     0.0000000000000000E+00 
    1.0000000000000000E+00     5.6249999999998668E-01     0.0000000000000000E+00 
    1.0000000000000000E+00     5.7812499999998068E-01     0.0000000000000000E+00 
    1.0000000000000000E+00     5.9374999999994749E-01     0.0000000000000000E+00 
    1.0000000000000000E+00     6.0937499999997913E-01     0.0000000000000000E+00 
    1.0000000000000000E+00     6.2500000000000000E-01     0.0000000000000000E+00 
    1.0000000000000000E+00     6.4062499999998945E-01     0.0000000000000000E+00 
    1.0000000000000000E+00     6.5624999999996603E-01     0.0000000000000000E+00 
    1.0000000000000000E+00     6.7187499999995337E-01     0.0000000000000000E+00 
    1.0000000000000000E+00     6.8749999999998734E-01     0.0000000000000000E+00 
    1.0000000000000000E+00     7.0312499999998124E-01     0.0000000000000000E+00 
    1.0000000000000000E+00     7.1874999999997025E-01     0.0000000000000000E+00 
    1.0000000000000000E+00     7.3437499999999034E-01     0.0000000000000000E+00 
    1.0000000000000000E+00     7.5000000000000000E-01     0.0000000000000000E+00 
    1.0000000000000000E+00     7.6562499999996902E-01     0.0000000000000000E+00 
    1.0000000000000000E+00     7.8124999999993228E-01     0.0000000000000000E+00 
    1.0000000000000000E+00     7.9687499999989997E-01     0.0000000000000000E+00 
[...]
CELL_DATA 2084 
SCALARS Pressure double 1 
LOOKUP_TABLE default 

    2.9565438709094405E+00 
    2.9857485594852737E+00 
    3.1803638593650061E+00 
    2.9865406805928871E+00 
    3.0955416777185443E+00 
    3.0505287469497211E+00 
    2.9270892153130785E+00 
    3.0346277099379675E+00 
    3.0451675421317077E+00 
    3.0999039441519773E+00 
    3.1744483475066154E+00 
    2.9420956983538158E+00 
    3.0231833967059436E+00 
    2.9829994993724971E+00 
    2.9514985922663306E+00 
    2.9720497144923637E+00 
    3.1339882838758908E+00 
    3.0041661273931224E+00 
    3.2068794385436949E+00 
    2.9638675536047536E+00 
    2.9676021231631120E+00 
    3.0781126571223894E+00 
    2.9703103647247291E+00 
    3.0190184983377391E+00 
    2.9600923678210305E+00 
    3.0206171151896557E+00 
    2.9781155797774579E+00 
    2.9303259382893558E+00 
    3.0277443365888006E+00 
    2.9929593228187437E+00 
    2.9189958196593655E+00 
    3.0353784367163534E+00 
    2.9059431251049417E+00 
    2.9669132911950609E+00 
    2.9458893837988134E+00 
    3.0891829046329389E+00 
    2.9985685551218886E+00 
    2.9941347978977877E+00 
    3.0780870091353334E+00 
    3.0363788458857055E+00 
    2.9331463810513130E+00 
    3.1046071276006910E+00 
    2.9605280653545889E+00 
    3.0575740637025848E+00 
    3.0495693952594825E+00 
    2.9407723090826212E+00 
    3.1029380923582743E+00 
    2.9234702194116187E+00 
    2.9256612847845358E+00 
    3.0240615898234355E+00 
    3.0213115987437984E+00 
    2.9295752067430527E+00 
    2.9404764821813307E+00 
    3.0074359153306394E+00 
    3.0086286670334421E+00 
    2.9331880906289922E+00 
    2.9115960770946829E+00 
    3.0640422640089411E+00 
    3.0755780777085375E+00 
    3.0159007786789198E+00 
    3.0145863521325102E+00 
    2.9644891486584224E+00 
    2.9446781143803133E+00 
    2.9807070842811827E+00 
    3.1004137313926408E+00 
    3.0116073696836159E+00 
    3.0450125283667875E+00 
    2.9391708957774338E+00 
    2.9241606046958846E+00 
    2.9233542530976724E+00 
    2.9581365311699028E+00 
    3.2371854273343930E+00 
    3.0214230074159882E+00 
    3.1576202958402830E+00 
    3.0718553273607192E+00 
    3.1550198349101453E+00 
    3.0168162532084071E+00 
    3.0922546362293657E+00 
    2.9417775838659352E+00 
    3.1097504461721139E+00 
    2.9710277354905554E+00 
    3.0360150912009303E+00 
    3.0626732342335097E+00 
    2.9177080430930546E+00 
    3.0502056800176529E+00 
    2.9688830353256366E+00 
    3.0013416199812406E+00 
    3.0527787411464660E+00 
    3.0731378927986643E+00 
    3.0640779253658339E+00 
    3.0457170494224775E+00 
    3.0421384943366601E+00 
    2.9730039816153653E+00 
    3.0621944432151382E+00 
    3.0039204602954297E+00 
    2.9295520488162556E+00 
    2.9888010320557643E+00 
    3.0288092732449652E+00 
    3.0857905414053040E+00 
    2.9928667929077268E+00 
    3.0977667744468045E+00 
    3.0599440848450530E+00 
    3.0758685269172688E+00 
    3.0772420198064347E+00 
    3.0043590406892031E+00 
    3.0616456546080957E+00 
    3.0336554751210163E+00 
    3.0864813502527531E+00 
    2.9541353707463522E+00 
    3.2696231645133937E+00 
    2.9761142023827998E+00 
    3.0277712776586365E+00 
    3.0591782464757085E+00 
    3.1143512940653730E+00 
    3.1682466870138977E+00 
    2.9821837934557820E+00 
    3.0623332769422698E+00 
    3.0590082122123277E+00 
    2.9950410828915697E+00 
    2.9613824356623137E+00 
    3.0109021163675407E+00 
    3.0746399914217362E+00 
    2.9616041120451810E+00 
    3.1421092202170877E+00 
    3.0323490381481650E+00 
    3.0751713944108081E+00 
    3.0129358416395711E+00 
    2.9616432390965950E+00 
    2.9991459609721303E+00 
    2.9708595130272530E+00 
    3.1644599170653263E+00 
    3.1771033792291301E+00 
    2.9354372052389537E+00 
    3.1003542177596488E+00 
    3.0860535867559538E+00 
    3.0143265869920137E+00 
    3.0668728293786884E+00 
    2.9603815872928303E+00 
    3.0844603421330028E+00 
    3.1479118608514987E+00 
    3.0486209467254120E+00 
    3.1912855936244964E+00 
    3.1578881794647891E+00 
    3.0322795095055750E+00 
    2.9826864192716975E+00 
    3.0280009514460584E+00 
    3.0603083586391202E+00 
    3.0831978261301165E+00 
    3.0039559865673802E+00 
    3.0474707264886982E+00 
    3.0531442195355023E+00 
    3.1489232624461194E+00 
    3.2240098486572366E+00 
    3.0032501328277919E+00 
    3.0126348571584542E+00 
    3.2067919781079142E+00 
    2.9699422137862150E+00 
    3.0560377897202544E+00 
    3.0077936673088841E+00 
    3.1417015780419830E+00 
    3.3502268605937440E+00 
    3.2891455505473379E+00 
    3.2277187557808156E+00 
    3.2485665122344320E+00 
    3.1990206775030061E+00 
    3.2158311020301533E+00 
    3.0581653243424616E+00 
    3.2628690429752076E+00 
    3.0492964568751559E+00 
    3.2086081904110499E+00 
    3.0496167858439702E+00 
    3.1349593419981892E+00 
    3.1532291818588858E+00 
    3.0894728445658015E+00 
    3.1274521424185706E+00 
    2.9911419072462806E+00 
    3.1304859396883544E+00 
    3.0398325794071153E+00 
    3.0476386047075006E+00 
    3.0464892579583527E+00 
    3.0715550919897727E+00 
    2.9888862296472065E+00 
    3.1357023790312648E+00 
    3.0739755904586601E+00 
    3.0702395187758804E+00 
    2.9098744442648701E+00 
    3.0950458384280890E+00 
    3.1598287893452253E+00 
    2.9968925678116016E+00 
    3.1169134002450245E+00 
    3.1749763203539891E+00 
    3.1976962441561936E+00 
    3.0719932001928494E+00 
    3.0140158894449214E+00 
    2.9804734940678554E+00 
    2.9994277393110416E+00 
    3.1021630571833740E+00 
    3.0642051164996418E+00 
    3.0104965519907498E+00 
    3.1067402466696938E+00 
    3.0396718951047395E+00 
    3.0018305660536804E+00 
    3.0715727921294582E+00 
    2.9432852697538312E+00 
    3.0010655682682028E+00 
    3.1787429261082529E+00 
    3.1014230838680663E+00 
    2.9925448568741317E+00 
    3.1253831322110339E+00 
    3.1174532361679881E+00 
    3.0071727230432788E+00 
    3.0290412938034117E+00 
    3.0349319858130626E+00 
    3.0914246132460383E+00 
    3.0876176329814617E+00 
    3.1527749945427566E+00 
    3.0240909375895679E+00 
    3.0881993359921918E+00 
    3.1028268184313901E+00 
    3.0119096953691389E+00 
    3.0194924221220716E+00 
    2.9008411655153261E+00 
    3.0139742379430809E+00 
    3.1881754496638828E+00 
    3.0637548731640658E+00 
    3.0869515369799556E+00 
    3.0397301109837014E+00 
    3.0870817457121009E+00 
    2.9998225862438841E+00 
    2.9868292447933338E+00 
    2.9595901686996720E+00 
    2.9967039140556961E+00 
    2.9642651821692292E+00 
    3.0243646154587873E+00 
    3.0733283021693492E+00 
    2.9779061319332243E+00 
    3.1196065322588455E+00 
    3.1218782108956042E+00 
    3.0207617546183072E+00 
    2.9870221969831392E+00 
    3.0733663203541957E+00 
    3.0068228918516291E+00 
    2.9501124806266708E+00 
    2.9998634035402438E+00 
    2.9564957808159984E+00 
    2.9574426273488181E+00 
    3.0113331938697931E+00 
    3.0594286723904345E+00 
    3.1391713606393234E+00 
    2.9457036812159618E+00 
    2.9978778106836779E+00 
    2.9746243176429852E+00 
    2.9974837020694971E+00 
    3.2363029004596622E+00 
    2.9620920583704411E+00 
    3.0346646919535272E+00 
    2.9735777395939729E+00 
    3.0136549740519523E+00 
    2.9839161580276272E+00 
    3.0222874633616557E+00 
    2.9733980468232786E+00 
    3.0186714718742174E+00 
    2.9858198801079583E+00 
    3.0221792236321683E+00 
    2.9814506076895517E+00 
    2.9801837169457066E+00 
    2.9561689226507730E+00 
    2.9670611473217914E+00 
    3.1197182830042918E+00 
    2.9354570406592608E+00 
    2.9455361369269935E+00 
    2.9935236067167246E+00 
    2.9776408670099692E+00 
    3.3054004834063626E+00 
    2.9963221026739819E+00 
    3.0899083812587858E+00 
    2.9885055331540631E+00 
    2.9302456811246942E+00 
    3.0097529783577781E+00 
    2.9679738495152832E+00 
    3.0253242851590381E+00 
    2.9819840101747550E+00 
    2.9822709839653672E+00 
    2.9943950438401927E+00 
    2.9586660305026582E+00 
    2.9960969544344245E+00 
    2.9827923822032956E+00 
    2.9360489478145864E+00 
    2.9717407589030254E+00 
    2.9716139040214551E+00 
    2.9908405540278924E+00 
    2.9283795173946112E+00 
    2.9745017538083798E+00 
    2.9905808205712567E+00 
    3.0241586347493712E+00 
    2.9614332774339935E+00 
    2.9491691303825704E+00 
    3.1020077198752043E+00 
    2.9621181572298485E+00 
    3.0469943897761467E+00 
    3.3054216022656528E+00 
    3.1130834650430508E+00 
    3.0476912008387713E+00 
    3.1352221790746455E+00 
    2.9783872369081621E+00 
    2.9718628723623270E+00 
    2.9477934930655643E+00 
    2.9518151325422211E+00 
    2.9528567919455146E+00 
    2.9453388320697336E+00 
    3.1385080583052880E+00 
    2.9497746821718973E+00 
    3.0109211797202633E+00 
    3.1176811433411182E+00 
    3.0237187420586400E+00 
    2.9615897931456212E+00 
    3.0832515558723625E+00 
    2.9431614089608278E+00 
    2.9434480114724586E+00 
    2.9531060038638199E+00 
    3.2729659814290679E+00 
    3.0604591944743205E+00 
    3.1276962011470819E+00 
    3.1334994365774360E+00 
    3.0336510721333294E+00 
    3.1039576619009548E+00 
    2.9649012664377663E+00 
    2.8935203050616622E+00 
    3.4496714539028974E+00 
    2.9180829154482586E+00 
    2.9346927454303380E+00 
    2.9338795491124849E+00 
    3.0489338491369367E+00 
    3.1166620723817133E+00 
    2.8929367002115578E+00 
    3.1706959738487366E+00 
    3.1926582498383609E+00 
    3.0344776455078111E+00 
    2.9828115664802293E+00 
    3.1570874234868036E+00 
    3.0365978869692980E+00 
    2.9545100605415535E+00 
    3.1273418150782910E+00 
    2.9259707156456098E+00 
    2.9247598476733478E+00 
    3.0463259281080242E+00 
    2.9921733545549123E+00 
    2.9021500607705133E+00 
    2.9824049555182093E+00 
    2.9109343575523581E+00 
    3.1470645504440857E+00 
    2.9178430023323672E+00 
    2.9712002784980447E+00 
    3.1147364180319732E+00 
    2.9917018240917028E+00 
    3.0367285915137301E+00 
    2.9159998324058325E+00 
    3.0152315924577286E+00 
    3.0211794426373126E+00 
    2.9554881459364428E+00 
    2.9922895964958767E+00 
    3.1215288617932764E+00 
    2.9107763783228648E+00 
    2.9900028261883302E+00 
    2.9599608892463314E+00 
    2.9609449891387247E+00 
    3.0079686325180868E+00 
    2.9531874950788537E+00 
    2.9986000189785633E+00 
    3.1345517359928672E+00 
    3.1499785122971637E+00 
    2.9077967418215138E+00 
    3.3166702145522757E+00 
    3.0133842543378706E+00 
    2.9748172890951290E+00 
    3.1789799167962838E+00 
    3.0408249137670094E+00 
    3.0572962852910797E+00 
    2.9601095744027446E+00 
    2.9521136761716029E+00 
    3.0769747434601200E+00 
    3.0352480748807258E+00 
    2.9027280343013926E+00 
    2.9599747634092166E+00 
    3.2075736486282729E+00 
    3.0299383142610261E+00 
    3.1081226080687903E+00 
    3.0468771870132425E+00 
    3.1221762595464928E+00 
    3.0769243300504048E+00 
    2.9006823606773788E+00 
    2.9375667164070247E+00 
    2.9844241962173048E+00 
    3.1515450901384652E+00 
    3.1060712841918456E+00 
    2.9803672977447766E+00 
    2.9533148311589765E+00 
    2.9787658799371877E+00 
    2.9656171664372506E+00 
    3.0903680363511916E+00 
    2.9562958026073374E+00 
    3.0560688427708844E+00 
    3.2488750605589973E+00 
    2.9502945295537106E+00 
    3.2127979561627655E+00 
    3.0023527134555517E+00 
    3.2281009843080235E+00 
    3.1167789241929631E+00 
    3.3624029968576425E+00 
    2.9718099447920108E+00 
    3.1039344995007228E+00 
    3.0219775003195224E+00 
    2.9453656342005292E+00 
    3.1318862295758541E+00 
    3.0130235755272161E+00 
    3.1413128620810920E+00 
    2.9494209068483634E+00 
    3.1066480100971487E+00 
    3.0030136635863984E+00 
    3.0385228275982601E+00 
    2.9166472460868897E+00 
    2.9532925920802415E+00 
    2.9402521426795056E+00 
    3.1733376207822572E+00 
    2.9738888826916812E+00 
    3.2397642927775472E+00 
    3.1907041240924441E+00 
    2.9636242435988942E+00 
    3.0010021148679100E+00 
    2.9848618308516062E+00 
    2.9146017416529730E+00 
    3.0065917137198417E+00 
    3.1208199115135562E+00 
    2.9626183792167531E+00 
    2.9239681034114349E+00 
    3.2680786501412955E+00 
    3.0903618231859964E+00 
    2.8938110268434758E+00 
    2.8931583153457732E+00 
    2.9357369771617878E+00 
    2.9426961671621181E+00 
    2.9217882511545801E+00 
    2.9113506326315650E+00 
    2.9802440301581545E+00 
    2.9693919933888719E+00 
    2.8863185003010647E+00 
    2.8859806352023503E+00 
    2.8492796934591254E+00 
    2.7813192728314409E+00 
    2.7756072732675543E+00 
    2.7825593602499725E+00 
    2.8038540288089653E+00 
    2.8007629727323762E+00 
    2.8633533648335376E+00 
    2.7569719114293258E+00 
    2.8485633771398429E+00 
    2.7647955503302954E+00 
    2.8275689388537200E+00 
    2.7972116644347640E+00 
    2.7941285928427608E+00 
    2.7681949530980399E+00 
    2.7582382609134126E+00 
    2.9080219294420777E+00 
    2.8603652875655121E+00 
    2.8872097432244179E+00 
    2.8561734171222839E+00 
    2.8124845739117315E+00 
    2.7587420629098718E+00 
    2.7544424266018339E+00 
    2.9032950617023308E+00 
    2.8243287301827742E+00 
    2.7551651400558530E+00 
    2.8031796882236013E+00 
    2.8783098430859964E+00 
    2.8784567554383127E+00 
    2.7367826965243474E+00 
    2.7545110878084307E+00 
    2.8272477795943476E+00 
    2.8888983401680348E+00 
    2.8634605417643830E+00 
    2.8125199330763855E+00 
    2.7840971387038835E+00 
    2.9168201848621496E+00 
    2.8897257166178445E+00 
    2.8780499874515537E+00 
    2.9335387267240502E+00 
    2.7834414980753959E+00 
    2.7995742145812810E+00 
    2.7940727012633850E+00 
    2.9013876826726097E+00 
    2.7982856242545302E+00 
    2.8834051601949002E+00 
    2.8407546864924593E+00 
    2.8375619555306311E+00 
    2.8217496655513195E+00 
    2.8259626463234668E+00 
    2.8894595547022028E+00 
    2.8849845869587560E+00 
    2.8336161478099502E+00 
    2.7762055709947231E+00 
    2.8239325449279304E+00 
    2.8182551519096082E+00 
    2.7564891615475289E+00 
    2.8664105269033886E+00 
    2.7603215557203660E+00 
    2.8890374783309269E+00 
    2.7659435468496336E+00 
    2.8500141013334312E+00 
    2.7894441374435539E+00 
    2.7347806802572387E+00 
    2.7341019515740275E+00 
    2.7396733525271966E+00 
    2.7328401280847112E+00 
    2.8217840424018430E+00 
    2.7333382765223777E+00 
    2.7571823761082968E+00 
    2.7601131034551059E+00 
    2.9214047657874596E+00 
    2.8262334088247663E+00 
    2.7581684571325389E+00 
    2.8884155847615318E+00 
    2.8058932366671887E+00 
    2.7861720530366525E+00 
    2.8702523118467029E+00 
    2.9184898355312767E+00 
    2.8556484963680946E+00 
    2.8585910662756508E+00 
    2.8324543556254005E+00 
    2.8483116088106506E+00 
    2.8740334332229911E+00 
    2.8710041785166736E+00 
    2.8677224163216559E+00 
    2.8722699404484802E+00 
    2.8381662832905326E+00 
    2.8853395191182916E+00 
    2.8852900548432916E+00 
    2.8524941243283899E+00 
    2.8617925938167827E+00 
    2.9069018423936810E+00 
    2.8727504584466530E+00 
    2.8820393059964551E+00 
    2.9107838810607989E+00 
    2.8037698506766198E+00 
    2.7914564051505302E+00 
    2.8506758800328198E+00 
    2.8900703784069512E+00 
    2.9190864955988833E+00 
    2.8854917136187277E+00 
    2.7382729754765340E+00 
    2.7877949598241414E+00 
    2.8479755965391074E+00 
    2.8174412398049142E+00 
    2.7680159679777359E+00 
    2.8736085488123959E+00 
    2.8465626810208939E+00 
    2.7651823561307767E+00 
    2.8633434681036296E+00 
    2.7784588542593109E+00 
    2.7925376807237701E+00 
    2.7876964530739694E+00 
    2.8532949686741080E+00 
    2.8831965645884319E+00 
    2.9036377359557179E+00 
    2.8718681417118326E+00 
    2.8977575975579102E+00 
    2.7752624125742287E+00 
    2.7599316356668901E+00 
    2.9035075847548746E+00 
    2.8671383947599884E+00 
    2.7360948740634572E+00 
    2.7367886756126887E+00 
    2.9148581670933540E+00 
    2.8399020312891574E+00 
    2.8753400670595544E+00 
    2.8478097558509745E+00 
    2.8067710682172660E+00 
    2.8514951094623902E+00 
    2.8654703492594296E+00 
    2.8363386514963933E+00 
    2.8312619295671926E+00 
    2.8309779352081321E+00 
    2.7306792279311147E+00 
    2.8937905284362087E+00 
    2.9341191817512118E+00 
    2.7315434264923897E+00 
    2.7310552404891646E+00 
    2.7323438014126684E+00 
    2.7315714572842009E+00 
    2.7387987582892990E+00 
    2.8764679759329850E+00 
    2.8096307460723939E+00 
    2.7512576827463362E+00 
    2.8632599426050014E+00 
    2.8606031613480387E+00 
    2.8003247585740305E+00 
    2.8197170168882999E+00 
    2.8099481306243450E+00 
    2.8347865647353645E+00 
    2.9002785670766187E+00 
    2.7309228638373035E+00 
    2.7320148731478842E+00 
    2.7807847158442951E+00 
    2.8268168822042630E+00 
    2.8795918144419264E+00 
    2.7570524002129444E+00 
    2.9031375524410650E+00 
    2.7367670897644336E+00 
    2.8034486007035571E+00 
    2.7320147599895939E+00 
    2.7325688097767040E+00 
    2.7514617088852664E+00 
    2.9039969171482092E+00 
    2.8466481512714812E+00 
    2.8160683741640136E+00 
    2.8382631273693750E+00 
    2.8586010064759697E+00 
    2.7385599498099076E+00 
    2.8134776195487197E+00 
    2.8480908187876834E+00 
    2.9027492861898763E+00 
    2.8933469480963971E+00 
    2.8896568245206589E+00 
    2.9036210238244622E+00 
    2.9100049733929101E+00 
    2.8322287588263109E+00 
    2.7596900866432748E+00 
    2.8568796865161556E+00 
    2.8548753252434911E+00 
    2.8072095679577744E+00 
    2.7385906590504798E+00 
    2.8518052953670985E+00 
    2.8683624121609741E+00 
    2.8770517584628550E+00 
    2.8637856717077712E+00 
    2.7379461247357360E+00 
    2.8582208808431422E+00 
    2.8533393806076139E+00 
    2.7479277750564437E+00 
    2.7710720762716039E+00 
    2.8471591323557131E+00 
    2.8616628034114124E+00 
    2.8560242547091002E+00 
    2.8703183105064105E+00 
    2.8692550133510131E+00 
    2.9010866739056991E+00 
    2.8508491074415003E+00 
    2.8830526520339199E+00 
    2.8430435240987748E+00 
    2.8588305094957827E+00 
    2.7354061453175840E+00 
    2.9171428947589586E+00 
    2.8967992343632045E+00 
    2.9089265301525828E+00 
    2.8071014579596043E+00 
    2.7932959241477913E+00 
    2.7759850289469998E+00 
    2.8752413891248736E+00 
    2.8475181938357004E+00 
    2.8791338749940558E+00 
    2.7981914103748693E+00 
    2.7499978115033552E+00 
    2.7672174012735224E+00 
    2.8896314687607694E+00 
    2.7626305946973773E+00 
    2.8336166814211849E+00 
    2.7787692266685116E+00 
    2.8884647115892448E+00 
    2.8451227479732499E+00 
    2.8301096069558263E+00 
    2.9122309483668167E+00 
    2.9058318451391525E+00 
    2.8182163749624123E+00 
    2.8081737888277085E+00 
    2.7848182092606013E+00 
    2.8245778286556509E+00 
    2.8779277342101084E+00 
    2.7331911265037458E+00 
    2.8994027591174540E+00 
    2.9123224635209639E+00 
    2.8161316940736749E+00 
    2.8107927796943604E+00 
    2.7550256477005632E+00 
    2.7375582593284005E+00 
    2.9079069286671961E+00 
    2.7933577188163703E+00 
    2.8482818318817449E+00 
    2.8161334752837566E+00 
    2.8598405199353172E+00 
    2.7694808938135012E+00 
    2.8357022498438282E+00 
    2.9074657191296183E+00 
    2.7825200072668301E+00 
    2.8144541675386208E+00 
    2.7770994415658454E+00 
    2.8248958734207492E+00 
    2.9141387203808273E+00 
    2.7885035111422170E+00 
    2.8464753610474096E+00 
    2.8001405823147980E+00 
    2.7522169899356941E+00 
    2.8695047532309119E+00 
    2.8695941062261929E+00 
    2.8549682085012185E+00 
    2.7985265446210383E+00 
    2.7948351575990329E+00 
    2.7593265858255394E+00 
    2.8500485100748496E+00 
    2.8684852730117862E+00 
    2.8322810714564408E+00 
    2.7577787858678589E+00 
    2.7912577773117868E+00 