# vtk DataFile Version 2.0
Pressure Field Data 
ASCII 
DATASET UNSTRUCTURED_GRID 

POINTS 2213 double 

    0.0000000000000000E+00     0.0000000000000000E+00     0.0000000000000000E+00 
    5.0000000000000000E-01     0.0000000000000000E+00     0.0000000000000000E+00 
    1.0000000000000000E+00     0.0000000000000000E+00     0.0000000000000000E+00 
    1.0000000000000000E+00     5.0000000000000000E-01     0.0000000000000000E+00 
    1.0000000000000000E+00     1.0000000000000000E+00     0.0000000000000000E+00 
    5.0000000000000000E-01     1.0000000000000000E+00     0.0000000000000000E+00 
    0.0000000000000000E+00     1.0000000000000000E+00     0.0000000000000000E+00 
    0.0000000000000000E+00     5.0000000000000000E-01     0.0000000000000000E+00 
    1.5624999999971041E-02     0.0000000000000000E+00     0.0000000000000000E+00 
    3.1249999999936742E-02     0.0000000000000000E+00     0.0000000000000000E+00 
    4.6874999999913257E-02     0.0000000000000000E+00     0.0000000000000000E+00 
    6.2499999999889783E-02     0.0000000000000000E+00     0.0000000000000000E+00 
    7.8124999999844805E-02     0.0000000000000000E+00     0.0000000000000000E+00 
    9.3749999999799827E-02     0.0000000000000000E+00     0.0000000000000000E+00 
    1.0937499999975490E-01     0.0000000000000000E+00     0.0000000000000000E+00 
    1.2499999999970990E-01     0.0000000000000000E+00     0.0000000000000000E+00 
    1.4062499999966460E-01     0.0000000000000000E+00     0.0000000000000000E+00 
    1.5624999999961930E-01     0.0000000000000000E+00     0.0000000000000000E+00 
    1.7187499999957390E-01     0.0000000000000000E+00     0.0000000000000000E+00 
    1.8749999999952860E-01     0.0000000000000000E+00     0.0000000000000000E+00 
    2.0312499999948330E-01     0.0000000000000000E+00     0.0000000000000000E+00 
    2.1874999999943801E-01     0.0000000000000000E+00     0.0000000000000000E+00 
    2.3437499999939271E-01     0.0000000000000000E+00     0.0000000000000000E+00 
    2.4999999999934730E-01     0.0000000000000000E+00     0.0000000000000000E+00 
    2.6562499999938810E-01     0.0000000000000000E+00     0.0000000000000000E+00 
    2.8124999999942890E-01     0.0000000000000000E+00     0.0000000000000000E+00 
    2.9687499999946970E-01     0.0000000000000000E+00     0.0000000000000000E+00 
    3.1249999999951050E-01     0.0000000000000000E+00     0.0000000000000000E+00 
    3.2812499999955130E-01     0.0000000000000000E+00     0.0000000000000000E+00 
    3.4374999999959210E-01     0.0000000000000000E+00     0.0000000000000000E+00 
    3.5937499999963290E-01     0.0000000000000000E+00     0.0000000000000000E+00 
    3.7499999999967371E-01     0.0000000000000000E+00     0.0000000000000000E+00 
    3.9062499999971451E-01     0.0000000000000000E+00     0.0000000000000000E+00 
    4.0624999999975520E-01     0.0000000000000000E+00     0.0000000000000000E+00 
    4.2187499999979600E-01     0.0000000000000000E+00     0.0000000000000000E+00 
    4.3749999999983680E-01     0.0000000000000000E+00     0.0000000000000000E+00 
    4.5312499999987760E-01     0.0000000000000000E+00     0.0000000000000000E+00 
    4.6874999999991840E-01     0.0000000000000000E+00     0.0000000000000000E+00 
    4.8437499999995920E-01     0.0000000000000000E+00     0.0000000000000000E+00 
    5.1562499999992384E-01     0.0000000000000000E+00     0.0000000000000000E+00 
    5.3124999999985478E-01     0.0000000000000000E+00     0.0000000000000000E+00 
    5.4687499999994527E-01     0.0000000000000000E+00     0.0000000000000000E+00 
    5.6249999999998668E-01     0.0000000000000000E+00     0.0000000000000000E+00 
    5.7812499999998068E-01     0.0000000000000000E+00     0.0000000000000000E+00 
    5.9374999999994749E-01     0.0000000000000000E+00     0.0000000000000000E+00 
    6.0937499999997913E-01     0.0000000000000000E+00     0.0000000000000000E+00 
    6.2500000000000000E-01     0.0000000000000000E+00     0.0000000000000000E+00 
    6.4062499999998945E-01     0.0000000000000000E+00     0.0000000000000000E+00 
    6.5624999999996603E-01     0.0000000000000000E+00     0.0000000000000000E+00 
    6.7187499999995337E-01     0.0000000000000000E+00     0.0000000000000000E+00 
    6.8749999999998734E-01     0.0000000000000000E+00     0.0000000000000000E+00 
    7.0312499999998124E-01     0.0000000000000000E+00     0.0000000000000000E+00 
    7.1874999999997025E-01     0.0000000000000000E+00     0.0000000000000000E+00 
    7.3437499999999034E-01     0.0000000000000000E+00     0.0000000000000000E+00 
    7.5000000000000000E-01     0.0000000000000000E+00     0.0000000000000000E+00 
    7.6562499999996902E-01     0.0000000000000000E+00     0.0000000000000000E+00 
    7.8124999999993228E-01     0.0000000000000000E+00     0.0000000000000000E+00 
    7.9687499999989997E-01     0.0000000000000000E+00     0.0000000000000000E+00 
    8.1249999999996247E-01     0.0000000000000000E+00     0.0000000000000000E+00 
    8.2812499999999578E-01     0.0000000000000000E+00     0.0000000000000000E+00 
    8.4374999999999556E-01     0.0000000000000000E+00     0.0000000000000000E+00 
    8.5937500000000111E-01     0.0000000000000000E+00     0.0000000000000000E+00 
    8.7499999999997691E-01     0.0000000000000000E+00     0.0000000000000000E+00 
    8.9062500000000921E-01     0.0000000000000000E+00     0.0000000000000000E+00 
    9.0625000000004452E-01     0.0000000000000000E+00     0.0000000000000000E+00 
    9.2187500000005529E-01     0.0000000000000000E+00     0.0000000000000000E+00 
    9.3750000000012723E-01     0.0000000000000000E+00     0.0000000000000000E+00 
    9.5312500000011835E-01     0.0000000000000000E+00     0.0000000000000000E+00 
    9.6875000000005151E-01     0.0000000000000000E+00     0.0000000000000000E+00 
    9.8437500000003086E-01     0.0000000000000000E+00     0.0000000000000000E+00 
    1.0000000000000000E+00     1.5624999999971041E-02     0.0000000000000000E+00 
    1.0000000000000000E+00     3.1249999999936742E-02     0.0000000000000000E+00 
    1.0000000000000000E+00     4.6874999999913257E-02     0.0000000000000000E+00 
    1.0000000000000000E+00     6.2499999999889783E-02     0.0000000000000000E+00 
    1.0000000000000000E+00     7.8124999999844805E-02     0.0000000000000000E+00 
    1.0000000000000000E+00     9.3749999999799827E-02     0.0000000000000000E+00 
    1.0000000000000000E+00     1.0937499999975490E-01     0.0000000000000000E+00 
    1.0000000000000000E+00     1.2499999999970990E-01     0.0000000000000000E+00 
    1.0000000000000000E+00     1.4062499999966460E-01     0.0000000000000000E+00 
    1.0000000000000000E+00     1.5624999999961930E-01     0.0000000000000000E+00 
    1.0000000000000000E+00     1.7187499999957390E-01     0.0000000000000000E+00 
    1.0000000000000000E+00     1.8749999999952860E-01     0.0000000000000000E+00 
    1.0000000000000000E+00     2.0312499999948330E-01     0.0000000000000000E+00 
    1.0000000000000000E+00     2.1874999999943801E-01     0.0000000000000000E+00 
    1.0000000000000000E+00     2.3437499999939271E-01     0.0000000000000000E+00 
    1.0000000000000000E+00     2.4999999999934730E-01     0.0000000000000000E+00 
    1.0000000000000000E+00     2.6562499999938810E-01     0.0000000000000000E+00 
    1.0000000000000000E+00     2.8124999999942890E-01     0.0000000000000000E+00 
    1.0000000000000000E+00     2.9687499999946970E-01     0.0000000000000000E+00 
    1.0000000000000000E+00     3.1249999999951050E-01     0.0000000000000000E+00 
    1.0000000000000000E+00     3.2812499999955130E-01     0.0000000000000000E+00 
    1.0000000000000000E+00     3.4374999999959210E-01     0.0000000000000000E+00 
    1.0000000000000000E+00     3.5937499999963290E-01     0.0000000000000000E+00 
    1.0000000000000000E+00     3.7499999999967371E-01     0.0000000000000000E+00 
    1.0000000000000000E+00     3.9062499999971451E-01     0.0000000000000000E+00 
    1.0000000000000000E+00     4.0624999999975520E-01     0.0000000000000000E+00 
    1.0000000000000000E+00     4.2187499999979600E-01     0.0000000000000000E+00 
    1.0000000000000000E+00     4.3749999999983680E-01     0.0000000000000000E+00 
    1.0000000000000000E+00     4.5312499999987760E-01     0.0000000000000000E+00 
    1.0000000000000000E+00     4.6874999999991840E-01     0.0000000000000000E+00 
    1.0000000000000000E+00     4.8437499999995920E-01     0.0000000000000000E+00 
    1.0000000000000000E+00     5.1562499999992384E-01     0.0000000000000000E+00 
    1.0000000000000000E+00     5.3124999999985478E-01     0.0000000000000000E+00 
    1.0000000000000000E+00     5.4687499999994527E-01     0.0000000000000000E+00 
    1.0000000000000000E+00     5.6249999999998668E-01     0.0000000000000000E+00 
    1.0000000000000000E+00     5.7812499999998068E-01     0.0000000000000000E+00 
    1.0000000000000000E+00     5.9374999999994749E-01     0.0000000000000000E+00 
    1.0000000000000000E+00     6.0937499999997913E-01     0.0000000000000000E+00 
    1.0000000000000000E+00     6.2500000000000000E-01     0.0000000000000000E+00 
    1.0000000000000000E+00     6.4062499999998945E-01     0.0000000000000000E+00 
    1.0000000000000000E+00     6.5624999999996603E-01     0.0000000000000000E+00 
    1.0000000000000000E+00     6.7187499999995337E-01     0.0000000000000000E+00 
    1.0000000000000000E+00     6.8749999999998734E-01     0.0000000000000000E+00 
    1.0000000000000000E+00     7.0312499999998124E-01     0.0000000000000000E+00 
    1.0000000000000000E+00     7.1874999999997025E-01     0.0000000000000000E+00 
    1.0000000000000000E+00     7.3437499999999034E-01     0.0000000000000000E+00 
    1.0000000000000000E+00     7.5000000000000000E-01     0.0000000000000000E+00 
    1.0000000000000000E+00     7.6562499999996902E-01     0.0000000000000000E+00 
    1.0000000000000000E+00     7.8124999999993228E-01     0.0000000000000000E+00 
    1.0000000000000000E+00     7.9687499999989997E-01     0.0000000000000000E+00 
[...]
CELL_DATA 2084 
SCALARS Pressure double 1 
LOOKUP_TABLE default 

    3.0655838701698253E+00 
    3.0954276393962510E+00 
    3.2924848295725111E+00 
    3.0962355628706693E+00 
    3.2069758590284811E+00 
    3.1613603911373636E+00 
    3.0353859478434977E+00 
    3.1452044473511989E+00 
    3.1559164676721765E+00 
    3.2113851765400998E+00 
    3.2865354401616642E+00 
    3.0507869674115708E+00 
    3.1335698967192687E+00 
    3.0926051849072085E+00 
    3.0604123183073408E+00 
    3.0814206884004278E+00 
    3.2457968019836625E+00 
    3.1141975610307648E+00 
    3.3191283083325400E+00 
    3.0730734728681810E+00 
    3.0768971677199399E+00 
    3.1893280810714089E+00 
    3.0796440652070762E+00 
    3.1293324367972892E+00 
    3.0692101956148243E+00 
    3.1309520110079467E+00 
    3.0876319905224885E+00 
    3.0387308723258650E+00 
    3.1382069671507051E+00 
    3.1027663999644473E+00 
    3.0270864267129904E+00 
    3.1459651932448365E+00 
    3.0136915843245444E+00 
    3.0761899696896862E+00 
    3.0546757005358005E+00 
    3.2005395145482844E+00 
    3.1084923262971720E+00 
    3.1039694458296876E+00 
    3.1893096743022094E+00 
    3.1469828178866819E+00 
    3.0416042762592315E+00 
    3.2161400719417759E+00 
    3.0696349748381788E+00 
    3.1685075048157865E+00 
    3.1603864289066368E+00 
    3.0494354117122193E+00 
    3.2144511358352115E+00 
    3.0316881120376484E+00 
    3.0339277455439726E+00 
    3.1344569874208599E+00 
    3.1316636118572179E+00 
    3.0379513302030059E+00 
    3.0491180103257065E+00 
    3.1175314584782989E+00 
    3.1187440491540026E+00 
    3.0416477292489685E+00 
    3.0195037365586717E+00 
    3.1750746759132724E+00 
    3.1867632954919793E+00 
    3.1261510671802299E+00 
    3.1248108589947048E+00 
    3.0736951441830138E+00 
    3.0534169503160093E+00 
    3.0902610598979869E+00 
    3.2118972614203076E+00 
    3.1217781775726290E+00 
    3.1557559619464275E+00 
    3.0477817261448057E+00 
    3.0324048783199089E+00 
    3.0315681832566845E+00 
    3.0671899514039982E+00 
    3.3495426675926034E+00 
    3.1317732530694125E+00 
    3.2696037049759403E+00 
    3.1829946088838246E+00 
    3.2669891622644145E+00 
    3.1270853973156676E+00 
    3.2036446770928748E+00 
    3.0504536507296889E+00 
    3.2213322224476979E+00 
    3.0803798311045090E+00 
    3.1466127465348896E+00 
    3.1736836932361681E+00 
    3.0257812587112229E+00 
    3.1610342512930822E+00 
    3.0781808582946319E+00 
    3.1113210755618659E+00 
    3.1636468960971755E+00 
    3.1842953133517882E+00 
    3.1751103262588098E+00 
    3.1564770770475281E+00 
    3.1528357397631126E+00 
    3.0824172899926854E+00 
    3.1731964737272653E+00 
    3.1139443512361500E+00 
    3.0379283913061248E+00 
    3.0985303615024939E+00 
    3.1392867125016708E+00 
    3.1971098269082070E+00 
    3.1026725551375307E+00 
    3.2092201652341625E+00 
    3.1709184716318171E+00 
    3.1870587361255991E+00 
    3.1884459518312309E+00 
    3.1143918468667486E+00 
    3.1726433220442614E+00 
    3.1442212772993958E+00 
    3.1978021909966521E+00 
    3.0631047476348785E+00 
    3.3820638226508866E+00 
    3.0855773437983198E+00 
    3.1382366842675298E+00 
    3.1701408794528820E+00 
    3.2259792372141129E+00 
    3.2803022970326330E+00 
    3.0917746580595851E+00 
    3.1733418762553423E+00 
    3.1699687659469875E+00 
    3.1048917692326321E+00 
    3.0705469134301828E+00 
    3.1210642781760538E+00 
    3.1858155705998157E+00 
    3.0707731720492939E+00 
    3.2539824678732550E+00 
    3.1428885265116788E+00 
    3.1863561586409364E+00 
    3.1231319711231404E+00 
    3.0708138282890385E+00 
    3.1090790310102951E+00 
    3.0802030385527290E+00 
    3.2764931457998712E+00 
    3.2892103869662837E+00 
    3.0439650924784698E+00 
    3.2118363129518834E+00 
    3.1973696645746577E+00 
    3.1245471182975524E+00 
    3.1779370498907320E+00 
    3.0695225418854881E+00 
    3.1957563540815439E+00 
    3.2598289210852331E+00 
    3.1594255207526762E+00 
    3.3034689388026264E+00 
    3.2698767900918102E+00 
    3.1428165337790142E+00 
    3.0922838221900601E+00 
    3.1384705514180578E+00 
    3.1712825773706719E+00 
    3.1944854567038776E+00 
    3.1139802086337465E+00 
    3.1582531772428877E+00 
    3.1640177550278277E+00 
    3.2608510993644542E+00 
    3.3363282288777105E+00 
    3.1132639956835302E+00 
    3.1228305432520482E+00 
    3.3190426324786184E+00 
    3.0792621245468896E+00 
    3.1669483584370042E+00 
    3.1179012597180868E+00 
    3.2535716583062659E+00 
    3.4627749495340994E+00 
    3.4016190553813868E+00 
    3.3400443126388928E+00 
    3.3609561804485435E+00 
    3.3112341013670936E+00 
    3.3281168234274356E+00 
    3.1691078222413500E+00 
    3.3752912147205740E+00 
    3.1601078493988717E+00 
    3.3208688123067813E+00 
    3.1604343698500403E+00 
    3.2467784435111375E+00 
    3.2651813897112509E+00 
    3.2008315059076708E+00 
    3.2392054753094519E+00 
    3.1009196691268124E+00 
    3.2422639694849775E+00 
    3.1504984277607524E+00 
    3.1584270473756453E+00 
    3.1572604345739927E+00 
    3.1826913342997467E+00 
    3.0986250862343878E+00 
    3.2475240747984806E+00 
    3.1851388462029444E+00 
    3.1813512436100861E+00 
    3.0177248644439372E+00 
    3.2064751125633042E+00 
    3.2718310900250391E+00 
    3.1067937384342805E+00 
    3.2285702025692435E+00 
    3.2870726201748628E+00 
    3.3099088880324894E+00 
    3.1831290388518849E+00 
    3.1242382264989925E+00 
    3.0900268943273752E+00 
    3.1093773798006361E+00 
    3.2136649911838351E+00 
    3.1752387511832363E+00 
    3.1206525724760765E+00 
    3.2182977450860673E+00 
    3.1503342616693559E+00 
    3.1118256722222823E+00 
    3.1827019721985228E+00 
    3.0519934123503778E+00 
    3.1110428470230844E+00 
    3.2908614794395272E+00 
    3.2129210259360454E+00 
    3.1023523760233660E+00 
    3.2371164932414076E+00 
    3.2291115167788411E+00 
    3.1172598345487410E+00 
    3.1395221601476058E+00 
    3.1455141757510670E+00 
    3.2028049484438670E+00 
    3.1989530331128369E+00 
    3.2647275244580527E+00 
    3.1344854182316655E+00 
    3.1995419083039329E+00 
    3.2143359310988946E+00 
    3.1220903631660955E+00 
    3.1298080907183849E+00 
    3.0084513304949931E+00 
    3.1241979096800416E+00 
    3.3003419828441576E+00 
    3.1747824516223733E+00 
    3.1982829327729441E+00 
    3.1503944469150835E+00 
    3.1984144826947576E+00 
    3.1097780459836559E+00 
    3.0965146690969036E+00 
    3.0686869425360634E+00 
    3.1065953312757064E+00 
    3.0734689856494555E+00 
    3.1347702699501054E+00 
    3.1844819268015159E+00 
    3.0874088323772293E+00 
    3.2312853322561921E+00 
    3.2335784962491068E+00 
    3.1311053318553221E+00 
    3.0967262214916924E+00 
    3.1845255172543991E+00 
    3.1169060722923967E+00 
    3.0590021023116174E+00 
    3.1098163237865406E+00 
    3.0655470099775792E+00 
    3.0664821646434288E+00 
    3.1215073327842688E+00 
    3.1703890084986246E+00 
    3.2510263599381348E+00 
    3.0544643447214384E+00 
    3.1077936106068047E+00 
    3.0840521435976482E+00 
    3.1073886507970041E+00 
    3.3486602237724066E+00 
    3.0712599379233114E+00 
    3.1452419889762249E+00 
    3.0829933830723673E+00 
    3.1238628108000697E+00 
    3.0935485127435873E+00 
    3.1326539503088475E+00 
    3.0828210295874769E+00 
    3.1289712204818705E+00 
    3.0954909644652386E+00 
    3.1325415131521956E+00 
    3.0910194474562238E+00 
    3.0897366522482552E+00 
    3.0651941207189695E+00 
    3.0763281999026830E+00 
    3.2314025244447353E+00 
    3.0439940322128334E+00 
    3.0543049614251228E+00 
    3.1033418143985734E+00 
    3.0871459168707638E+00 
    3.4179037597616544E+00 
    3.1062090645060390E+00 
    3.2012773904570122E+00 
    3.0982339762130833E+00 
    3.0386332040586219E+00 
    3.1198923792899622E+00 
    3.0772657964336778E+00 
    3.1357405944056049E+00 
    3.0915636267817179E+00 
    3.0918608324087060E+00 
    3.1042371615343254E+00 
    3.0677662561725003E+00 
    3.1059814130887831E+00 
    3.0924038392481052E+00 
    3.0445894483091265E+00 
    3.0810990945004790E+00 
    3.0809749799800095E+00 
    3.1006096289383254E+00 
    3.0367117971235271E+00 
    3.0839482474427715E+00 
    3.1003528710667272E+00 
    3.1345593011600981E+00 
    3.0705601312005637E+00 
    3.0580186126446041E+00 
    3.2135140464366021E+00 
    3.0712679194268651E+00 
    3.1577683157563050E+00 
    3.4179199462099987E+00 
    3.2247026731547028E+00 
    3.1584793451335789E+00 
    3.2470437934160783E+00 
    3.0878981255727225E+00 
    3.0812242411821238E+00 
    3.0566164498038377E+00 
    3.0607184866585113E+00 
    3.0617929064841092E+00 
    3.0541158881783970E+00 
    3.2503512911136729E+00 
    3.0586659933350506E+00 
    3.1210787985255020E+00 
    3.2293414589055183E+00 
    3.1341153732396467E+00 
    3.0707288785618543E+00 
    3.1945395888153603E+00 
    3.0518578138737742E+00 
    3.0521594797777940E+00 
    3.0620562580942550E+00 
    3.3854120647432238E+00 
    3.1714392902256634E+00 
    3.2394498299586290E+00 
    3.2453059493827365E+00 
    3.1442153367280610E+00 
    3.2154798103873414E+00 
    3.0741342191634180E+00 
    3.0009121061596726E+00 
    3.5622687608257455E+00 
    3.0261455263474959E+00 
    3.0431807114922722E+00 
    3.0423556858913074E+00 
    3.1597380951061207E+00 
    3.2283142136389049E+00 
    3.0003243444433498E+00 
    3.2827667268152836E+00 
    3.3048467733325859E+00 
    3.1450559711295285E+00 
    3.0924087074009612E+00 
    3.2690675785772645E+00 
    3.1472084800904994E+00 
    3.0634878799652876E+00 
    3.2390971965924504E+00 
    3.0342374747957299E+00 
    3.0330053318007462E+00 
    3.1570887065669697E+00 
    3.1019642297921659E+00 
    3.0097858621499323E+00 
    3.0920028298030924E+00 
    3.0188201416810188E+00 
    3.2589763507685849E+00 
    3.0258982667306724E+00 
    3.0805610601699911E+00 
    3.2263742868339449E+00 
    3.1015009018884263E+00 
    3.1473426260084789E+00 
    3.0240169895384552E+00 
    3.1254765871424102E+00 
    3.1315248338935295E+00 
    3.0644961722679707E+00 
    3.1020863750767513E+00 
    3.2332304167741861E+00 
    3.0186433688360075E+00 
    3.0997546559632556E+00 
    3.0690918674630270E+00 
    3.0700732402672535E+00 
    3.1180812546327989E+00 
    3.0621561222099363E+00 
    3.1085230471289962E+00 
    3.2463620532041619E+00 
    3.2619145520180832E+00 
    3.0155946067621753E+00 
    3.4291860847614593E+00 
    3.1235963021731035E+00 
    3.0842592198620529E+00 
    3.2910953384682582E+00 
    3.1515071263709658E+00 
    3.1682254273356794E+00 
    3.0692253753913286E+00 
    3.0610339825895552E+00 
    3.1881816213113372E+00 
    3.1458348373908138E+00 
    3.0103759357908300E+00 
    3.0690750764308707E+00 
    3.3198294027722666E+00 
    3.1404417608121569E+00 
    3.2196929535459096E+00 
    3.1576492946120367E+00 
    3.2338808606598728E+00 
    3.1881312370210440E+00 
    3.0082856127148236E+00 
    3.0461276970762547E+00 
    3.0940747025644280E+00 
    3.2634913530148673E+00 
    3.2176157847912625E+00 
    3.0899365760818793E+00 
    3.0622622732095155E+00 
    3.0882980945072287E+00 
    3.0748528905785122E+00 
    3.2017414263380060E+00 
    3.0653393146225514E+00 
    3.1669800819853475E+00 
    3.3612691025582513E+00 
    3.0591627642858423E+00 
    3.3250730105226602E+00 
    3.1123457997703654E+00 
    3.3404340540915345E+00 
    3.2284365545818159E+00 
    3.4749559075926078E+00 
    3.0811979151748599E+00 
    3.2154612641786442E+00 
    3.1323356863108449E+00 
    3.0541502073672571E+00 
    3.2436761351243026E+00 
    3.1232188191998920E+00 
    3.2531795999838495E+00 
    3.0582982399128347E+00 
    3.2181978394164994E+00 
    3.1130328402473051E+00 
    3.1491620773164448E+00 
    3.0246824993445394E+00 
    3.0622681312075959E+00 
    3.0489107267039213E+00 
    3.2854219317411455E+00 
    3.0833227697623364E+00 
    3.3521313882680817E+00 
    3.3028818321511699E+00 
    3.0728097474503313E+00 
    3.1109713815729143E+00 
    3.0945220133478828E+00 
    3.0225830528857420E+00 
    3.1166782949597356E+00 
    3.2325116042370987E+00 
    3.0717799960183401E+00 
    3.0321943513698790E+00 
    3.3805172875004876E+00 
    3.2017344443005986E+00 
    3.0012097264969730E+00 
    3.0005511809955570E+00 
    3.0442514374057490E+00 
    3.0513817260782394E+00 
    3.0299599434361526E+00 
    3.0192360013614885E+00 
    3.0898063201882286E+00 
    3.0787257844986216E+00 
    2.9935019735514996E+00 
    2.9931679480390501E+00 
    2.9553409927647691E+00 
    2.8847335813809356E+00 
    2.8790885483281468E+00 
    2.8869856154873714E+00 
    2.9082462589214839E+00 
    2.9054690260526197E+00 
    2.9698644642777405E+00 
    2.8592057914515752E+00 
    2.9546845782147462E+00 
    2.8679276169652081E+00 
    2.9329341552013548E+00 
    2.9013237669042340E+00 
    2.8985479832885761E+00 
    2.8722345915111456E+00 
    2.8613535150852973E+00 
    3.0158463868572687E+00 
    2.9668713670660076E+00 
    2.9945702057517862E+00 
    2.9624402644311680E+00 
    2.9176040373051766E+00 
    2.8622662564765333E+00 
    2.8569321732154385E+00 
    3.0110714219901507E+00 
    2.9298759974333177E+00 
    2.8568657066429717E+00 
    2.9075802076513995E+00 
    2.9852728964829569E+00 
    2.9854092036795468E+00 
    2.8369640267540550E+00 
    2.8568911523815053E+00 
    2.9328397677221636E+00 
    2.9961726244450819E+00 
    2.9700331437197951E+00 
    2.9173696846787722E+00 
    2.8876224263632899E+00 
    3.0248937820884336E+00 
    2.9971684867314226E+00 
    2.9850107754800046E+00 
    3.0420649321037763E+00 
    2.8869670450746345E+00 
    2.9038524172387379E+00 
    2.8980981790431821E+00 
    3.0090277847659701E+00 
    2.9025813058932810E+00 
    2.9905392604061882E+00 
    2.9465414387328019E+00 
    2.9432687924440466E+00 
    2.9272607623433906E+00 
    2.9312239974014092E+00 
    2.9968310798601303E+00 
    2.9922971687423288E+00 
    2.9391489391041818E+00 
    2.8793526094216095E+00 
    2.9290967659356246E+00 
    2.9232887900140043E+00 
    2.8581115851482606E+00 
    2.9730214411382070E+00 
    2.8623285588409240E+00 
    2.9964156594636595E+00 
    2.8689198039100456E+00 
    2.9560876876974924E+00 
    2.8934196473045177E+00 
    2.8348611291854082E+00 
    2.8342681363836206E+00 
    2.8411740978626816E+00 
    2.8355477123638488E+00 
    2.9268819905300689E+00 
    2.8361116521690195E+00 
    2.8607330595111016E+00 
    2.8639172979787357E+00 
    3.0296419736150129E+00 
    2.9316235477268613E+00 
    2.8611137606888160E+00 
    2.9957933560741923E+00 
    2.9103822146940663E+00 
    2.8904521298038839E+00 
    2.9769674344554593E+00 
    3.0266459920956077E+00 
    2.9619251288269548E+00 
    2.9649401562774509E+00 
    2.9379553235260896E+00 
    2.9543231266471532E+00 
    2.9810038249655810E+00 
    2.9779309721348994E+00 
    2.9745287802116462E+00 
    2.9792541614573431E+00 
    2.9439496512531513E+00 
    2.9925113851243204E+00 
    2.9924463498524188E+00 
    2.9586575407819939E+00 
    2.9682498082685718E+00 
    3.0147821384915434E+00 
    2.9797060279927878E+00 
    2.9892843727948826E+00 
    3.0187625001633864E+00 
    2.9083227398617488E+00 
    2.8954441999894311E+00 
    2.9568857774080697E+00 
    2.9974946702254774E+00 
    3.0272630579319655E+00 
    2.9928189477252740E+00 
    2.8390124134575871E+00 
    2.8915302050883960E+00 
    2.9540079505875769E+00 
    2.9223980489115271E+00 
    2.8717434511361017E+00 
    2.9805939631592264E+00 
    2.9526840774579597E+00 
    2.8676282681807241E+00 
    2.9700064278719633E+00 
    2.8820090456261891E+00 
    2.8965554118747643E+00 
    2.8914611088167534E+00 
    2.9594925869341142E+00 
    2.9904235118173510E+00 
    3.0114109082499363E+00 
    2.9786506435905711E+00 
    3.0054087505606901E+00 
    2.8783793290734714E+00 
    2.8632692582041281E+00 
    3.0112668558846503E+00 
    2.9739760109782623E+00 
    2.8362909435363797E+00 
    2.8370751109870431E+00 
    3.0228861935182412E+00 
    2.9456319157176294E+00 
    2.9823249385205659E+00 
    2.9539620752272948E+00 
    2.9113451752285697E+00 
    2.9577028698151633E+00 
    2.9720511583935729E+00 
    2.9420750027808991E+00 
    2.9367004444300364E+00 
    2.9363979816179784E+00 
    2.8335160109189252E+00 
    3.0013411975336859E+00 
    3.0426581832197894E+00 
    2.8344856319356033E+00 
    2.8339821494822757E+00 
    2.8351941651758210E+00 
    2.8343540278319574E+00 
    2.8407949100426526E+00 
    2.9834623129199289E+00 
    2.9144397184102839E+00 
    2.8522204080297588E+00 
    2.9697508540804107E+00 
    2.9671681756871715E+00 
    2.9052225215416621E+00 
    2.9247730843718824E+00 
    2.9146216382372674E+00 
    2.9403807219738063E+00 
    3.0079079493104608E+00 
    2.8338192095182348E+00 
    2.8349333141785240E+00 
    2.8843862253801822E+00 
    2.9321871908623867E+00 
    2.9867519265092426E+00 
    2.8606289843422554E+00 
    3.0108572048205700E+00 
    2.8389884509181651E+00 
    2.9083993551907819E+00 
    2.8322617145869429E+00 
    2.8327067041269460E+00 
    2.8534654782080864E+00 
    3.0117545291369150E+00 
    2.9528027101095717E+00 
    2.9210593046358100E+00 
    2.9440195557094433E+00 
    2.9651356562803639E+00 
    2.8401601816207527E+00 
    2.9182643569458824E+00 
    2.9541434757050080E+00 
    3.0105200432257706E+00 
    3.0007520740959683E+00 
    2.9969968931129523E+00 
    3.0113954289912246E+00 
    3.0179487820985500E+00 
    2.9378733897783387E+00 
    2.8634591582866085E+00 
    2.9633917535455798E+00 
    2.9613548338996996E+00 
    2.9122189729050971E+00 
    2.8406068905874542E+00 
    2.9582196251740895E+00 
    2.9752329062019345E+00 
    2.9841674305245744E+00 
    2.9705437411600317E+00 
    2.8389101706449695E+00 
    2.9648317338516343E+00 
    2.9598116622194528E+00 
    2.8483504158160127E+00 
    2.8748493032526312E+00 
    2.9532671350412216E+00 
    2.9683379585988052E+00 
    2.9625257048981277E+00 
    2.9770279948536378E+00 
    2.9759632372017211E+00 
    3.0087123993633913E+00 
    2.9571819767417451E+00 
    2.9901507080345340E+00 
    2.9488976027374312E+00 
    2.9652223789195395E+00 
    2.8380953585297264E+00 
    3.0252403964501138E+00 
    3.0044103944581662E+00 
    3.0168596274125887E+00 
    2.9117200676647355E+00 
    2.8974634975890927E+00 
    2.8800406140333523E+00 
    2.9821596586025705E+00 
    2.9537280530299546E+00 
    2.9861308946673519E+00 
    2.9028333813974161E+00 
    2.8515000061791476E+00 
    2.8701071157986542E+00 
    2.9970131140678311E+00 
    2.8656074034361674E+00 
    2.9391506914104615E+00 
    2.8831298108481316E+00 
    2.9957730535758564E+00 
    2.9512268615542956E+00 
    2.9357281384046758E+00 
    3.0201752739132117E+00 
    3.0135806822981421E+00 
    2.9231719937630274E+00 
    2.9127739099436205E+00 
    2.8885291186507298E+00 
    2.9297928630421737E+00 
    2.9849158038664911E+00 
    2.8356301153110302E+00 
    3.0069689605217875E+00 
    3.0202516982709775E+00 
    2.9210366788268805E+00 
    2.9154635709329253E+00 
    2.8580224594559480E+00 
    2.8398388054704689E+00 
    3.0157239414210673E+00 
    2.8979331586085917E+00 
    2.9546024920947040E+00 
    2.9212133209184201E+00 
    2.9662515098375293E+00 
    2.8722268801432671E+00 
    2.9414388494567221E+00 
    3.0153191219200135E+00 
    2.8868075151245649E+00 
    2.9198387244409658E+00 
    2.8804898666738179E+00 
    2.9302366183450470E+00 
    3.0221278190940328E+00 
    2.8928977962121993E+00 
    2.9527565701894796E+00 
    2.9044170542277752E+00 
    2.8532177718242187E+00 
    2.9762030465870768E+00 
    2.9762790717709828E+00 
    2.9612342066034625E+00 
    2.9027110285573658E+00 
    2.8990912621777105E+00 
    2.8612886097295069E+00 
    2.9561856113001812E+00 
    2.9751839257192327E+00 
    2.9379451316580432E+00 
    2.8612498375192028E+00 
    2.8951227871044973E+00 