# vtk DataFile Version 2.0
Pressure Field Data 
ASCII 
DATASET UNSTRUCTURED_GRID 

POINTS 2213 double 

    0.0000000000000000E+00     0.0000000000000000E+00     0.0000000000000000E+00 
    5.0000000000000000E-01     0.0000000000000000E+00     0.0000000000000000E+00 
    1.0000000000000000E+00     0.0000000000000000E+00     0.0000000000000000E+00 
    1.0000000000000000E+00     5.0000000000000000E-01     0.0000000000000000E+00 
    1.0000000000000000E+00     1.0000000000000000E+00     0.0000000000000000E+00 
    5.0000000000000000E-01     1.0000000000000000E+00     0.0000000000000000E+00 
    0.0000000000000000E+00     1.0000000000000000E+00     0.0000000000000000E+00 
    0.0000000000000000E+00     5.0000000000000000E-01     0.0000000000000000E+00 
    1.5624999999971041E-02     0.0000000000000000E+00     0.0000000000000000E+00 
    3.1249999999936742E-02     0.0000000000000000E+00     0.0000000000000000E+00 
    4.6874999999913257E-02     0.0000000000000000E+00     0.0000000000000000E+00 
    6.2499999999889783E-02     0.0000000000000000E+00     0.0000000000000000E+00 
    7.8124999999844805E-02     0.0000000000000000E+00     0.0000000000000000E+00 
    9.3749999999799827E-02     0.0000000000000000E+00     0.0000000000000000E+00 
    1.0937499999975490E-01     0.0000000000000000E+00     0.0000000000000000E+00 
    1.2499999999970990E-01     0.0000000000000000E+00     0.0000000000000000E+00 
    1.4062499999966460E-01     0.0000000000000000E+00     0.0000000000000000E+00 
    1.5624999999961930E-01     0.0000000000000000E+00     0.0000000000000000E+00 
    1.7187499999957390E-01     0.0000000000000000E+00     0.0000000000000000E+00 
    1.8749999999952860E-01     0.0000000000000000E+00     0.0000000000000000E+00 
    2.0312499999948330E-01     0.0000000000000000E+00     0.0000000000000000E+00 
    2.1874999999943801E-01     0.0000000000000000E+00     0.0000000000000000E+00 
    2.3437499999939271E-01     0.0000000000000000E+00     0.0000000000000000E+00 
    2.4999999999934730E-01     0.0000000000000000E+00     0.0000000000000000E+00 
    2.6562499999938810E-01     0.0000000000000000E+00     0.0000000000000000E+00 
    2.8124999999942890E-01     0.0000000000000000E+00     0.0000000000000000E+00 
    2.9687499999946970E-01     0.0000000000000000E+00     0.0000000000000000E+00 
    3.1249999999951050E-01     0.0000000000000000E+00     0.0000000000000000E+00 
    3.2812499999955130E-01     0.0000000000000000E+00     0.0000000000000000E+00 
    3.4374999999959210E-01     0.0000000000000000E+00     0.0000000000000000E+00 
    3.5937499999963290E-01     0.0000000000000000E+00     0.0000000000000000E+00 
    3.7499999999967371E-01     0.0000000000000000E+00     0.0000000000000000E+00 
    3.9062499999971451E-01     0.0000000000000000E+00     0.0000000000000000E+00 
    4.0624999999975520E-01     0.0000000000000000E+00     0.0000000000000000E+00 
    4.2187499999979600E-01     0.0000000000000000E+00     0.0000000000000000E+00 
    4.3749999999983680E-01     0.0000000000000000E+00     0.0000000000000000E+00 
    4.5312499999987760E-01     0.0000000000000000E+00     0.0000000000000000E+00 
    4.6874999999991840E-01     0.0000000000000000E+00     0.0000000000000000E+00 
    4.8437499999995920E-01     0.0000000000000000E+00     0.0000000000000000E+00 
    5.1562499999992384E-01     0.0000000000000000E+00     0.0000000000000000E+00 
    5.3124999999985478E-01     0.0000000000000000E+00     0.0000000000000000E+00 
    5.4687499999994527E-01     0.0000000000000000E+00     0.0000000000000000E+00 
    5.6249999999998668E-01     0.0000000000000000E+00     0.0000000000000000E+00 
    5.7812499999998068E-01     0.0000000000000000E+00     0.0000000000000000E+00 
    5.9374999999994749E-01     0.0000000000000000E+00     0.0000000000000000E+00 
    6.0937499999997913E-01     0.0000000000000000E+00     0.0000000000000000E+00 
    6.2500000000000000E-01     0.0000000000000000E+00     0.0000000000000000E+00 
    6.4062499999998945E-01     0.0000000000000000E+00     0.0000000000000000E+00 
    6.5624999999996603E-01     0.0000000000000000E+00     0.0000000000000000E+00 
    6.7187499999995337E-01     0.0000000000000000E+00     0.0000000000000000E+00 
    6.8749999999998734E-01     0.0000000000000000E+00     0.0000000000000000E+00 
    7.0312499999998124E-01     0.0000000000000000E+00     0.0000000000000000E+00 
    7.1874999999997025E-01     0.0000000000000000E+00     0.0000000000000000E+00 
    7.3437499999999034E-01     0.0000000000000000E+00     0.0000000000000000E+00 
    7.5000000000000000E-01     0.0000000000000000E+00     0.0000000000000000E+00 
    7.6562499999996902E-01     0.0000000000000000E+00     0.0000000000000000E+00 
    7.8124999999993228E-01     0.0000000000000000E+00     0.0000000000000000E+00 
    7.9687499999989997E-01     0.0000000000000000E+00     0.0000000000000000E+00 
    8.1249999999996247E-01     0.0000000000000000E+00     0.0000000000000000E+00 
    8.2812499999999578E-01     0.0000000000000000E+00     0.0000000000000000E+00 
    8.4374999999999556E-01     0.0000000000000000E+00     0.0000000000000000E+00 
    8.5937500000000111E-01     0.0000000000000000E+00     0.0000000000000000E+00 
    8.7499999999997691E-01     0.0000000000000000E+00     0.0000000000000000E+00 
    8.9062500000000921E-01     0.0000000000000000E+00     0.0000000000000000E+00 
    9.0625000000004452E-01     0.0000000000000000E+00     0.0000000000000000E+00 
    9.2187500000005529E-01     0.0000000000000000E+00     0.0000000000000000E+00 
    9.3750000000012723E-01     0.0000000000000000E+00     0.0000000000000000E+00 
    9.5312500000011835E-01     0.0000000000000000E+00     0.0000000000000000E+00 
    9.6875000000005151E-01     0.0000000000000000E+00     0.0000000000000000E+00 
    9.8437500000003086E-01     0.0000000000000000E+00     0.0000000000000000E+00 
    1.0000000000000000E+00     1.5624999999971041E-02     0.0000000000000000E+00 
    1.0000000000000000E+00     3.1249999999936742E-02     0.0000000000000000E+00 
    1.0000000000000000E+00     4.6874999999913257E-02     0.0000000000000000E+00 
    1.0000000000000000E+00     6.2499999999889783E-02     0.0000000000000000E+00 
    1.0000000000000000E+00     7.8124999999844805E-02     0.0000000000000000E+00 
    1.0000000000000000E+00     9.3749999999799827E-02     0.0000000000000000E+00 
    1.0000000000000000E+00     1.0937499999975490E-01     0.0000000000000000E+00 
    1.0000000000000000E+00     1.2499999999970990E-01     0.0000000000000000E+00 
    1.0000000000000000E+00     1.4062499999966460E-01     0.0000000000000000E+00 
    1.0000000000000000E+00     1.5624999999961930E-01     0.0000000000000000E+00 
    1.0000000000000000E+00     1.7187499999957390E-01     0.0000000000000000E+00 
    1.0000000000000000E+00     1.8749999999952860E-01     0.0000000000000000E+00 
    1.0000000000000000E+00     2.0312499999948330E-01     0.0000000000000000E+00 
    1.0000000000000000E+00     2.1874999999943801E-01     0.0000000000000000E+00 
    1.0000000000000000E+00     2.3437499999939271E-01     0.0000000000000000E+00 
    1.0000000000000000E+00     2.4999999999934730E-01     0.0000000000000000E+00 
    1.0000000000000000E+00     2.6562499999938810E-01     0.0000000000000000E+00 
    1.0000000000000000E+00     2.8124999999942890E-01     0.0000000000000000E+00 
    1.0000000000000000E+00     2.9687499999946970E-01     0.0000000000000000E+00 
    1.0000000000000000E+00     3.1249999999951050E-01     0.0000000000000000E+00 
    1.0000000000000000E+00     3.2812499999955130E-01     0.0000000000000000E+00 
    1.0000000000000000E+00     3.4374999999959210E-01     0.0000000000000000E+00 
    1.0000000000000000E+00     3.5937499999963290E-01     0.0000000000000000E+00 
    1.0000000000000000E+00     3.7499999999967371E-01     0.0000000000000000E+00 
    1.0000000000000000E+00     3.9062499999971451E-01     0.0000000000000000E+00 
    1.0000000000000000E+00     4.0624999999975520E-01     0.0000000000000000E+00 
    1.0000000000000000E+00     4.2187499999979600E-01     0.0000000000000000E+00 
    1.0000000000000000E+00     4.3749999999983680E-01     0.0000000000000000E+00 
    1.0000000000000000E+00     4.5312499999987760E-01     0.0000000000000000E+00 
    1.0000000000000000E+00     4.6874999999991840E-01     0.0000000000000000E+00 
    1.0000000000000000E+00     4.8437499999995920E-01     0.0000000000000000E+00 
    1.0000000000000000E+00     5.1562499999992384E-01     0.0000000000000000E+00 
    1.0000000000000000E+00     5.3124999999985478E-01     0.0000000000000000E+00 
    1.0000000000000000E+00     5.4687499999994527E-01     0.0000000000000000E+00 
    1.0000000000000000E+00     5.6249999999998668E-01     0.0000000000000000E+00 
    1.0000000000000000E+00     5.7812499999998068E-01     0.0000000000000000E+00 
    1.0000000000000000E+00     5.9374999999994749E-01     0.0000000000000000E+00 
    1.0000000000000000E+00     6.0937499999997913E-01     0.0000000000000000E+00 
    1.0000000000000000E+00     6.2500000000000000E-01     0.0000000000000000E+00 
    1.0000000000000000E+00     6.4062499999998945E-01     0.0000000000000000E+00 
    1.0000000000000000E+00     6.5624999999996603E-01     0.0000000000000000E+00 
    1.0000000000000000E+00     6.7187499999995337E-01     0.0000000000000000E+00 
    1.0000000000000000E+00     6.8749999999998734E-01     0.0000000000000000E+00 
    1.0000000000000000E+00     7.0312499999998124E-01     0.0000000000000000E+00 
    1.0000000000000000E+00     7.1874999999997025E-01     0.0000000000000000E+00 
    1.0000000000000000E+00     7.3437499999999034E-01     0.0000000000000000E+00 
    1.0000000000000000E+00     7.5000000000000000E-01     0.0000000000000000E+00 
    1.0000000000000000E+00     7.6562499999996902E-01     0.0000000000000000E+00 
    1.0000000000000000E+00     7.8124999999993228E-01     0.0000000000000000E+00 
    1.0000000000000000E+00     7.9687499999989997E-01     0.0000000000000000E+00 
[...]
CELL_DATA 2084 
SCALARS Pressure double 1 
LOOKUP_TABLE default 

    3.0122456970646865E+00 
    3.0525672936279871E+00 
    3.2883492617545955E+00 
    3.0536518705215330E+00 
    3.1915740555963010E+00 
    3.1362146107906015E+00 
    2.9702200376381174E+00 
    3.1160002635564754E+00 
    3.1294787169319518E+00 
    3.1967579002896445E+00 
    3.2818427766106426E+00 
    2.9915724948007765E+00 
    3.1016581042147804E+00 
    3.0478686373515922E+00 
    3.0054889306978523E+00 
    3.0329097560450089E+00 
    3.2365233035653809E+00 
    3.0762895282444940E+00 
    3.3171258856513441E+00 
    3.0229092444870505E+00 
    3.0278998954375327E+00 
    3.1705202310016518E+00 
    3.0305585502010501E+00 
    3.0962518327479525E+00 
    3.0176169207505481E+00 
    3.0978752707972839E+00 
    3.0419588873652774E+00 
    2.9749122117411311E+00 
    3.1072375696372334E+00 
    3.0617161251120142E+00 
    2.9586302654485470E+00 
    3.1171944598602348E+00 
    2.9384606494891932E+00 
    3.0271696027292814E+00 
    2.9971092789376503E+00 
    3.1839407975973844E+00 
    3.0688946747933263E+00 
    3.0629048742097114E+00 
    3.1705087218656822E+00 
    3.1185037280893462E+00 
    2.9792019689095954E+00 
    3.2022788458932716E+00 
    3.0174861313586474E+00 
    3.1452202898802275E+00 
    3.1350175141974392E+00 
    2.9906254239064802E+00 
    3.2003517139187707E+00 
    2.9644565106545184E+00 
    2.9683844613146189E+00 
    3.1027034132709801E+00 
    3.0989766566311601E+00 
    2.9734092008971915E+00 
    2.9888200816385160E+00 
    3.0806970415421309E+00 
    3.0821609915917341E+00 
    2.9783130447673360E+00 
    2.9471263289368892E+00 
    3.1532502725018769E+00 
    3.1674565056314958E+00 
    3.0921408773195029E+00 
    3.0903291050453112E+00 
    3.0225797282927060E+00 
    2.9954823208236658E+00 
    3.0452423431756253E+00 
    3.1973688793665058E+00 
    3.0865027026109728E+00 
    3.1294861200866411E+00 
    2.9879071514189635E+00 
    2.9658336495502433E+00 
    2.9653065632508366E+00 
    3.0142171215173761E+00 
    3.3493694600226442E+00 
    3.0989750226765267E+00 
    3.2631958783209591E+00 
    3.1629061551557185E+00 
    3.2603039941108092E+00 
    3.0930286758938030E+00 
    3.1876241367076728E+00 
    2.9907904926440247E+00 
    3.2083825515224511E+00 
    3.0316541617434098E+00 
    3.1180165337744925E+00 
    3.1516002354766441E+00 
    2.9562698557627587E+00 
    3.1359788667742929E+00 
    3.0291175885406263E+00 
    3.0726938274178144E+00 
    3.1391564158734990E+00 
    3.1643855369162242E+00 
    3.1532255011559882E+00 
    3.1303058286882841E+00 
    3.1258332496432106E+00 
    3.0353544880514480E+00 
    3.1509938440746068E+00 
    3.0763093433738717E+00 
    2.9743719056388862E+00 
    3.0558626402417386E+00 
    3.1088344220594757E+00 
    3.1798063676942689E+00 
    3.0616202996569011E+00 
    3.1942057640860910E+00 
    3.1482218889736373E+00 
    3.1678172910279319E+00 
    3.1694537441016735E+00 
    3.0769112629848610E+00 
    3.1503383768104363E+00 
    3.1149952834536867E+00 
    3.1806715055334869E+00 
    3.0081826449955811E+00 
    3.3833097258235498E+00 
    3.0386797127356506E+00 
    3.1073820268241144E+00 
    3.1471125943139242E+00 
    3.2137679354327191E+00 
    3.2750541072954222E+00 
    3.0468577034135622E+00 
    3.1511637614338519E+00 
    3.1469739003579043E+00 
    3.0645700692158098E+00 
    3.0198411464485506E+00 
    3.0853537157256348E+00 
    3.1663241831038120E+00 
    3.0200374065750188E+00 
    3.2457096952894577E+00 
    3.1131103788033339E+00 
    3.1668990319942698E+00 
    3.0878662738046048E+00 
    3.0201641359857114E+00 
    3.0700771137183498E+00 
    3.0319013396459211E+00 
    3.2708498939778932E+00 
    3.2848014347776102E+00 
    2.9829225859166564E+00 
    3.1972768471755662E+00 
    3.1801569998612518E+00 
    3.0900185655138865E+00 
    3.1567249690981130E+00 
    3.0184706389093283E+00 
    3.1782276504453879E+00 
    3.2522917961501374E+00 
    3.1340167887762158E+00 
    3.3003393107934405E+00 
    3.2635033886823641E+00 
    3.1133092208101867E+00 
    3.0479805338965122E+00 
    3.1078803231312566E+00 
    3.1486472427026939E+00 
    3.1766948569250473E+00 
    3.0763415085851795E+00 
    3.1325989160396048E+00 
    3.1395880370087443E+00 
    3.2534646087146704E+00 
    3.3354854757597447E+00 
    3.0755543264880925E+00 
    3.0880191028342829E+00 
    3.3170633066533091E+00 
    3.0305176365431978E+00 
    3.1433017467429591E+00 
    3.0817188186369031E+00 
    3.2452721310694925E+00 
    3.4658825400921982E+00 
    3.4034306128209577E+00 
    3.3393388876492258E+00 
    3.3613221150810828E+00 
    3.3086431103312322E+00 
    3.3267119456063536E+00 
    3.1459728713662445E+00 
    3.3762297893806230E+00 
    3.1349048857055455E+00 
    3.3190446015352149E+00 
    3.1353167901135315E+00 
    3.2376056870082985E+00 
    3.2582648647977535E+00 
    3.1842803022399666E+00 
    3.2289738649036184E+00 
    3.0590733633802323E+00 
    3.2324477157561282E+00 
    3.1228861198177382E+00 
    3.1328324663616338E+00 
    3.1313534529709548E+00 
    3.1624866716977587E+00 
    3.0564688820959161E+00 
    3.2384423743596722E+00 
    3.1654922805034311E+00 
    3.1608930924191987E+00 
    2.9453683259235812E+00 
    3.1909540911146261E+00 
    3.2657085380215674E+00 
    3.0673461809077129E+00 
    3.2167242588907201E+00 
    3.2824938299644622E+00 
    3.3072850052624392E+00 
    3.1630520671529863E+00 
    3.0895693910149009E+00 
    3.0444770604167579E+00 
    3.0707156672550218E+00 
    3.1994402400979749E+00 
    3.1533258261793979E+00 
    3.0848901114697922E+00 
    3.2048462943690517E+00 
    3.1225459007215304E+00 
    3.0738921274099749E+00 
    3.1625207849385069E+00 
    2.9927378630541797E+00 
    3.0728461774156148E+00 
    3.2866400141804890E+00 
    3.1984901343840408E+00 
    3.0610358376081881E+00 
    3.2265811764298609E+00 
    3.2173810148727697E+00 
    3.0806507838374624E+00 
    3.1090947922062497E+00 
    3.1167205982310162E+00 
    3.1866268091247285E+00 
    3.1820593966547701E+00 
    3.2577927701507954E+00 
    3.1026807324390977E+00 
    3.1827448458492458E+00 
    3.2002011861217783E+00 
    3.0870412681413502E+00 
    3.0968378396900316E+00 
    2.9309063912791729E+00 
    3.0896665187722130E+00 
    3.2969413096715998E+00 
    3.1527801433479512E+00 
    3.1811572208639634E+00 
    3.1226720805908301E+00 
    3.1814163809041704E+00 
    3.0709722815715952E+00 
    3.0536294570819384E+00 
    3.0158759328970497E+00 
    3.0666629464502639E+00 
    3.0224402936431365E+00 
    3.1032205686030956E+00 
    3.1646902621727211E+00 
    3.0412066700936800E+00 
    3.2198760494577905E+00 
    3.2225514712207102E+00 
    3.0985795752412590E+00 
    3.0543056592453084E+00 
    3.1646253917240346E+00 
    3.0803041203326167E+00 
    3.0031888715224420E+00 
    3.0712303848880733E+00 
    3.0127835761630890E+00 
    3.0133286778301502E+00 
    3.0863082549898810E+00 
    3.1475272949750184E+00 
    3.2424326903441201E+00 
    2.9968216096459925E+00 
    3.0683061295453844E+00 
    3.0371234946955821E+00 
    3.0680344599080986E+00 
    3.3484827282595755E+00 
    3.0200400236633564E+00 
    3.1160280871138903E+00 
    3.0356064595317243E+00 
    3.0891247010375187E+00 
    3.0495395155099017E+00 
    3.1004898574156901E+00 
    3.0360805646207201E+00 
    3.0957007389017672E+00 
    3.0525058786361461E+00 
    3.0998950665131586E+00 
    3.0462111459611148E+00 
    3.0444054700701586E+00 
    3.0120878350237743E+00 
    3.0269583089433776E+00 
    3.2200061588483542E+00 
    2.9824482839479303E+00 
    2.9970224268885919E+00 
    3.0624547224526601E+00 
    3.0416377778774457E+00 
    3.4202340482296720E+00 
    3.0666182481600486E+00 
    3.1848105281139367E+00 
    3.0561722783206049E+00 
    2.9741548879925683E+00 
    3.0841875803316099E+00 
    3.0278474105280311E+00 
    3.1042835378815470E+00 
    3.0469016311935824E+00 
    3.0468580485937702E+00 
    3.0638735655161544E+00 
    3.0160801722156405E+00 
    3.0661509863957757E+00 
    3.0481346762471571E+00 
    2.9828276489154062E+00 
    3.0329327628773730E+00 
    3.0322923170085914E+00 
    3.0590711031442788E+00 
    2.9721722054747777E+00 
    3.0375026349538747E+00 
    3.0589833477488324E+00 
    3.1029341837275042E+00 
    3.0187158996605450E+00 
    3.0019091453234923E+00 
    3.1992511647692465E+00 
    3.0191734805301240E+00 
    3.1319544126508068E+00 
    3.4201697430154709E+00 
    3.2122944267643678E+00 
    3.1326330014455581E+00 
    3.2378981726457026E+00 
    3.0423228412051793E+00 
    3.0331158987759985E+00 
    2.9994089974601490E+00 
    3.0053074933801072E+00 
    3.0062343170809673E+00 
    2.9971832447099529E+00 
    3.2416479692990015E+00 
    3.0031485478659072E+00 
    3.0851639688089376E+00 
    3.2176697307931872E+00 
    3.1022594189689046E+00 
    3.0184985460361693E+00 
    3.1768051625075611E+00 
    2.9931285033045101E+00 
    2.9929382676459650E+00 
    3.0069810032354658E+00 
    3.3867568832189106E+00 
    3.1486646949197756E+00 
    3.2292762944588724E+00 
    3.2359108485638894E+00 
    3.1151206511217886E+00 
    3.2015420593859725E+00 
    3.0240452143457279E+00 
    2.9207640885567461E+00 
    3.5662355760903410E+00 
    2.9571520664579976E+00 
    2.9810922049928767E+00 
    2.9792715467346387E+00 
    3.1344073656688933E+00 
    3.2164533031858218E+00 
    2.9189118811223254E+00 
    3.2777464701570507E+00 
    3.3018006306485712E+00 
    3.1161247996302701E+00 
    3.0480313782995543E+00 
    3.2626010137766319E+00 
    3.1188596885742297E+00 
    3.0094726391391680E+00 
    3.2288721304833881E+00 
    2.9685617082292222E+00 
    2.9661047047631288E+00 
    3.1311088118994865E+00 
    3.0606400333967305E+00 
    2.9337911954159268E+00 
    3.0478350621055799E+00 
    2.9459789503120621E+00 
    3.2513801257183932E+00 
    2.9567649031282279E+00 
    3.0327167472531862E+00 
    3.2142383067885238E+00 
    3.0604297084802088E+00 
    3.1190400814200938E+00 
    2.9533054291620706E+00 
    3.0914036911605201E+00 
    3.0986298008713860E+00 
    3.0104361174430765E+00 
    3.0603994036271227E+00 
    3.2221419854153708E+00 
    2.9464083546252753E+00 
    3.0573883445390448E+00 
    3.0176793195921494E+00 
    3.0184759330615734E+00 
    3.0818892304438528E+00 
    3.0083535648239144E+00 
    3.0688617690679298E+00 
    3.2371249601183609E+00 
    3.2546565525902373E+00 
    2.9411841503888705E+00 
    3.4317368393588130E+00 
    3.0888138992670644E+00 
    3.0377307616446299E+00 
    3.2868598459822871E+00 
    3.1242253137817841E+00 
    3.1448742639739513E+00 
    3.0169510210362724E+00 
    3.0052675391497692E+00 
    3.1690508729303950E+00 
    3.1167784244437171E+00 
    2.9345058772498076E+00 
    3.0169336573721228E+00 
    3.3179182222430739E+00 
    3.1103012311302454E+00 
    3.2064794974391484E+00 
    3.1318080252648115E+00 
    3.2229165343174206E+00 
    3.1690065469104653E+00 
    2.9305596301504306E+00 
    2.9852590856299290E+00 
    3.0508381770842763E+00 
    3.2564009242915568E+00 
    3.2040704625996836E+00 
    3.0453424248982244E+00 
    3.0069033564562231E+00 
    3.0429649731426816E+00 
    3.0244105794375087E+00 
    3.1853014442507432E+00 
    3.0127473749278031E+00 
    3.1433494020273280E+00 
    3.3617142783227361E+00 
    3.0032049710518223E+00 
    3.3234881714748252E+00 
    3.0742118891960426E+00 
    3.3398353020595941E+00 
    3.2166099172410432E+00 
    3.4781537027034188E+00 
    3.0339288971782818E+00 
    3.2015039950188613E+00 
    3.0999688935692800E+00 
    2.9968191422735755E+00 
    3.2340852501387589E+00 
    3.0882724603744958E+00 
    3.2448520763141149E+00 
    3.0030099477004866E+00 
    3.2047417148878572E+00 
    3.0753447615931382E+00 
    3.1212274566522793E+00 
    2.9554381331243809E+00 
    3.0081978264014495E+00 
    2.9894476580183680E+00 
    3.2806633003039374E+00 
    3.0367246794729752E+00 
    3.3521126899412850E+00 
    3.2996530835315743E+00 
    3.0220659196596280E+00 
    3.0720453435491200E+00 
    3.0512481417094093E+00 
    2.9512936599867294E+00 
    3.0799665053766190E+00 
    3.2213417327294196E+00 
    3.0198897657675499E+00 
    2.9649960765054679E+00 
    3.3817303008307040E+00 
    3.1852766630897507E+00 
    2.9211495082234680E+00 
    2.9192048706163423E+00 
    2.9826046998421591E+00 
    2.9924907274829975E+00 
    2.9618961530657693E+00 
    2.9473564753353365E+00 
    3.0452061104102111E+00 
    3.0306159708330167E+00 
    2.9097687290085585E+00 
    2.9082349776344190E+00 
    2.8496933314212693E+00 
    2.7191497636720992E+00 
    2.7144647277705776E+00 
    2.7567143165808283E+00 
    2.7623212077094546E+00 
    2.7716311902841682E+00 
    2.8728022073674104E+00 
    2.6804918237147852E+00 
    2.8514644186745199E+00 
    2.6975732554927312E+00 
    2.8150484272351481E+00 
    2.7490709785949994E+00 
    2.7550372556771627E+00 
    2.7360108306087261E+00 
    2.6909937252218730E+00 
    2.9435084677740613E+00 
    2.8712502626122172E+00 
    2.9162822893794815E+00 
    2.8624074451896946E+00 
    2.7992704926544478E+00 
    2.7094427168700612E+00 
    2.6791172464938402E+00 
    2.9391527196404290E+00 
    2.8213539569879682E+00 
    2.6762713814757135E+00 
    2.7602818223046053E+00 
    2.8963809337488229E+00 
    2.8976835068705680E+00 
    2.6524835895653500E+00 
    2.6782832116803830E+00 
    2.8241931647428991E+00 
    2.9143310193512093E+00 
    2.8769311334352627E+00 
    2.7826308492810452E+00 
    2.7246524905728720E+00 
    2.9568762589074775E+00 
    2.9199466373559706E+00 
    2.8961953930976279E+00 
    2.9813052624792182E+00 
    2.7238161336787932E+00 
    2.7537510574999922E+00 
    2.7428850033900729E+00 
    2.9335794868239229E+00 
    2.7528653062112638E+00 
    2.9066377796407350E+00 
    2.8355099792394975E+00 
    2.8330312247748428E+00 
    2.8189247242904680E+00 
    2.8083891524292026E+00 
    2.9179958491732583E+00 
    2.9128069364527240E+00 
    2.8225874091500436E+00 
    2.7106714765661191E+00 
    2.8057139752962614E+00 
    2.7967253694397214E+00 
    2.6775107262716586E+00 
    2.8779013373256319E+00 
    2.6833182681386440E+00 
    2.9179734609715160E+00 
    2.6965309524325929E+00 
    2.8525298708655864E+00 
    2.7369396056995803E+00 
    2.6497014780063646E+00 
    2.6491439566736661E+00 
    2.6563419733767186E+00 
    2.6652803335532695E+00 
    2.8017880617194444E+00 
    2.6635514831396145E+00 
    2.7042643425265109E+00 
    2.7241225683316435E+00 
    2.9648112347339453E+00 
    2.8127302739642044E+00 
    2.6878770582918285E+00 
    2.9175868308483972E+00 
    2.7668275881513598E+00 
    2.7463659524114727E+00 
    2.8852767482927968E+00 
    2.9605163768975529E+00 
    2.8625844262161042E+00 
    2.8665567939322085E+00 
    2.8207481593302459E+00 
    2.8494210097473158E+00 
    2.8961162094322939E+00 
    2.8929258700253571E+00 
    2.8858353113567614E+00 
    2.8949102305129086E+00 
    2.8361057274150574E+00 
    2.9073759059277138E+00 
    2.9083105293708393E+00 
    2.8569891699157557E+00 
    2.8719948307546628E+00 
    2.9445248944921967E+00 
    2.8949009192964321E+00 
    2.9093373552254835E+00 
    2.9499694662114742E+00 
    2.7651340862166567E+00 
    2.7402223008504261E+00 
    2.8577571406018567E+00 
    2.9191396070196083E+00 
    2.9614999365217067E+00 
    2.9141232042631295E+00 
    2.6532370640511522E+00 
    2.7310285102074521E+00 
    2.8480182587957152E+00 
    2.7911610132863780E+00 
    2.7148940490993705E+00 
    2.8952427207302045E+00 
    2.8505028670143013E+00 
    2.6912038613336389E+00 
    2.8784619018062543E+00 
    2.7177929516407495E+00 
    2.7409861086589928E+00 
    2.7313014246663556E+00 
    2.8566012034790469E+00 
    2.9085535866633174E+00 
    2.9384793898998072E+00 
    2.8867620495818778E+00 
    2.9316488475846043E+00 
    2.7085632847086480E+00 
    2.6974457952445534E+00 
    2.9387768611261209E+00 
    2.8869982091456379E+00 
    2.6508100285347709E+00 
    2.6514835674855841E+00 
    2.9532672147622168E+00 
    2.8350854610136818E+00 
    2.8973122812086443E+00 
    2.8543096513587720E+00 
    2.7683257877451286E+00 
    2.8580802445063092E+00 
    2.8781982767594121E+00 
    2.8311678311811410E+00 
    2.8199703641462732E+00 
    2.8191398617284738E+00 
    2.6691013856155741E+00 
    2.9259534443010304E+00 
    2.9824161057779821E+00 
    2.6720017395180413E+00 
    2.6722695390816442E+00 
    2.6657632271919143E+00 
    2.6672453058684273E+00 
    2.6579336495691126E+00 
    2.8982301216520199E+00 
    2.7793619565003995E+00 
    2.6702373869207241E+00 
    2.8738486242907917E+00 
    2.8752438672083400E+00 
    2.7825600044293228E+00 
    2.7962728912888113E+00 
    2.7745287615807559E+00 
    2.8253636003543954E+00 
    2.9326296287623901E+00 
    2.6715389264893110E+00 
    2.6694294220406629E+00 
    2.7219299897312790E+00 
    2.8148353500365690E+00 
    2.9045585969264143E+00 
    2.7123561264382396E+00 
    2.9372670449490816E+00 
    2.6577265275203783E+00 
    2.7895109926939941E+00 
    2.6469009496854699E+00 
    2.6473773099918123E+00 
    2.6727355751085917E+00 
    2.9390139635337986E+00 
    2.8518049785304931E+00 
    2.7938561999186224E+00 
    2.8351730737436376E+00 
    2.8731755438026729E+00 
    2.6553244493022774E+00 
    2.7838674073740020E+00 
    2.8508526387942177E+00 
    2.9385890654301199E+00 
    2.9197714304465441E+00 
    2.9156961981019012E+00 
    2.9393164995076919E+00 
    2.9479498700642952E+00 
    2.8256085475864676E+00 
    2.7229221136005655E+00 
    2.8714952793666080E+00 
    2.8692805739459728E+00 
    2.7930378773540010E+00 
    2.6574897416077716E+00 
    2.8653407850806207E+00 
    2.8894988272197897E+00 
    2.9021040244183984E+00 
    2.8831011160311277E+00 
    2.6531928081073479E+00 
    2.8748515246942681E+00 
    2.8673164979151902E+00 
    2.6659426558604538E+00 
    2.7237022748145758E+00 
    2.8502946425332230E+00 
    2.8783588283911277E+00 
    2.8692403466670280E+00 
    2.8850810356099821E+00 
    2.8845806167874124E+00 
    2.9316294380330001E+00 
    2.8605261590400475E+00 
    2.9051639657056647E+00 
    2.8412175235255215E+00 
    2.8682489135513607E+00 
    2.6629902487995172E+00 
    2.9578489830613699E+00 
    2.9293086160015749E+00 
    2.9472996159944778E+00 
    2.7699251071146329E+00 
    2.7462275577226012E+00 
    2.7335395808363621E+00 
    2.8949586283037587E+00 
    2.8543342193421615E+00 
    2.8996666857923930E+00 
    2.7730149728352886E+00 
    2.6693612894142933E+00 
    2.6972184525670597E+00 
    2.9172449802744578E+00 
    2.6928113910951406E+00 
    2.8247300641381949E+00 
    2.7543236976200709E+00 
    2.9153104003551040E+00 
    2.8513136702427935E+00 
    2.8235747449883197E+00 
    2.9499223507064580E+00 
    2.9397023947363872E+00 
    2.7942807071367453E+00 
    2.7722628320301830E+00 
    2.7273092424350955E+00 
    2.8077691564294520E+00 
    2.8971934833603612E+00 
    2.6587052292115985E+00 
    2.9299494406292297E+00 
    2.9494388080209157E+00 
    2.7902055066828271E+00 
    2.7777102235523627E+00 
    2.6863684597986026E+00 
    2.6591194037237416E+00 
    2.9420080815499943E+00 
    2.7639590807623677E+00 
    2.8592180935712896E+00 
    2.7948345997339001E+00 
    2.8674984614571160E+00 
    2.6988842745633428E+00 
    2.8331829175239358E+00 
    2.9432278914141765E+00 
    2.7532034272261097E+00 
    2.8091682205944002E+00 
    2.7139947861811780E+00 
    2.8127623796594281E+00 
    2.9514309396060385E+00 
    2.7591493450443405E+00 
    2.8578825151984399E+00 
    2.7554069530113838E+00 
    2.6714529224166665E+00 
    2.8825346279263235E+00 
    2.8838300659596450E+00 
    2.8598857561727837E+00 
    2.7518468918797740E+00 
    2.7484795103673094E+00 
    2.6820194273439721E+00 
    2.8548387978771981E+00 
    2.8821205042887490E+00 
    2.8289174226536034E+00 
    2.7003641855318317E+00 
    2.7379684010370506E+00 