# vtk DataFile Version 2.0
Pressure Field Data 
ASCII 
DATASET UNSTRUCTURED_GRID 

POINTS 2213 double 

    0.0000000000000000E+00     0.0000000000000000E+00     0.0000000000000000E+00 
    5.0000000000000000E-01     0.0000000000000000E+00     0.0000000000000000E+00 
    1.0000000000000000E+00     0.0000000000000000E+00     0.0000000000000000E+00 
    1.0000000000000000E+00     5.0000000000000000E-01     0.0000000000000000E+00 
    1.0000000000000000E+00     1.0000000000000000E+00     0.0000000000000000E+00 
    5.0000000000000000E-01     1.0000000000000000E+00     0.0000000000000000E+00 
    0.0000000000000000E+00     1.0000000000000000E+00     0.0000000000000000E+00 
    0.0000000000000000E+00     5.0000000000000000E-01     0.0000000000000000E+00 
    1.5624999999971041E-02     0.0000000000000000E+00     0.0000000000000000E+00 
    3.1249999999936742E-02     0.0000000000000000E+00     0.0000000000000000E+00 
    4.6874999999913257E-02     0.0000000000000000E+00     0.0000000000000000E+00 
    6.2499999999889783E-02     0.0000000000000000E+00     0.0000000000000000E+00 
    7.8124999999844805E-02     0.0000000000000000E+00     0.0000000000000000E+00 
    9.3749999999799827E-02     0.0000000000000000E+00     0.0000000000000000E+00 
    1.0937499999975490E-01     0.0000000000000000E+00     0.0000000000000000E+00 
    1.2499999999970990E-01     0.0000000000000000E+00     0.0000000000000000E+00 
    1.4062499999966460E-01     0.0000000000000000E+00     0.0000000000000000E+00 
    1.5624999999961930E-01     0.0000000000000000E+00     0.0000000000000000E+00 
    1.7187499999957390E-01     0.0000000000000000E+00     0.0000000000000000E+00 
    1.8749999999952860E-01     0.0000000000000000E+00     0.0000000000000000E+00 
    2.0312499999948330E-01     0.0000000000000000E+00     0.0000000000000000E+00 
    2.1874999999943801E-01     0.0000000000000000E+00     0.0000000000000000E+00 
    2.3437499999939271E-01     0.0000000000000000E+00     0.0000000000000000E+00 
    2.4999999999934730E-01     0.0000000000000000E+00     0.0000000000000000E+00 
    2.6562499999938810E-01     0.0000000000000000E+00     0.0000000000000000E+00 
    2.8124999999942890E-01     0.0000000000000000E+00     0.0000000000000000E+00 
    2.9687499999946970E-01     0.0000000000000000E+00     0.0000000000000000E+00 
    3.1249999999951050E-01     0.0000000000000000E+00     0.0000000000000000E+00 
    3.2812499999955130E-01     0.0000000000000000E+00     0.0000000000000000E+00 
    3.4374999999959210E-01     0.0000000000000000E+00     0.0000000000000000E+00 
    3.5937499999963290E-01     0.0000000000000000E+00     0.0000000000000000E+00 
    3.7499999999967371E-01     0.0000000000000000E+00     0.0000000000000000E+00 
    3.9062499999971451E-01     0.0000000000000000E+00     0.0000000000000000E+00 
    4.0624999999975520E-01     0.0000000000000000E+00     0.0000000000000000E+00 
    4.2187499999979600E-01     0.0000000000000000E+00     0.0000000000000000E+00 
    4.3749999999983680E-01     0.0000000000000000E+00     0.0000000000000000E+00 
    4.5312499999987760E-01     0.0000000000000000E+00     0.0000000000000000E+00 
    4.6874999999991840E-01     0.0000000000000000E+00     0.0000000000000000E+00 
    4.8437499999995920E-01     0.0000000000000000E+00     0.0000000000000000E+00 
    5.1562499999992384E-01     0.0000000000000000E+00     0.0000000000000000E+00 
    5.3124999999985478E-01     0.0000000000000000E+00     0.0000000000000000E+00 
    5.4687499999994527E-01     0.0000000000000000E+00     0.0000000000000000E+00 
    5.6249999999998668E-01     0.0000000000000000E+00     0.0000000000000000E+00 
    5.7812499999998068E-01     0.0000000000000000E+00     0.0000000000000000E+00 
    5.9374999999994749E-01     0.0000000000000000E+00     0.0000000000000000E+00 
    6.0937499999997913E-01     0.0000000000000000E+00     0.0000000000000000E+00 
    6.2500000000000000E-01     0.0000000000000000E+00     0.0000000000000000E+00 
    6.4062499999998945E-01     0.0000000000000000E+00     0.0000000000000000E+00 
    6.5624999999996603E-01     0.0000000000000000E+00     0.0000000000000000E+00 
    6.7187499999995337E-01     0.0000000000000000E+00     0.0000000000000000E+00 
    6.8749999999998734E-01     0.0000000000000000E+00     0.0000000000000000E+00 
    7.0312499999998124E-01     0.0000000000000000E+00     0.0000000000000000E+00 
    7.1874999999997025E-01     0.0000000000000000E+00     0.0000000000000000E+00 
    7.3437499999999034E-01     0.0000000000000000E+00     0.0000000000000000E+00 
    7.5000000000000000E-01     0.0000000000000000E+00     0.0000000000000000E+00 
    7.6562499999996902E-01     0.0000000000000000E+00     0.0000000000000000E+00 
    7.8124999999993228E-01     0.0000000000000000E+00     0.0000000000000000E+00 
    7.9687499999989997E-01     0.0000000000000000E+00     0.0000000000000000E+00 
    8.1249999999996247E-01     0.0000000000000000E+00     0.0000000000000000E+00 
    8.2812499999999578E-01     0.0000000000000000E+00     0.0000000000000000E+00 
    8.4374999999999556E-01     0.0000000000000000E+00     0.0000000000000000E+00 
    8.5937500000000111E-01     0.0000000000000000E+00     0.0000000000000000E+00 
    8.7499999999997691E-01     0.0000000000000000E+00     0.0000000000000000E+00 
    8.9062500000000921E-01     0.0000000000000000E+00     0.0000000000000000E+00 
    9.0625000000004452E-01     0.0000000000000000E+00     0.0000000000000000E+00 
    9.2187500000005529E-01     0.0000000000000000E+00     0.0000000000000000E+00 
    9.3750000000012723E-01     0.0000000000000000E+00     0.0000000000000000E+00 
    9.5312500000011835E-01     0.0000000000000000E+00     0.0000000000000000E+00 
    9.6875000000005151E-01     0.0000000000000000E+00     0.0000000000000000E+00 
    9.8437500000003086E-01     0.0000000000000000E+00     0.0000000000000000E+00 
    1.0000000000000000E+00     1.5624999999971041E-02     0.0000000000000000E+00 
    1.0000000000000000E+00     3.1249999999936742E-02     0.0000000000000000E+00 
    1.0000000000000000E+00     4.6874999999913257E-02     0.0000000000000000E+00 
    1.0000000000000000E+00     6.2499999999889783E-02     0.0000000000000000E+00 
    1.0000000000000000E+00     7.8124999999844805E-02     0.0000000000000000E+00 
    1.0000000000000000E+00     9.3749999999799827E-02     0.0000000000000000E+00 
    1.0000000000000000E+00     1.0937499999975490E-01     0.0000000000000000E+00 
    1.0000000000000000E+00     1.2499999999970990E-01     0.0000000000000000E+00 
    1.0000000000000000E+00     1.4062499999966460E-01     0.0000000000000000E+00 
    1.0000000000000000E+00     1.5624999999961930E-01     0.0000000000000000E+00 
    1.0000000000000000E+00     1.7187499999957390E-01     0.0000000000000000E+00 
    1.0000000000000000E+00     1.8749999999952860E-01     0.0000000000000000E+00 
    1.0000000000000000E+00     2.0312499999948330E-01     0.0000000000000000E+00 
    1.0000000000000000E+00     2.1874999999943801E-01     0.0000000000000000E+00 
    1.0000000000000000E+00     2.3437499999939271E-01     0.0000000000000000E+00 
    1.0000000000000000E+00     2.4999999999934730E-01     0.0000000000000000E+00 
    1.0000000000000000E+00     2.6562499999938810E-01     0.0000000000000000E+00 
    1.0000000000000000E+00     2.8124999999942890E-01     0.0000000000000000E+00 
    1.0000000000000000E+00     2.9687499999946970E-01     0.0000000000000000E+00 
    1.0000000000000000E+00     3.1249999999951050E-01     0.0000000000000000E+00 
    1.0000000000000000E+00     3.2812499999955130E-01     0.0000000000000000E+00 
    1.0000000000000000E+00     3.4374999999959210E-01     0.0000000000000000E+00 
    1.0000000000000000E+00     3.5937499999963290E-01     0.0000000000000000E+00 
    1.0000000000000000E+00     3.7499999999967371E-01     0.0000000000000000E+00 
    1.0000000000000000E+00     3.9062499999971451E-01     0.0000000000000000E+00 
    1.0000000000000000E+00     4.0624999999975520E-01     0.0000000000000000E+00 
    1.0000000000000000E+00     4.2187499999979600E-01     0.0000000000000000E+00 
    1.0000000000000000E+00     4.3749999999983680E-01     0.0000000000000000E+00 
    1.0000000000000000E+00     4.5312499999987760E-01     0.0000000000000000E+00 
    1.0000000000000000E+00     4.6874999999991840E-01     0.0000000000000000E+00 
    1.0000000000000000E+00     4.8437499999995920E-01     0.0000000000000000E+00 
    1.0000000000000000E+00     5.1562499999992384E-01     0.0000000000000000E+00 
    1.0000000000000000E+00     5.3124999999985478E-01     0.0000000000000000E+00 
    1.0000000000000000E+00     5.4687499999994527E-01     0.0000000000000000E+00 
    1.0000000000000000E+00     5.6249999999998668E-01     0.0000000000000000E+00 
    1.0000000000000000E+00     5.7812499999998068E-01     0.0000000000000000E+00 
    1.0000000000000000E+00     5.9374999999994749E-01     0.0000000000000000E+00 
    1.0000000000000000E+00     6.0937499999997913E-01     0.0000000000000000E+00 
    1.0000000000000000E+00     6.2500000000000000E-01     0.0000000000000000E+00 
    1.0000000000000000E+00     6.4062499999998945E-01     0.0000000000000000E+00 
    1.0000000000000000E+00     6.5624999999996603E-01     0.0000000000000000E+00 
    1.0000000000000000E+00     6.7187499999995337E-01     0.0000000000000000E+00 
    1.0000000000000000E+00     6.8749999999998734E-01     0.0000000000000000E+00 
    1.0000000000000000E+00     7.0312499999998124E-01     0.0000000000000000E+00 
    1.0000000000000000E+00     7.1874999999997025E-01     0.0000000000000000E+00 
    1.0000000000000000E+00     7.3437499999999034E-01     0.0000000000000000E+00 
    1.0000000000000000E+00     7.5000000000000000E-01     0.0000000000000000E+00 
    1.0000000000000000E+00     7.6562499999996902E-01     0.0000000000000000E+00 
    1.0000000000000000E+00     7.8124999999993228E-01     0.0000000000000000E+00 
    1.0000000000000000E+00     7.9687499999989997E-01     0.0000000000000000E+00 
[...]
CELL_DATA 2084 
SCALARS Pressure double 1 
LOOKUP_TABLE default 

    1.9740479101498323E+00 
    1.9982347343377129E+00 
    2.1737689920854293E+00 
    1.9988913747611188E+00 
    2.0941779778163170E+00 
    2.0538263527165279E+00 
    1.9498472974670846E+00 
    2.0399170945854221E+00 
    2.0491168432621918E+00 
    2.0981766598005702E+00 
    2.1681059998496202E+00 
    1.9622522898841086E+00 
    2.0300212619957612E+00 
    1.9958889927181860E+00 
    1.9697281849440083E+00 
    1.9867774841233141E+00 
    2.1297401491543781E+00 
    2.0137231627575560E+00 
    2.1993327538451792E+00 
    1.9799618914989179E+00 
    1.9831624763023332E+00 
    2.0783800585245129E+00 
    1.9853388289879517E+00 
    2.0264329895818376E+00 
    1.9768271072212500E+00 
    2.0277936185835217E+00 
    1.9918670774687866E+00 
    1.9527482130305964E+00 
    2.0339405840234757E+00 
    2.0041061130776794E+00 
    1.9433555137913090E+00 
    2.0404827585287086E+00 
    1.9332773307488433E+00 
    1.9825004046847838E+00 
    1.9653405158186681E+00 
    2.0884114153696403E+00 
    2.0089792812892049E+00 
    2.0052306713334347E+00 
    2.0783594818308289E+00 
    2.0413785182107391E+00 
    1.9547559567724675E+00 
    2.1024824732478504E+00 
    1.9770757390223739E+00 
    2.0600078559165880E+00 
    2.0529832149966434E+00 
    1.9609973262145721E+00 
    2.1009631617758711E+00 
    1.9472238107885749E+00 
    1.9487074091119660E+00 
    2.0306856492608940E+00 
    2.0283868045314626E+00 
    1.9521269225244915E+00 
    1.9609216557572120E+00 
    2.0165057317313395E+00 
    2.0175231076958133E+00 
    1.9550315744202267E+00 
    1.9377625368751550E+00 
    2.0657958349102339E+00 
    2.0761227390967365E+00 
    2.0236769004341677E+00 
    2.0224931926823109E+00 
    1.9805274934150749E+00 
    1.9641090617481944E+00 
    1.9938313721626049E+00 
    2.0986365091680010E+00 
    2.0199801528942287E+00 
    2.0489619005317037E+00 
    1.9596503603828661E+00 
    1.9477933171157531E+00 
    1.9468738434181818E+00 
    1.9751124329081018E+00 
    2.2288378366198804E+00 
    2.0284890824266077E+00 
    2.1520546023111771E+00 
    2.0727756289469390E+00 
    2.1495726964277631E+00 
    2.0245275812701404E+00 
    2.0911846147545026E+00 
    1.9619782270885326E+00 
    2.1072265874582174E+00 
    1.9859339528426456E+00 
    2.0410387488488655E+00 
    2.0645850216620225E+00 
    1.9426295758931331E+00 
    2.0535540145942224E+00 
    1.9839918027859387E+00 
    2.0113416057069284E+00 
    2.0558073897285589E+00 
    2.0739083893160988E+00 
    2.0658240535838162E+00 
    2.0495984605486033E+00 
    2.0464303652083653E+00 
    1.9876289579887565E+00 
    2.0641604578127208E+00 
    2.0133870161813028E+00 
    1.9518785372943521E+00 
    2.0007500859910730E+00 
    2.0348140949522806E+00 
    2.0853102267320960E+00 
    2.0040382681070041E+00 
    2.0962250097270094E+00 
    2.0621500158275037E+00 
    2.0763830199280449E+00 
    2.0776012440573584E+00 
    2.0137684543757088E+00 
    2.0636652483528874E+00 
    2.0390658143562947E+00 
    2.0859490266120524E+00 
    1.9720329340796028E+00 
    2.2606662204834791E+00 
    1.9901650095252574E+00 
    2.0339633626720155E+00 
    2.0614611777699037E+00 
    2.1114804899282213E+00 
    2.1621472562648885E+00 
    1.9952086361532642E+00 
    2.0642730598165775E+00 
    2.0613196488415566E+00 
    2.0058830156529694E+00 
    1.9780022375213056E+00 
    2.0194677308023334E+00 
    2.0752741279661846E+00 
    1.9782107070736847E+00 
    2.1373899901115001E+00 
    2.0379348747968966E+00 
    2.0757324665693999E+00 
    2.0212063873549555E+00 
    1.9782314705449189E+00 
    2.0093703295593994E+00 
    1.9856411173665038E+00 
    2.1585345999455883E+00 
    2.1706232811583757E+00 
    1.9566525591210895E+00 
    2.0985988928399513E+00 
    2.0855718815859277E+00 
    2.0222792258077131E+00 
    2.0683033211597750E+00 
    1.9771623087533772E+00 
    2.0841251590694454E+00 
    2.1428577563506468E+00 
    2.0521591421324188E+00 
    2.1842327301519533E+00 
    2.1522974866010336E+00 
    2.0378398701022093E+00 
    1.9954966461161454E+00 
    2.0341750029333521E+00 
    2.0624770430397730E+00 
    2.0829646474866106E+00 
    2.0134125610310298E+00 
    2.0511327380081692E+00 
    2.0561256111664465E+00 
    2.1437919094145106E+00 
    2.2159515429918990E+00 
    2.0128708870964727E+00 
    2.0209386442974369E+00 
    2.1992329696401001E+00 
    1.9848599097884585E+00 
    2.0586557820682021E+00 
    2.0168154978440946E+00 
    2.1370003591421733E+00 
    2.3404835516166553E+00 
    2.2799478927261778E+00 
    2.2196047844653153E+00 
    2.2399852004509708E+00 
    2.1917370197754598E+00 
    2.2080195336037751E+00 
    2.0605672019299166E+00 
    2.2540444342748946E+00 
    2.0527494094879315E+00 
    2.2009793050875901E+00 
    2.0530357377002857E+00 
    2.1306511673845119E+00 
    2.1478971776293876E+00 
    2.0886791512663390E+00 
    2.1236428446586348E+00 
    2.0027263819249446E+00 
    2.1264869929655705E+00 
    2.0444607733365014E+00 
    2.0512964949015791E+00 
    2.0502903920274589E+00 
    2.0724968886068913E+00 
    2.0008695995439973E+00 
    2.1313649156452095E+00 
    2.0746802851726844E+00 
    2.0713222077520270E+00 
    1.9360752771246192E+00 
    2.0937184811089846E+00 
    2.1541282346986694E+00 
    2.0075985337890923E+00 
    2.1138417776475018E+00 
    2.1685732932711566E+00 
    2.1904211626854964E+00 
    2.0728997197092847E+00 
    2.0221311695150779E+00 
    1.9937813799152757E+00 
    2.0097398624546514E+00 
    2.1002379820591344E+00 
    2.0659323182426368E+00 
    2.0191235720574010E+00 
    2.1044276088842548E+00 
    2.0443043474589446E+00 
    2.0117663450252001E+00 
    2.0725126116406569E+00 
    1.9631949251134739E+00 
    2.0110937616254132E+00 
    2.1721776756574029E+00 
    2.0995669742088046E+00 
    2.0039133691559408E+00 
    2.1217215099861679E+00 
    2.1143564516730207E+00 
    2.0161765904454594E+00 
    2.0349811705119447E+00 
    2.0401594013961923E+00 
    2.0904317642855714E+00 
    2.0869637086544399E+00 
    2.1474472327355243E+00 
    2.0306806488656326E+00 
    2.0875219276198371E+00 
    2.1008714162248254E+00 
    2.0203075962488026E+00 
    2.0267818520398770E+00 
    1.9292493702171978E+00 
    2.0221019492801324E+00 
    2.1812461772347023E+00 
    2.0655304706625928E+00 
    2.0863759928961847E+00 
    2.0443552466007597E+00 
    2.0864991410633045E+00 
    2.0100689105733958E+00 
    1.9989824938299612E+00 
    1.9765083088189428E+00 
    2.0074263295501296E+00 
    1.9803647959425841E+00 
    2.0310150068715620E+00 
    2.0740673534970031E+00 
    1.9916676983285364E+00 
    2.1163580877219781E+00 
    2.1184468338121296E+00 
    2.0279186387517028E+00 
    1.9992827838579819E+00 
    2.0741202293343624E+00 
    2.0159296571068204E+00 
    1.9687820195861649E+00 
    2.0100561364268978E+00 
    1.9740275814208508E+00 
    1.9745498708104947E+00 
    2.0198569507852762E+00 
    2.0616528682178896E+00 
    2.1345912276829941E+00 
    1.9649342312107534E+00 
    2.0084241802843099E+00 
    1.9887842692591362E+00 
    2.0080198905944169E+00 
    2.2279554836417956E+00 
    1.9786081477220443E+00 
    2.0399445951979933E+00 
    1.9880950601456158E+00 
    2.0216968166903833E+00 
    1.9966971459948446E+00 
    2.0292027467123201E+00 
    1.9879220099809258E+00 
    2.0260221261727311E+00 
    1.9982024409039414E+00 
    2.0291394396484188E+00 
    1.9944426110504061E+00 
    1.9935730060328214E+00 
    1.9735768821743265E+00 
    1.9825376390836289E+00 
    2.1164370208179837E+00 
    1.9568904918761891E+00 
    1.9648443064123082E+00 
    2.0045748700191122E+00 
    1.9913962220388699E+00 
    2.2959840721261768E+00 
    2.0070882351658601E+00 
    2.0890475952449941E+00 
    2.0004778389530795E+00 
    1.9526649103429419E+00 
    2.0184477515166699E+00 
    1.9834495822235585E+00 
    2.0317488461865838E+00 
    1.9948760482567103E+00 
    1.9952806331651414E+00 
    2.0053891010117102E+00 
    1.9757336784975494E+00 
    2.0069270903346634E+00 
    1.9957603770599570E+00 
    1.9573506041351929E+00 
    1.9863421045596974E+00 
    1.9864150058316750E+00 
    2.0023727515746037E+00 
    1.9508905737631899E+00 
    1.9888628977529732E+00 
    2.0022406872355467E+00 
    2.0308281257109080E+00 
    1.9778199519138875E+00 
    1.9677842582544116E+00 
    2.1000888298942968E+00 
    1.9785724533556943E+00 
    2.0506540237307846E+00 
    2.2960400601205113E+00 
    2.1102978410805311E+00 
    2.0513263332793774E+00 
    2.1308957561810793E+00 
    1.9919393571279276E+00 
    1.9864470074372773E+00 
    1.9668695438314758E+00 
    1.9699210958532891E+00 
    1.9709809039079864E+00 
    1.9647349122418107E+00 
    2.1339964182284250E+00 
    1.9685233034234439E+00 
    2.0194829959035414E+00 
    2.1145520825651931E+00 
    2.0304704019793958E+00 
    1.9781400511198699E+00 
    2.0830166872248319E+00 
    1.9628547880563800E+00 
    1.9633249635391052E+00 
    1.9712107245019674E+00 
    2.2639662758744610E+00 
    2.0626013483593946E+00 
    2.1238677303887181E+00 
    2.1292880203538322E+00 
    2.0390690287704896E+00 
    2.1019083157189202E+00 
    1.9809292185936256E+00 
    1.9231111522029407E+00 
    2.4395692886978133E+00 
    1.9426179252864659E+00 
    1.9559810687306707E+00 
    1.9555877860880797E+00 
    2.0523666469620756E+00 
    2.1136226531123130E+00 
    1.9230302015041105E+00 
    2.1644898130114796E+00 
    2.1855693098637152E+00 
    2.0397985441977959E+00 
    1.9955733613222464E+00 
    2.1515483836264653E+00 
    2.0416217872270779E+00 
    1.9721705011663306E+00 
    2.1235180371128615E+00 
    1.9489470878789446E+00 
    1.9482568958417223E+00 
    2.0500893117209067E+00 
    2.0034317975127478E+00 
    1.9299335222159686E+00 
    1.9953190219998111E+00 
    1.9372357252879706E+00 
    2.1420414285839544E+00 
    1.9424256899368260E+00 
    1.9859934461835682E+00 
    2.1118090878033029E+00 
    2.0032256531866994E+00 
    2.0417421397522717E+00 
    1.9412622501299688E+00 
    2.0231829503382790E+00 
    2.0282779780841240E+00 
    1.9731699383050731E+00 
    2.0036771243306162E+00 
    2.1181150444608856E+00 
    1.9367838881549546E+00 
    2.0017558222174183E+00 
    1.9768691742190876E+00 
    1.9774677807043175E+00 
    2.0169856655223883E+00 
    1.9711960161534696E+00 
    2.0089998669174656E+00 
    2.1302878289088896E+00 
    2.1447859621741805E+00 
    1.9347463567403882E+00 
    2.3071610673834475E+00 
    2.0215921073780194E+00 
    1.9890225601881750E+00 
    2.1724277050323635E+00 
    2.0453231975009274E+00 
    2.0597782002204066E+00 
    1.9769620366725005E+00 
    1.9703779552085792E+00 
    2.0773601742932257E+00 
    2.0404558436852862E+00 
    1.9303893778009018E+00 
    1.9766429864322166E+00 
    2.1999831484671613E+00 
    2.0358498827083760E+00 
    2.1057123431307758E+00 
    2.0505535448204619E+00 
    2.1187162400814006E+00 
    2.0773101905636531E+00 
    1.9291228768486708E+00 
    1.9583182361565197E+00 
    1.9970907005104317E+00 
    2.1462756854743321E+00 
    2.1038252933319841E+00 
    1.9937384960213855E+00 
    1.9713556192948825E+00 
    1.9924140166195503E+00 
    1.9814927223061953E+00 
    2.0894695805722390E+00 
    1.9737662852461666E+00 
    2.0586999221088789E+00 
    2.2402596640358636E+00 
    1.9686783822268210E+00 
    2.2050651306619802E+00 
    2.0120467396825510E+00 
    2.2199363613565932E+00 
    2.1137004653303144E+00 
    2.3526244168327919E+00 
    1.9865905954952214E+00 
    2.1018572049745647E+00 
    2.0288586755977742E+00 
    1.9649259770240286E+00 
    2.1277863608409544E+00 
    2.0211538110531553E+00 
    2.1366271429079648E+00 
    1.9680907427200858E+00 
    2.1043592780283125E+00 
    2.0127739614878490E+00 
    2.0432323317342700E+00 
    1.9414862117052076E+00 
    1.9714022642970224E+00 
    1.9607708407256330E+00 
    2.1670202658090569E+00 
    1.9883425963655486E+00 
    2.2313493819078611E+00 
    2.1836971114007899E+00 
    1.9796672612896993E+00 
    2.0110385415750893E+00 
    1.9974952928056919E+00 
    1.9401481126024882E+00 
    2.0158031721407603E+00 
    2.1174552703119742E+00 
    1.9789840824212714E+00 
    1.9476208681092029E+00 
    2.2591343502894232E+00 
    2.0894688525587966E+00 
    1.9233395628836973E+00 
    1.9232045056311677E+00 
    1.9568298173003289E+00 
    1.9624793399898892E+00 
    1.9458773102123448E+00 
    1.9372403808317349E+00 
    1.9935859647458705E+00 
    1.9845711356877866E+00 
    1.9174490131819317E+00 
    1.9175859672953921E+00 
    1.8892723580836404E+00 
    1.8389999640296324E+00 
    1.8333697607710377E+00 
    1.8384835877127619E+00 
    1.8545182155737827E+00 
    1.8524293812664148E+00 
    1.9000449408865951E+00 
    1.8215267619110183E+00 
    1.8886571104056482E+00 
    1.8253278764416239E+00 
    1.8721875044679881E+00 
    1.8496323646102759E+00 
    1.8475447903552078E+00 
    1.8276581178867299E+00 
    1.8211216786823539E+00 
    1.9346575621356044E+00 
    1.8976982913058786E+00 
    1.9184189540778840E+00 
    1.8940328128919803E+00 
    1.8607439062918669E+00 
    1.8205603232222858E+00 
    1.8180624477311145E+00 
    1.9310960187500728E+00 
    1.8697530053336275E+00 
    1.8199351522524130E+00 
    1.8547627221704122E+00 
    1.9116110430527622E+00 
    1.9113017569011046E+00 
    1.8101733238224329E+00 
    1.8192563119355649E+00 
    1.8719542101363955E+00 
    1.9194997993627514E+00 
    1.8996904100973775E+00 
    1.8615153547977290E+00 
    1.8400843135805378E+00 
    1.9417174080645401E+00 
    1.9204960294545472E+00 
    1.9114076975972019E+00 
    1.9553597929829563E+00 
    1.8395501356951198E+00 
    1.8520767927980688E+00 
    1.8481092819907674E+00 
    1.9293760071770520E+00 
    1.8510079678741551E+00 
    1.9152070013790516E+00 
    1.8827859461163252E+00 
    1.8797780434551621E+00 
    1.8678174120639559E+00 
    1.8716606671012026E+00 
    1.9200727213150615E+00 
    1.9167903863040503E+00 
    1.8774066403322500E+00 
    1.8343940641786500E+00 
    1.8694982837336358E+00 
    1.8651588111261501E+00 
    1.8224196741077916E+00 
    1.9023944638557850E+00 
    1.8248353217917563E+00 
    1.9197774856852554E+00 
    1.8273891766763473E+00 
    1.8893028833910328E+00 
    1.8444663455858445E+00 
    1.8082475076619757E+00 
    1.8094350062566849E+00 
    1.8088613870641053E+00 
    1.8014396789501850E+00 
    1.8678690247014622E+00 
    1.8022045679880405E+00 
    1.8197331307448203E+00 
    1.8215634775414424E+00 
    1.9455649944601232E+00 
    1.8717183785412581E+00 
    1.8212886992966211E+00 
    1.9193275195850095E+00 
    1.8560059092725834E+00 
    1.8414804925584343E+00 
    1.9049173166609490E+00 
    1.9431798152261039E+00 
    1.8936311732681830E+00 
    1.8958942508002565E+00 
    1.8765209878972604E+00 
    1.8880000088213600E+00 
    1.9080286957116996E+00 
    1.9057485821100975E+00 
    1.9033575900184820E+00 
    1.9068529400628011E+00 
    1.8802374584332189E+00 
    1.9170846964042347E+00 
    1.9166473080049597E+00 
    1.8912045445935997E+00 
    1.8983664134313094E+00 
    1.9340034737223515E+00 
    1.9070692879133717E+00 
    1.9144238680612460E+00 
    1.9371093795889525E+00 
    1.8549796243473857E+00 
    1.8452200774902738E+00 
    1.8898378872287815E+00 
    1.9207888653335516E+00 
    1.9436871128413169E+00 
    1.9171024732882469E+00 
    1.8091622593144023E+00 
    1.8435992810552548E+00 
    1.8882641590385674E+00 
    1.8652914346953950E+00 
    1.8279618868174814E+00 
    1.9079250765209943E+00 
    1.8870898246224006E+00 
    1.8278687963660081E+00 
    1.8999722541360979E+00 
    1.8364051826666061E+00 
    1.8468811836734207E+00 
    1.8434572732828829E+00 
    1.8923280791828720E+00 
    1.9154037809288043E+00 
    1.9314813227354648E+00 
    1.9066095295691758E+00 
    1.9267845479370675E+00 
    1.8346887435031720E+00 
    1.8221583788172073E+00 
    1.9311970130243072E+00 
    1.9028829523941539E+00 
    1.8092179272455013E+00 
    1.8080518942783343E+00 
    1.9403778936115079E+00 
    1.8815813874671197E+00 
    1.9090126363292554E+00 
    1.8876535423098748E+00 
    1.8573485787642274E+00 
    1.8904521855606904E+00 
    1.9012152120516208E+00 
    1.8793450153532998E+00 
    1.8750189916368514E+00 
    1.8748107982911790E+00 
    1.7997400479698158E+00 
    1.9236739859593750E+00 
    1.9557665566015054E+00 
    1.8004323867919121E+00 
    1.8000287978208571E+00 
    1.8012890708603606E+00 
    1.8004356561199695E+00 
    1.8075074760036112E+00 
    1.9098593359975164E+00 
    1.8592788469221861E+00 
    1.8181276948318863E+00 
    1.8994972451573531E+00 
    1.8975555036334870E+00 
    1.8518954049324179E+00 
    1.8669611350238480E+00 
    1.8597352765149724E+00 
    1.8782611266073492E+00 
    1.9285389702433577E+00 
    1.7999129595861842E+00 
    1.8008905621922566E+00 
    1.8372939361145220E+00 
    1.8716041960859640E+00 
    1.9125814875649079E+00 
    1.8192769598396270E+00 
    1.9308351057137423E+00 
    1.8047382232679252E+00 
    1.8539497900233264E+00 
    1.8089749122390144E+00 
    1.8080216566428491E+00 
    1.8164347250932078E+00 
    1.9315498941718143E+00 
    1.8871396600704593E+00 
    1.8634875409505909E+00 
    1.8803094795441784E+00 
    1.8960380088683144E+00 
    1.8069077582531485E+00 
    1.8616467310413405E+00 
    1.8878257508173841E+00 
    1.9306944832207869E+00 
    1.9233517048861171E+00 
    1.9204599947987180E+00 
    1.9313203435133188E+00 
    1.9365333176888784E+00 
    1.8761961676343999E+00 
    1.8212227056134516E+00 
    1.8947426979321524E+00 
    1.8932332808570842E+00 
    1.8567730050492877E+00 
    1.8063513911460998E+00 
    1.8908954180658033E+00 
    1.9037302845960298E+00 
    1.9105520557126927E+00 
    1.9002072012109510E+00 
    1.8074577784180024E+00 
    1.8959414077974652E+00 
    1.8921961153710636E+00 
    1.8165524085210960E+00 
    1.8297368196700188E+00 
    1.8875644239529961E+00 
    1.8986547034913643E+00 
    1.8943094782650987E+00 
    1.9049659714959162E+00 
    1.9041578445983727E+00 
    1.9294451950097609E+00 
    1.8903349231084206E+00 
    1.9149044821314674E+00 
    1.8839683553928355E+00 
    1.8960885568329771E+00 
    1.8039474851628066E+00 
    1.9420151250720898E+00 
    1.9260761752397428E+00 
    1.9356453786094505E+00 
    1.8575385179738910E+00 
    1.8464446546581932E+00 
    1.8337922518125711E+00 
    1.9088470501079176E+00 
    1.8877915006738475E+00 
    1.9118513509416644E+00 
    1.8499732114813139E+00 
    1.8172152557203591E+00 
    1.8285824518323066E+00 
    1.9204407356473219E+00 
    1.8247498911435034E+00 
    1.8767937108950745E+00 
    1.8355403102794936E+00 
    1.9192227799604125E+00 
    1.8856109106441989E+00 
    1.8745582397239653E+00 
    1.9380288719544330E+00 
    1.9328797955173920E+00 
    1.8652023435801852E+00 
    1.8576703280544278E+00 
    1.8412294343174285E+00 
    1.8699578541116604E+00 
    1.9113073194539467E+00 
    1.8018912423989655E+00 
    1.9277741865949012E+00 
    1.9380561567112173E+00 
    1.8636106435269573E+00 
    1.8596611465746313E+00 
    1.8179549387118061E+00 
    1.8061880378398614E+00 
    1.9348407605348008E+00 
    1.8467793828155987E+00 
    1.8883266043962965E+00 
    1.8640915371868789E+00 
    1.8973384090735430E+00 
    1.8296996087579194E+00 
    1.8783637971667539E+00 
    1.9345104919445897E+00 
    1.8382435866475901E+00 
    1.8624766025785526E+00 
    1.8356092971515054E+00 
    1.8701367185647642E+00 
    1.9397932497777335E+00 
    1.8427137370045894E+00 
    1.8868167827710360E+00 
    1.8517209642911947E+00 
    1.8188193825796237E+00 
    1.9047885154403295E+00 
    1.9044032785575733E+00 
    1.8935981562856730E+00 
    1.8505708717459188E+00 
    1.8483121238895868E+00 
    1.8229274968198781E+00 
    1.8893317236037963E+00 
    1.9039840598697171E+00 
    1.8757625073307371E+00 
    1.8203111913407590E+00 
    1.8452578698851798E+00 