# vtk DataFile Version 2.0
Pressure Field Data 
ASCII 
DATASET UNSTRUCTURED_GRID 

POINTS 2213 double 

    0.0000000000000000E+00     0.0000000000000000E+00     0.0000000000000000E+00 
    5.0000000000000000E-01     0.0000000000000000E+00     0.0000000000000000E+00 
    1.0000000000000000E+00     0.0000000000000000E+00     0.0000000000000000E+00 
    1.0000000000000000E+00     5.0000000000000000E-01     0.0000000000000000E+00 
    1.0000000000000000E+00     1.0000000000000000E+00     0.0000000000000000E+00 
    5.0000000000000000E-01     1.0000000000000000E+00     0.0000000000000000E+00 
    0.0000000000000000E+00     1.0000000000000000E+00     0.0000000000000000E+00 
    0.0000000000000000E+00     5.0000000000000000E-01     0.0000000000000000E+00 
    1.5624999999971041E-02     0.0000000000000000E+00     0.0000000000000000E+00 
    3.1249999999936742E-02     0.0000000000000000E+00     0.0000000000000000E+00 
    4.6874999999913257E-02     0.0000000000000000E+00     0.0000000000000000E+00 
    6.2499999999889783E-02     0.0000000000000000E+00     0.0000000000000000E+00 
    7.8124999999844805E-02     0.0000000000000000E+00     0.0000000000000000E+00 
    9.3749999999799827E-02     0.0000000000000000E+00     0.0000000000000000E+00 
    1.0937499999975490E-01     0.0000000000000000E+00     0.0000000000000000E+00 
    1.2499999999970990E-01     0.0000000000000000E+00     0.0000000000000000E+00 
    1.4062499999966460E-01     0.0000000000000000E+00     0.0000000000000000E+00 
    1.5624999999961930E-01     0.0000000000000000E+00     0.0000000000000000E+00 
    1.7187499999957390E-01     0.0000000000000000E+00     0.0000000000000000E+00 
    1.8749999999952860E-01     0.0000000000000000E+00     0.0000000000000000E+00 
    2.0312499999948330E-01     0.0000000000000000E+00     0.0000000000000000E+00 
    2.1874999999943801E-01     0.0000000000000000E+00     0.0000000000000000E+00 
    2.3437499999939271E-01     0.0000000000000000E+00     0.0000000000000000E+00 
    2.4999999999934730E-01     0.0000000000000000E+00     0.0000000000000000E+00 
    2.6562499999938810E-01     0.0000000000000000E+00     0.0000000000000000E+00 
    2.8124999999942890E-01     0.0000000000000000E+00     0.0000000000000000E+00 
    2.9687499999946970E-01     0.0000000000000000E+00     0.0000000000000000E+00 
    3.1249999999951050E-01     0.0000000000000000E+00     0.0000000000000000E+00 
    3.2812499999955130E-01     0.0000000000000000E+00     0.0000000000000000E+00 
    3.4374999999959210E-01     0.0000000000000000E+00     0.0000000000000000E+00 
    3.5937499999963290E-01     0.0000000000000000E+00     0.0000000000000000E+00 
    3.7499999999967371E-01     0.0000000000000000E+00     0.0000000000000000E+00 
    3.9062499999971451E-01     0.0000000000000000E+00     0.0000000000000000E+00 
    4.0624999999975520E-01     0.0000000000000000E+00     0.0000000000000000E+00 
    4.2187499999979600E-01     0.0000000000000000E+00     0.0000000000000000E+00 
    4.3749999999983680E-01     0.0000000000000000E+00     0.0000000000000000E+00 
    4.5312499999987760E-01     0.0000000000000000E+00     0.0000000000000000E+00 
    4.6874999999991840E-01     0.0000000000000000E+00     0.0000000000000000E+00 
    4.8437499999995920E-01     0.0000000000000000E+00     0.0000000000000000E+00 
    5.1562499999992384E-01     0.0000000000000000E+00     0.0000000000000000E+00 
    5.3124999999985478E-01     0.0000000000000000E+00     0.0000000000000000E+00 
    5.4687499999994527E-01     0.0000000000000000E+00     0.0000000000000000E+00 
    5.6249999999998668E-01     0.0000000000000000E+00     0.0000000000000000E+00 
    5.7812499999998068E-01     0.0000000000000000E+00     0.0000000000000000E+00 
    5.9374999999994749E-01     0.0000000000000000E+00     0.0000000000000000E+00 
    6.0937499999997913E-01     0.0000000000000000E+00     0.0000000000000000E+00 
    6.2500000000000000E-01     0.0000000000000000E+00     0.0000000000000000E+00 
    6.4062499999998945E-01     0.0000000000000000E+00     0.0000000000000000E+00 
    6.5624999999996603E-01     0.0000000000000000E+00     0.0000000000000000E+00 
    6.7187499999995337E-01     0.0000000000000000E+00     0.0000000000000000E+00 
    6.8749999999998734E-01     0.0000000000000000E+00     0.0000000000000000E+00 
    7.0312499999998124E-01     0.0000000000000000E+00     0.0000000000000000E+00 
    7.1874999999997025E-01     0.0000000000000000E+00     0.0000000000000000E+00 
    7.3437499999999034E-01     0.0000000000000000E+00     0.0000000000000000E+00 
    7.5000000000000000E-01     0.0000000000000000E+00     0.0000000000000000E+00 
    7.6562499999996902E-01     0.0000000000000000E+00     0.0000000000000000E+00 
    7.8124999999993228E-01     0.0000000000000000E+00     0.0000000000000000E+00 
    7.9687499999989997E-01     0.0000000000000000E+00     0.0000000000000000E+00 
    8.1249999999996247E-01     0.0000000000000000E+00     0.0000000000000000E+00 
    8.2812499999999578E-01     0.0000000000000000E+00     0.0000000000000000E+00 
    8.4374999999999556E-01     0.0000000000000000E+00     0.0000000000000000E+00 
    8.5937500000000111E-01     0.0000000000000000E+00     0.0000000000000000E+00 
    8.7499999999997691E-01     0.0000000000000000E+00     0.0000000000000000E+00 
    8.9062500000000921E-01     0.0000000000000000E+00     0.0000000000000000E+00 
    9.0625000000004452E-01     0.0000000000000000E+00     0.0000000000000000E+00 
    9.2187500000005529E-01     0.0000000000000000E+00     0.0000000000000000E+00 
    9.3750000000012723E-01     0.0000000000000000E+00     0.0000000000000000E+00 
    9.5312500000011835E-01     0.0000000000000000E+00     0.0000000000000000E+00 
    9.6875000000005151E-01     0.0000000000000000E+00     0.0000000000000000E+00 
    9.8437500000003086E-01     0.0000000000000000E+00     0.0000000000000000E+00 
    1.0000000000000000E+00     1.5624999999971041E-02     0.0000000000000000E+00 
    1.0000000000000000E+00     3.1249999999936742E-02     0.0000000000000000E+00 
    1.0000000000000000E+00     4.6874999999913257E-02     0.0000000000000000E+00 
    1.0000000000000000E+00     6.2499999999889783E-02     0.0000000000000000E+00 
    1.0000000000000000E+00     7.8124999999844805E-02     0.0000000000000000E+00 
    1.0000000000000000E+00     9.3749999999799827E-02     0.0000000000000000E+00 
    1.0000000000000000E+00     1.0937499999975490E-01     0.0000000000000000E+00 
    1.0000000000000000E+00     1.2499999999970990E-01     0.0000000000000000E+00 
    1.0000000000000000E+00     1.4062499999966460E-01     0.0000000000000000E+00 
    1.0000000000000000E+00     1.5624999999961930E-01     0.0000000000000000E+00 
    1.0000000000000000E+00     1.7187499999957390E-01     0.0000000000000000E+00 
    1.0000000000000000E+00     1.8749999999952860E-01     0.0000000000000000E+00 
    1.0000000000000000E+00     2.0312499999948330E-01     0.0000000000000000E+00 
    1.0000000000000000E+00     2.1874999999943801E-01     0.0000000000000000E+00 
    1.0000000000000000E+00     2.3437499999939271E-01     0.0000000000000000E+00 
    1.0000000000000000E+00     2.4999999999934730E-01     0.0000000000000000E+00 
    1.0000000000000000E+00     2.6562499999938810E-01     0.0000000000000000E+00 
    1.0000000000000000E+00     2.8124999999942890E-01     0.0000000000000000E+00 
    1.0000000000000000E+00     2.9687499999946970E-01     0.0000000000000000E+00 
    1.0000000000000000E+00     3.1249999999951050E-01     0.0000000000000000E+00 
    1.0000000000000000E+00     3.2812499999955130E-01     0.0000000000000000E+00 
    1.0000000000000000E+00     3.4374999999959210E-01     0.0000000000000000E+00 
    1.0000000000000000E+00     3.5937499999963290E-01     0.0000000000000000E+00 
    1.0000000000000000E+00     3.7499999999967371E-01     0.0000000000000000E+00 
    1.0000000000000000E+00     3.9062499999971451E-01     0.0000000000000000E+00 
    1.0000000000000000E+00     4.0624999999975520E-01     0.0000000000000000E+00 
    1.0000000000000000E+00     4.2187499999979600E-01     0.0000000000000000E+00 
    1.0000000000000000E+00     4.3749999999983680E-01     0.0000000000000000E+00 
    1.0000000000000000E+00     4.5312499999987760E-01     0.0000000000000000E+00 
    1.0000000000000000E+00     4.6874999999991840E-01     0.0000000000000000E+00 
    1.0000000000000000E+00     4.8437499999995920E-01     0.0000000000000000E+00 
    1.0000000000000000E+00     5.1562499999992384E-01     0.0000000000000000E+00 
    1.0000000000000000E+00     5.3124999999985478E-01     0.0000000000000000E+00 
    1.0000000000000000E+00     5.4687499999994527E-01     0.0000000000000000E+00 
    1.0000000000000000E+00     5.6249999999998668E-01     0.0000000000000000E+00 
    1.0000000000000000E+00     5.7812499999998068E-01     0.0000000000000000E+00 
    1.0000000000000000E+00     5.9374999999994749E-01     0.0000000000000000E+00 
    1.0000000000000000E+00     6.0937499999997913E-01     0.0000000000000000E+00 
    1.0000000000000000E+00     6.2500000000000000E-01     0.0000000000000000E+00 
    1.0000000000000000E+00     6.4062499999998945E-01     0.0000000000000000E+00 
    1.0000000000000000E+00     6.5624999999996603E-01     0.0000000000000000E+00 
    1.0000000000000000E+00     6.7187499999995337E-01     0.0000000000000000E+00 
    1.0000000000000000E+00     6.8749999999998734E-01     0.0000000000000000E+00 
    1.0000000000000000E+00     7.0312499999998124E-01     0.0000000000000000E+00 
    1.0000000000000000E+00     7.1874999999997025E-01     0.0000000000000000E+00 
    1.0000000000000000E+00     7.3437499999999034E-01     0.0000000000000000E+00 
    1.0000000000000000E+00     7.5000000000000000E-01     0.0000000000000000E+00 
    1.0000000000000000E+00     7.6562499999996902E-01     0.0000000000000000E+00 
    1.0000000000000000E+00     7.8124999999993228E-01     0.0000000000000000E+00 
    1.0000000000000000E+00     7.9687499999989997E-01     0.0000000000000000E+00 
[...]
CELL_DATA 2084 
SCALARS Pressure double 1 
LOOKUP_TABLE default 

    1.8778969670656913E+00 
    1.9016001180587383E+00 
    2.0752648379074774E+00 
    1.9022445325794644E+00 
    1.9961681849330746E+00 
    1.9562625987765132E+00 
    1.8542344732080425E+00 
    1.9425477562593187E+00 
    1.9516178245226190E+00 
    2.0001327578376702E+00 
    2.0696256761231164E+00 
    1.8663530948440874E+00 
    1.9328183677246507E+00 
    1.8992635690342772E+00 
    1.8736709407267356E+00 
    1.8903327157999619E+00 
    2.0314574995141830E+00 
    1.9167711252757564E+00 
    2.1007397251809716E+00 
    1.8836947080857904E+00 
    1.8868304412553867E+00 
    1.9805322549285935E+00 
    1.8889245827136516E+00 
    1.9292858408278257E+00 
    1.8806229572423003E+00 
    1.9306079467572865E+00 
    1.8953475320003994E+00 
    1.8570747269799386E+00 
    1.9366622166210135E+00 
    1.9073320035108721E+00 
    1.8479046554692764E+00 
    1.9431088098189093E+00 
    1.8380689776961077E+00 
    1.8861831898367674E+00 
    1.8693760376808737E+00 
    1.9904609988504827E+00 
    1.9121122197389733E+00 
    1.9084291616770701E+00 
    1.9805071939137238E+00 
    1.9439949063957471E+00 
    1.8590321777809762E+00 
    2.0043969603558547E+00 
    1.8808410577072352E+00 
    1.9623714771507217E+00 
    1.9554312417321851E+00 
    1.8651434838917074E+00 
    2.0028961942949355E+00 
    1.8516690746671893E+00 
    1.8531262770028381E+00 
    1.9334630130707853E+00 
    1.9311964291724277E+00 
    1.8564568259710019E+00 
    1.8650408126565972E+00 
    1.9195080067770265E+00 
    1.9205054890856765E+00 
    1.8592863961288315E+00 
    1.8424452688119615E+00 
    1.9680878651160543E+00 
    1.9783011940064670E+00 
    1.9265694625197922E+00 
    1.9253964652024218E+00 
    1.8842136122296953E+00 
    1.8681656933960065E+00 
    1.8972555080325944E+00 
    2.0005904511675947E+00 
    1.9229314352207523E+00 
    1.9514751287168914E+00 
    1.8638152886209916E+00 
    1.8522346983828011E+00 
    1.8513438020185653E+00 
    1.8789213724647251E+00 
    2.1301706513797249E+00 
    1.9312940778107306E+00 
    2.0536472383742943E+00 
    1.9749882957050935E+00 
    2.0511747052162459E+00 
    1.9273972255333065E+00 
    1.9932070638934762E+00 
    1.8660757652600348E+00 
    2.0091086532656393E+00 
    1.8895100856870428E+00 
    1.9436569122122180E+00 
    1.9668967606899974E+00 
    1.8471936654214747E+00 
    1.9560019963351714E+00 
    1.8876146390134159E+00 
    1.9144377933355483E+00 
    1.9582210008181635E+00 
    1.9761009836083516E+00 
    1.9681123602452792E+00 
    1.9520971552138557E+00 
    1.9489771750607305E+00 
    1.8912065588995208E+00 
    1.9664781564795251E+00 
    1.9164454715047834E+00 
    1.8562311852184643E+00 
    1.9040357065344946E+00 
    1.9375305306875794E+00 
    1.9873826521110325E+00 
    1.9072672231535790E+00 
    1.9982015889264566E+00 
    1.9644885536413954E+00 
    1.9785579133159343E+00 
    1.9797623179718207E+00 
    1.9168216761118970E+00 
    1.9659866471541689E+00 
    1.9417154339146792E+00 
    1.9880234166848407E+00 
    1.8759027567867055E+00 
    2.1619427865075029E+00 
    1.8936588135933121E+00 
    1.9366878798513036E+00 
    1.9638000958799866E+00 
    2.0133290365090337E+00 
    2.0636884956359158E+00 
    1.8985987197807777E+00 
    1.9665844482119139E+00 
    1.9636646462170724E+00 
    1.9090798377161751E+00 
    1.8817905250670119E+00 
    1.9224233665463351E+00 
    1.9774598740189013E+00 
    1.8819933779181133E+00 
    2.0390602729116458E+00 
    1.9405953675409218E+00 
    1.9779055668715806E+00 
    1.9241288502566227E+00 
    1.8820148672313657E+00 
    1.9125063537900848E+00 
    1.8892323782980809E+00 
    2.0600909494146631E+00 
    2.0721281798059761E+00 
    1.8608960424586964E+00 
    2.0005546662149785E+00 
    1.9876509737968853E+00 
    1.9251875395544438E+00 
    1.9705688758845206E+00 
    1.8809678658002513E+00 
    1.9862186177870014E+00 
    2.0444971926695135E+00 
    1.9546270139838753E+00 
    2.0856845048927259E+00 
    2.0538856679131849E+00 
    1.9405126081868356E+00 
    1.8988903339825003E+00 
    1.9369071586363027E+00 
    1.9648149119670126E+00 
    1.9850619762651842E+00 
    1.9164697529636257E+00 
    1.9536176765914293E+00 
    1.9585333956686146E+00 
    2.0454227624756101E+00 
    2.1173106770058658E+00 
    1.9159475198744078E+00 
    1.9238855962314760E+00 
    2.1006385691988454E+00 
    1.8884626838454663E+00 
    1.9610375419710693E+00 
    1.9198341766830451E+00 
    2.0386735117201535E+00 
    2.2416886127985300E+00 
    2.1812024641736110E+00 
    2.1209593185153719E+00 
    2.1412959333574140E+00 
    2.0931686388547912E+00 
    2.1094009331752401E+00 
    1.9629280121765127E+00 
    2.1553335119212549E+00 
    1.9552135387798248E+00 
    2.1023779212667981E+00 
    1.9554959505113827E+00 
    2.0323596982455023E+00 
    2.0495120118892842E+00 
    1.9907272358266286E+00 
    2.0253994477854853E+00 
    1.9059782138680590E+00 
    2.0282261766907812E+00 
    1.9470351341520931E+00 
    1.9537793879499377E+00 
    1.9527854975997565E+00 
    1.9747082937401654E+00 
    1.9041745676366111E+00 
    2.0330729285280236E+00 
    1.9768747268272993E+00 
    1.9735537780207906E+00 
    1.8408096343265252E+00 
    1.9957101300028330E+00 
    2.0557072299772674E+00 
    1.9107833767187530E+00 
    2.0156662424737357E+00 
    2.0700858344523652E+00 
    2.0918529101636887E+00 
    1.9751140450591218E+00 
    1.9250464740890909E+00 
    1.8971980646505131E+00 
    1.9128866830130951E+00 
    2.0021779542192948E+00 
    1.9682163975924043E+00 
    1.9220873013608095E+00 
    2.0063248164599194E+00 
    1.9468732736371810E+00 
    1.9148764421163962E+00 
    1.9747302343319382E+00 
    1.8672598592807179E+00 
    1.9142140582048122E+00 
    2.0736743306797685E+00 
    2.0015069480609462E+00 
    1.9071463617227042E+00 
    2.0234931527915934E+00 
    2.0161829806630394E+00 
    1.9191900295042017E+00 
    1.9376901443420889E+00 
    1.9427993262698826E+00 
    1.9924615979381022E+00 
    1.9890264633715180E+00 
    2.0490616574793337E+00 
    1.9334533957703439E+00 
    1.9895817516824963E+00 
    2.0028075437852486E+00 
    1.9232639257602284E+00 
    1.9296265483363553E+00 
    1.8341468245036365E+00 
    1.9250239400542997E+00 
    2.0827099030235230E+00 
    1.9678196044113485E+00 
    1.9884383562677990E+00 
    1.9469251097778020E+00 
    1.9885661861485264E+00 
    1.9131985130125477E+00 
    1.9023115172976377E+00 
    1.8802836275669477E+00 
    1.9105978738411056E+00 
    1.8840618158552540E+00 
    1.9337964096816556E+00 
    1.9762654490021507E+00 
    1.8951356578071210E+00 
    2.0181696546975112E+00 
    2.0202421973982365E+00 
    1.9307501138693786E+00 
    1.9026278847025599E+00 
    1.9763102722487502E+00 
    1.9189557622362015E+00 
    1.8727438448674123E+00 
    1.9131926474149326E+00 
    1.8778958517559807E+00 
    1.8783731096941583E+00 
    1.9228233416818812E+00 
    1.9639959462563661E+00 
    2.0362735505153933E+00 
    1.8689691862886337E+00 
    1.9115809893017814E+00 
    1.8923146026009816E+00 
    1.9111901530336406E+00 
    2.1292881268922326E+00 
    1.8823624611112111E+00 
    1.9425734809884023E+00 
    1.8916464914051767E+00 
    1.9246136701044971E+00 
    1.9000737671455503E+00 
    1.9320105880157805E+00 
    1.8914968390864701E+00 
    1.9288710909845732E+00 
    1.9015586703975094E+00 
    1.9319323320761748E+00 
    1.8978527644202019E+00 
    1.8970071904201009E+00 
    1.8774387356607014E+00 
    1.8862029711284425E+00 
    2.0182417340647745E+00 
    1.8611242066348144E+00 
    1.8688937037988407E+00 
    1.9077908510977724E+00 
    1.8948927317526181E+00 
    2.1972188676257143E+00 
    1.9102828598792125E+00 
    1.9910853277403269E+00 
    1.9037937636543560E+00 
    1.8569776758742682E+00 
    1.9214333576418825E+00 
    1.8870933164847470E+00 
    1.9345053572253774E+00 
    1.8982754872542982E+00 
    1.8986665692143703E+00 
    1.9086042772508298E+00 
    1.8795685522114762E+00 
    1.9101188888776355E+00 
    1.8991586435747996E+00 
    1.8615606810743517E+00 
    1.8899123508933877E+00 
    1.8899769941240743E+00 
    1.9056407406343179E+00 
    1.8552542141233215E+00 
    1.8924181976977117E+00 
    1.9055255549420715E+00 
    1.9336116234961995E+00 
    1.8815688280072653E+00 
    1.8717607548187472E+00 
    2.0020245456825725E+00 
    1.8822969490945864E+00 
    1.9531378298552091E+00 
    2.1972782107360498E+00 
    2.0121520982856667E+00 
    1.9537951143776695E+00 
    2.0326017751514187E+00 
    1.8954102616248407E+00 
    1.8900158085489607E+00 
    1.8708587815436122E+00 
    1.8738420709259396E+00 
    1.8748696124271680E+00 
    1.8687997684094562E+00 
    2.0356888581266346E+00 
    1.8725040733398086E+00 
    1.9224325545514038E+00 
    2.0163764423700190E+00 
    1.9332540964816121E+00 
    1.8818752829595311E+00 
    1.9851163422214775E+00 
    1.8669346559522326E+00 
    1.8673860190658422E+00 
    1.8751070249214692E+00 
    2.1652391896305874E+00 
    1.9649253829332289E+00 
    2.0256248045009637E+00 
    2.0310047740166453E+00 
    1.9417267941080185E+00 
    2.0038348659828253E+00 
    1.8846391522128341E+00 
    1.8281807537303876E+00 
    2.3407418815739831E+00 
    1.8471827327271049E+00 
    1.8602206021762795E+00 
    1.8598286731651577E+00 
    1.9548282858844137E+00 
    2.0154533126963670E+00 
    1.8280902250239610E+00 
    2.0660198119713731E+00 
    2.0870174996713122E+00 
    1.9424440504794487E+00 
    1.8989600227168686E+00 
    2.0531433685466745E+00 
    1.9442414823564451E+00 
    1.8760528099772271E+00 
    2.0252719013877685E+00 
    1.8533556295697806E+00 
    1.8526731184353382E+00 
    1.9525836722510410E+00 
    1.9066682543330686E+00 
    1.8348241023768992E+00 
    1.8987273543408223E+00 
    1.8419286424209542E+00 
    2.0436849075648604E+00 
    1.8469948749196359E+00 
    1.8895918399380263E+00 
    2.0136482951283008E+00 
    1.9064909486883734E+00 
    1.9443604192612425E+00 
    1.8458513044817650E+00 
    1.9260931984247935E+00 
    1.9310852922063297E+00 
    1.8770279314528002E+00 
    1.9069036367394461E+00 
    2.0199085715852814E+00 
    1.8414954633105287E+00 
    1.9050197916168288E+00 
    1.8806788727451300E+00 
    1.8812369532706157E+00 
    1.9199997600945662E+00 
    1.8751244403601035E+00 
    1.9121296308437754E+00 
    2.0320039100449154E+00 
    2.0464106710653476E+00 
    1.8395000658414717E+00 
    2.2083875123511505E+00 
    1.9245188507755957E+00 
    1.8925632851482934E+00 
    2.0739272892932181E+00 
    1.9478882165090432E+00 
    1.9621466624325110E+00 
    1.8807403264664040E+00 
    1.8742821326379744E+00 
    1.9795148784229069E+00 
    1.9430779927762152E+00 
    1.8352661803867503E+00 
    1.8804236135768784E+00 
    2.1013850545169825E+00 
    1.9385522212403525E+00 
    2.0076017769712684E+00 
    1.9530390390290586E+00 
    2.0205086337044720E+00 
    1.9794652200723619E+00 
    1.8340217110391464E+00 
    1.8625050940866856E+00 
    1.9004774317042501E+00 
    2.0478930840822898E+00 
    2.0057341968109239E+00 
    1.8971916619323890E+00 
    1.8752366493721433E+00 
    1.8958881097999261E+00 
    1.8851707371774367E+00 
    1.9915014246804050E+00 
    1.8776414361339300E+00 
    1.9610831511334448E+00 
    2.1415675047715892E+00 
    1.8726275620035331E+00 
    2.1064538477012174E+00 
    1.9151274209819484E+00 
    2.1212854466730948E+00 
    2.0155246438223404E+00 
    2.2538264586497117E+00 
    1.8901921328988105E+00 
    2.0037764501858510E+00 
    1.9316605675796259E+00 
    1.8689830329904860E+00 
    2.0295173145752421E+00 
    1.9240791593668249E+00 
    2.0383028045187759E+00 
    1.8720843437546126E+00 
    2.0062641912027561E+00 
    1.9158605629168775E+00 
    1.9458196821668643E+00 
    1.8460863022767950E+00 
    1.8753237969746899E+00 
    1.8649186434825231E+00 
    2.0685416106354673E+00 
    1.8919090987987468E+00 
    2.1326754295719952E+00 
    2.0851527793042735E+00 
    1.8833867048447754E+00 
    1.9141325262393889E+00 
    1.9008702310300241E+00 
    1.8447655800605522E+00 
    1.9188314608030308E+00 
    2.0192568922748562E+00 
    1.8827002931504109E+00 
    1.8520529446227956E+00 
    2.1604121995830226E+00 
    1.9915009313558079E+00 
    1.8284024003250743E+00 
    1.8282593072610136E+00 
    1.8610501283683640E+00 
    1.8665685350237600E+00 
    1.8503533908175758E+00 
    1.8419412307422462E+00 
    1.8970412241612860E+00 
    1.8882132232436435E+00 
    1.8226711199388757E+00 
    1.8227916129482642E+00 
    1.7952805805165954E+00 
    1.7465831529929365E+00 
    1.7412300393782212E+00 
    1.7463306024869989E+00 
    1.7616315492780998E+00 
    1.7596841068666771E+00 
    1.8057405152778099E+00 
    1.7297274863530514E+00 
    1.7947191875271438E+00 
    1.7334815831951593E+00 
    1.7787560705848628E+00 
    1.7569059848459954E+00 
    1.7549400491912517E+00 
    1.7359100160885328E+00 
    1.7294286514205905E+00 
    1.8394475555079493E+00 
    1.8035055747147890E+00 
    1.8237138826195107E+00 
    1.7999208891402110E+00 
    1.7677685424695078E+00 
    1.7290253689674762E+00 
    1.7264638362181295E+00 
    1.8360366906596539E+00 
    1.7765086735590412E+00 
    1.7282414057187749E+00 
    1.7618331304438288E+00 
    1.8169805620998198E+00 
    1.8166942623862155E+00 
    1.7188728025095854E+00 
    1.7275566768975721E+00 
    1.7786202530830064E+00 
    1.8246771063589391E+00 
    1.8054499557600237E+00 
    1.7683908211474539E+00 
    1.7476790610594006E+00 
    1.8463404129985883E+00 
    1.8257362671085249E+00 
    1.8167859297770967E+00 
    1.8596697426788615E+00 
    1.7471655101528794E+00 
    1.7592377554787531E+00 
    1.7553952567241249E+00 
    1.8342993076202005E+00 
    1.7582170353493862E+00 
    1.8205120269987813E+00 
    1.7889896432855319E+00 
    1.7861127334251081E+00 
    1.7746539309037683E+00 
    1.7781990118153961E+00 
    1.8252879643412385E+00 
    1.8221297848794895E+00 
    1.7837695639423645E+00 
    1.7421851074970687E+00 
    1.7761322064810039E+00 
    1.7719477107548089E+00 
    1.7305678612146338E+00 
    1.8080252246172832E+00 
    1.7328983272667724E+00 
    1.8250131290036899E+00 
    1.7354031136661561E+00 
    1.7953334798310814E+00 
    1.7518960240410952E+00 
    1.7170136049897762E+00 
    1.7180746423465827E+00 
    1.7175401219160427E+00 
    1.7106184680428416E+00 
    1.7745566851766317E+00 
    1.7113258420039044E+00 
    1.7282086338536731E+00 
    1.7300486116273328E+00 
    1.8501294228989911E+00 
    1.7782939869789518E+00 
    1.7295592418892352E+00 
    1.8245870286383974E+00 
    1.7630727141683604E+00 
    1.7491212836572356E+00 
    1.8104940389855546E+00 
    1.8477980555849987E+00 
    1.7995421526541666E+00 
    1.8017297383516095E+00 
    1.7829135722926277E+00 
    1.7940672341894162E+00 
    1.8135999107830159E+00 
    1.8114113465571289E+00 
    1.8090543039053906E+00 
    1.8124895630122617E+00 
    1.7865799212547995E+00 
    1.8223057730501311E+00 
    1.8218932731941391E+00 
    1.7971821313481484E+00 
    1.8041330882397462E+00 
    1.8388725693887886E+00 
    1.8126817089852856E+00 
    1.8198427733084401E+00 
    1.8418965926905517E+00 
    1.7620708188646905E+00 
    1.7526558579283027E+00 
    1.7959024245151642E+00 
    1.8259955097854630E+00 
    1.8482973368800630E+00 
    1.8224414027846387E+00 
    1.7178068006865788E+00 
    1.7510313464536498E+00 
    1.7943071324194124E+00 
    1.7720293080918492E+00 
    1.7360883039601840E+00 
    1.8135010613500211E+00 
    1.7932294963399684E+00 
    1.7358269582299506E+00 
    1.8057546898708741E+00 
    1.7441097752308459E+00 
    1.7542161861311998E+00 
    1.7508980683826560E+00 
    1.7982485848577903E+00 
    1.8207501734630693E+00 
    1.8363908490440664E+00 
    1.8121244985754621E+00 
    1.8318529673219577E+00 
    1.7424174314806051E+00 
    1.7304633282691209E+00 
    1.8361183551158726E+00 
    1.8086303620135800E+00 
    1.7178536540497358E+00 
    1.7168151443466797E+00 
    1.8450244249944021E+00 
    1.7878424396694343E+00 
    1.8145419352310255E+00 
    1.7937989310542461E+00 
    1.7643422196701162E+00 
    1.7964849676530235E+00 
    1.8069039888963301E+00 
    1.7856900649869323E+00 
    1.7814837288720451E+00 
    1.7812797717022710E+00 
    1.7090255006821535E+00 
    1.8288279952610622E+00 
    1.8600718483614309E+00 
    1.7096920541664344E+00 
    1.7093124304518756E+00 
    1.7104750158058175E+00 
    1.7096777771001868E+00 
    1.7162751807838297E+00 
    1.8153505684913740E+00 
    1.7662443205548779E+00 
    1.7265008042579180E+00 
    1.8052257031435679E+00 
    1.8034201604774101E+00 
    1.7592518687248673E+00 
    1.7736503402100723E+00 
    1.7666482470171148E+00 
    1.7846045057438096E+00 
    1.8334990912502180E+00 
    1.7092006131148116E+00 
    1.7101169288150986E+00 
    1.7450067883871911E+00 
    1.7782007428669926E+00 
    1.8180331286103966E+00 
    1.7278175392478110E+00 
    1.8357445256890621E+00 
    1.7136766267260111E+00 
    1.7612443084895355E+00 
    1.7176817895193306E+00 
    1.7168556383384663E+00 
    1.7248831813974279E+00 
    1.8364512621488498E+00 
    1.7932942106485665E+00 
    1.7703390649675348E+00 
    1.7866377150119321E+00 
    1.8019630575157519E+00 
    1.7157220430063147E+00 
    1.7685319066375678E+00 
    1.7939166522293875E+00 
    1.8356516669452674E+00 
    1.8284069018329483E+00 
    1.8256191753115012E+00 
    1.8362472654056836E+00 
    1.8413175013604686E+00 
    1.7826556954069654E+00 
    1.7297172544841115E+00 
    1.8007215573234112E+00 
    1.7992716754777531E+00 
    1.7639509987999602E+00 
    1.7152033592170850E+00 
    1.7970157882690476E+00 
    1.8094616407114847E+00 
    1.8160830012490132E+00 
    1.8060492572020246E+00 
    1.7162431628587300E+00 
    1.8019125748267268E+00 
    1.7982776017693951E+00 
    1.7249907889897185E+00 
    1.7378276061293534E+00 
    1.7936738683686069E+00 
    1.8045190389047112E+00 
    1.8002925914201076E+00 
    1.8105378843781206E+00 
    1.8097682610822672E+00 
    1.8343438832328114E+00 
    1.7964242544310549E+00 
    1.8202029260711596E+00 
    1.7901629824330270E+00 
    1.8019341992898454E+00 
    1.7129655951375098E+00 
    1.8466425435020026E+00 
    1.8311454369442191E+00 
    1.8404704811863732E+00 
    1.7645329358657917E+00 
    1.7538560735779329E+00 
    1.7417360726008069E+00 
    1.8143420650106774E+00 
    1.7939427399552605E+00 
    1.8172420227368780E+00 
    1.7573506187632928E+00 
    1.7255601401629974E+00 
    1.7365404003376350E+00 
    1.8256310640054620E+00 
    1.7328742433218094E+00 
    1.7832072925461384E+00 
    1.7435199727924233E+00 
    1.8244368683801933E+00 
    1.7918346729285288E+00 
    1.7810870176595837E+00 
    1.8427384017540460E+00 
    1.8377029547022143E+00 
    1.7719721005304767E+00 
    1.7646864569154641E+00 
    1.7487552037038674E+00 
    1.7765836635887811E+00 
    1.8167069088402097E+00 
    1.7109952616827808E+00 
    1.8327268412902580E+00 
    1.8427503979383990E+00 
    1.7704366193593839E+00 
    1.7666079296313821E+00 
    1.7264108333398045E+00 
    1.7150413201717603E+00 
    1.8396046522376488E+00 
    1.7542633365366185E+00 
    1.7945200343203358E+00 
    1.7709182945441961E+00 
    1.8031161186962865E+00 
    1.7376535600440550E+00 
    1.7847777939087826E+00 
    1.8393231525279625E+00 
    1.7460766703957908E+00 
    1.7695202790829205E+00 
    1.7433272091405447E+00 
    1.7767910243064067E+00 
    1.8444367235697545E+00 
    1.7503623554334320E+00 
    1.7930707377451072E+00 
    1.7589306819567010E+00 
    1.7271679658930617E+00 
    1.8103482843461955E+00 
    1.8099900990698108E+00 
    1.7994885593106673E+00 
    1.7578153529611580E+00 
    1.7556289454248497E+00 
    1.7311223215151792E+00 
    1.7953867623111088E+00 
    1.8095824602422437E+00 
    1.7822726711469259E+00 
    1.7287358898195657E+00 
    1.7526785632407822E+00 