# vtk DataFile Version 2.0
Pressure Field Data 
ASCII 
DATASET UNSTRUCTURED_GRID 

POINTS 2213 double 

    0.0000000000000000E+00     0.0000000000000000E+00     0.0000000000000000E+00 
    5.0000000000000000E-01     0.0000000000000000E+00     0.0000000000000000E+00 
    1.0000000000000000E+00     0.0000000000000000E+00     0.0000000000000000E+00 
    1.0000000000000000E+00     5.0000000000000000E-01     0.0000000000000000E+00 
    1.0000000000000000E+00     1.0000000000000000E+00     0.0000000000000000E+00 
    5.0000000000000000E-01     1.0000000000000000E+00     0.0000000000000000E+00 
    0.0000000000000000E+00     1.0000000000000000E+00     0.0000000000000000E+00 
    0.0000000000000000E+00     5.0000000000000000E-01     0.0000000000000000E+00 
    1.5624999999971041E-02     0.0000000000000000E+00     0.0000000000000000E+00 
    3.1249999999936742E-02     0.0000000000000000E+00     0.0000000000000000E+00 
    4.6874999999913257E-02     0.0000000000000000E+00     0.0000000000000000E+00 
    6.2499999999889783E-02     0.0000000000000000E+00     0.0000000000000000E+00 
    7.8124999999844805E-02     0.0000000000000000E+00     0.0000000000000000E+00 
    9.3749999999799827E-02     0.0000000000000000E+00     0.0000000000000000E+00 
    1.0937499999975490E-01     0.0000000000000000E+00     0.0000000000000000E+00 
    1.2499999999970990E-01     0.0000000000000000E+00     0.0000000000000000E+00 
    1.4062499999966460E-01     0.0000000000000000E+00     0.0000000000000000E+00 
    1.5624999999961930E-01     0.0000000000000000E+00     0.0000000000000000E+00 
    1.7187499999957390E-01     0.0000000000000000E+00     0.0000000000000000E+00 
    1.8749999999952860E-01     0.0000000000000000E+00     0.0000000000000000E+00 
    2.0312499999948330E-01     0.0000000000000000E+00     0.0000000000000000E+00 
    2.1874999999943801E-01     0.0000000000000000E+00     0.0000000000000000E+00 
    2.3437499999939271E-01     0.0000000000000000E+00     0.0000000000000000E+00 
    2.4999999999934730E-01     0.0000000000000000E+00     0.0000000000000000E+00 
    2.6562499999938810E-01     0.0000000000000000E+00     0.0000000000000000E+00 
    2.8124999999942890E-01     0.0000000000000000E+00     0.0000000000000000E+00 
    2.9687499999946970E-01     0.0000000000000000E+00     0.0000000000000000E+00 
    3.1249999999951050E-01     0.0000000000000000E+00     0.0000000000000000E+00 
    3.2812499999955130E-01     0.0000000000000000E+00     0.0000000000000000E+00 
    3.4374999999959210E-01     0.0000000000000000E+00     0.0000000000000000E+00 
    3.5937499999963290E-01     0.0000000000000000E+00     0.0000000000000000E+00 
    3.7499999999967371E-01     0.0000000000000000E+00     0.0000000000000000E+00 
    3.9062499999971451E-01     0.0000000000000000E+00     0.0000000000000000E+00 
    4.0624999999975520E-01     0.0000000000000000E+00     0.0000000000000000E+00 
    4.2187499999979600E-01     0.0000000000000000E+00     0.0000000000000000E+00 
    4.3749999999983680E-01     0.0000000000000000E+00     0.0000000000000000E+00 
    4.5312499999987760E-01     0.0000000000000000E+00     0.0000000000000000E+00 
    4.6874999999991840E-01     0.0000000000000000E+00     0.0000000000000000E+00 
    4.8437499999995920E-01     0.0000000000000000E+00     0.0000000000000000E+00 
    5.1562499999992384E-01     0.0000000000000000E+00     0.0000000000000000E+00 
    5.3124999999985478E-01     0.0000000000000000E+00     0.0000000000000000E+00 
    5.4687499999994527E-01     0.0000000000000000E+00     0.0000000000000000E+00 
    5.6249999999998668E-01     0.0000000000000000E+00     0.0000000000000000E+00 
    5.7812499999998068E-01     0.0000000000000000E+00     0.0000000000000000E+00 
    5.9374999999994749E-01     0.0000000000000000E+00     0.0000000000000000E+00 
    6.0937499999997913E-01     0.0000000000000000E+00     0.0000000000000000E+00 
    6.2500000000000000E-01     0.0000000000000000E+00     0.0000000000000000E+00 
    6.4062499999998945E-01     0.0000000000000000E+00     0.0000000000000000E+00 
    6.5624999999996603E-01     0.0000000000000000E+00     0.0000000000000000E+00 
    6.7187499999995337E-01     0.0000000000000000E+00     0.0000000000000000E+00 
    6.8749999999998734E-01     0.0000000000000000E+00     0.0000000000000000E+00 
    7.0312499999998124E-01     0.0000000000000000E+00     0.0000000000000000E+00 
    7.1874999999997025E-01     0.0000000000000000E+00     0.0000000000000000E+00 
    7.3437499999999034E-01     0.0000000000000000E+00     0.0000000000000000E+00 
    7.5000000000000000E-01     0.0000000000000000E+00     0.0000000000000000E+00 
    7.6562499999996902E-01     0.0000000000000000E+00     0.0000000000000000E+00 
    7.8124999999993228E-01     0.0000000000000000E+00     0.0000000000000000E+00 
    7.9687499999989997E-01     0.0000000000000000E+00     0.0000000000000000E+00 
    8.1249999999996247E-01     0.0000000000000000E+00     0.0000000000000000E+00 
    8.2812499999999578E-01     0.0000000000000000E+00     0.0000000000000000E+00 
    8.4374999999999556E-01     0.0000000000000000E+00     0.0000000000000000E+00 
    8.5937500000000111E-01     0.0000000000000000E+00     0.0000000000000000E+00 
    8.7499999999997691E-01     0.0000000000000000E+00     0.0000000000000000E+00 
    8.9062500000000921E-01     0.0000000000000000E+00     0.0000000000000000E+00 
    9.0625000000004452E-01     0.0000000000000000E+00     0.0000000000000000E+00 
    9.2187500000005529E-01     0.0000000000000000E+00     0.0000000000000000E+00 
    9.3750000000012723E-01     0.0000000000000000E+00     0.0000000000000000E+00 
    9.5312500000011835E-01     0.0000000000000000E+00     0.0000000000000000E+00 
    9.6875000000005151E-01     0.0000000000000000E+00     0.0000000000000000E+00 
    9.8437500000003086E-01     0.0000000000000000E+00     0.0000000000000000E+00 
    1.0000000000000000E+00     1.5624999999971041E-02     0.0000000000000000E+00 
    1.0000000000000000E+00     3.1249999999936742E-02     0.0000000000000000E+00 
    1.0000000000000000E+00     4.6874999999913257E-02     0.0000000000000000E+00 
    1.0000000000000000E+00     6.2499999999889783E-02     0.0000000000000000E+00 
    1.0000000000000000E+00     7.8124999999844805E-02     0.0000000000000000E+00 
    1.0000000000000000E+00     9.3749999999799827E-02     0.0000000000000000E+00 
    1.0000000000000000E+00     1.0937499999975490E-01     0.0000000000000000E+00 
    1.0000000000000000E+00     1.2499999999970990E-01     0.0000000000000000E+00 
    1.0000000000000000E+00     1.4062499999966460E-01     0.0000000000000000E+00 
    1.0000000000000000E+00     1.5624999999961930E-01     0.0000000000000000E+00 
    1.0000000000000000E+00     1.7187499999957390E-01     0.0000000000000000E+00 
    1.0000000000000000E+00     1.8749999999952860E-01     0.0000000000000000E+00 
    1.0000000000000000E+00     2.0312499999948330E-01     0.0000000000000000E+00 
    1.0000000000000000E+00     2.1874999999943801E-01     0.0000000000000000E+00 
    1.0000000000000000E+00     2.3437499999939271E-01     0.0000000000000000E+00 
    1.0000000000000000E+00     2.4999999999934730E-01     0.0000000000000000E+00 
    1.0000000000000000E+00     2.6562499999938810E-01     0.0000000000000000E+00 
    1.0000000000000000E+00     2.8124999999942890E-01     0.0000000000000000E+00 
    1.0000000000000000E+00     2.9687499999946970E-01     0.0000000000000000E+00 
    1.0000000000000000E+00     3.1249999999951050E-01     0.0000000000000000E+00 
    1.0000000000000000E+00     3.2812499999955130E-01     0.0000000000000000E+00 
    1.0000000000000000E+00     3.4374999999959210E-01     0.0000000000000000E+00 
    1.0000000000000000E+00     3.5937499999963290E-01     0.0000000000000000E+00 
    1.0000000000000000E+00     3.7499999999967371E-01     0.0000000000000000E+00 
    1.0000000000000000E+00     3.9062499999971451E-01     0.0000000000000000E+00 
    1.0000000000000000E+00     4.0624999999975520E-01     0.0000000000000000E+00 
    1.0000000000000000E+00     4.2187499999979600E-01     0.0000000000000000E+00 
    1.0000000000000000E+00     4.3749999999983680E-01     0.0000000000000000E+00 
    1.0000000000000000E+00     4.5312499999987760E-01     0.0000000000000000E+00 
    1.0000000000000000E+00     4.6874999999991840E-01     0.0000000000000000E+00 
    1.0000000000000000E+00     4.8437499999995920E-01     0.0000000000000000E+00 
    1.0000000000000000E+00     5.1562499999992384E-01     0.0000000000000000E+00 
    1.0000000000000000E+00     5.3124999999985478E-01     0.0000000000000000E+00 
    1.0000000000000000E+00     5.4687499999994527E-01     0.0000000000000000E+00 
    1.0000000000000000E+00     5.6249999999998668E-01     0.0000000000000000E+00 
    1.0000000000000000E+00     5.7812499999998068E-01     0.0000000000000000E+00 
    1.0000000000000000E+00     5.9374999999994749E-01     0.0000000000000000E+00 
    1.0000000000000000E+00     6.0937499999997913E-01     0.0000000000000000E+00 
    1.0000000000000000E+00     6.2500000000000000E-01     0.0000000000000000E+00 
    1.0000000000000000E+00     6.4062499999998945E-01     0.0000000000000000E+00 
    1.0000000000000000E+00     6.5624999999996603E-01     0.0000000000000000E+00 
    1.0000000000000000E+00     6.7187499999995337E-01     0.0000000000000000E+00 
    1.0000000000000000E+00     6.8749999999998734E-01     0.0000000000000000E+00 
    1.0000000000000000E+00     7.0312499999998124E-01     0.0000000000000000E+00 
    1.0000000000000000E+00     7.1874999999997025E-01     0.0000000000000000E+00 
    1.0000000000000000E+00     7.3437499999999034E-01     0.0000000000000000E+00 
    1.0000000000000000E+00     7.5000000000000000E-01     0.0000000000000000E+00 
    1.0000000000000000E+00     7.6562499999996902E-01     0.0000000000000000E+00 
    1.0000000000000000E+00     7.8124999999993228E-01     0.0000000000000000E+00 
    1.0000000000000000E+00     7.9687499999989997E-01     0.0000000000000000E+00 
[...]
CELL_DATA 2084 
SCALARS Pressure double 1 
LOOKUP_TABLE default 

    1.9078199672608185E+00 
    1.9316751197531301E+00 
    2.1059272591726979E+00 
    1.9323233620265172E+00 
    2.0266756762622240E+00 
    1.9866301401234634E+00 
    1.8839878195803343E+00 
    1.9728542115293595E+00 
    1.9819650093292107E+00 
    2.0306509360243292E+00 
    2.1002806306722941E+00 
    1.8961970084985929E+00 
    1.9630722667108977E+00 
    1.9293361525527679E+00 
    1.9035641253576248E+00 
    1.9203484710336651E+00 
    2.0620505140435936E+00 
    1.9469464156386758E+00 
    2.1314299742066942E+00 
    1.9136539397274912E+00 
    1.9168102628772361E+00 
    2.0109888200672867E+00 
    1.9189307218903040E+00 
    1.9595222305899211E+00 
    1.9105623583925260E+00 
    1.9608566915941184E+00 
    1.9253864869098021E+00 
    1.8868475587574669E+00 
    1.9669400468449405E+00 
    1.9374509984698487E+00 
    1.8776069600367957E+00 
    1.9734164871627902E+00 
    1.8676956209095834E+00 
    1.9161581627030613E+00 
    1.8992404368795102E+00 
    2.0209498151409493E+00 
    1.9422607724797620E+00 
    1.9385571255725584E+00 
    2.0109652575762733E+00 
    1.9743056125303642E+00 
    1.8888204151493522E+00 
    2.0349282549530940E+00 
    1.9107902488135116E+00 
    1.9927616323983863E+00 
    1.9857950749740600E+00 
    1.8949725610231289E+00 
    2.0334215960339659E+00 
    1.8814046974852461E+00 
    1.8828696009539789E+00 
    1.9637230969151926E+00 
    1.9614465714504921E+00 
    1.8862287235422395E+00 
    1.8948790940216380E+00 
    1.9496976311879237E+00 
    1.9507014075975480E+00 
    1.8890820024651185E+00 
    1.8721061260575214E+00 
    1.9985006021168632E+00 
    2.0087495282971770E+00 
    1.9567932988937231E+00 
    1.9556169682411113E+00 
    1.9141881601584820E+00 
    1.8980231107239551E+00 
    1.9273120943646904E+00 
    2.0311092573642076E+00 
    1.9531368090669607E+00 
    1.9818182578081911E+00 
    1.8936385513875758E+00 
    1.8819714306411894E+00 
    1.8810709804286951E+00 
    1.9088568176032610E+00 
    2.1608841069464626E+00 
    1.9615457338054456E+00 
    2.0842793388237566E+00 
    2.0054259274420314E+00 
    2.0818039026859894E+00 
    1.9576285375366593E+00 
    2.0237043645237858E+00 
    1.8959208165916075E+00 
    2.0396500121407031E+00 
    1.9195192171754203E+00 
    1.9739670686770674E+00 
    1.9973032327919285E+00 
    1.8768918241163113E+00 
    1.9863657368785583E+00 
    1.9176086691742675E+00 
    1.9445978466515172E+00 
    1.9885955939798303E+00 
    2.0065450148072523E+00 
    1.9985263184812390E+00 
    1.9824449862430182E+00 
    1.9793097507453490E+00 
    1.9212147818295544E+00 
    1.9968827444928838E+00 
    1.9466171534209766E+00 
    1.8859952840393888E+00 
    1.9341362186872844E+00 
    1.9678097683495324E+00 
    2.0178643927472053E+00 
    1.9373852443227146E+00 
    2.0287132924915552E+00 
    1.9948866412135753E+00 
    2.0090073772961294E+00 
    2.0102160968813729E+00 
    1.9469949977325838E+00 
    1.9963901002831153E+00 
    1.9720158160496379E+00 
    2.0185044152875782E+00 
    1.9058194888532938E+00 
    2.1926738406055670E+00 
    1.9236938175060618E+00 
    1.9669647501397474E+00 
    1.9941981861438303E+00 
    2.0438809147615418E+00 
    2.0943367195283704E+00 
    1.9286663937808803E+00 
    1.9969910840342167E+00 
    1.9940607704695796E+00 
    1.9392079597545799E+00 
    1.9117322495336841E+00 
    1.9526276094855934E+00 
    2.0079059438875615E+00 
    1.9119369347155897E+00 
    2.0696680848354445E+00 
    1.9708924350620436E+00 
    2.0083557048410214E+00 
    1.9543435881638138E+00 
    1.9119581574230560E+00 
    1.9426535956186362E+00 
    1.9192363317460859E+00 
    2.0907344632948934E+00 
    2.1027877975216738E+00 
    1.8906944940518062E+00 
    2.0310729029851609E+00 
    2.0181305004127332E+00 
    1.9554064496955068E+00 
    2.0009898385385658E+00 
    1.9109041354393246E+00 
    2.0166936309844350E+00 
    2.0751146563248835E+00 
    1.9849844825185032E+00 
    2.1163607499995414E+00 
    2.0845192031035076E+00 
    1.9708055819672063E+00 
    1.9289564901560512E+00 
    1.9671814704557073E+00 
    1.9952131570414557E+00 
    2.0155358821106049E+00 
    1.9466418362434759E+00 
    1.9839696976637560E+00 
    1.9889098398980600E+00 
    2.0760429396891720E+00 
    2.1480159049664578E+00 
    1.9461134376927305E+00 
    1.9540922913749925E+00 
    2.1313292519054365E+00 
    1.9184630445606137E+00 
    1.9914219972606548E+00 
    1.9500183020810038E+00 
    2.0692804028849139E+00 
    2.2724420181246248E+00 
    2.2119403955034120E+00 
    2.1516659755798888E+00 
    2.1720163072169618E+00 
    2.1238511687092156E+00 
    2.1400992041698657E+00 
    1.9933190473834468E+00 
    2.1860606460329204E+00 
    1.9855721044622947E+00 
    2.1330707988295767E+00 
    1.9858557571561961E+00 
    2.0629555352504165E+00 
    2.0801371539138924E+00 
    2.0212165109401581E+00 
    2.0559802021710349E+00 
    1.9360893211765142E+00 
    2.0588123808161125E+00 
    1.9773591439592004E+00 
    1.9841320805166209E+00 
    1.9831343831002073E+00 
    2.0051463802685818E+00 
    1.9342687432800627E+00 
    2.0636688861421546E+00 
    2.0073180331572433E+00 
    2.0039854177321850E+00 
    1.8704535785862924E+00 
    2.0262172057141572E+00 
    2.0863436217487505E+00 
    1.9409152434539263E+00 
    2.0462257622501361E+00 
    2.1007430509678868E+00 
    2.1225354125502629E+00 
    2.0055511024886727E+00 
    1.9552633351707380E+00 
    1.9272573887947200E+00 
    1.9430304946231478E+00 
    2.0327011382169111E+00 
    1.9986317237226119E+00 
    1.9522889668397114E+00 
    2.0368615189464379E+00 
    1.9771990898557530E+00 
    1.9450317968402171E+00 
    2.0051662544864222E+00 
    1.8971152281515238E+00 
    1.9443661871599651E+00 
    2.1043365352083998E+00 
    2.0320302515927793E+00 
    1.9372633568621187E+00 
    2.0540691738787231E+00 
    2.0467417720078065E+00 
    1.9493758585633723E+00 
    1.9679717447516034E+00 
    1.9731026157362386E+00 
    2.0229565825002136E+00 
    2.0195111110317070E+00 
    2.0796869432318599E+00 
    1.9637149495405766E+00 
    2.0200673328242837E+00 
    2.0333319521374724E+00 
    1.9534676702104672E+00 
    1.9598654331889311E+00 
    1.8637401478100553E+00 
    1.9552386092832426E+00 
    2.1133823983394389E+00 
    1.9982333376976733E+00 
    2.0189232692710410E+00 
    1.9772506043432165E+00 
    2.0190495357731559E+00 
    1.9433479124090833E+00 
    1.9323980120219399E+00 
    1.9102300700551782E+00 
    1.9407341611819977E+00 
    1.9140328611269242E+00 
    1.9640552004169665E+00 
    2.0067075999030655E+00 
    1.9251787517011723E+00 
    2.0487331470072987E+00 
    2.0508107473760142E+00 
    1.9609931589923917E+00 
    1.9327092354546020E+00 
    2.0067551196516482E+00 
    1.9491375672692932E+00 
    1.9026313891544904E+00 
    1.9433396774707663E+00 
    1.9078125591284201E+00 
    1.9083040353670120E+00 
    1.9530239608237994E+00 
    1.9943925560021327E+00 
    2.0668776101622033E+00 
    1.8988334535302489E+00 
    1.9417218695083320E+00 
    1.9223377178109313E+00 
    1.9413265704482043E+00 
    2.1600016396437653E+00 
    1.9123152341146492E+00 
    1.9728805076484424E+00 
    1.9216631865843730E+00 
    1.9548298988367097E+00 
    1.9301455130078573E+00 
    1.9622610603306114E+00 
    1.9215058236118356E+00 
    1.9591086626631762E+00 
    1.9316365343776367E+00 
    1.9621878185702022E+00 
    1.9279137638315962E+00 
    1.9270608652030830E+00 
    1.9073573752528643E+00 
    1.9161835354411276E+00 
    2.0488074434379158E+00 
    1.8909261836200471E+00 
    1.8987533255538012E+00 
    1.9379129702791369E+00 
    1.9249263924614934E+00 
    2.2279629783862176E+00 
    1.9404115881743771E+00 
    2.0215779212965455E+00 
    1.9338843027702086E+00 
    1.8867550247580998E+00 
    1.9516278959909712E+00 
    1.9170810040059822E+00 
    1.9647720152135433E+00 
    1.9283398700937795E+00 
    1.9287355859039295E+00 
    1.9387265728440548E+00 
    1.9094955820225958E+00 
    1.9402486524367248E+00 
    1.9292235306001182E+00 
    1.8913702513515480E+00 
    1.9199229650352152E+00 
    1.9199906303677066E+00 
    1.9357464296025462E+00 
    1.8850149572094350E+00 
    1.9224333793914392E+00 
    1.9356258664347472E+00 
    1.9638697516929873E+00 
    1.9115232008257432E+00 
    1.9016433857860058E+00 
    2.0325491542867211E+00 
    1.9122594583562753E+00 
    1.9834902196563220E+00 
    2.2280212692508270E+00 
    2.0427022303474578E+00 
    1.9841524405051731E+00 
    2.0631984138287938E+00 
    1.9254520640523127E+00 
    1.9200268737601194E+00 
    1.9007378837166624E+00 
    1.9037422517184863E+00 
    1.9047804498673861E+00 
    1.8986544245158712E+00 
    2.0662896792717116E+00 
    1.9023854908083060E+00 
    1.9526387952051867E+00 
    2.0469358964937934E+00 
    1.9635122941263972E+00 
    1.9118343957124313E+00 
    2.0155894742224429E+00 
    1.8967847988506010E+00 
    1.8972426179996122E+00 
    1.9050153353798009E+00 
    2.1959713809976988E+00 
    1.9953281666463418E+00 
    2.0562053688061517E+00 
    2.0615980509043208E+00 
    1.9720244912885323E+00 
    2.0343622892777460E+00 
    1.9146058320813553E+00 
    1.8577191299115698E+00 
    2.3715054326853546E+00 
    1.8768801282647176E+00 
    1.8900204590353631E+00 
    1.8896286744492115E+00 
    1.9851876409103071E+00 
    2.0460108334314855E+00 
    1.8576323949778664E+00 
    2.0966715792167192E+00 
    2.1176948711298991E+00 
    1.9727456460415924E+00 
    1.9290284240681870E+00 
    2.0837747360539645E+00 
    1.9745511343912456E+00 
    1.9059650801448578E+00 
    2.0558535396487794E+00 
    1.8831022522743661E+00 
    1.8824179352274377E+00 
    1.9829327400711292E+00 
    1.9367839324770253E+00 
    1.8644188584517172E+00 
    1.9287888342427764E+00 
    1.8715863344992285E+00 
    2.0743010836683493E+00 
    1.8766908965341453E+00 
    1.9195934563093502E+00 
    2.0442031747019853E+00 
    1.9365975148450056E+00 
    1.9746705232666597E+00 
    1.8755417202156419E+00 
    1.9563114670678603E+00 
    1.9613362325468653E+00 
    1.9069482469943790E+00 
    1.9370227965282059E+00 
    2.0504777623758668E+00 
    1.8711466313017857E+00 
    1.9351271488319688E+00 
    1.9106139663859032E+00 
    1.9111848367296838E+00 
    1.9501853936261178E+00 
    1.9050220221667276E+00 
    1.9422792129156949E+00 
    2.0625973179116643E+00 
    2.0770327803641724E+00 
    1.8691386560083876E+00 
    2.2391342317983298E+00 
    1.9547320770768262E+00 
    1.9225830388739473E+00 
    2.1045885446590220E+00 
    1.9782151049891967E+00 
    1.9925352959873672E+00 
    1.9106856930281535E+00 
    1.9041880783843095E+00 
    2.0099708151490425E+00 
    1.9733871314585334E+00 
    1.8648652978694875E+00 
    1.9103679368521804E+00 
    2.1320769074476469E+00 
    1.9688359731622871E+00 
    2.0381408892363733E+00 
    1.9833908977855361E+00 
    2.0510781196433001E+00 
    2.0099210502808349E+00 
    1.8636146232806572E+00 
    1.8923215261351514E+00 
    1.9305456626913118E+00 
    2.0785174850419987E+00 
    2.0362671333044724E+00 
    1.9272390435564946E+00 
    1.9051498959567221E+00 
    1.9259290065267662E+00 
    1.9151477157521726E+00 
    2.0219959058570183E+00 
    1.9075557842507171E+00 
    1.9914671427491690E+00 
    2.1722887786724598E+00 
    1.9025188555745947E+00 
    2.1371498282159638E+00 
    1.9452921157439542E+00 
    2.1519938229973898E+00 
    2.0460842472597425E+00 
    2.2845808041998086E+00 
    1.9201926935785210E+00 
    2.0343062485713856E+00 
    1.9619129520642100E+00 
    1.8988404977430711E+00 
    2.0601060736711503E+00 
    1.9542927195599256E+00 
    2.0689088898228976E+00 
    1.9019614170221188E+00 
    2.0367983771153266E+00 
    1.9460234071958575E+00 
    1.9761395231342820E+00 
    1.8757725158132053E+00 
    1.9052237997448849E+00 
    1.8947476011965148E+00 
    2.0991960553948714E+00 
    1.9219207244076439E+00 
    2.1633910126016378E+00 
    2.1158278125116925E+00 
    1.9133502713394586E+00 
    1.9442933602462005E+00 
    1.9309423056802195E+00 
    1.8744470438401388E+00 
    1.9490127118947618E+00 
    2.0498234819394954E+00 
    1.9126654032571977E+00 
    1.8817927636089145E+00 
    2.1911428500898062E+00 
    2.0219953436545071E+00 
    1.8579429147897824E+00 
    1.8578031289911743E+00 
    1.8908560345332279E+00 
    1.8964157355097200E+00 
    1.8800793420400623E+00 
    1.8715957639120209E+00 
    1.9270878687102211E+00 
    1.9182010073911924E+00 
    1.8521614627775433E+00 
    1.8522879600110758E+00 
    1.8245243750025342E+00 
    1.7753323708596853E+00 
    1.7698887253230955E+00 
    1.7749918388651569E+00 
    1.7905264942723085E+00 
    1.7885337904024643E+00 
    1.8350826662465203E+00 
    1.7582819982480786E+00 
    1.8239454494504146E+00 
    1.7620473825864742E+00 
    1.8078220317061651E+00 
    1.7857505654565813E+00 
    1.7837457553347527E+00 
    1.7644431042441153E+00 
    1.7579468272451173E+00 
    1.8690738027542741E+00 
    1.8328119054443597E+00 
    1.8531804120964031E+00 
    1.8292014431538135E+00 
    1.7966895825098186E+00 
    1.7574913608743803E+00 
    1.7549519359484678E+00 
    1.8656150029434320E+00 
    1.8055143631067048E+00 
    1.7567620236465367E+00 
    1.7907430625689817E+00 
    1.8464253312635159E+00 
    1.8461309238669805E+00 
    1.7472735918137150E+00 
    1.7560787692875954E+00 
    1.8076543936809228E+00 
    1.8541814547513922E+00 
    1.8347705621042831E+00 
    1.7973614726180225E+00 
    1.7764227643878447E+00 
    1.8760191674118720E+00 
    1.8552201772685617E+00 
    1.8462279133117612E+00 
    1.8894471781035016E+00 
    1.7759025913629858E+00 
    1.7881191211489638E+00 
    1.7842375120790803E+00 
    1.8638835860160872E+00 
    1.7870828834164072E+00 
    1.8499760269402887E+00 
    1.8181719004594705E+00 
    1.8152523511387124E+00 
    1.8036339571349855E+00 
    1.8072761203876588E+00 
    1.8547798617180802E+00 
    1.8515825102550634E+00 
    1.8129018130380017E+00 
    1.7708671356115882E+00 
    1.8051779484519159E+00 
    1.8009442991087150E+00 
    1.7591411859261739E+00 
    1.8373877333117539E+00 
    1.7614981070288074E+00 
    1.8544984968331830E+00 
    1.7640154434988178E+00 
    1.8245691149632364E+00 
    1.7806923301200173E+00 
    1.7453925139931645E+00 
    1.7464963695722069E+00 
    1.7459428515525259E+00 
    1.7388590805300044E+00 
    1.8035854582811934E+00 
    1.7395853175740790E+00 
    1.7566719603317584E+00 
    1.7585078281600894E+00 
    1.8798264175920398E+00 
    1.8073586071118048E+00 
    1.7580894961014042E+00 
    1.8540647902189691E+00 
    1.7919822234368132E+00 
    1.7778489387466065E+00 
    1.8398726172911772E+00 
    1.8774780878998438E+00 
    1.8288153462546628E+00 
    1.8310268281033255E+00 
    1.8120364398268622E+00 
    1.8232913669655970E+00 
    1.8429794137781987E+00 
    1.8407617946307377E+00 
    1.8383947542976711E+00 
    1.8418483857373080E+00 
    1.8157167971084691E+00 
    1.8517972381259908E+00 
    1.8513760821009393E+00 
    1.8264344120397766E+00 
    1.8334518118165788E+00 
    1.8684734546900796E+00 
    1.8420481162989286E+00 
    1.8492701646390706E+00 
    1.8715233297643792E+00 
    1.7909734608207559E+00 
    1.7814488955588765E+00 
    1.8251267476568562E+00 
    1.8554903763154449E+00 
    1.8779798818883471E+00 
    1.8518940218758939E+00 
    1.7462222374920300E+00 
    1.7798278531226255E+00 
    1.8235399038041817E+00 
    1.8010436661040927E+00 
    1.7646625121055988E+00 
    1.8428794214163084E+00 
    1.8224308731941781E+00 
    1.7644590766668329E+00 
    1.8350682898339019E+00 
    1.7728194513161797E+00 
    1.7830427281257464E+00 
    1.7796916528248041E+00 
    1.8275199345979418E+00 
    1.8502011220039121E+00 
    1.8659794561200991E+00 
    1.8415234012602282E+00 
    1.8613909718490398E+00 
    1.7711210174874530E+00 
    1.7589815902807697E+00 
    1.8657028660016377E+00 
    1.8379543425142082E+00 
    1.7462739246991810E+00 
    1.7451927390200102E+00 
    1.8746963018178853E+00 
    1.8170055385614003E+00 
    1.8439347699866162E+00 
    1.8229976093472742E+00 
    1.7932760821361382E+00 
    1.8257194455062746E+00 
    1.8362471969451324E+00 
    1.8148271951215971E+00 
    1.8105826634310487E+00 
    1.8103774147097220E+00 
    1.7372320182840735E+00 
    1.8583390384176692E+00 
    1.8898505670600185E+00 
    1.7379068017291579E+00 
    1.7375194799371125E+00 
    1.7387136707190507E+00 
    1.7378981449340276E+00 
    1.7446486332694517E+00 
    1.8447555278413159E+00 
    1.7951862638846696E+00 
    1.7550015646962538E+00 
    1.8345565328520745E+00 
    1.8327072177611747E+00 
    1.7880683287065779E+00 
    1.8026799028006206E+00 
    1.7956075885638911E+00 
    1.8137427672821582E+00 
    1.8630716362329001E+00 
    1.7374063654992484E+00 
    1.7383424551640927E+00 
    1.7737123135754564E+00 
    1.8072577347036745E+00 
    1.8474505665718763E+00 
    1.7562594350257319E+00 
    1.8653329666196816E+00 
    1.7419941124947895E+00 
    1.7900797870687117E+00 
    1.7460859689688746E+00 
    1.7452173080430433E+00 
    1.7533573636114606E+00 
    1.8660421515874337E+00 
    1.8224906753767789E+00 
    1.7993157565011846E+00 
    1.8157792289810173E+00 
    1.8312309347842071E+00 
    1.7440799007497525E+00 
    1.7974985349738000E+00 
    1.8231330683148279E+00 
    1.8652247511737081E+00 
    1.8579505402814160E+00 
    1.8551297273340168E+00 
    1.8658299568182832E+00 
    1.8709455125531305E+00 
    1.8117564998989149E+00 
    1.7581734806560687E+00 
    1.8299723405461732E+00 
    1.8285035776519178E+00 
    1.7928234435675741E+00 
    1.7435485365336953E+00 
    1.8262217550541371E+00 
    1.8387904002917113E+00 
    1.8454750880511910E+00 
    1.8353430719091253E+00 
    1.7446116578395210E+00 
    1.8311657187449706E+00 
    1.8274960219989764E+00 
    1.7534718217104064E+00 
    1.7664121238920723E+00 
    1.8228849951460839E+00 
    1.8338062679554026E+00 
    1.8295425134945820E+00 
    1.8399180192960938E+00 
    1.8391360868521580E+00 
    1.8639367361129526E+00 
    1.8256408612779227E+00 
    1.8496691573095929E+00 
    1.8193469026954934E+00 
    1.8312278918322697E+00 
    1.7412581101170723E+00 
    1.8763198106275158E+00 
    1.8606835006966618E+00 
    1.8700853041534848E+00 
    1.7934663653561860E+00 
    1.7826563087938254E+00 
    1.7703676184743586E+00 
    1.8437460661653575E+00 
    1.8231400295981657E+00 
    1.8466791147218748E+00 
    1.7861604024107895E+00 
    1.7540701090000836E+00 
    1.7651709856502298E+00 
    1.8551314020427605E+00 
    1.7614512013551380E+00 
    1.8123222655735527E+00 
    1.7721389129488809E+00 
    1.8539293398225494E+00 
    1.8210084766759689E+00 
    1.8101657335039931E+00 
    1.8723899503385015E+00 
    1.8673188662284645E+00 
    1.8009750902055550E+00 
    1.7936118063904622E+00 
    1.7775216871994288E+00 
    1.8056318258133472E+00 
    1.8461419131138341E+00 
    1.7392599970107006E+00 
    1.8623019949299913E+00 
    1.8724068872807529E+00 
    1.7994217879578316E+00 
    1.7955552369341319E+00 
    1.7548806014142198E+00 
    1.7433870342953497E+00 
    1.8692398778845001E+00 
    1.7830401575325023E+00 
    1.8237032575365513E+00 
    1.7999036418436107E+00 
    1.8324323552942414E+00 
    1.7662846127763605E+00 
    1.8138919588528837E+00 
    1.8689425051170898E+00 
    1.7747421663674203E+00 
    1.7984349110428643E+00 
    1.7720331902596225E+00 
    1.8058296430921212E+00 
    1.8741097888600049E+00 
    1.7790863243452586E+00 
    1.8222345094505492E+00 
    1.7877951600014232E+00 
    1.7556765696982961E+00 
    1.8397331851103857E+00 
    1.8393655522870536E+00 
    1.8287692705424785E+00 
    1.7866690163617149E+00 
    1.7844603817703797E+00 
    1.7596782830517446E+00 
    1.8246143600706612E+00 
    1.8389549640456611E+00 
    1.8113563429391639E+00 
    1.7572156392432927E+00 
    1.7814768804947125E+00 