# vtk DataFile Version 2.0
Pressure Field Data 
ASCII 
DATASET UNSTRUCTURED_GRID 

POINTS 2213 double 

    0.0000000000000000E+00     0.0000000000000000E+00     0.0000000000000000E+00 
    5.0000000000000000E-01     0.0000000000000000E+00     0.0000000000000000E+00 
    1.0000000000000000E+00     0.0000000000000000E+00     0.0000000000000000E+00 
    1.0000000000000000E+00     5.0000000000000000E-01     0.0000000000000000E+00 
    1.0000000000000000E+00     1.0000000000000000E+00     0.0000000000000000E+00 
    5.0000000000000000E-01     1.0000000000000000E+00     0.0000000000000000E+00 
    0.0000000000000000E+00     1.0000000000000000E+00     0.0000000000000000E+00 
    0.0000000000000000E+00     5.0000000000000000E-01     0.0000000000000000E+00 
    1.5624999999971041E-02     0.0000000000000000E+00     0.0000000000000000E+00 
    3.1249999999936742E-02     0.0000000000000000E+00     0.0000000000000000E+00 
    4.6874999999913257E-02     0.0000000000000000E+00     0.0000000000000000E+00 
    6.2499999999889783E-02     0.0000000000000000E+00     0.0000000000000000E+00 
    7.8124999999844805E-02     0.0000000000000000E+00     0.0000000000000000E+00 
    9.3749999999799827E-02     0.0000000000000000E+00     0.0000000000000000E+00 
    1.0937499999975490E-01     0.0000000000000000E+00     0.0000000000000000E+00 
    1.2499999999970990E-01     0.0000000000000000E+00     0.0000000000000000E+00 
    1.4062499999966460E-01     0.0000000000000000E+00     0.0000000000000000E+00 
    1.5624999999961930E-01     0.0000000000000000E+00     0.0000000000000000E+00 
    1.7187499999957390E-01     0.0000000000000000E+00     0.0000000000000000E+00 
    1.8749999999952860E-01     0.0000000000000000E+00     0.0000000000000000E+00 
    2.0312499999948330E-01     0.0000000000000000E+00     0.0000000000000000E+00 
    2.1874999999943801E-01     0.0000000000000000E+00     0.0000000000000000E+00 
    2.3437499999939271E-01     0.0000000000000000E+00     0.0000000000000000E+00 
    2.4999999999934730E-01     0.0000000000000000E+00     0.0000000000000000E+00 
    2.6562499999938810E-01     0.0000000000000000E+00     0.0000000000000000E+00 
    2.8124999999942890E-01     0.0000000000000000E+00     0.0000000000000000E+00 
    2.9687499999946970E-01     0.0000000000000000E+00     0.0000000000000000E+00 
    3.1249999999951050E-01     0.0000000000000000E+00     0.0000000000000000E+00 
    3.2812499999955130E-01     0.0000000000000000E+00     0.0000000000000000E+00 
    3.4374999999959210E-01     0.0000000000000000E+00     0.0000000000000000E+00 
    3.5937499999963290E-01     0.0000000000000000E+00     0.0000000000000000E+00 
    3.7499999999967371E-01     0.0000000000000000E+00     0.0000000000000000E+00 
    3.9062499999971451E-01     0.0000000000000000E+00     0.0000000000000000E+00 
    4.0624999999975520E-01     0.0000000000000000E+00     0.0000000000000000E+00 
    4.2187499999979600E-01     0.0000000000000000E+00     0.0000000000000000E+00 
    4.3749999999983680E-01     0.0000000000000000E+00     0.0000000000000000E+00 
    4.5312499999987760E-01     0.0000000000000000E+00     0.0000000000000000E+00 
    4.6874999999991840E-01     0.0000000000000000E+00     0.0000000000000000E+00 
    4.8437499999995920E-01     0.0000000000000000E+00     0.0000000000000000E+00 
    5.1562499999992384E-01     0.0000000000000000E+00     0.0000000000000000E+00 
    5.3124999999985478E-01     0.0000000000000000E+00     0.0000000000000000E+00 
    5.4687499999994527E-01     0.0000000000000000E+00     0.0000000000000000E+00 
    5.6249999999998668E-01     0.0000000000000000E+00     0.0000000000000000E+00 
    5.7812499999998068E-01     0.0000000000000000E+00     0.0000000000000000E+00 
    5.9374999999994749E-01     0.0000000000000000E+00     0.0000000000000000E+00 
    6.0937499999997913E-01     0.0000000000000000E+00     0.0000000000000000E+00 
    6.2500000000000000E-01     0.0000000000000000E+00     0.0000000000000000E+00 
    6.4062499999998945E-01     0.0000000000000000E+00     0.0000000000000000E+00 
    6.5624999999996603E-01     0.0000000000000000E+00     0.0000000000000000E+00 
    6.7187499999995337E-01     0.0000000000000000E+00     0.0000000000000000E+00 
    6.8749999999998734E-01     0.0000000000000000E+00     0.0000000000000000E+00 
    7.0312499999998124E-01     0.0000000000000000E+00     0.0000000000000000E+00 
    7.1874999999997025E-01     0.0000000000000000E+00     0.0000000000000000E+00 
    7.3437499999999034E-01     0.0000000000000000E+00     0.0000000000000000E+00 
    7.5000000000000000E-01     0.0000000000000000E+00     0.0000000000000000E+00 
    7.6562499999996902E-01     0.0000000000000000E+00     0.0000000000000000E+00 
    7.8124999999993228E-01     0.0000000000000000E+00     0.0000000000000000E+00 
    7.9687499999989997E-01     0.0000000000000000E+00     0.0000000000000000E+00 
    8.1249999999996247E-01     0.0000000000000000E+00     0.0000000000000000E+00 
    8.2812499999999578E-01     0.0000000000000000E+00     0.0000000000000000E+00 
    8.4374999999999556E-01     0.0000000000000000E+00     0.0000000000000000E+00 
    8.5937500000000111E-01     0.0000000000000000E+00     0.0000000000000000E+00 
    8.7499999999997691E-01     0.0000000000000000E+00     0.0000000000000000E+00 
    8.9062500000000921E-01     0.0000000000000000E+00     0.0000000000000000E+00 
    9.0625000000004452E-01     0.0000000000000000E+00     0.0000000000000000E+00 
    9.2187500000005529E-01     0.0000000000000000E+00     0.0000000000000000E+00 
    9.3750000000012723E-01     0.0000000000000000E+00     0.0000000000000000E+00 
    9.5312500000011835E-01     0.0000000000000000E+00     0.0000000000000000E+00 
    9.6875000000005151E-01     0.0000000000000000E+00     0.0000000000000000E+00 
    9.8437500000003086E-01     0.0000000000000000E+00     0.0000000000000000E+00 
    1.0000000000000000E+00     1.5624999999971041E-02     0.0000000000000000E+00 
    1.0000000000000000E+00     3.1249999999936742E-02     0.0000000000000000E+00 
    1.0000000000000000E+00     4.6874999999913257E-02     0.0000000000000000E+00 
    1.0000000000000000E+00     6.2499999999889783E-02     0.0000000000000000E+00 
    1.0000000000000000E+00     7.8124999999844805E-02     0.0000000000000000E+00 
    1.0000000000000000E+00     9.3749999999799827E-02     0.0000000000000000E+00 
    1.0000000000000000E+00     1.0937499999975490E-01     0.0000000000000000E+00 
    1.0000000000000000E+00     1.2499999999970990E-01     0.0000000000000000E+00 
    1.0000000000000000E+00     1.4062499999966460E-01     0.0000000000000000E+00 
    1.0000000000000000E+00     1.5624999999961930E-01     0.0000000000000000E+00 
    1.0000000000000000E+00     1.7187499999957390E-01     0.0000000000000000E+00 
    1.0000000000000000E+00     1.8749999999952860E-01     0.0000000000000000E+00 
    1.0000000000000000E+00     2.0312499999948330E-01     0.0000000000000000E+00 
    1.0000000000000000E+00     2.1874999999943801E-01     0.0000000000000000E+00 
    1.0000000000000000E+00     2.3437499999939271E-01     0.0000000000000000E+00 
    1.0000000000000000E+00     2.4999999999934730E-01     0.0000000000000000E+00 
    1.0000000000000000E+00     2.6562499999938810E-01     0.0000000000000000E+00 
    1.0000000000000000E+00     2.8124999999942890E-01     0.0000000000000000E+00 
    1.0000000000000000E+00     2.9687499999946970E-01     0.0000000000000000E+00 
    1.0000000000000000E+00     3.1249999999951050E-01     0.0000000000000000E+00 
    1.0000000000000000E+00     3.2812499999955130E-01     0.0000000000000000E+00 
    1.0000000000000000E+00     3.4374999999959210E-01     0.0000000000000000E+00 
    1.0000000000000000E+00     3.5937499999963290E-01     0.0000000000000000E+00 
    1.0000000000000000E+00     3.7499999999967371E-01     0.0000000000000000E+00 
    1.0000000000000000E+00     3.9062499999971451E-01     0.0000000000000000E+00 
    1.0000000000000000E+00     4.0624999999975520E-01     0.0000000000000000E+00 
    1.0000000000000000E+00     4.2187499999979600E-01     0.0000000000000000E+00 
    1.0000000000000000E+00     4.3749999999983680E-01     0.0000000000000000E+00 
    1.0000000000000000E+00     4.5312499999987760E-01     0.0000000000000000E+00 
    1.0000000000000000E+00     4.6874999999991840E-01     0.0000000000000000E+00 
    1.0000000000000000E+00     4.8437499999995920E-01     0.0000000000000000E+00 
    1.0000000000000000E+00     5.1562499999992384E-01     0.0000000000000000E+00 
    1.0000000000000000E+00     5.3124999999985478E-01     0.0000000000000000E+00 
    1.0000000000000000E+00     5.4687499999994527E-01     0.0000000000000000E+00 
    1.0000000000000000E+00     5.6249999999998668E-01     0.0000000000000000E+00 
    1.0000000000000000E+00     5.7812499999998068E-01     0.0000000000000000E+00 
    1.0000000000000000E+00     5.9374999999994749E-01     0.0000000000000000E+00 
    1.0000000000000000E+00     6.0937499999997913E-01     0.0000000000000000E+00 
    1.0000000000000000E+00     6.2500000000000000E-01     0.0000000000000000E+00 
    1.0000000000000000E+00     6.4062499999998945E-01     0.0000000000000000E+00 
    1.0000000000000000E+00     6.5624999999996603E-01     0.0000000000000000E+00 
    1.0000000000000000E+00     6.7187499999995337E-01     0.0000000000000000E+00 
    1.0000000000000000E+00     6.8749999999998734E-01     0.0000000000000000E+00 
    1.0000000000000000E+00     7.0312499999998124E-01     0.0000000000000000E+00 
    1.0000000000000000E+00     7.1874999999997025E-01     0.0000000000000000E+00 
    1.0000000000000000E+00     7.3437499999999034E-01     0.0000000000000000E+00 
    1.0000000000000000E+00     7.5000000000000000E-01     0.0000000000000000E+00 
    1.0000000000000000E+00     7.6562499999996902E-01     0.0000000000000000E+00 
    1.0000000000000000E+00     7.8124999999993228E-01     0.0000000000000000E+00 
    1.0000000000000000E+00     7.9687499999989997E-01     0.0000000000000000E+00 
[...]
CELL_DATA 2084 
SCALARS Pressure double 1 
LOOKUP_TABLE default 

    2.0893731322793756E+00 
    2.1141400243717854E+00 
    2.2919057305895030E+00 
    2.1148117623690359E+00 
    2.2117194660266954E+00 
    2.1708320564960162E+00 
    2.0645445990648326E+00 
    2.1566904970793384E+00 
    2.1660455393190849E+00 
    2.2157593762792906E+00 
    2.2862141004507053E+00 
    2.0772752501336518E+00 
    2.1466006453796020E+00 
    2.1117743862243592E+00 
    2.0849524135602047E+00 
    2.1024475430263019E+00 
    2.2476104850757737E+00 
    2.1299982271274884E+00 
    2.3175766288167265E+00 
    2.0954347666098774E+00 
    2.0987064749613955E+00 
    2.1957298724154071E+00 
    2.1009727517074515E+00 
    2.1429454628363072E+00 
    2.0922253932683117E+00 
    2.1443474261802971E+00 
    2.1076319557760312E+00 
    2.0675030686766869E+00 
    2.1506060054925862E+00 
    2.1201785482726097E+00 
    2.0578614996527964E+00 
    2.1572677497323101E+00 
    2.0474746317178214E+00 
    2.0980323597805639E+00 
    2.0804422500445230E+00 
    2.2058826816535970E+00 
    2.1251532931892054E+00 
    2.1213260460619132E+00 
    2.1957121121225747E+00 
    2.1581749257209148E+00 
    2.0695850608981932E+00 
    2.2201137992035145E+00 
    2.0925089209038576E+00 
    2.1771053954368891E+00 
    2.1699749764670551E+00 
    2.0759813438846964E+00 
    2.2185738438417957E+00 
    2.0618344862647300E+00 
    2.0633676254763387E+00 
    2.1472906361796102E+00 
    2.1449477263807823E+00 
    2.0668755577348414E+00 
    2.0759203806923643E+00 
    2.1328358798851901E+00 
    2.1338762612276785E+00 
    2.0698683576215737E+00 
    2.0520906781122599E+00 
    2.1829759639841937E+00 
    2.1934404000629248E+00 
    2.1401450358035654E+00 
    2.1389485571369291E+00 
    2.0960420798651596E+00 
    2.0791977680255465E+00 
    2.1096688551295375E+00 
    2.2162231788212430E+00 
    2.1363785660053654E+00 
    2.1658809121514127E+00 
    2.0746113660621934E+00 
    2.0624104419011977E+00 
    2.0614741582540512E+00 
    2.0904940585334155E+00 
    2.3471712680917327E+00 
    2.1450544499061923E+00 
    2.2700748511816440E+00 
    2.1900513070796381E+00 
    2.2675808271944597E+00 
    2.1410161822562324E+00 
    2.2086894822821819E+00 
    2.0770032587860139E+00 
    2.2248992882076655E+00 
    2.1015799366302224E+00 
    2.1578331108741540E+00 
    2.1817433153728802E+00 
    2.0570997300543805E+00 
    2.1705478609272717E+00 
    2.0995939007230309E+00 
    2.1275604370716463E+00 
    2.1728412690128134E+00 
    2.1912061478392841E+00 
    2.1830076209872495E+00 
    2.1665312515082435E+00 
    2.1633095068067303E+00 
    2.1032813346150965E+00 
    2.1813120078664610E+00 
    2.1296581094432718E+00 
    2.0666178702869633E+00 
    2.1167424293877257E+00 
    2.1514914707558166E+00 
    2.2027521432481203E+00 
    2.1201071252932517E+00 
    2.2137844970270320E+00 
    2.1792754396486940E+00 
    2.1937046082596958E+00 
    2.1949403930539888E+00 
    2.1300457906085128E+00 
    2.1808115901974667E+00 
    2.1558187502390149E+00 
    2.2033916502029234E+00 
    2.0873288791414688E+00 
    2.3790675493042595E+00 
    2.1059095778977661E+00 
    2.1506263287225083E+00 
    2.1785837061453881E+00 
    2.2291932192195176E+00 
    2.2802288289771568E+00 
    2.1110761029866114E+00 
    2.1814304865638223E+00 
    2.1784359763019530E+00 
    2.1219900463947159E+00 
    2.0934081899722727E+00 
    2.1358543352369814E+00 
    2.1925823805787537E+00 
    2.0936215602947277E+00 
    2.2553157659583514E+00 
    2.1546728956153500E+00 
    2.1930538202793826E+00 
    2.1376313858918325E+00 
    2.0936424342056386E+00 
    2.1255495310824499E+00 
    2.1012807503391615E+00 
    2.2765974206413238E+00 
    2.2887483338688401E+00 
    2.0715212616604823E+00 
    2.2161831370085974E+00 
    2.2030086433217506E+00 
    2.1387286130683312E+00 
    2.1855178020302333E+00 
    2.0925484490639374E+00 
    2.2015448924557757E+00 
    2.2608209927330782E+00 
    2.1691296901009083E+00 
    2.3024220195240579E+00 
    2.2703221254074339E+00 
    2.1545691141751275E+00 
    2.1113703118807079E+00 
    2.1508320973614299E+00 
    2.1796047975025608E+00 
    2.2003770907459237E+00 
    2.1296851394244993E+00 
    2.1680852714723984E+00 
    2.1731660702512121E+00 
    2.2617649319942612E+00 
    2.3342529845897304E+00 
    2.1291205780088309E+00 
    2.1373417291440391E+00 
    2.3174784023454742E+00 
    2.1004856571238042E+00 
    2.1757316398136965E+00 
    2.1331331503948787E+00 
    2.2549231987852889E+00 
    2.4589716267803179E+00 
    2.3983758670539439E+00 
    2.3379120269659825E+00 
    2.3583450498696537E+00 
    2.3099512255059880E+00 
    2.3262937908300119E+00 
    2.1776677720089839E+00 
    2.3724308103287162E+00 
    2.1697264694733644E+00 
    2.3192329252384853E+00 
    2.1700170950543951E+00 
    2.2485306787261861E+00 
    2.2658907892987727E+00 
    2.2061525272799658E+00 
    2.2414648505130672E+00 
    2.1187595665582371E+00 
    2.2443301833783882E+00 
    2.1613040380175508E+00 
    2.1682503853297010E+00 
    2.1672289476869060E+00 
    2.1897728661525546E+00 
    2.1168433603931263E+00 
    2.2492460224424282E+00 
    2.1919791079162425E+00 
    2.1885770246835312E+00 
    2.0503624095142086E+00 
    2.2112574924007862E+00 
    2.2721644589202086E+00 
    2.1237175310882099E+00 
    2.2315813391125037E+00 
    2.2866893380463922E+00 
    2.3086349237910775E+00 
    2.1901749887967807E+00 
    2.1385670362615166E+00 
    2.1096168273986158E+00 
    2.1259046028737116E+00 
    2.2178415650641248E+00 
    2.1831201752600440E+00 
    2.1355011121149876E+00 
    2.2220799357397416E+00 
    2.1611522366097486E+00 
    2.1279751950191641E+00 
    2.1897841709763428E+00 
    2.0782578518767076E+00 
    2.1272913731918037E+00 
    2.2903125430077638E+00 
    2.2171676302269434E+00 
    2.1199696710468428E+00 
    2.2395258723258928E+00 
    2.2320953811708715E+00 
    2.1325011861310759E+00 
    2.1516674760775745E+00 
    2.1569275185264414E+00 
    2.2079277359337812E+00 
    2.2044204149845887E+00 
    2.2654409505076232E+00 
    2.1472911498189187E+00 
    2.2049815259277028E+00 
    2.2184789691998450E+00 
    2.1366998042434422E+00 
    2.1433067851896936E+00 
    2.0433208592865459E+00 
    2.1385315545950689E+00 
    2.2994212367428313E+00 
    2.1827123951779384E+00 
    2.2038296607465520E+00 
    2.1612025231885577E+00 
    2.2039491510910385E+00 
    2.1262505392883555E+00 
    2.1149328909245395E+00 
    2.0919172803808350E+00 
    2.1235565008232524E+00 
    2.0958676164738894E+00 
    2.1476145217866995E+00 
    2.1913623884381810E+00 
    2.1074437579912417E+00 
    2.2341147387359643E+00 
    2.2362236371866646E+00 
    2.1444583147312679E+00 
    2.1152132680689233E+00 
    2.1914207282125351E+00 
    2.1322392879908052E+00 
    2.0839723625805417E+00 
    2.1262347146718836E+00 
    2.0893344762554720E+00 
    2.0899147121434880E+00 
    2.1362354977512594E+00 
    2.1787749218975359E+00 
    2.2525020841921259E+00 
    2.0800483725479642E+00 
    2.1245726713522455E+00 
    2.1044962056774410E+00 
    2.1241585691964664E+00 
    2.3462890404326102E+00 
    2.0940469701760525E+00 
    2.1567198710996274E+00 
    2.1037740634720272E+00 
    2.1381360477819680E+00 
    2.1125834846699343E+00 
    2.1457713423165381E+00 
    2.1035805306793431E+00 
    2.1425420300564668E+00 
    2.1141208253763888E+00 
    2.1457187654736960E+00 
    2.1102965819234147E+00 
    2.1093900872143765E+00 
    2.0888969709366947E+00 
    2.0980900210527738E+00 
    2.2342003953720382E+00 
    2.0717569340482598E+00 
    2.0799422122206392E+00 
    2.1206590246792265E+00 
    2.1071484882431202E+00 
    2.4144360941457328E+00 
    2.1231975260055633E+00 
    2.2065317807163161E+00 
    2.1164438674216322E+00 
    2.0674330161195611E+00 
    2.1348053692407123E+00 
    2.0990180097566742E+00 
    2.1483786466247716E+00 
    2.1107426413908525E+00 
    2.1111523719074876E+00 
    2.1214745588914723E+00 
    2.0910856177667556E+00 
    2.1230359818130120E+00 
    2.1116218157454716E+00 
    2.0722426304858943E+00 
    2.1020062844525023E+00 
    2.1020769005517850E+00 
    2.1183955679966906E+00 
    2.0656158802913778E+00 
    2.1045432019319747E+00 
    2.1182433056183343E+00 
    2.1474254443168088E+00 
    2.0932725673467352E+00 
    2.0829679939315882E+00 
    2.2176952330418152E+00 
    2.0940407030723835E+00 
    2.1676083567110154E+00 
    2.4144881002041028E+00 
    2.2280025830287071E+00 
    2.1682930384111589E+00 
    2.2487779810403756E+00 
    2.1077218153593686E+00 
    2.1021129295048016E+00 
    2.0820241022394423E+00 
    2.0851699637780916E+00 
    2.0862535446375117E+00 
    2.0798152485205437E+00 
    2.2518967339848608E+00 
    2.0836939940297410E+00 
    2.1358752607471945E+00 
    2.2322941574841337E+00 
    2.1470640680038215E+00 
    2.0935958241823620E+00 
    2.2004272502396258E+00 
    2.0779155944227341E+00 
    2.0783923543849263E+00 
    2.0864766254958433E+00 
    2.3823721688837587E+00 
    2.1797412979133810E+00 
    2.2416902403792860E+00 
    2.2471572689536585E+00 
    2.1558149815712166E+00 
    2.2195270722500124E+00 
    2.0964219777565889E+00 
    2.0370014286981051E+00 
    2.5580967964420736E+00 
    2.0571051188392651E+00 
    2.0708529517625704E+00 
    2.0704410140338361E+00 
    2.1693473490018156E+00 
    2.2313559916638832E+00 
    2.0369077037382577E+00 
    2.2825843701167310E+00 
    2.3037628048956482E+00 
    2.1565579857398087E+00 
    2.1114551247186748E+00 
    2.2695657175015533E+00 
    2.1584137381428499E+00 
    2.0874658776901782E+00 
    2.2413428060174629E+00 
    2.0636190543619994E+00 
    2.0629012939268869E+00 
    2.1670310009333811E+00 
    2.1194916492430589E+00 
    2.0440356619100544E+00 
    2.1111756799684342E+00 
    2.0515510841855487E+00 
    2.2600003313824404E+00 
    2.0569076539632167E+00 
    2.1016251809977611E+00 
    2.2295313169313378E+00 
    2.1192485456421530E+00 
    2.1585354470777167E+00 
    2.0557008170959592E+00 
    2.1396286843873566E+00 
    2.1448403324739864E+00 
    2.0884823073374874E+00 
    2.1197389230653214E+00 
    2.2358924057496936E+00 
    2.0510974586063262E+00 
    2.1177733574954707E+00 
    2.0922468360140427E+00 
    2.0928971449822393E+00 
    2.1333069172054437E+00 
    2.0864377829270291E+00 
    2.1251771071559413E+00 
    2.2481598008610360E+00 
    2.2627662288503521E+00 
    2.0489887643919533E+00 
    2.4256232592582267E+00 
    2.1380150414534578E+00 
    2.1047225850138314E+00 
    2.2905598273083108E+00 
    2.1621788672952400E+00 
    2.1768698416491898E+00 
    2.0923698622587974E+00 
    2.0856325711915646E+00 
    2.1947030881326679E+00 
    2.1572392577231545E+00 
    2.0445075759017914E+00 
    2.0920584412096921E+00 
    2.3182326616249522E+00 
    2.1525410523014288E+00 
    2.2233745779582836E+00 
    2.1675058525926789E+00 
    2.2364964702487748E+00 
    2.1946528112221722E+00 
    2.0431923528773028E+00 
    2.0732525892782423E+00 
    2.1129723165008811E+00 
    2.2642647232671513E+00 
    2.2214659681211444E+00 
    2.1095391371833379E+00 
    2.0866375267154287E+00 
    2.1081876077775457E+00 
    2.0970189700431283E+00 
    2.2069600290978495E+00 
    2.0890709007543169E+00 
    2.1757738869507572E+00 
    2.3586231314847628E+00 
    2.0838939132491605E+00 
    2.3233305627041174E+00 
    2.1282914289524530E+00 
    2.3382498295509233E+00 
    2.2314405146195604E+00 
    2.4711162272531828E+00 
    2.1022179967627364E+00 
    2.2194829051575584E+00 
    2.1454345158245336E+00 
    2.0800047920229590E+00 
    2.2456400843776834E+00 
    2.1375829532741899E+00 
    2.2545474782146600E+00 
    2.0832554451960958E+00 
    2.2220048015618903E+00 
    2.1290084300812455E+00 
    2.1600633410436392E+00 
    2.0559323798591547E+00 
    2.0866445865254950E+00 
    2.0757406272120034E+00 
    2.2851260492454957E+00 
    2.1040103676738195E+00 
    2.3496907072517645E+00 
    2.3018815066081664E+00 
    2.0951553213662359E+00 
    2.1272584335314244E+00 
    2.1133874325458266E+00 
    2.0545529767210362E+00 
    2.1321058324806912E+00 
    2.2352245045440653E+00 
    2.0944623049997753E+00 
    2.0622465137724637E+00 
    2.3775342037617930E+00 
    2.2069589163109811E+00 
    2.0372377543988720E+00 
    2.0370881027945580E+00 
    2.0717244904213725E+00 
    2.0775291566701060E+00 
    2.0604508288488148E+00 
    2.0515667781064630E+00 
    2.1093868135975975E+00 
    2.1001509702578174E+00 
    2.0311588424237170E+00 
    2.0312897133519607E+00 
    2.0020182079946780E+00 
    1.9498512252843894E+00 
    1.9439660216867214E+00 
    1.9490996587021721E+00 
    1.9659858397842946E+00 
    1.9637130386407580E+00 
    2.0131644116686149E+00 
    1.9316428914519286E+00 
    2.0013472813390458E+00 
    1.9355825213620224E+00 
    1.9843074480306044E+00 
    1.9609085487988989E+00 
    1.9586558201810089E+00 
    1.9378068851525077E+00 
    1.9311480516857609E+00 
    2.0488806703666240E+00 
    2.0106945950307265E+00 
    2.0320504692721548E+00 
    2.0069549317517863E+00 
    1.9723395875243779E+00 
    1.9304691941468564E+00 
    1.9280199167673424E+00 
    2.0451443433412813E+00 
    1.9816672034147649E+00 
    1.9299705672785781E+00 
    1.9662348044815723E+00 
    2.0251194131836256E+00 
    2.0248100954719042E+00 
    1.9196774770004461E+00 
    1.9292648903134808E+00 
    1.9839720590798249E+00 
    2.0332638158409444E+00 
    2.0127696787596125E+00 
    1.9732284959309667E+00 
    1.9509765136209096E+00 
    2.0561387717830595E+00 
    2.0341862654835299E+00 
    2.0249063331054602E+00 
    2.0701455053960749E+00 
    1.9504196838558578E+00 
    1.9634415245337820E+00 
    1.9593217675005425E+00 
    2.0434412722700772E+00 
    1.9623199615030362E+00 
    2.0288212800717949E+00 
    1.9952987527385750E+00 
    1.9921748762779496E+00 
    1.9796378698057959E+00 
    1.9837716654182820E+00 
    2.0337969592435075E+00 
    2.0303613769110496E+00 
    1.9897279646374102E+00 
    1.9450517150663682E+00 
    1.9815362077556671E+00 
    1.9770176335251806E+00 
    1.9325723153889378E+00 
    2.0155918549350709E+00 
    1.9350941671459352E+00 
    2.0334784115843800E+00 
    1.9377404305012100E+00 
    2.0020566912576272E+00 
    1.9555159499225401E+00 
    1.9176905508822004E+00 
    1.9189594000359032E+00 
    1.9184183067104907E+00 
    1.9105121835920833E+00 
    1.9798438897587005E+00 
    1.9113033934281529E+00 
    1.9295950567918256E+00 
    1.9314472150010191E+00 
    2.0600553988772159E+00 
    1.9837954492199856E+00 
    1.9313492935582435E+00 
    2.0330007382051800E+00 
    1.9675298453736731E+00 
    1.9523107269921456E+00 
    2.0182083926528476E+00 
    2.0576078543035181E+00 
    2.0065279640644431E+00 
    2.0088789471069615E+00 
    1.9888075443765434E+00 
    2.0007100373372606E+00 
    2.0213347532438783E+00 
    2.0189476926185677E+00 
    2.0164977614559101E+00 
    2.0200762523232805E+00 
    1.9926286492824725E+00 
    2.0307704329436529E+00 
    2.0303291289277814E+00 
    2.0040217108347895E+00 
    2.0114330231938906E+00 
    2.0481348103186079E+00 
    2.0203274570934946E+00 
    2.0279077208842189E+00 
    2.0513363419049924E+00 
    1.9664364898588333E+00 
    1.9563105454530210E+00 
    2.0025589066169993E+00 
    2.0345111713379862E+00 
    2.0581242222294809E+00 
    2.0306816489771808E+00 
    1.9187383848597470E+00 
    1.9546344234088582E+00 
    2.0009697663738346E+00 
    1.9771636085399189E+00 
    1.9382207036323122E+00 
    2.0212112182681516E+00 
    1.9996947240743919E+00 
    1.9382609994132751E+00 
    2.0130076216107682E+00 
    1.9471271905663829E+00 
    1.9580385420085906E+00 
    1.9544840772745520E+00 
    2.0051793312529846E+00 
    2.0289579569649177E+00 
    2.0455539997467023E+00 
    2.0199457744107199E+00 
    2.0406805697809047E+00 
    1.9453641860913000E+00 
    1.9321972029980492E+00 
    2.0452679679048580E+00 
    2.0159729252504528E+00 
    1.9187810719201239E+00 
    1.9175365682415697E+00 
    2.0547553564091676E+00 
    1.9940618041018672E+00 
    2.0223671280509379E+00 
    2.0002809481383537E+00 
    1.9689152770387666E+00 
    2.0032090188343372E+00 
    2.0143746026102791E+00 
    1.9916983539132538E+00 
    1.9872584282871770E+00 
    1.9870446750355863E+00 
    1.9086904901965307E+00 
    2.0374677588210552E+00 
    2.0705630571688354E+00 
    1.9094007428860771E+00 
    1.9089754262117966E+00 
    1.9103233379223166E+00 
    1.9094365090771372E+00 
    1.9169743112500834E+00 
    2.0232575432368085E+00 
    1.9708896487172265E+00 
    1.9280641836291001E+00 
    2.0126082504682339E+00 
    2.0105151880698888E+00 
    1.9630808822937178E+00 
    1.9788928942054576E+00 
    1.9713971770527410E+00 
    1.9906076831648609E+00 
    2.0425620700695206E+00 
    1.9088589440726853E+00 
    1.9098886524085990E+00 
    1.9480595801330860E+00 
    1.9836929627652298E+00 
    2.0260174208297741E+00 
    1.9290996897132930E+00 
    2.0449188246866199E+00 
    1.9140773259301516E+00 
    1.9652324536236088E+00 
    1.9183679875744792E+00 
    1.9173122399977818E+00 
    1.9263255938889168E+00 
    2.0456438510637778E+00 
    1.9997306778676156E+00 
    1.9752744036417227E+00 
    1.9927156181054797E+00 
    2.0089278037951575E+00 
    1.9163781484321853E+00 
    1.9733868889874548E+00 
    2.0005109304800031E+00 
    2.0447228822691401E+00 
    2.0372357471438760E+00 
    2.0342257666630359E+00 
    2.0453849504515533E+00 
    2.0507564703628560E+00 
    1.9884173138532268E+00 
    1.9310983223261695E+00 
    2.0075700829519683E+00 
    2.0059911023446739E+00 
    1.9681906484165712E+00 
    1.9157867098380994E+00 
    2.0035567664462928E+00 
    2.0168483113569438E+00 
    2.0239021307520892E+00 
    2.0131939859162351E+00 
    1.9169451375110511E+00 
    2.0087732350776824E+00 
    2.0048954432749730E+00 
    1.9263977788563673E+00 
    1.9400801508793137E+00 
    2.0002015864546756E+00 
    2.0116036588879971E+00 
    2.0071147677193819E+00 
    2.0182622438780826E+00 
    2.0174106886289693E+00 
    2.0435165092218490E+00 
    2.0030109210538596E+00 
    2.0285247670813096E+00 
    1.9965286482727251E+00 
    2.0090636134822044E+00 
    1.9131554413798666E+00 
    2.0564320175980320E+00 
    2.0399634090383967E+00 
    2.0498265057284213E+00 
    1.9691066963103776E+00 
    1.9575701047615262E+00 
    1.9442733267408501E+00 
    2.0222383501462526E+00 
    2.0003903459776877E+00 
    2.0253635528387992E+00 
    1.9611534006903808E+00 
    1.9271490770891511E+00 
    1.9389933660068990E+00 
    2.0341763224629088E+00 
    1.9349766756196036E+00 
    1.9890946374975036E+00 
    1.9460128297183861E+00 
    2.0329464179661443E+00 
    1.9981476989326878E+00 
    1.9867013557740738E+00 
    2.0523475305999841E+00 
    2.0470625477692024E+00 
    1.9770790467739812E+00 
    1.9692558717201800E+00 
    1.9521589519526930E+00 
    1.9820071230214089E+00 
    2.0247844476423889E+00 
    1.9110436190674405E+00 
    2.0418034463611017E+00 
    2.0523916722093909E+00 
    1.9754222708627645E+00 
    1.9713272605704983E+00 
    1.9278623055116306E+00 
    1.9155651364487736E+00 
    2.0490735853499187E+00 
    1.9578015378851046E+00 
    2.0008908382376669E+00 
    1.9758718599805598E+00 
    2.0103608340023080E+00 
    1.9401595439691195E+00 
    1.9906724865305940E+00 
    2.0486939973999791E+00 
    1.9488939376520937E+00 
    1.9740446049734994E+00 
    1.9463093338025179E+00 
    1.9821593519322132E+00 
    2.0541705704265212E+00 
    1.9535778612755763E+00 
    1.9993204960143951E+00 
    1.9630759286714488E+00 
    1.9287828916832013E+00 
    2.0180698583958954E+00 
    2.0176817473775990E+00 
    2.0064869589229546E+00 
    1.9618828561530743E+00 
    1.9595017881839880E+00 
    1.9330904849997912E+00 
    2.0020607005185433E+00 
    2.0172229101806924E+00 
    1.9879598196464046E+00 
    1.9302236941152777E+00 
    1.9563590727451936E+00 