# vtk DataFile Version 2.0
Pressure Field Data 
ASCII 
DATASET UNSTRUCTURED_GRID 

POINTS 2213 double 

    0.0000000000000000E+00     0.0000000000000000E+00     0.0000000000000000E+00 
    5.0000000000000000E-01     0.0000000000000000E+00     0.0000000000000000E+00 
    1.0000000000000000E+00     0.0000000000000000E+00     0.0000000000000000E+00 
    1.0000000000000000E+00     5.0000000000000000E-01     0.0000000000000000E+00 
    1.0000000000000000E+00     1.0000000000000000E+00     0.0000000000000000E+00 
    5.0000000000000000E-01     1.0000000000000000E+00     0.0000000000000000E+00 
    0.0000000000000000E+00     1.0000000000000000E+00     0.0000000000000000E+00 
    0.0000000000000000E+00     5.0000000000000000E-01     0.0000000000000000E+00 
    1.5624999999971041E-02     0.0000000000000000E+00     0.0000000000000000E+00 
    3.1249999999936742E-02     0.0000000000000000E+00     0.0000000000000000E+00 
    4.6874999999913257E-02     0.0000000000000000E+00     0.0000000000000000E+00 
    6.2499999999889783E-02     0.0000000000000000E+00     0.0000000000000000E+00 
    7.8124999999844805E-02     0.0000000000000000E+00     0.0000000000000000E+00 
    9.3749999999799827E-02     0.0000000000000000E+00     0.0000000000000000E+00 
    1.0937499999975490E-01     0.0000000000000000E+00     0.0000000000000000E+00 
    1.2499999999970990E-01     0.0000000000000000E+00     0.0000000000000000E+00 
    1.4062499999966460E-01     0.0000000000000000E+00     0.0000000000000000E+00 
    1.5624999999961930E-01     0.0000000000000000E+00     0.0000000000000000E+00 
    1.7187499999957390E-01     0.0000000000000000E+00     0.0000000000000000E+00 
    1.8749999999952860E-01     0.0000000000000000E+00     0.0000000000000000E+00 
    2.0312499999948330E-01     0.0000000000000000E+00     0.0000000000000000E+00 
    2.1874999999943801E-01     0.0000000000000000E+00     0.0000000000000000E+00 
    2.3437499999939271E-01     0.0000000000000000E+00     0.0000000000000000E+00 
    2.4999999999934730E-01     0.0000000000000000E+00     0.0000000000000000E+00 
    2.6562499999938810E-01     0.0000000000000000E+00     0.0000000000000000E+00 
    2.8124999999942890E-01     0.0000000000000000E+00     0.0000000000000000E+00 
    2.9687499999946970E-01     0.0000000000000000E+00     0.0000000000000000E+00 
    3.1249999999951050E-01     0.0000000000000000E+00     0.0000000000000000E+00 
    3.2812499999955130E-01     0.0000000000000000E+00     0.0000000000000000E+00 
    3.4374999999959210E-01     0.0000000000000000E+00     0.0000000000000000E+00 
    3.5937499999963290E-01     0.0000000000000000E+00     0.0000000000000000E+00 
    3.7499999999967371E-01     0.0000000000000000E+00     0.0000000000000000E+00 
    3.9062499999971451E-01     0.0000000000000000E+00     0.0000000000000000E+00 
    4.0624999999975520E-01     0.0000000000000000E+00     0.0000000000000000E+00 
    4.2187499999979600E-01     0.0000000000000000E+00     0.0000000000000000E+00 
    4.3749999999983680E-01     0.0000000000000000E+00     0.0000000000000000E+00 
    4.5312499999987760E-01     0.0000000000000000E+00     0.0000000000000000E+00 
    4.6874999999991840E-01     0.0000000000000000E+00     0.0000000000000000E+00 
    4.8437499999995920E-01     0.0000000000000000E+00     0.0000000000000000E+00 
    5.1562499999992384E-01     0.0000000000000000E+00     0.0000000000000000E+00 
    5.3124999999985478E-01     0.0000000000000000E+00     0.0000000000000000E+00 
    5.4687499999994527E-01     0.0000000000000000E+00     0.0000000000000000E+00 
    5.6249999999998668E-01     0.0000000000000000E+00     0.0000000000000000E+00 
    5.7812499999998068E-01     0.0000000000000000E+00     0.0000000000000000E+00 
    5.9374999999994749E-01     0.0000000000000000E+00     0.0000000000000000E+00 
    6.0937499999997913E-01     0.0000000000000000E+00     0.0000000000000000E+00 
    6.2500000000000000E-01     0.0000000000000000E+00     0.0000000000000000E+00 
    6.4062499999998945E-01     0.0000000000000000E+00     0.0000000000000000E+00 
    6.5624999999996603E-01     0.0000000000000000E+00     0.0000000000000000E+00 
    6.7187499999995337E-01     0.0000000000000000E+00     0.0000000000000000E+00 
    6.8749999999998734E-01     0.0000000000000000E+00     0.0000000000000000E+00 
    7.0312499999998124E-01     0.0000000000000000E+00     0.0000000000000000E+00 
    7.1874999999997025E-01     0.0000000000000000E+00     0.0000000000000000E+00 
    7.3437499999999034E-01     0.0000000000000000E+00     0.0000000000000000E+00 
    7.5000000000000000E-01     0.0000000000000000E+00     0.0000000000000000E+00 
    7.6562499999996902E-01     0.0000000000000000E+00     0.0000000000000000E+00 
    7.8124999999993228E-01     0.0000000000000000E+00     0.0000000000000000E+00 
    7.9687499999989997E-01     0.0000000000000000E+00     0.0000000000000000E+00 
    8.1249999999996247E-01     0.0000000000000000E+00     0.0000000000000000E+00 
    8.2812499999999578E-01     0.0000000000000000E+00     0.0000000000000000E+00 
    8.4374999999999556E-01     0.0000000000000000E+00     0.0000000000000000E+00 
    8.5937500000000111E-01     0.0000000000000000E+00     0.0000000000000000E+00 
    8.7499999999997691E-01     0.0000000000000000E+00     0.0000000000000000E+00 
    8.9062500000000921E-01     0.0000000000000000E+00     0.0000000000000000E+00 
    9.0625000000004452E-01     0.0000000000000000E+00     0.0000000000000000E+00 
    9.2187500000005529E-01     0.0000000000000000E+00     0.0000000000000000E+00 
    9.3750000000012723E-01     0.0000000000000000E+00     0.0000000000000000E+00 
    9.5312500000011835E-01     0.0000000000000000E+00     0.0000000000000000E+00 
    9.6875000000005151E-01     0.0000000000000000E+00     0.0000000000000000E+00 
    9.8437500000003086E-01     0.0000000000000000E+00     0.0000000000000000E+00 
    1.0000000000000000E+00     1.5624999999971041E-02     0.0000000000000000E+00 
    1.0000000000000000E+00     3.1249999999936742E-02     0.0000000000000000E+00 
    1.0000000000000000E+00     4.6874999999913257E-02     0.0000000000000000E+00 
    1.0000000000000000E+00     6.2499999999889783E-02     0.0000000000000000E+00 
    1.0000000000000000E+00     7.8124999999844805E-02     0.0000000000000000E+00 
    1.0000000000000000E+00     9.3749999999799827E-02     0.0000000000000000E+00 
    1.0000000000000000E+00     1.0937499999975490E-01     0.0000000000000000E+00 
    1.0000000000000000E+00     1.2499999999970990E-01     0.0000000000000000E+00 
    1.0000000000000000E+00     1.4062499999966460E-01     0.0000000000000000E+00 
    1.0000000000000000E+00     1.5624999999961930E-01     0.0000000000000000E+00 
    1.0000000000000000E+00     1.7187499999957390E-01     0.0000000000000000E+00 
    1.0000000000000000E+00     1.8749999999952860E-01     0.0000000000000000E+00 
    1.0000000000000000E+00     2.0312499999948330E-01     0.0000000000000000E+00 
    1.0000000000000000E+00     2.1874999999943801E-01     0.0000000000000000E+00 
    1.0000000000000000E+00     2.3437499999939271E-01     0.0000000000000000E+00 
    1.0000000000000000E+00     2.4999999999934730E-01     0.0000000000000000E+00 
    1.0000000000000000E+00     2.6562499999938810E-01     0.0000000000000000E+00 
    1.0000000000000000E+00     2.8124999999942890E-01     0.0000000000000000E+00 
    1.0000000000000000E+00     2.9687499999946970E-01     0.0000000000000000E+00 
    1.0000000000000000E+00     3.1249999999951050E-01     0.0000000000000000E+00 
    1.0000000000000000E+00     3.2812499999955130E-01     0.0000000000000000E+00 
    1.0000000000000000E+00     3.4374999999959210E-01     0.0000000000000000E+00 
    1.0000000000000000E+00     3.5937499999963290E-01     0.0000000000000000E+00 
    1.0000000000000000E+00     3.7499999999967371E-01     0.0000000000000000E+00 
    1.0000000000000000E+00     3.9062499999971451E-01     0.0000000000000000E+00 
    1.0000000000000000E+00     4.0624999999975520E-01     0.0000000000000000E+00 
    1.0000000000000000E+00     4.2187499999979600E-01     0.0000000000000000E+00 
    1.0000000000000000E+00     4.3749999999983680E-01     0.0000000000000000E+00 
    1.0000000000000000E+00     4.5312499999987760E-01     0.0000000000000000E+00 
    1.0000000000000000E+00     4.6874999999991840E-01     0.0000000000000000E+00 
    1.0000000000000000E+00     4.8437499999995920E-01     0.0000000000000000E+00 
    1.0000000000000000E+00     5.1562499999992384E-01     0.0000000000000000E+00 
    1.0000000000000000E+00     5.3124999999985478E-01     0.0000000000000000E+00 
    1.0000000000000000E+00     5.4687499999994527E-01     0.0000000000000000E+00 
    1.0000000000000000E+00     5.6249999999998668E-01     0.0000000000000000E+00 
    1.0000000000000000E+00     5.7812499999998068E-01     0.0000000000000000E+00 
    1.0000000000000000E+00     5.9374999999994749E-01     0.0000000000000000E+00 
    1.0000000000000000E+00     6.0937499999997913E-01     0.0000000000000000E+00 
    1.0000000000000000E+00     6.2500000000000000E-01     0.0000000000000000E+00 
    1.0000000000000000E+00     6.4062499999998945E-01     0.0000000000000000E+00 
    1.0000000000000000E+00     6.5624999999996603E-01     0.0000000000000000E+00 
    1.0000000000000000E+00     6.7187499999995337E-01     0.0000000000000000E+00 
    1.0000000000000000E+00     6.8749999999998734E-01     0.0000000000000000E+00 
    1.0000000000000000E+00     7.0312499999998124E-01     0.0000000000000000E+00 
    1.0000000000000000E+00     7.1874999999997025E-01     0.0000000000000000E+00 
    1.0000000000000000E+00     7.3437499999999034E-01     0.0000000000000000E+00 
    1.0000000000000000E+00     7.5000000000000000E-01     0.0000000000000000E+00 
    1.0000000000000000E+00     7.6562499999996902E-01     0.0000000000000000E+00 
    1.0000000000000000E+00     7.8124999999993228E-01     0.0000000000000000E+00 
    1.0000000000000000E+00     7.9687499999989997E-01     0.0000000000000000E+00 
[...]
CELL_DATA 2084 
SCALARS Pressure double 1 
LOOKUP_TABLE default 

    2.8820175957432737E+00 
    2.9137790533057792E+00 
    3.1179808693143314E+00 
    2.9146366203104122E+00 
    3.0304368430800204E+00 
    2.9830353888621488E+00 
    2.8496608665485215E+00 
    2.9661293941574103E+00 
    2.9773511431514672E+00 
    3.0349866894269226E+00 
    3.1119313983672150E+00 
    2.8661598759380489E+00 
    2.9539715452027671E+00 
    2.9106617202783545E+00 
    2.8765316716921787E+00 
    2.8987820261457951E+00 
    3.0703687062170113E+00 
    2.9335138230428854E+00 
    3.1450040641180528E+00 
    2.8900599982332675E+00 
    2.8941133324025805E+00 
    3.0121570343513704E+00 
    2.8968974762744688E+00 
    2.9495186193284137E+00 
    2.8859358283757808E+00 
    2.9511622777838329E+00 
    2.9054783373856186E+00 
    2.8532579599104966E+00 
    2.9588018678442851E+00 
    2.9214769415171489E+00 
    2.8407575446654363E+00 
    2.9669538810962774E+00 
    2.8262047808777586E+00 
    2.8933855294725066E+00 
    2.8703423620048865E+00 
    3.0237778117304601E+00 
    2.9274939784949741E+00 
    2.9227033426372433E+00 
    3.0121473782123451E+00 
    2.9680236351063010E+00 
    2.8563676772997724E+00 
    3.0398856147068987E+00 
    2.8862941693794375E+00 
    2.9905105230323668E+00 
    2.9820196057205370E+00 
    2.8648294507548373E+00 
    3.0381480922530777E+00 
    2.8456235495757682E+00 
    2.8481226797131716E+00 
    2.9548894134352008E+00 
    2.9519376074331736E+00 
    2.8523672561848885E+00 
    2.8643158236756272E+00 
    2.9370424705394838E+00 
    2.9383063797832842E+00 
    2.8562979401255402E+00 
    2.8325109654164891E+00 
    2.9973545465776974E+00 
    3.0095016581824137E+00 
    2.9461620158878006E+00 
    2.9447407135729482E+00 
    2.8905727423605301E+00 
    2.8690030295377933E+00 
    2.9082336355682505E+00 
    3.0355124007784826E+00 
    2.9415557076073782E+00 
    2.9772050458690731E+00 
    2.8630013961458181E+00 
    2.8464408723739791E+00 
    2.8456198119720701E+00 
    2.8836945381831240E+00 
    3.1757411862452258E+00 
    2.9520326037653999E+00 
    3.0946924356235694E+00 
    3.0055923319195359E+00 
    3.0920315916990795E+00 
    2.9471095171290882E+00 
    3.0269857908565294E+00 
    2.8657610198429424E+00 
    3.0452359622012386E+00 
    2.8976942055527366E+00 
    2.9676335359063817E+00 
    2.9959096980020350E+00 
    2.8392947215360658E+00 
    2.9827165357886423E+00 
    2.8954043008093953E+00 
    2.9304960441852419E+00 
    2.9854380378941405E+00 
    3.0069332809502027E+00 
    2.9973830717494878E+00 
    2.9779548824531505E+00 
    2.9741495879621480E+00 
    2.8999878943767121E+00 
    2.9953995008136407E+00 
    2.9332885245052043E+00 
    2.8524660035474438E+00 
    2.9169617236791301E+00 
    2.9599595875573019E+00 
    3.0202257880092080E+00 
    2.9213808996906385E+00 
    3.0327465074733273E+00 
    2.9930339624616225E+00 
    3.0098101119411953E+00 
    3.0112411376807273E+00 
    2.9337633067382636E+00 
    2.9948296707686843E+00 
    2.9651316648964716E+00 
    3.0209399419196181E+00 
    2.8792818517762826E+00 
    3.2085107464532006E+00 
    2.9032251882350302E+00 
    2.9588478503015430E+00 
    2.9922048389800779E+00 
    3.0500181773221842E+00 
    3.1056018546534347E+00 
    2.9097932533940734E+00 
    2.9955547915296967E+00 
    2.9920344148580900E+00 
    2.9237334268593660E+00 
    2.8874200997575459E+00 
    2.9407786779925673E+00 
    3.0085220688779950E+00 
    2.8876477672048919E+00 
    3.0787394307144265E+00 
    2.9637060317959967E+00 
    3.0090764240442893E+00 
    2.9429357452976426E+00 
    2.8877000201199308E+00 
    2.9281634130112506E+00 
    2.8975636628062014E+00 
    3.1017231913372161E+00 
    3.1146606088607878E+00 
    2.8589556735093784E+00 
    3.0354463829068243E+00 
    3.0204927957795511E+00 
    2.9444667603516841E+00 
    3.0003230278753037E+00 
    2.8863302167436418E+00 
    3.0188210959640331E+00 
    3.0847175153914561E+00 
    2.9810405727404108E+00 
    3.1291468690454778E+00 
    3.0949755173697842E+00 
    2.9636639569174874E+00 
    2.9103860623484481E+00 
    2.9591169980022598E+00 
    2.9934051923269371E+00 
    3.0175107457286012E+00 
    2.9333245686185827E+00 
    2.9798161089660975E+00 
    2.9858218264943694E+00 
    3.0857684236070044E+00 
    3.1624098041475874E+00 
    2.9325862305950290E+00 
    2.9426864877960792E+00 
    3.1449231311263075E+00 
    2.8965475312126849E+00 
    2.9888847228029412E+00 
    2.9375007877031494E+00 
    3.0783222227318610E+00 
    3.2895444576386303E+00 
    3.2281643748724940E+00 
    3.1661486988671075E+00 
    3.1872499047149025E+00 
    3.1370048622189977E+00 
    3.1540994980303267E+00 
    2.9911380214575893E+00 
    3.2016839395541261E+00 
    2.9817545812274537E+00 
    3.1467775799928837E+00 
    2.9820976389429679E+00 
    3.0713737503021030E+00 
    3.0901781457923692E+00 
    3.0240774881924350E+00 
    3.0636081546795464E+00 
    2.9194992546320395E+00 
    3.0667410410974272E+00 
    2.9717057745326989E+00 
    2.9800029907658390E+00 
    2.9787811113613998E+00 
    3.0052721821903323E+00 
    2.9171245701313997E+00 
    3.0721326366189254E+00 
    3.0078139532907393E+00 
    3.0038763024643496E+00 
    2.8306878676659690E+00 
    3.0299168333905784E+00 
    3.0969733659307419E+00 
    2.9257862340008542E+00 
    3.0526821783503348E+00 
    3.1124922375695654E+00 
    3.1356756707409836E+00 
    3.0057244579782809E+00 
    2.9441394506843075E+00 
    2.9079313530789266E+00 
    2.9285145897655771E+00 
    3.0373348317213824E+00 
    2.9975093816575966E+00 
    2.9403540195399502E+00 
    3.0421175010652890E+00 
    2.9715174290388191E+00 
    2.9310977093103161E+00 
    3.0052781540499374E+00 
    2.8673854840723223E+00 
    2.9302656270649479E+00 
    3.1163452801514446E+00 
    3.0365627307198793E+00 
    2.9210258407487077E+00 
    3.0614626911011968E+00 
    3.0532387987202383E+00 
    2.9367914273995712E+00 
    2.9602025506314367E+00 
    2.9664935721865970E+00 
    3.0261174065720198E+00 
    3.0221338452187720E+00 
    3.0897232067370752E+00 
    2.9549119137015656E+00 
    3.0227419312638926E+00 
    3.0380243953073931E+00 
    2.9419026584918200E+00 
    2.9500109127868210E+00 
    2.8205500228814278E+00 
    2.9441164077004709E+00 
    3.1259710222412220E+00 
    2.9970361984750742E+00 
    3.0214322777792275E+00 
    2.9715874159136590E+00 
    3.0215806526829554E+00 
    2.9289051647462871E+00 
    2.9148769241336798E+00 
    2.8852473492368675E+00 
    2.9255215224457052E+00 
    2.8903526990280550E+00 
    2.9552355338320186E+00 
    3.0071297435545348E+00 
    2.9051803309524415E+00 
    3.0554718691579432E+00 
    3.0578317320879145E+00 
    2.9513888427066601E+00 
    2.9151565664285783E+00 
    3.0071662668119714E+00 
    2.9364322565452947E+00 
    2.8749843623420208E+00 
    2.9289677077593246E+00 
    2.8820575128988271E+00 
    2.8829495117536514E+00 
    2.9412937753069812E+00 
    2.9924706732509052E+00 
    3.0757267641914372E+00 
    2.8701096180255532E+00 
    2.9267980746656406E+00 
    2.9016630658868090E+00 
    2.9263988962824397E+00 
    3.1748585043653774E+00 
    2.8880793461665251E+00 
    2.9661664296644150E+00 
    2.9005304813127100E+00 
    2.9437445057934744E+00 
    2.9117163288002352E+00 
    2.9530056256763051E+00 
    2.9004398179167334E+00 
    2.9491232650044648E+00 
    2.9138226628338342E+00 
    2.9528317971040838E+00 
    2.9090333710127827E+00 
    2.9076639828950728E+00 
    2.8816444019998020E+00 
    2.8934778413955007E+00 
    3.0555960955369739E+00 
    2.8589268571759239E+00 
    2.8699946482453074E+00 
    2.9220838259337616E+00 
    2.9050007397087296E+00 
    3.2445387968861517E+00 
    2.9251701609893566E+00 
    3.0245443784494146E+00 
    2.9167348879656179E+00 
    2.8530717838963713E+00 
    2.9395837866898589E+00 
    2.8944315505020333E+00 
    2.9562312067391496E+00 
    2.9096070155776603E+00 
    2.9098692794860299E+00 
    2.9230620950362329E+00 
    2.8844564572264417E+00 
    2.9249111891149302E+00 
    2.9105181474784216E+00 
    2.8595042109023838E+00 
    2.8984944317414940E+00 
    2.8983057844922597E+00 
    2.9192189332275533E+00 
    2.8510956503935745E+00 
    2.9016268415647657E+00 
    2.9189813700570246E+00 
    2.9550106522610329E+00 
    2.8872767815978926E+00 
    2.8739347118581331E+00 
    3.0371847624174531E+00 
    2.8879718125875331E+00 
    2.9793044097900796E+00 
    3.2445406836652708E+00 
    3.0487097468143527E+00 
    2.9800254660776164E+00 
    3.0716446530487347E+00 
    2.9057557772402260E+00 
    2.8986292965470408E+00 
    2.8723673483557315E+00 
    2.8767788386274060E+00 
    2.8778619550268258E+00 
    2.8698498005608246E+00 
    3.0750259510083149E+00 
    2.8746826899070435E+00 
    2.9407651017662508E+00 
    3.0534771515839978E+00 
    2.9545346725336272E+00 
    2.8874045848672432E+00 
    3.0175720124981638E+00 
    2.8673094567381572E+00 
    2.8675596599162656E+00 
    2.8781925391792811E+00 
    3.2118760202902723E+00 
    2.9935515209358217E+00 
    3.0638592112482699E+00 
    3.0698617343056376E+00 
    2.9651394243752907E+00 
    3.0392052253626249E+00 
    2.8911559042730719E+00 
    2.8124991437753382E+00 
    3.3891863539308278E+00 
    2.8397274549351468E+00 
    2.8580182781352428E+00 
    2.8570533866500147E+00 
    2.9813632367821503E+00 
    3.0524199654306403E+00 
    2.8117453047923640E+00 
    3.1081079887541692E+00 
    3.1305394251823828E+00 
    2.9660142667142355E+00 
    2.9105040381824074E+00 
    3.0941462147490082E+00 
    2.9682703326394360E+00 
    2.8797850007509114E+00 
    3.0635027396006334E+00 
    2.8484221362551123E+00 
    2.8470125221232139E+00 
    2.9785931206943950E+00 
    2.9206258009135553E+00 
    2.8221047303789533E+00 
    2.9101180086482832E+00 
    2.8317531548781871E+00 
    3.0838522773099633E+00 
    2.8394570125634329E+00 
    2.8979889508480623E+00 
    3.0504328292061365E+00 
    2.9201923797918869E+00 
    2.9684134010888221E+00 
    2.8373387517177027E+00 
    2.9454718727031985E+00 
    2.9517676671031317E+00 
    2.8808126414492539E+00 
    2.9207066397309234E+00 
    3.0574785488870688E+00 
    2.8316436525550168E+00 
    2.9182462882532465E+00 
    2.8858463132142163E+00 
    2.8868138292258463E+00 
    2.9376846698232169E+00 
    2.8784591272485938E+00 
    2.9275169413471787E+00 
    3.0709397939194103E+00 
    3.0868552629262931E+00 
    2.8282556059514237E+00 
    3.2558591663528103E+00 
    2.9434729524179075E+00 
    2.9019275024168780E+00 
    3.1165742967383854E+00 
    2.9727708526244814E+00 
    2.9902162657190532E+00 
    2.8858666790900069E+00 
    2.8770605819693582E+00 
    3.0109634966929550E+00 
    2.9667879202119298E+00 
    2.8227251809961915E+00 
    2.8857246937891268E+00 
    3.1457229253967949E+00 
    2.9611775034749646E+00 
    3.0435542309666146E+00 
    2.9791802023727811E+00 
    3.0581462241619133E+00 
    3.0109139718416635E+00 
    2.8203583315929852E+00 
    2.8611838607867899E+00 
    2.9123517582024809E+00 
    3.0884621680414432E+00 
    3.0414103747534784E+00 
    2.9079656092015318E+00 
    2.8783664337302675E+00 
    2.9062009562800828E+00 
    2.8918390021142586E+00 
    3.0250159534511858E+00 
    2.8818633702543703E+00 
    2.9889188474137307E+00 
    3.1875765474102087E+00 
    2.8751211243395232E+00 
    3.1510239742819679E+00 
    2.9315987534870476E+00 
    3.1665587675193856E+00 
    3.0525519511594599E+00 
    3.3017403569102295E+00 
    2.8987172491130302E+00 
    3.0391891775765747E+00 
    2.9526569998358054E+00 
    2.8698402896012629E+00 
    3.0681917804536196E+00 
    2.9430628377725596E+00 
    3.0779229791326359E+00 
    2.8743306365134642E+00 
    3.0420083482271685E+00 
    2.9323596817109920E+00 
    2.9703049464687212E+00 
    2.8381996786124479E+00 
    2.8785444877033104E+00 
    2.8642166198059469E+00 
    3.1108079542271683E+00 
    2.9009698287494894E+00 
    3.1783576891620275E+00 
    3.1285419156396879E+00 
    2.8897131184499014E+00 
    2.9301014152095473E+00 
    2.9128047442957641E+00 
    2.8357988921741435E+00 
    2.9361928197629239E+00 
    3.0567392554099775E+00 
    2.8885202531544598E+00 
    2.8461456228504365E+00 
    3.2069585842403803E+00 
    3.0250059379277192E+00 
    2.8128153914567231E+00 
    2.8119861555366139E+00 
    2.8591682271532668E+00 
    2.8668024702951116E+00 
    2.8437511712076291E+00 
    2.8322946415683425E+00 
    2.9078285291458190E+00 
    2.8960886652757987E+00 
    2.8044628211597189E+00 
    2.8039771461901766E+00 
    2.7626786989304466E+00 
    2.6832822344287997E+00 
    2.6784845891579536E+00 
    2.6902022466927984E+00 
    2.7105157335515266E+00 
    2.7089401558346835E+00 
    2.7786020321180254E+00 
    2.6527925536067305E+00 
    2.7623306729093695E+00 
    2.6661943958740273E+00 
    2.7384112235239724E+00 
    2.7026598232301304E+00 
    2.7010168974310989E+00 
    2.6744860085669639E+00 
    2.6595345745350976E+00 
    2.8287722472767003E+00 
    2.7757343347602119E+00 
    2.8062795397263476E+00 
    2.7706302009632049E+00 
    2.7227125163446644E+00 
    2.6629309162007435E+00 
    2.6525254140786556E+00 
    2.8239659783445004E+00 
    2.7363352231580609E+00 
    2.6486682503428871E+00 
    2.7095795107504972E+00 
    2.7953976931071178E+00 
    2.7956762491053073E+00 
    2.6264464734634481E+00 
    2.6513128913404116E+00 
    2.7393595217102682E+00 
    2.8074324085654823E+00 
    2.7792656606746697E+00 
    2.7209342982159028E+00 
    2.6869372436299619E+00 
    2.8385792817762363E+00 
    2.8090847256528422E+00 
    2.7951378676336058E+00 
    2.8570697040810566E+00 
    2.6862973475050693E+00 
    2.7054669555200888E+00 
    2.6988366121966512E+00 
    2.8214004666571024E+00 
    2.7043135272832810E+00 
    2.8014078081303779E+00 
    2.7530283187218507E+00 
    2.7498073311091140E+00 
    2.7336777871339581E+00 
    2.7360274532382975E+00 
    2.8085061430585783E+00 
    2.8038145696060819E+00 
    2.7448199730964244E+00 
    2.6772714311534083E+00 
    2.7338551946534393E+00 
    2.7277219478939041E+00 
    2.6489054730552919E+00 
    2.7820750374250438E+00 
    2.6546764223855148E+00 
    2.8081366237372367E+00 
    2.6659186651158997E+00 
    2.7636940106724950E+00 
    2.6940990648979182E+00 
    2.6240141153923364E+00 
    2.6232110400370399E+00 
    2.6321558623175814E+00 
    2.6339059188556759E+00 
    2.7314452789236099E+00 
    2.6341436658868833E+00 
    2.6611466198534948E+00 
    2.6656202571298198E+00 
    2.8438567532963006E+00 
    2.7369853425740578E+00 
    2.6584063578163306E+00 
    2.8075353821484521E+00 
    2.7129844891549029E+00 
    2.6926961798576161E+00 
    2.7865325766344218E+00 
    2.8406249829185164E+00 
    2.7701828309440688E+00 
    2.7733886095711235E+00 
    2.7435359968947961E+00 
    2.7617299394412154E+00 
    2.7915500280063572E+00 
    2.7884048409862965E+00 
    2.7844661501471299E+00 
    2.7898610723672670E+00 
    2.7508027196423601E+00 
    2.8032789208106301E+00 
    2.8033302888484593E+00 
    2.7665522067982882E+00 
    2.7770380725965040E+00 
    2.8279775977926915E+00 
    2.7902389930859131E+00 
    2.8006719316643802E+00 
    2.8322344590935780E+00 
    2.7109513639937632E+00 
    2.6964579531533879E+00 
    2.7650744567661687E+00 
    2.8092694915948604E+00 
    2.8413047861113303E+00 
    2.8044419091565533E+00 
    2.6278242756827512E+00 
    2.6912508524199019E+00 
    2.7612739282993046E+00 
    2.7262282068922556E+00 
    2.6723637258380184E+00 
    2.7910971687670529E+00 
    2.7604351118998944E+00 
    2.6620230662749194E+00 
    2.7794754183956059E+00 
    2.6812204623201019E+00 
    2.6973141233105360E+00 
    2.6913118434988075E+00 
    2.7672640143492044E+00 
    2.8015864268663666E+00 
    2.8241888800172519E+00 
    2.7882413930660563E+00 
    2.8179490671893141E+00 
    2.6757939464965879E+00 
    2.6624614264700801E+00 
    2.8240848759573582E+00 
    2.7841305962879259E+00 
    2.6248593972779979E+00 
    2.6259409863581555E+00 
    2.8363294682002902E+00 
    2.7521680994063962E+00 
    2.7928800783019576E+00 
    2.7620266880525408E+00 
    2.7139509228792091E+00 
    2.7658425720479616E+00 
    2.7812282696631705E+00 
    2.7485377745768917E+00 
    2.7423378007274093E+00 
    2.7419666619778438E+00 
    2.6324993808246111E+00 
    2.8135842466948415E+00 
    2.8577373348937365E+00 
    2.6336608588120365E+00 
    2.6332065056550404E+00 
    2.6337073282389771E+00 
    2.6330964634183669E+00 
    2.6343346034230350E+00 
    2.7940102438664662E+00 
    2.7179460780295517E+00 
    2.6423916234074354E+00 
    2.7786236855319708E+00 
    2.7764996026308535E+00 
    2.7096640906138370E+00 
    2.7289408217913071E+00 
    2.7175292104029354E+00 
    2.7462723837599139E+00 
    2.8202808143514599E+00 
    2.6329920043657982E+00 
    2.6338719143483202E+00 
    2.6841122672373059E+00 
    2.7377198409516037E+00 
    2.7977988003084091E+00 
    2.6616043887681409E+00 
    2.8235162487666874E+00 
    2.6345368549519881E+00 
    2.7131989953624487E+00 
    2.6211792873538449E+00 
    2.6218436341575586E+00 
    2.6467966919737256E+00 
    2.8245470114934754E+00 
    2.7607101722408762E+00 
    2.7253994212232930E+00 
    2.7507468308697827E+00 
    2.7744208259873973E+00 
    2.6323144771013798E+00 
    2.7218333275501552E+00 
    2.7617433664085858E+00 
    2.8234043446505699E+00 
    2.8122367666745096E+00 
    2.8083581771109696E+00 
    2.8242729295566331E+00 
    2.8312485621540575E+00 
    2.7441153901185911E+00 
    2.6650791261879494E+00 
    2.7726506006740630E+00 
    2.7705522789986459E+00 
    2.7170967572593314E+00 
    2.6348465259503420E+00 
    2.7672527631164474E+00 
    2.7855599097679393E+00 
    2.7951727410014344E+00 
    2.7805538130161662E+00 
    2.6287887415089419E+00 
    2.7744001812621666E+00 
    2.7689562942029808E+00 
    2.6384545063756626E+00 
    2.6759855842715008E+00 
    2.7609227048618652E+00 
    2.7779850244118567E+00 
    2.7716228077604574E+00 
    2.7865656407232682E+00 
    2.7855429803986942E+00 
    2.8208751431729766E+00 
    2.7657332587640728E+00 
    2.8008714282212646E+00 
    2.7558426753079619E+00 
    2.7738521797611742E+00 
    2.6355750845161001E+00 
    2.8390185196200064E+00 
    2.8167582600442773E+00 
    2.8301928630653488E+00 
    2.7145024414350396E+00 
    2.6991774248475386E+00 
    2.6817902628634216E+00 
    2.7924179891848682E+00 
    2.7618589499993456E+00 
    2.7965698800973602E+00 
    2.7064926594867145E+00 
    2.6420681245146729E+00 
    2.6666586272402988E+00 
    2.8085864394911164E+00 
    2.6627673560361584E+00 
    2.7451032375315223E+00 
    2.6863461502745225E+00 
    2.8072067866633730E+00 
    2.7592013504352790E+00 
    2.7419576407239421E+00 
    2.8334669741007303E+00 
    2.8262557594559405E+00 
    2.7272699536355298E+00 
    2.7157600634117647E+00 
    2.6882318509047916E+00 
    2.7347451149437463E+00 
    2.7951800584378015E+00 
    2.6326897069516919E+00 
    2.8190919707419391E+00 
    2.8334700085178612E+00 
    2.7250046410911435E+00 
    2.7186443251751804E+00 
    2.6562928157027179E+00 
    2.6351026448796975E+00 
    2.8284753887295571E+00 
    2.7011949372223780E+00 
    2.7632726368029985E+00 
    2.7256412439127398E+00 
    2.7746938987473353E+00 
    2.6685044159708200E+00 
    2.7481991932716299E+00 
    2.8282849729083481E+00 
    2.6896809841392830E+00 
    2.7258964238017627E+00 
    2.6790438472469003E+00 
    2.7357261662119825E+00 
    2.8354096927411230E+00 
    2.6959388862367444E+00 
    2.7614218205713326E+00 
    2.7063407211966863E+00 
    2.6434483583177109E+00 
    2.7855146543641052E+00 
    2.7857381044944263E+00 
    2.7692404545780263E+00 
    2.7043053133161674E+00 
    2.7007863097836116E+00 
    2.6538758241833840E+00 
    2.7640740491073141E+00 
    2.7845469171303789E+00 
    2.7445435905663729E+00 
    2.6612279809198633E+00 
    2.6956319547044583E+00 