# vtk DataFile Version 2.0
Pressure Field Data 
ASCII 
DATASET UNSTRUCTURED_GRID 

POINTS 2213 double 

    0.0000000000000000E+00     0.0000000000000000E+00     0.0000000000000000E+00 
    5.0000000000000000E-01     0.0000000000000000E+00     0.0000000000000000E+00 
    1.0000000000000000E+00     0.0000000000000000E+00     0.0000000000000000E+00 
    1.0000000000000000E+00     5.0000000000000000E-01     0.0000000000000000E+00 
    1.0000000000000000E+00     1.0000000000000000E+00     0.0000000000000000E+00 
    5.0000000000000000E-01     1.0000000000000000E+00     0.0000000000000000E+00 
    0.0000000000000000E+00     1.0000000000000000E+00     0.0000000000000000E+00 
    0.0000000000000000E+00     5.0000000000000000E-01     0.0000000000000000E+00 
    1.5624999999971041E-02     0.0000000000000000E+00     0.0000000000000000E+00 
    3.1249999999936742E-02     0.0000000000000000E+00     0.0000000000000000E+00 
    4.6874999999913257E-02     0.0000000000000000E+00     0.0000000000000000E+00 
    6.2499999999889783E-02     0.0000000000000000E+00     0.0000000000000000E+00 
    7.8124999999844805E-02     0.0000000000000000E+00     0.0000000000000000E+00 
    9.3749999999799827E-02     0.0000000000000000E+00     0.0000000000000000E+00 
    1.0937499999975490E-01     0.0000000000000000E+00     0.0000000000000000E+00 
    1.2499999999970990E-01     0.0000000000000000E+00     0.0000000000000000E+00 
    1.4062499999966460E-01     0.0000000000000000E+00     0.0000000000000000E+00 
    1.5624999999961930E-01     0.0000000000000000E+00     0.0000000000000000E+00 
    1.7187499999957390E-01     0.0000000000000000E+00     0.0000000000000000E+00 
    1.8749999999952860E-01     0.0000000000000000E+00     0.0000000000000000E+00 
    2.0312499999948330E-01     0.0000000000000000E+00     0.0000000000000000E+00 
    2.1874999999943801E-01     0.0000000000000000E+00     0.0000000000000000E+00 
    2.3437499999939271E-01     0.0000000000000000E+00     0.0000000000000000E+00 
    2.4999999999934730E-01     0.0000000000000000E+00     0.0000000000000000E+00 
    2.6562499999938810E-01     0.0000000000000000E+00     0.0000000000000000E+00 
    2.8124999999942890E-01     0.0000000000000000E+00     0.0000000000000000E+00 
    2.9687499999946970E-01     0.0000000000000000E+00     0.0000000000000000E+00 
    3.1249999999951050E-01     0.0000000000000000E+00     0.0000000000000000E+00 
    3.2812499999955130E-01     0.0000000000000000E+00     0.0000000000000000E+00 
    3.4374999999959210E-01     0.0000000000000000E+00     0.0000000000000000E+00 
    3.5937499999963290E-01     0.0000000000000000E+00     0.0000000000000000E+00 
    3.7499999999967371E-01     0.0000000000000000E+00     0.0000000000000000E+00 
    3.9062499999971451E-01     0.0000000000000000E+00     0.0000000000000000E+00 
    4.0624999999975520E-01     0.0000000000000000E+00     0.0000000000000000E+00 
    4.2187499999979600E-01     0.0000000000000000E+00     0.0000000000000000E+00 
    4.3749999999983680E-01     0.0000000000000000E+00     0.0000000000000000E+00 
    4.5312499999987760E-01     0.0000000000000000E+00     0.0000000000000000E+00 
    4.6874999999991840E-01     0.0000000000000000E+00     0.0000000000000000E+00 
    4.8437499999995920E-01     0.0000000000000000E+00     0.0000000000000000E+00 
    5.1562499999992384E-01     0.0000000000000000E+00     0.0000000000000000E+00 
    5.3124999999985478E-01     0.0000000000000000E+00     0.0000000000000000E+00 
    5.4687499999994527E-01     0.0000000000000000E+00     0.0000000000000000E+00 
    5.6249999999998668E-01     0.0000000000000000E+00     0.0000000000000000E+00 
    5.7812499999998068E-01     0.0000000000000000E+00     0.0000000000000000E+00 
    5.9374999999994749E-01     0.0000000000000000E+00     0.0000000000000000E+00 
    6.0937499999997913E-01     0.0000000000000000E+00     0.0000000000000000E+00 
    6.2500000000000000E-01     0.0000000000000000E+00     0.0000000000000000E+00 
    6.4062499999998945E-01     0.0000000000000000E+00     0.0000000000000000E+00 
    6.5624999999996603E-01     0.0000000000000000E+00     0.0000000000000000E+00 
    6.7187499999995337E-01     0.0000000000000000E+00     0.0000000000000000E+00 
    6.8749999999998734E-01     0.0000000000000000E+00     0.0000000000000000E+00 
    7.0312499999998124E-01     0.0000000000000000E+00     0.0000000000000000E+00 
    7.1874999999997025E-01     0.0000000000000000E+00     0.0000000000000000E+00 
    7.3437499999999034E-01     0.0000000000000000E+00     0.0000000000000000E+00 
    7.5000000000000000E-01     0.0000000000000000E+00     0.0000000000000000E+00 
    7.6562499999996902E-01     0.0000000000000000E+00     0.0000000000000000E+00 
    7.8124999999993228E-01     0.0000000000000000E+00     0.0000000000000000E+00 
    7.9687499999989997E-01     0.0000000000000000E+00     0.0000000000000000E+00 
    8.1249999999996247E-01     0.0000000000000000E+00     0.0000000000000000E+00 
    8.2812499999999578E-01     0.0000000000000000E+00     0.0000000000000000E+00 
    8.4374999999999556E-01     0.0000000000000000E+00     0.0000000000000000E+00 
    8.5937500000000111E-01     0.0000000000000000E+00     0.0000000000000000E+00 
    8.7499999999997691E-01     0.0000000000000000E+00     0.0000000000000000E+00 
    8.9062500000000921E-01     0.0000000000000000E+00     0.0000000000000000E+00 
    9.0625000000004452E-01     0.0000000000000000E+00     0.0000000000000000E+00 
    9.2187500000005529E-01     0.0000000000000000E+00     0.0000000000000000E+00 
    9.3750000000012723E-01     0.0000000000000000E+00     0.0000000000000000E+00 
    9.5312500000011835E-01     0.0000000000000000E+00     0.0000000000000000E+00 
    9.6875000000005151E-01     0.0000000000000000E+00     0.0000000000000000E+00 
    9.8437500000003086E-01     0.0000000000000000E+00     0.0000000000000000E+00 
    1.0000000000000000E+00     1.5624999999971041E-02     0.0000000000000000E+00 
    1.0000000000000000E+00     3.1249999999936742E-02     0.0000000000000000E+00 
    1.0000000000000000E+00     4.6874999999913257E-02     0.0000000000000000E+00 
    1.0000000000000000E+00     6.2499999999889783E-02     0.0000000000000000E+00 
    1.0000000000000000E+00     7.8124999999844805E-02     0.0000000000000000E+00 
    1.0000000000000000E+00     9.3749999999799827E-02     0.0000000000000000E+00 
    1.0000000000000000E+00     1.0937499999975490E-01     0.0000000000000000E+00 
    1.0000000000000000E+00     1.2499999999970990E-01     0.0000000000000000E+00 
    1.0000000000000000E+00     1.4062499999966460E-01     0.0000000000000000E+00 
    1.0000000000000000E+00     1.5624999999961930E-01     0.0000000000000000E+00 
    1.0000000000000000E+00     1.7187499999957390E-01     0.0000000000000000E+00 
    1.0000000000000000E+00     1.8749999999952860E-01     0.0000000000000000E+00 
    1.0000000000000000E+00     2.0312499999948330E-01     0.0000000000000000E+00 
    1.0000000000000000E+00     2.1874999999943801E-01     0.0000000000000000E+00 
    1.0000000000000000E+00     2.3437499999939271E-01     0.0000000000000000E+00 
    1.0000000000000000E+00     2.4999999999934730E-01     0.0000000000000000E+00 
    1.0000000000000000E+00     2.6562499999938810E-01     0.0000000000000000E+00 
    1.0000000000000000E+00     2.8124999999942890E-01     0.0000000000000000E+00 
    1.0000000000000000E+00     2.9687499999946970E-01     0.0000000000000000E+00 
    1.0000000000000000E+00     3.1249999999951050E-01     0.0000000000000000E+00 
    1.0000000000000000E+00     3.2812499999955130E-01     0.0000000000000000E+00 
    1.0000000000000000E+00     3.4374999999959210E-01     0.0000000000000000E+00 
    1.0000000000000000E+00     3.5937499999963290E-01     0.0000000000000000E+00 
    1.0000000000000000E+00     3.7499999999967371E-01     0.0000000000000000E+00 
    1.0000000000000000E+00     3.9062499999971451E-01     0.0000000000000000E+00 
    1.0000000000000000E+00     4.0624999999975520E-01     0.0000000000000000E+00 
    1.0000000000000000E+00     4.2187499999979600E-01     0.0000000000000000E+00 
    1.0000000000000000E+00     4.3749999999983680E-01     0.0000000000000000E+00 
    1.0000000000000000E+00     4.5312499999987760E-01     0.0000000000000000E+00 
    1.0000000000000000E+00     4.6874999999991840E-01     0.0000000000000000E+00 
    1.0000000000000000E+00     4.8437499999995920E-01     0.0000000000000000E+00 
    1.0000000000000000E+00     5.1562499999992384E-01     0.0000000000000000E+00 
    1.0000000000000000E+00     5.3124999999985478E-01     0.0000000000000000E+00 
    1.0000000000000000E+00     5.4687499999994527E-01     0.0000000000000000E+00 
    1.0000000000000000E+00     5.6249999999998668E-01     0.0000000000000000E+00 
    1.0000000000000000E+00     5.7812499999998068E-01     0.0000000000000000E+00 
    1.0000000000000000E+00     5.9374999999994749E-01     0.0000000000000000E+00 
    1.0000000000000000E+00     6.0937499999997913E-01     0.0000000000000000E+00 
    1.0000000000000000E+00     6.2500000000000000E-01     0.0000000000000000E+00 
    1.0000000000000000E+00     6.4062499999998945E-01     0.0000000000000000E+00 
    1.0000000000000000E+00     6.5624999999996603E-01     0.0000000000000000E+00 
    1.0000000000000000E+00     6.7187499999995337E-01     0.0000000000000000E+00 
    1.0000000000000000E+00     6.8749999999998734E-01     0.0000000000000000E+00 
    1.0000000000000000E+00     7.0312499999998124E-01     0.0000000000000000E+00 
    1.0000000000000000E+00     7.1874999999997025E-01     0.0000000000000000E+00 
    1.0000000000000000E+00     7.3437499999999034E-01     0.0000000000000000E+00 
    1.0000000000000000E+00     7.5000000000000000E-01     0.0000000000000000E+00 
    1.0000000000000000E+00     7.6562499999996902E-01     0.0000000000000000E+00 
    1.0000000000000000E+00     7.8124999999993228E-01     0.0000000000000000E+00 
    1.0000000000000000E+00     7.9687499999989997E-01     0.0000000000000000E+00 
[...]
CELL_DATA 2084 
SCALARS Pressure double 1 
LOOKUP_TABLE default 

    2.9048656402823743E+00 
    2.9349496104237862E+00 
    3.1328986266283518E+00 
    2.9357640142644734E+00 
    3.0471369467609719E+00 
    3.0012986831005364E+00 
    2.8744108613982529E+00 
    2.9850490683161977E+00 
    2.9958247225027281E+00 
    3.0515638298049526E+00 
    3.1269369078985680E+00 
    2.8899372642862660E+00 
    2.9733490252303816E+00 
    2.9320915658805062E+00 
    2.8996612809562659E+00 
    2.9208202980157498E+00 
    3.0860964356288969E+00 
    2.9538412271552201E+00 
    3.1595889071324144E+00 
    2.9124276925974324E+00 
    2.9162762242273041E+00 
    3.0294118141845652E+00 
    2.9190301033614796E+00 
    2.9690844473097688E+00 
    2.9085328069331444E+00 
    2.9707073966449404E+00 
    2.9270904884816855E+00 
    2.8777754250859116E+00 
    2.9780102518531346E+00 
    2.9423390061695964E+00 
    2.8660366361599841E+00 
    2.9858206121694963E+00 
    2.8524883073290095E+00 
    2.9155693789097556E+00 
    2.8938621789864158E+00 
    3.0406731404012528E+00 
    2.9480965884892050E+00 
    2.9435404024504153E+00 
    3.0293930759283492E+00 
    2.9868442268399722E+00 
    2.8806879446926383E+00 
    3.0563364064200953E+00 
    2.9089537815174751E+00 
    3.0084887640071178E+00 
    3.0003194894032812E+00 
    2.8885937335715965E+00 
    3.0546417619906929E+00 
    2.8706606298103163E+00 
    2.8729418876423152E+00 
    2.9742426846506023E+00 
    2.9714266974433166E+00 
    2.8769832312664341E+00 
    2.8882477235070900E+00 
    2.9571993083227150E+00 
    2.9584185031961256E+00 
    2.8807095300155598E+00 
    2.8583608845877171E+00 
    3.0150884903403661E+00 
    3.0268349233959850E+00 
    2.9658839778574930E+00 
    2.9645348396620368E+00 
    2.9130341706254734E+00 
    2.8926024168692770E+00 
    2.9297419125080548E+00 
    3.0520783551399200E+00 
    2.9614824327460432E+00 
    2.9956675873404750E+00 
    2.8869209371041857E+00 
    2.8713888253690407E+00 
    2.8705635245026162E+00 
    2.9064893890332431E+00 
    3.1900429789496267E+00 
    2.9715346872939419E+00 
    3.1099672375298062E+00 
    3.0230482166112087E+00 
    3.1073466336149567E+00 
    2.9668173535317872E+00 
    3.0437919336674066E+00 
    2.8895966918783174E+00 
    3.0615490436503792E+00 
    2.9197732237170380E+00 
    2.9864720889497933E+00 
    3.0136912939196341E+00 
    2.8647007639669595E+00 
    3.0009734130297248E+00 
    2.9175688911147359E+00 
    2.9509467453942890E+00 
    3.0035996346069957E+00 
    3.0243537368549172E+00 
    3.0151231907099896E+00 
    2.9963906600211798E+00 
    2.9927308241988828E+00 
    2.9218408542878636E+00 
    3.0132014564766889E+00 
    2.9535955579450364E+00 
    2.8769827510931618E+00 
    2.9380632375013125E+00 
    2.9791019971540216E+00 
    3.0372278217914657E+00 
    2.9422446543668159E+00 
    3.0493901494746671E+00 
    3.0109119265436628E+00 
    3.0271317920291434E+00 
    3.0285254262994106E+00 
    2.9540462442908986E+00 
    3.0126457736377223E+00 
    2.9840638991101085E+00 
    3.0379240722167538E+00 
    2.9023563153994401E+00 
    3.2225945713753545E+00 
    2.9250122059504706E+00 
    2.9780418945811942E+00 
    3.0101277014872641E+00 
    3.0662127186068004E+00 
    3.1206916607313371E+00 
    2.9312560862755661E+00 
    3.0133474023132982E+00 
    3.0099557936531172E+00 
    2.9444800998315839E+00 
    2.9098834539481069E+00 
    2.9607573919409536E+00 
    3.0258828738778223E+00 
    2.9101092156679362E+00 
    3.0943045295148863E+00 
    2.9827196895411876E+00 
    3.0264248466132058E+00 
    2.9628365061421253E+00 
    2.9101515859222520E+00 
    2.9486971290511081E+00 
    2.9196076301709355E+00 
    3.1168737260681567E+00 
    3.1296182365703027E+00 
    2.8830744429645048E+00 
    3.0520165647293349E+00 
    3.0374894650714417E+00 
    2.9642695826129368E+00 
    3.0179657860770837E+00 
    2.9088514250779234E+00 
    3.0358690505608794E+00 
    3.1001674004262609E+00 
    2.9993563309105395E+00 
    3.1439049645944532E+00 
    3.1102411744816854E+00 
    2.9826532042538445E+00 
    2.9317803831508056E+00 
    2.9782805054113712E+00 
    3.0112778064613797E+00 
    3.0345921831463740E+00 
    2.9536315604672092E+00 
    2.9981786856212400E+00 
    3.0039721232500529E+00 
    3.1011929757029724E+00 
    3.1768140872503956E+00 
    2.9529112332709238E+00 
    2.9625424139816223E+00 
    3.1595037863821687E+00 
    2.9186581554213684E+00 
    3.0069212037540791E+00 
    2.9575806697231979E+00 
    3.0938931102205611E+00 
    3.3033453138071049E+00 
    3.2421618874263429E+00 
    3.1805330566644940E+00 
    3.2014680681832290E+00 
    3.1516817776538955E+00 
    3.1685903758010041E+00 
    3.0090917867841180E+00 
    3.2158153901307576E+00 
    3.0000434873395703E+00 
    3.1613333443508380E+00 
    3.0003717748196115E+00 
    3.0870804164924195E+00 
    3.1055335795307659E+00 
    3.0409662435801552E+00 
    3.0794836248425810E+00 
    2.9404709106665390E+00 
    3.0825514174821924E+00 
    2.9903782153787852E+00 
    2.9983533021964299E+00 
    2.9971795231048213E+00 
    3.0227426567651317E+00 
    2.9381654931302235E+00 
    3.0878280094452388E+00 
    3.0252028048543882E+00 
    3.0213969220276047E+00 
    2.8565879222240702E+00 
    3.0466336928682072E+00 
    3.1122010580344859E+00 
    2.9463961549045217E+00 
    3.0688120786629614E+00 
    3.1274767752206176E+00 
    3.1503559862939627E+00 
    3.0231832801012462E+00 
    2.9639545407446164E+00 
    2.9294941906994607E+00 
    2.9489981691654901E+00 
    3.0538530154273982E+00 
    3.0152513623408175E+00 
    2.9603439586628086E+00 
    3.0585033491201359E+00 
    2.9902110647965192E+00 
    2.9514636848470630E+00 
    3.0227541523207817E+00 
    2.8911475166648528E+00 
    2.9506756502983102E+00 
    3.1312734335248331E+00 
    3.0531044341461664E+00 
    2.9419151779308148E+00 
    3.0773877781120733E+00 
    3.0693558364510358E+00 
    2.9569338535896872E+00 
    2.9793390193176768E+00 
    2.9853669397718492E+00 
    3.0429485937693528E+00 
    3.0390804463999439E+00 
    3.1050794157750232E+00 
    2.9742710699995452E+00 
    3.0396710989106830E+00 
    3.0545257695510228E+00 
    2.9617972244377579E+00 
    2.9695644859792423E+00 
    2.8471965919378968E+00 
    2.9639163168983118E+00 
    3.1407720363245901E+00 
    3.0147929566096012E+00 
    3.0384050560367228E+00 
    2.9902724351797700E+00 
    3.0385389970259138E+00 
    2.9493972652167946E+00 
    2.9360430559280020E+00 
    2.9079861074975635E+00 
    2.9461896174096056E+00 
    2.9128082688033299E+00 
    2.9745581973997228E+00 
    3.0245432336984677E+00 
    2.9268589162677991E+00 
    3.0715368879178797E+00 
    3.0738387458549514E+00 
    2.9708702108015852E+00 
    2.9362587198257621E+00 
    3.0245842750929581E+00 
    2.9565782309564343E+00 
    2.8982276469820403E+00 
    2.9494407015831792E+00 
    2.9048372502714801E+00 
    2.9057766044655149E+00 
    2.9612094492202390E+00 
    3.0103800734575223E+00 
    3.0913413233947780E+00 
    2.8936576452692027E+00 
    2.9473975621163593E+00 
    2.9234872369960061E+00 
    2.9469960081104856E+00 
    3.1891604811950547E+00 
    2.9105897406153285E+00 
    2.9850865843848244E+00 
    2.9224134350168232E+00 
    2.9635807153985927E+00 
    2.9330477519757352E+00 
    2.9724284866395099E+00 
    2.9222515082004104E+00 
    2.9687223421344551E+00 
    2.9350136278164318E+00 
    2.9723069108259290E+00 
    2.9305057009386690E+00 
    2.9292059794310545E+00 
    2.9044833656795470E+00 
    2.9157049943703646E+00 
    3.0716545510117839E+00 
    2.8830886241977005E+00 
    2.8935014673172290E+00 
    2.9429184737204217E+00 
    2.9266080341671050E+00 
    3.2584576321848218E+00 
    2.9458087435894851E+00 
    3.0414142626577729E+00 
    2.9377770338062232E+00 
    2.8776684898833031E+00 
    2.9595846395969740E+00 
    2.9166395669559706E+00 
    2.9755341422232977E+00 
    2.9310537981376994E+00 
    2.9313412544048321E+00 
    2.9438220199344651E+00 
    2.9070811440571624E+00 
    2.9455757913968537E+00 
    2.9318961786856788E+00 
    2.8836830550360837E+00 
    2.9205090466143604E+00 
    2.9203708283313330E+00 
    2.9401682047850852E+00 
    2.8757497078478127E+00 
    2.9233855853440613E+00 
    2.9399112928876105E+00 
    2.9743458701581651E+00 
    2.9098861592822449E+00 
    2.8972442452187925E+00 
    3.0537011533553353E+00 
    2.9105855688153643E+00 
    2.9976916792452397E+00 
    3.2584720959524804E+00 
    3.0649317130299742E+00 
    2.9984015579685952E+00 
    3.0873463859054362E+00 
    2.9273632127287557E+00 
    2.9206352948390224E+00 
    2.8958144780473476E+00 
    2.8999634691828731E+00 
    2.9010314167847793E+00 
    2.8933153818966426E+00 
    3.0906636662394296E+00 
    2.8978948305734726E+00 
    2.9607687571017216E+00 
    3.0695871763551708E+00 
    2.9738965145055118E+00 
    2.9100428619925149E+00 
    3.0346473425684279E+00 
    2.8910277319192801E+00 
    2.8913146794086102E+00 
    2.9013020531384535E+00 
    3.2259449764233912E+00 
    3.0114321439650209E+00 
    3.0797292590228005E+00 
    3.0856029349134855E+00 
    2.9840602251392450E+00 
    3.0556740973776972E+00 
    2.9134890985428021E+00 
    2.8396080261650942E+00 
    3.4028572926464187E+00 
    2.8650854056192903E+00 
    2.8822749991585881E+00 
    2.8814234837755528E+00 
    2.9996723906812930E+00 
    3.0685555870369550E+00 
    2.8389860884101337E+00 
    3.1231610359746496E+00 
    3.1452845530009750E+00 
    2.9849047215162288E+00 
    2.9319052275238313E+00 
    3.1094298151973154E+00 
    2.9870711814410509E+00 
    2.9027600325815124E+00 
    3.0793755907368752E+00 
    2.8732514652658740E+00 
    2.8719873292527440E+00 
    2.9970078347272522E+00 
    2.9415309881808995E+00 
    2.8485707142327588E+00 
    2.9314992473216073E+00 
    2.8576685425450234E+00 
    3.0993134882085140E+00 
    2.8648354385229395E+00 
    2.9199716232574082E+00 
    3.0666096016057343E+00 
    2.9410654028640382E+00 
    2.9872061147792959E+00 
    2.8629139309547376E+00 
    2.9652051087883073E+00 
    2.9712842505995467E+00 
    2.9037641119854398E+00 
    2.9416431965808547E+00 
    3.0734893234570695E+00 
    2.8575121152616285E+00 
    2.9392952691242575E+00 
    2.9084126960800649E+00 
    2.9093998451776844E+00 
    2.9577602574222075E+00 
    2.9014244534648532E+00 
    2.9481265131120189E+00 
    3.0866624606216457E+00 
    3.1022592842607630E+00 
    2.8544096974034567E+00 
    3.2697446441928033E+00 
    2.9633094810422773E+00 
    2.9236988894217300E+00 
    3.1315069919496872E+00 
    2.9913942069465054E+00 
    3.0082049091088097E+00 
    2.9085336938976982E+00 
    2.9002669959372369E+00 
    3.0282579719999054E+00 
    2.9856829963048641E+00 
    2.8491650175567242E+00 
    2.9083915682444696E+00 
    3.1602919969834353E+00 
    2.9802625627191994E+00 
    3.0599038082237868E+00 
    2.9975719676315684E+00 
    3.0741425254426979E+00 
    3.0282077021293312E+00 
    2.8470279484444934E+00 
    2.8852485467925884E+00 
    2.9335884160773751E+00 
    3.1038398010894852E+00 
    3.0578191956645719E+00 
    2.9294178874242278E+00 
    2.9015050945115628E+00 
    2.9277635104402751E+00 
    2.9142046670552277E+00 
    3.0418791556386653E+00 
    2.9046342872576094E+00 
    3.0069529045172962E+00 
    3.2017827278218083E+00 
    2.8983950283241104E+00 
    3.1655426650824117E+00 
    2.9519858730606812E+00 
    3.1809251655964101E+00 
    3.0686788909443128E+00 
    3.3155281157350216E+00 
    2.9206163945894361E+00 
    3.0556554234078694E+00 
    2.9721081024293685E+00 
    2.8933385188808574E+00 
    3.0839686430420667E+00 
    2.9629322013383823E+00 
    3.0935004009717120E+00 
    2.8975338432231283E+00 
    3.0584032684218543E+00 
    2.9526770645150666E+00 
    2.9890364519460841E+00 
    2.8636128570354402E+00 
    2.9015292100135746E+00 
    2.8880514130359098E+00 
    3.1258220597047015E+00 
    2.9227564115677565E+00 
    3.1926349836272094E+00 
    3.1433155586712975E+00 
    2.9121571010984386E+00 
    2.9505918646012841E+00 
    2.9340351174337229E+00 
    2.8614667594005523E+00 
    2.9563460586852419E+00 
    3.0727686514584707E+00 
    2.9111021298042870E+00 
    2.8711693126244637E+00 
    3.2210473939565145E+00 
    3.0418717838720144E+00 
    2.8399080953295477E+00 
    2.8392147608398419E+00 
    2.8833553619806489E+00 
    2.8905477281112173E+00 
    2.8689148479773996E+00 
    2.8581115371654953E+00 
    2.9292886409642769E+00 
    2.9181253022392069E+00 
    2.8321219037093122E+00 
    2.8317544221689936E+00 
    2.7935027180548206E+00 
    2.7218713752161618E+00 
    2.7163448830555388E+00 
    2.7245939164097868E+00 
    2.7458363072030347E+00 
    2.7431385546006268E+00 
    2.8081965759213969E+00 
    2.6958549662074640E+00 
    2.7928763334585023E+00 
    2.7050560257503222E+00 
    2.7708903570640619E+00 
    2.7388081308407877E+00 
    2.7361022005103708E+00 
    2.7097156411469556E+00 
    2.6984040937595464E+00 
    2.8547010171219780E+00 
    2.8052105277181236E+00 
    2.8332580273133554E+00 
    2.8007252209955129E+00 
    2.7554843872752204E+00 
    2.6995793979503193E+00 
    2.6938015356185652E+00 
    2.8499088421854371E+00 
    2.7679132858374382E+00 
    2.6933801588668795E+00 
    2.7451052583499447E+00 
    2.8237751602155132E+00 
    2.8239448752315135E+00 
    2.6729810150645941E+00 
    2.6936080442035957E+00 
    2.7708913255398215E+00 
    2.8348265180415333E+00 
    2.8084339950778636E+00 
    2.7550726445376799E+00 
    2.7248833387763582E+00 
    2.8638390939402822E+00 
    2.8358778114952217E+00 
    2.8235127654515022E+00 
    2.8811652007819508E+00 
    2.7242287874588826E+00 
    2.7413309214644879E+00 
    2.7354774098564691E+00 
    2.8478153460649294E+00 
    2.7400693530495999E+00 
    2.8291430060190152E+00 
    2.7845994002229681E+00 
    2.7813508321216953E+00 
    2.7652862908578149E+00 
    2.7690805719941589E+00 
    2.8355233810825031E+00 
    2.8309564011049364E+00 
    2.7771094069937159E+00 
    2.7164668612687963E+00 
    2.7669749636408860E+00 
    2.7611223216930378E+00 
    2.6944926724744778E+00 
    2.8113917055976798E+00 
    2.6988829437253288E+00 
    2.8351105940559980E+00 
    2.7058859442738892E+00 
    2.7943020515444101E+00 
    2.7307842049585971E+00 
    2.6708389307481677E+00 
    2.6701880762622001E+00 
    2.6775173411516051E+00 
    2.6725702797368367E+00 
    2.7647362080539866E+00 
    2.6730903664918624E+00 
    2.6980015945089186E+00 
    2.7013271731376225E+00 
    2.8686436463659777E+00 
    2.7695375756645588E+00 
    2.6980837374841933E+00 
    2.8344880126400551E+00 
    2.7480092220883834E+00 
    2.7279665962623194E+00 
    2.8154169408633560E+00 
    2.8656203122936241E+00 
    2.8002151138479334E+00 
    2.8032555423706187E+00 
    2.7759042023341021E+00 
    2.7925143470523546E+00 
    2.8195520651510564E+00 
    2.8164632206008320E+00 
    2.8129927404697566E+00 
    2.8177973806373702E+00 
    2.7820628061347570E+00 
    2.8310924086976446E+00 
    2.8310565261189198E+00 
    2.7969053755806019E+00 
    2.8066051871396058E+00 
    2.8536548014226675E+00 
    2.8182490449030388E+00 
    2.8279274997405413E+00 
    2.8576694731253101E+00 
    2.7459128187876600E+00 
    2.7328860537891666E+00 
    2.7951560926391630E+00 
    2.8361885306839292E+00 
    2.8662439215438207E+00 
    2.8314936002462918E+00 
    2.6750552395525258E+00 
    2.7287953308308754E+00 
    2.7921597504715199E+00 
    2.7601381261799034E+00 
    2.7090551252721564E+00 
    2.8191273219480473E+00 
    2.7908827443432753E+00 
    2.7043687642715559E+00 
    2.8084138093122548E+00 
    2.7192071794544610E+00 
    2.7339334502884696E+00 
    2.7287386456233103E+00 
    2.7977064790924251E+00 
    2.8290418161786839E+00 
    2.8502316045306486E+00 
    2.8170861694981935E+00 
    2.8441978345714825E+00 
    2.7153981103962925E+00 
    2.7004208235598215E+00 
    2.8500989810980411E+00 
    2.8124625576160383E+00 
    2.6721784539339426E+00 
    2.6730806678385179E+00 
    2.8617938494009811E+00 
    2.7837194750210856E+00 
    2.8208779035993090E+00 
    2.7922130051931702E+00 
    2.7489388165420765E+00 
    2.7959709773809140E+00 
    2.8104522461193597E+00 
    2.7801216748044419E+00 
    2.7746808493657462E+00 
    2.7743711148706023E+00 
    2.6705892954463009E+00 
    2.8400920392158624E+00 
    2.8817697855115822E+00 
    2.6715760079348079E+00 
    2.6710772568465648E+00 
    2.6722191479607047E+00 
    2.6714078559819314E+00 
    2.6773747497048128E+00 
    2.8220179544190751E+00 
    2.7521310718323488E+00 
    2.6884307313474474E+00 
    2.8081179004606081E+00 
    2.8055697449365344E+00 
    2.7429914144993872E+00 
    2.7625521054304039E+00 
    2.7522525879302107E+00 
    2.7783659951430661E+00 
    2.8466923981586660E+00 
    2.6709102049318205E+00 
    2.6720005101108071E+00 
    2.7216837680662089E+00 
    2.7701468967930891E+00 
    2.8253525444839709E+00 
    2.6979649251160795E+00 
    2.8496747161290417E+00 
    2.6757881092465037E+00 
    2.7462241161589556E+00 
    2.6682004978474558E+00 
    2.6686903586030861E+00 
    2.6901249932853197E+00 
    2.8505860162986223E+00 
    2.7910177075756759E+00 
    2.7588788298165179E+00 
    2.7821212118682630E+00 
    2.8035271593475746E+00 
    2.6766745777705547E+00 
    2.7560027626274826E+00 
    2.7923523921300091E+00 
    2.8493544298778510E+00 
    2.8394210702191551E+00 
    2.8356466089918086E+00 
    2.8502327456610628E+00 
    2.8568343609718911E+00 
    2.7758893212174645E+00 
    2.7008612718890941E+00 
    2.8017756338354447E+00 
    2.7997269530104045E+00 
    2.7500624188629450E+00 
    2.6773072515992062E+00 
    2.7965676014732042E+00 
    2.8137438158913937E+00 
    2.8227612190742777E+00 
    2.8090123698534715E+00 
    2.6751564914709736E+00 
    2.8032429139216144E+00 
    2.7981692250418790E+00 
    2.6844028122970824E+00 
    2.7122446741613948E+00 
    2.7914571234152024E+00 
    2.8067615553561849E+00 
    2.8008816934924328E+00 
    2.8154751152731068E+00 
    2.8144114753764695E+00 
    2.8474646414642346E+00 
    2.7954716533422195E+00 
    2.8287400387293733E+00 
    2.7870318702018619E+00 
    2.8035553260094765E+00 
    2.6750228988438218E+00 
    2.8641944866555238E+00 
    2.8431754870116555E+00 
    2.8557485927628923E+00 
    2.7493323559012803E+00 
    2.7349778473550987E+00 
    2.7174837602781365E+00 
    2.8206859688058228E+00 
    2.7919678632921126E+00 
    2.8246841164556731E+00 
    2.7405399164579900E+00 
    2.6878266416030252E+00 
    2.7070340682843588E+00 
    2.8356849141445610E+00 
    2.7025803652299709E+00 
    2.7771670580728895E+00 
    2.7207322138284931E+00 
    2.8344413927615530E+00 
    2.7894618923217034E+00 
    2.7737386127554124E+00 
    2.8590735938703249E+00 
    2.8524071984599018E+00 
    2.7609727994205668E+00 
    2.7504434799921746E+00 
    2.7257871584283380E+00 
    2.7676912878106035E+00 
    2.8234315424308973E+00 
    2.6725381060667877E+00 
    2.8457288346027574E+00 
    2.8591439321056686E+00 
    2.7588199868717140E+00 
    2.7531580980969554E+00 
    2.6951167165012015E+00 
    2.6765615588618021E+00 
    2.8545484777183221E+00 
    2.7355662371244041E+00 
    2.7929009067268140E+00 
    2.7590117419340006E+00 
    2.8045466585120069E+00 
    2.7091812623429714E+00 
    2.7795367024616291E+00 
    2.8541653225679067E+00 
    2.7243942959300136E+00 
    2.7578037803477371E+00 
    2.7176211349550199E+00 
    2.7681873793124696E+00 
    2.8610175137126679E+00 
    2.7305186130042074E+00 
    2.7910554194553838E+00 
    2.7419651226815747E+00 
    2.6894420950269389E+00 
    2.8146055916452291E+00 
    2.8147170183633019E+00 
    2.7994753030265485E+00 
    2.7402234039976094E+00 
    2.7365686705157328E+00 
    2.6979156322971845E+00 
    2.7944265946943281E+00 
    2.8135897315846834E+00 
    2.7760185447180543E+00 
    2.6984750561304978E+00 
    2.7325139314937092E+00 