# vtk DataFile Version 2.0
Pressure Field Data 
ASCII 
DATASET UNSTRUCTURED_GRID 

POINTS 2213 double 

    0.0000000000000000E+00     0.0000000000000000E+00     0.0000000000000000E+00 
    5.0000000000000000E-01     0.0000000000000000E+00     0.0000000000000000E+00 
    1.0000000000000000E+00     0.0000000000000000E+00     0.0000000000000000E+00 
    1.0000000000000000E+00     5.0000000000000000E-01     0.0000000000000000E+00 
    1.0000000000000000E+00     1.0000000000000000E+00     0.0000000000000000E+00 
    5.0000000000000000E-01     1.0000000000000000E+00     0.0000000000000000E+00 
    0.0000000000000000E+00     1.0000000000000000E+00     0.0000000000000000E+00 
    0.0000000000000000E+00     5.0000000000000000E-01     0.0000000000000000E+00 
    1.5624999999971041E-02     0.0000000000000000E+00     0.0000000000000000E+00 
    3.1249999999936742E-02     0.0000000000000000E+00     0.0000000000000000E+00 
    4.6874999999913257E-02     0.0000000000000000E+00     0.0000000000000000E+00 
    6.2499999999889783E-02     0.0000000000000000E+00     0.0000000000000000E+00 
    7.8124999999844805E-02     0.0000000000000000E+00     0.0000000000000000E+00 
    9.3749999999799827E-02     0.0000000000000000E+00     0.0000000000000000E+00 
    1.0937499999975490E-01     0.0000000000000000E+00     0.0000000000000000E+00 
    1.2499999999970990E-01     0.0000000000000000E+00     0.0000000000000000E+00 
    1.4062499999966460E-01     0.0000000000000000E+00     0.0000000000000000E+00 
    1.5624999999961930E-01     0.0000000000000000E+00     0.0000000000000000E+00 
    1.7187499999957390E-01     0.0000000000000000E+00     0.0000000000000000E+00 
    1.8749999999952860E-01     0.0000000000000000E+00     0.0000000000000000E+00 
    2.0312499999948330E-01     0.0000000000000000E+00     0.0000000000000000E+00 
    2.1874999999943801E-01     0.0000000000000000E+00     0.0000000000000000E+00 
    2.3437499999939271E-01     0.0000000000000000E+00     0.0000000000000000E+00 
    2.4999999999934730E-01     0.0000000000000000E+00     0.0000000000000000E+00 
    2.6562499999938810E-01     0.0000000000000000E+00     0.0000000000000000E+00 
    2.8124999999942890E-01     0.0000000000000000E+00     0.0000000000000000E+00 
    2.9687499999946970E-01     0.0000000000000000E+00     0.0000000000000000E+00 
    3.1249999999951050E-01     0.0000000000000000E+00     0.0000000000000000E+00 
    3.2812499999955130E-01     0.0000000000000000E+00     0.0000000000000000E+00 
    3.4374999999959210E-01     0.0000000000000000E+00     0.0000000000000000E+00 
    3.5937499999963290E-01     0.0000000000000000E+00     0.0000000000000000E+00 
    3.7499999999967371E-01     0.0000000000000000E+00     0.0000000000000000E+00 
    3.9062499999971451E-01     0.0000000000000000E+00     0.0000000000000000E+00 
    4.0624999999975520E-01     0.0000000000000000E+00     0.0000000000000000E+00 
    4.2187499999979600E-01     0.0000000000000000E+00     0.0000000000000000E+00 
    4.3749999999983680E-01     0.0000000000000000E+00     0.0000000000000000E+00 
    4.5312499999987760E-01     0.0000000000000000E+00     0.0000000000000000E+00 
    4.6874999999991840E-01     0.0000000000000000E+00     0.0000000000000000E+00 
    4.8437499999995920E-01     0.0000000000000000E+00     0.0000000000000000E+00 
    5.1562499999992384E-01     0.0000000000000000E+00     0.0000000000000000E+00 
    5.3124999999985478E-01     0.0000000000000000E+00     0.0000000000000000E+00 
    5.4687499999994527E-01     0.0000000000000000E+00     0.0000000000000000E+00 
    5.6249999999998668E-01     0.0000000000000000E+00     0.0000000000000000E+00 
    5.7812499999998068E-01     0.0000000000000000E+00     0.0000000000000000E+00 
    5.9374999999994749E-01     0.0000000000000000E+00     0.0000000000000000E+00 
    6.0937499999997913E-01     0.0000000000000000E+00     0.0000000000000000E+00 
    6.2500000000000000E-01     0.0000000000000000E+00     0.0000000000000000E+00 
    6.4062499999998945E-01     0.0000000000000000E+00     0.0000000000000000E+00 
    6.5624999999996603E-01     0.0000000000000000E+00     0.0000000000000000E+00 
    6.7187499999995337E-01     0.0000000000000000E+00     0.0000000000000000E+00 
    6.8749999999998734E-01     0.0000000000000000E+00     0.0000000000000000E+00 
    7.0312499999998124E-01     0.0000000000000000E+00     0.0000000000000000E+00 
    7.1874999999997025E-01     0.0000000000000000E+00     0.0000000000000000E+00 
    7.3437499999999034E-01     0.0000000000000000E+00     0.0000000000000000E+00 
    7.5000000000000000E-01     0.0000000000000000E+00     0.0000000000000000E+00 
    7.6562499999996902E-01     0.0000000000000000E+00     0.0000000000000000E+00 
    7.8124999999993228E-01     0.0000000000000000E+00     0.0000000000000000E+00 
    7.9687499999989997E-01     0.0000000000000000E+00     0.0000000000000000E+00 
    8.1249999999996247E-01     0.0000000000000000E+00     0.0000000000000000E+00 
    8.2812499999999578E-01     0.0000000000000000E+00     0.0000000000000000E+00 
    8.4374999999999556E-01     0.0000000000000000E+00     0.0000000000000000E+00 
    8.5937500000000111E-01     0.0000000000000000E+00     0.0000000000000000E+00 
    8.7499999999997691E-01     0.0000000000000000E+00     0.0000000000000000E+00 
    8.9062500000000921E-01     0.0000000000000000E+00     0.0000000000000000E+00 
    9.0625000000004452E-01     0.0000000000000000E+00     0.0000000000000000E+00 
    9.2187500000005529E-01     0.0000000000000000E+00     0.0000000000000000E+00 
    9.3750000000012723E-01     0.0000000000000000E+00     0.0000000000000000E+00 
    9.5312500000011835E-01     0.0000000000000000E+00     0.0000000000000000E+00 
    9.6875000000005151E-01     0.0000000000000000E+00     0.0000000000000000E+00 
    9.8437500000003086E-01     0.0000000000000000E+00     0.0000000000000000E+00 
    1.0000000000000000E+00     1.5624999999971041E-02     0.0000000000000000E+00 
    1.0000000000000000E+00     3.1249999999936742E-02     0.0000000000000000E+00 
    1.0000000000000000E+00     4.6874999999913257E-02     0.0000000000000000E+00 
    1.0000000000000000E+00     6.2499999999889783E-02     0.0000000000000000E+00 
    1.0000000000000000E+00     7.8124999999844805E-02     0.0000000000000000E+00 
    1.0000000000000000E+00     9.3749999999799827E-02     0.0000000000000000E+00 
    1.0000000000000000E+00     1.0937499999975490E-01     0.0000000000000000E+00 
    1.0000000000000000E+00     1.2499999999970990E-01     0.0000000000000000E+00 
    1.0000000000000000E+00     1.4062499999966460E-01     0.0000000000000000E+00 
    1.0000000000000000E+00     1.5624999999961930E-01     0.0000000000000000E+00 
    1.0000000000000000E+00     1.7187499999957390E-01     0.0000000000000000E+00 
    1.0000000000000000E+00     1.8749999999952860E-01     0.0000000000000000E+00 
    1.0000000000000000E+00     2.0312499999948330E-01     0.0000000000000000E+00 
    1.0000000000000000E+00     2.1874999999943801E-01     0.0000000000000000E+00 
    1.0000000000000000E+00     2.3437499999939271E-01     0.0000000000000000E+00 
    1.0000000000000000E+00     2.4999999999934730E-01     0.0000000000000000E+00 
    1.0000000000000000E+00     2.6562499999938810E-01     0.0000000000000000E+00 
    1.0000000000000000E+00     2.8124999999942890E-01     0.0000000000000000E+00 
    1.0000000000000000E+00     2.9687499999946970E-01     0.0000000000000000E+00 
    1.0000000000000000E+00     3.1249999999951050E-01     0.0000000000000000E+00 
    1.0000000000000000E+00     3.2812499999955130E-01     0.0000000000000000E+00 
    1.0000000000000000E+00     3.4374999999959210E-01     0.0000000000000000E+00 
    1.0000000000000000E+00     3.5937499999963290E-01     0.0000000000000000E+00 
    1.0000000000000000E+00     3.7499999999967371E-01     0.0000000000000000E+00 
    1.0000000000000000E+00     3.9062499999971451E-01     0.0000000000000000E+00 
    1.0000000000000000E+00     4.0624999999975520E-01     0.0000000000000000E+00 
    1.0000000000000000E+00     4.2187499999979600E-01     0.0000000000000000E+00 
    1.0000000000000000E+00     4.3749999999983680E-01     0.0000000000000000E+00 
    1.0000000000000000E+00     4.5312499999987760E-01     0.0000000000000000E+00 
    1.0000000000000000E+00     4.6874999999991840E-01     0.0000000000000000E+00 
    1.0000000000000000E+00     4.8437499999995920E-01     0.0000000000000000E+00 
    1.0000000000000000E+00     5.1562499999992384E-01     0.0000000000000000E+00 
    1.0000000000000000E+00     5.3124999999985478E-01     0.0000000000000000E+00 
    1.0000000000000000E+00     5.4687499999994527E-01     0.0000000000000000E+00 
    1.0000000000000000E+00     5.6249999999998668E-01     0.0000000000000000E+00 
    1.0000000000000000E+00     5.7812499999998068E-01     0.0000000000000000E+00 
    1.0000000000000000E+00     5.9374999999994749E-01     0.0000000000000000E+00 
    1.0000000000000000E+00     6.0937499999997913E-01     0.0000000000000000E+00 
    1.0000000000000000E+00     6.2500000000000000E-01     0.0000000000000000E+00 
    1.0000000000000000E+00     6.4062499999998945E-01     0.0000000000000000E+00 
    1.0000000000000000E+00     6.5624999999996603E-01     0.0000000000000000E+00 
    1.0000000000000000E+00     6.7187499999995337E-01     0.0000000000000000E+00 
    1.0000000000000000E+00     6.8749999999998734E-01     0.0000000000000000E+00 
    1.0000000000000000E+00     7.0312499999998124E-01     0.0000000000000000E+00 
    1.0000000000000000E+00     7.1874999999997025E-01     0.0000000000000000E+00 
    1.0000000000000000E+00     7.3437499999999034E-01     0.0000000000000000E+00 
    1.0000000000000000E+00     7.5000000000000000E-01     0.0000000000000000E+00 
    1.0000000000000000E+00     7.6562499999996902E-01     0.0000000000000000E+00 
    1.0000000000000000E+00     7.8124999999993228E-01     0.0000000000000000E+00 
    1.0000000000000000E+00     7.9687499999989997E-01     0.0000000000000000E+00 
[...]
CELL_DATA 2084 
SCALARS Pressure double 1 
LOOKUP_TABLE default 

    2.2645683735513367E+00 
    2.2902266586381907E+00 
    2.4713843314410795E+00 
    2.2909227605135078E+00 
    2.3902826500178027E+00 
    2.3485729417782872E+00 
    2.2388234186110667E+00 
    2.3340774640004396E+00 
    2.3436699581405636E+00 
    2.3943864168860056E+00 
    2.4656488538402797E+00 
    2.2520050793687436E+00 
    2.3237037233182822E+00 
    2.2878089779932167E+00 
    2.2600235933049619E+00 
    2.2781546095073968E+00 
    2.4266804957327452E+00 
    2.3066260546772681E+00 
    2.4972200540857208E+00 
    2.2708788905273321E+00 
    2.2742417425901769E+00 
    2.3740066274727867E+00 
    2.2766254348211654E+00 
    2.3199457322772408E+00 
    2.2675578458868970E+00 
    2.3213993350864999E+00 
    2.2834968911543845E+00 
    2.2418267956751423E+00 
    2.3278301435190616E+00 
    2.2965239778041582E+00 
    2.2318536153108322E+00 
    2.3346884757015998E+00 
    2.2209410781074412E+00 
    2.2735645590620317E+00 
    2.2552943243793058E+00 
    2.3843409153069866E+00 
    2.3016281233264451E+00 
    2.2976801309560320E+00 
    2.3739864017824415E+00 
    2.3356125040698239E+00 
    2.2440624796764572E+00 
    2.3988119928154483E+00 
    2.2678927263909272E+00 
    2.3549992845190970E+00 
    2.3476949534920095E+00 
    2.2506925284066943E+00 
    2.3972444215238582E+00 
    2.2359322195008025E+00 
    2.2375913773421896E+00 
    2.3244389172907476E+00 
    2.3220140983815232E+00 
    2.2411845747403660E+00 
    2.2506076367949102E+00 
    2.3095489376140375E+00 
    2.3106225399234890E+00 
    2.2443083945336810E+00 
    2.2257590637835420E+00 
    2.3609875575246324E+00 
    2.3716659913232192E+00 
    2.3170865922820445E+00 
    2.3158712654960460E+00 
    2.2715139124394619E+00 
    2.2540646009603305E+00 
    2.2856607030269775E+00 
    2.3948598789485320E+00 
    2.3132151418701903E+00 
    2.3435032914087444E+00 
    2.2492870738853559E+00 
    2.2365223764788404E+00 
    2.2356087957426656E+00 
    2.2658005045448073E+00 
    2.5269528117301054E+00 
    2.3221249769684200E+00 
    2.4493746379872023E+00 
    2.3682101313852923E+00 
    2.4468598596467279E+00 
    2.3179708274484709E+00 
    2.3872020368161428E+00 
    2.2517318747710302E+00 
    2.4036670580652677E+00 
    2.2772524055019043E+00 
    2.3352679471071678E+00 
    2.3597260274450607E+00 
    2.2309860057976332E+00 
    2.3482759222142473E+00 
    2.2752317987943269E+00 
    2.3041058096177305E+00 
    2.3506278031975447E+00 
    2.3693939204492738E+00 
    2.3610219907818877E+00 
    2.3441651990513845E+00 
    2.3408719418128401E+00 
    2.2789831951543795E+00 
    2.3592854754570736E+00 
    2.3063028541376354E+00 
    2.2409614538328761E+00 
    2.2929418695988537E+00 
    2.3287488514479611E+00 
    2.3811606322876577E+00 
    2.2964471955032679E+00 
    2.3923795120469822E+00 
    2.3572059099410434E+00 
    2.3719352974924348E+00 
    2.3732007648556688E+00 
    2.3066999320687809E+00 
    2.3587750327617112E+00 
    2.3331798178570224E+00 
    2.3818090755013910E+00 
    2.2624687354613711E+00 
    2.5589536669396740E+00 
    2.2817330874192452E+00 
    2.3278491127408043E+00 
    2.3565037939441074E+00 
    2.4080217127627552E+00 
    2.4596213973653844E+00 
    2.2870847870885425E+00 
    2.3594085810792449E+00 
    2.3563491834654191E+00 
    2.2983876152195788E+00 
    2.2687470478035539E+00 
    2.3126552386566215E+00 
    2.3707918198822981E+00 
    2.2689631143953242E+00 
    2.4344678409840137E+00 
    2.3320065824216178E+00 
    2.3712782304605113E+00 
    2.3144878506049364E+00 
    2.2689867039712288E+00 
    2.3020557647745643E+00 
    2.2769752160554297E+00 
    2.4559597706579805E+00 
    2.4682069841429404E+00 
    2.2460592534214121E+00 
    2.3948154773408956E+00 
    2.3814164445305259E+00 
    2.3156422203634919E+00 
    2.3635889957325622E+00 
    2.2678593151053232E+00 
    2.3799272010472605E+00 
    2.4400314552626248E+00 
    2.3468234159244985E+00 
    2.4819800146637738E+00 
    2.4496261673125650E+00 
    2.3319044941961460E+00 
    2.2874166687061979E+00 
    2.3280539794423003E+00 
    2.3575429085280732E+00 
    2.3787414330726895E+00 
    2.3063321396587915E+00 
    2.3457578679447626E+00 
    2.3509617077908183E+00 
    2.4409890683631725E+00 
    2.5139846745700871E+00 
    2.3057328853510040E+00 
    2.3141831750401520E+00 
    2.4971239821075000E+00 
    2.2761589825704323E+00 
    2.3535924611193342E+00 
    2.3098448114454491E+00 
    2.4340720757006213E+00 
    2.6389924203445143E+00 
    2.5783032648623792E+00 
    2.5176532841643047E+00 
    2.5381666800881075E+00 
    2.4895491176776279E+00 
    2.5059827963191119E+00 
    2.3555651739959136E+00 
    2.5522942856622901E+00 
    2.3474354439508565E+00 
    2.4988904999739554E+00 
    2.3477315531100431E+00 
    2.4276111133321083E+00 
    2.4451498733347314E+00 
    2.3846148064778161E+00 
    2.4204577868787185E+00 
    2.2950224521785714E+00 
    2.4233562217360078E+00 
    2.3388037280437475E+00 
    2.3459220132788650E+00 
    2.3448752963994797E+00 
    2.3679291677435295E+00 
    2.2930252746288557E+00 
    2.4283313544566822E+00 
    2.3701767687036956E+00 
    2.3667087812568450E+00 
    2.2240264756311690E+00 
    2.3898150613783562E+00 
    2.4514876389166700E+00 
    2.3001254218285063E+00 
    2.4104456652372965E+00 
    2.4661346504136787E+00 
    2.4882314028102872E+00 
    2.3683374010345073E+00 
    2.3154456475958254E+00 
    2.2855760594353991E+00 
    2.3023831564158908E+00 
    2.3965045643363805E+00 
    2.3611392352585820E+00 
    2.3122896448255408E+00 
    2.4008109296760218E+00 
    2.3386544624575674E+00 
    2.3045217572463939E+00 
    2.3679416489344147E+00 
    2.2530418404177279E+00 
    2.3038235354488332E+00 
    2.4697859910188900E+00 
    2.3958186636713328E+00 
    2.2962692807633776E+00 
    2.4184928475713892E+00 
    2.4109633742493077E+00 
    2.3092265420983318E+00 
    2.3289387932385059E+00 
    2.3343211293843402E+00 
    2.3864265701172220E+00 
    2.3828597663359266E+00 
    2.4446992005375834E+00 
    2.3244481342139842E+00 
    2.3834235290712367E+00 
    2.3971462753624433E+00 
    2.3135256688638557E+00 
    2.3203337267799005E+00 
    2.2165962248917834E+00 
    2.3154048044339519E+00 
    2.4789577812858545E+00 
    2.3607226892710131E+00 
    2.3822553482255691E+00 
    2.3387050366177635E+00 
    2.3823740535113367E+00 
    2.3027456834349729E+00 
    2.2910947243507147E+00 
    2.2672300827677554E+00 
    2.2999699003071079E+00 
    2.2713244724812491E+00 
    2.3247520111313742E+00 
    2.3695560147207679E+00 
    2.2833167974700408E+00 
    2.4130092332607500E+00 
    2.4151508490130422E+00 
    2.3215044213892964E+00 
    2.2913409998720700E+00 
    2.3696119071619419E+00 
    2.3089416780610290E+00 
    2.2589611806078866E+00 
    2.3027389122633855E+00 
    2.2645129085384355E+00 
    2.2651961202185107E+00 
    2.3130358428133380E+00 
    2.3567060476640909E+00 
    2.4316301949670884E+00 
    2.2549531023874900E+00 
    2.3010157320496174E+00 
    2.2802994740405209E+00 
    2.3006032464693620E+00 
    2.5260705710768079E+00 
    2.2694167159199399E+00 
    2.3341090912886338E+00 
    2.2795052939962734E+00 
    2.3150343690787056E+00 
    2.2886276050959093E+00 
    2.3228637085274979E+00 
    2.2792991772933653E+00 
    2.3195619888192431E+00 
    2.2902341444681311E+00 
    2.3228093469951085E+00 
    2.2863131609003879E+00 
    2.2853273407679473E+00 
    2.2641121080053837E+00 
    2.2736537234513317E+00 
    2.4131014312272572E+00 
    2.2462529677600411E+00 
    2.2548236569879410E+00 
    2.2970220888544950E+00 
    2.2830115548737493E+00 
    2.5944009697997408E+00 
    2.2995959929791985E+00 
    2.3850065480531879E+00 
    2.2926282800914390E+00 
    2.2417693762277078E+00 
    2.3115796871240062E+00 
    2.2745796848132804E+00 
    2.3255647505430721E+00 
    2.2867781438494039E+00 
    2.2871659186454751E+00 
    2.2978394494266583E+00 
    2.2663465929393185E+00 
    2.2994239592287422E+00 
    2.2876302344292068E+00 
    2.2467714157057981E+00 
    2.2777372904601672E+00 
    2.2777712813208009E+00 
    2.2946663354520584E+00 
    2.2399369700783569E+00 
    2.2802909979173056E+00 
    2.2944820098745589E+00 
    2.3245605054010361E+00 
    2.2686855363092864E+00 
    2.2579777701709061E+00 
    2.3963566286341167E+00 
    2.2694405914772759E+00 
    2.3452853300126599E+00 
    2.5944470182002952E+00 
    2.4068159310401356E+00 
    2.3459742234541876E+00 
    2.4278618239902041E+00 
    2.2836311470952722E+00 
    2.2778465868385616E+00 
    2.2569509933110781E+00 
    2.2602768080929674E+00 
    2.2613560144581752E+00 
    2.2546710021777772E+00 
    2.4310128033072052E+00 
    2.2586599369649552E+00 
    2.3126809259065255E+00 
    2.4111684233278576E+00 
    2.3241846063586147E+00 
    2.2689775006002648E+00 
    2.3787909513660228E+00 
    2.2527399853893630E+00 
    2.2531827572109182E+00 
    2.2615743712329923E+00 
    2.5622657212622326E+00 
    2.3576870158485597E+00 
    2.4206867009485711E+00 
    2.4262210319997011E+00 
    2.3331723186488031E+00 
    2.3982107692238821E+00 
    2.2718763080004010E+00 
    2.2100695480208334E+00 
    2.7381789035497119E+00 
    2.2310686455701818E+00 
    2.2453936962075640E+00 
    2.2449057019910512E+00 
    2.3470641140897954E+00 
    2.4102137935709211E+00 
    2.2098867156957689E+00 
    2.4619954930042032E+00 
    2.4833269676124967E+00 
    2.3339328665368049E+00 
    2.2875134779723099E+00 
    2.4488607938233304E+00 
    2.3358426701221817E+00 
    2.2626434909844568E+00 
    2.4203386833270550E+00 
    2.2378597643704574E+00 
    2.2370482371818103E+00 
    2.3446885171530778E+00 
    2.2958181024814226E+00 
    2.2174218384771125E+00 
    2.2871964748712514E+00 
    2.2251984259740158E+00 
    2.4392055071008594E+00 
    2.2308632577931906E+00 
    2.2773080305167195E+00 
    2.4083700136820161E+00 
    2.2955097531998532E+00 
    2.3359654834731365E+00 
    2.2295345149588863E+00 
    2.3165318625634419E+00 
    2.3219056774548008E+00 
    2.2636527102824444E+00 
    2.2960415348988139E+00 
    2.4148162239575002E+00 
    2.2248004238308199E+00 
    2.2940096144264510E+00 
    2.2675353711741431E+00 
    2.2682760278215577E+00 
    2.3100190699366521E+00 
    2.2615352381703158E+00 
    2.3016554952579868E+00 
    2.4272326047322115E+00 
    2.4420011196457208E+00 
    2.2225236979589251E+00 
    2.6056040239169249E+00 
    2.3148756996576436E+00 
    2.2805077459970970E+00 
    2.4700310480041479E+00 
    2.3397005788583853E+00 
    2.3547543700750948E+00 
    2.2676866360820496E+00 
    2.2607086007759070E+00 
    2.3729592758360099E+00 
    2.3346410929086847E+00 
    2.2179174816653724E+00 
    2.2674160861093942E+00 
    2.4978835575518401E+00 
    2.3298109568590299E+00 
    2.4021221464273101E+00 
    2.3451797039804285E+00 
    2.4154285550213923E+00 
    2.3729087938964275E+00 
    2.2164637434251167E+00 
    2.2478873238960100E+00 
    2.2890277964527423E+00 
    2.4435130168373136E+00 
    2.4001852321523054E+00 
    2.2854665005749397E+00 
    2.2617543813648426E+00 
    2.2840685466809427E+00 
    2.2725133119462928E+00 
    2.3854424352265853E+00 
    2.2642619416988690E+00 
    2.3536313508833580E+00 
    2.5384506583817172E+00 
    2.2589507463547043E+00 
    2.5030059859462583E+00 
    2.3048963928405346E+00 
    2.5179997839564399E+00 
    2.4103059510348852E+00 
    2.6511429959678501E+00 
    2.2778912827176829E+00 
    2.3981726989713952E+00 
    2.3225390407384028E+00 
    2.2548285748301344E+00 
    2.4246839270268872E+00 
    2.3144661165700460E+00 
    2.4336938445867551E+00 
    2.2582376592288496E+00 
    2.4007316456399330E+00 
    2.3055877783140617E+00 
    2.3375534998138465E+00 
    2.2298354033160885E+00 
    2.2617220595197276E+00 
    2.2503963154486764E+00 
    2.4645564576536940E+00 
    2.2797412488882363E+00 
    2.5294837010285098E+00 
    2.4814314525345318E+00 
    2.2706222257565112E+00 
    2.3038016455871202E+00 
    2.2894496017428612E+00 
    2.2283357096589138E+00 
    2.3087855948945566E+00 
    2.4141399845643563E+00 
    2.2698776071822833E+00 
    2.2363652414979991E+00 
    2.5574182456631185E+00 
    2.3854404764419246E+00 
    2.2103176162104154E+00 
    2.2100760906640908E+00 
    2.2462995142875801E+00 
    2.2523371141028927E+00 
    2.2344909149803645E+00 
    2.2252892000375648E+00 
    2.2853219782409924E+00 
    2.2757540784113610E+00 
    2.2039561322965397E+00 
    2.2040032298031891E+00 
    2.1732663669680252E+00 
    2.1181577066764912E+00 
    2.1121004217393380E+00 
    2.1172507220995489E+00 
    2.1354116083152355E+00 
    2.1327855371654278E+00 
    2.1849855007227807E+00 
    2.0988199694942153E+00 
    2.1725314580505373E+00 
    2.1032104385683814E+00 
    2.1547238151981407E+00 
    2.1300443528587776E+00 
    2.1274510003346063E+00 
    2.1052831342160316E+00 
    2.0982870247777550E+00 
    2.2224513330272102E+00 
    2.1823522505160837E+00 
    2.2047399265519800E+00 
    2.1785704932287615E+00 
    2.1419928153848775E+00 
    2.0976181314619189E+00 
    2.0951914635992432E+00 
    2.2184556966770823E+00 
    2.1517989320593185E+00 
    2.0972124178450833E+00 
    2.1355163034959133E+00 
    2.1975347177948081E+00 
    2.1973051821832494E+00 
    2.0859703967474088E+00 
    2.0963061395962619E+00 
    2.1542556726246906E+00 
    2.2061442695781559E+00 
    2.1846289629224733E+00 
    2.1429005632754321E+00 
    2.1195300470907732E+00 
    2.2300077614513789E+00 
    2.2069473727487945E+00 
    2.1973083835226968E+00 
    2.2445432610658220E+00 
    2.1189418957447774E+00 
    2.1325601276592843E+00 
    2.1281991662696882E+00 
    2.2167749033770709E+00 
    2.1313692745503343E+00 
    2.2014791491123722E+00 
    2.1661907734034571E+00 
    2.1630070466636071E+00 
    2.1496316635868915E+00 
    2.1540422954028129E+00 
    2.2066251025286050E+00 
    2.2029379047794380E+00 
    2.1603231692421807E+00 
    2.1132497981390590E+00 
    2.1518223445662206E+00 
    2.1470414556764159E+00 
    2.0997414905781677E+00 
    2.1875335441914912E+00 
    2.1024391529436817E+00 
    2.2062724329772969E+00 
    2.1053126632956358E+00 
    2.1734201849255150E+00 
    2.1241647748698087E+00 
    2.0839355857784776E+00 
    2.0850281778765964E+00 
    2.0847604818212186E+00 
    2.0764187538601124E+00 
    2.1500362194058642E+00 
    2.0771391946620459E+00 
    2.0965805110109463E+00 
    2.0985516171172032E+00 
    2.2340237718362981E+00 
    2.1540403293154116E+00 
    2.0985158132270465E+00 
    2.2057533810128302E+00 
    2.1370420297276764E+00 
    2.1207071683867165E+00 
    2.1903785194843985E+00 
    2.2314865031745854E+00 
    2.1781082850092477E+00 
    2.1805889714251108E+00 
    2.1593510605898443E+00 
    2.1720071458886818E+00 
    2.1935397581969620E+00 
    2.1909929049342725E+00 
    2.1884048341648956E+00 
    2.1921389023134834E+00 
    2.1634578195249632E+00 
    2.2034574169159424E+00 
    2.2030847274966043E+00 
    2.1754812743226193E+00 
    2.1832667440346110E+00 
    2.2215660061103173E+00 
    2.1924613768572239E+00 
    2.2003709709533896E+00 
    2.2249081264722137E+00 
    2.1357185839459909E+00 
    2.1251765941225478E+00 
    2.1738846058613737E+00 
    2.2073013165344082E+00 
    2.2320149797885582E+00 
    2.2032908383672698E+00 
    2.0850480465365324E+00 
    2.1232321453570675E+00 
    2.1721593778147823E+00 
    2.1470665556085149E+00 
    2.1057622960501474E+00 
    2.1933461204830116E+00 
    2.1707666082576087E+00 
    2.1058322841904178E+00 
    2.1847482597541004E+00 
    2.1152740404484853E+00 
    2.1268397113200042E+00 
    2.1230741133096607E+00 
    2.1765905832388515E+00 
    2.2014878456206661E+00 
    2.2188690864819085E+00 
    2.1921014600045350E+00 
    2.2137584034463385E+00 
    2.1133949106728873E+00 
    2.0993824992741699E+00 
    2.2186143183278717E+00 
    2.1878288307318883E+00 
    2.0850042186703757E+00 
    2.0839216209632174E+00 
    2.2285138437533156E+00 
    2.1650139357181617E+00 
    2.1946433629313260E+00 
    2.1714693084712562E+00 
    2.1383493431211837E+00 
    2.1745857546769081E+00 
    2.1863485126817506E+00 
    2.1623691074228710E+00 
    2.1578489956268605E+00 
    2.1576260497114910E+00 
    2.0744218545759479E+00 
    2.2103888337213111E+00 
    2.2449912029207151E+00 
    2.0751268430777898E+00 
    2.0746855070208983E+00 
    2.0760937853055430E+00 
    2.0752424235432150E+00 
    2.0832241185438676E+00 
    2.1955975413029747E+00 
    2.1404175624925634E+00 
    2.0951213574298819E+00 
    2.1845073050428061E+00 
    2.1822021903433590E+00 
    2.1320626978018988E+00 
    2.1488908888554530E+00 
    2.1409745536226490E+00 
    2.1612462579846441E+00 
    2.2158344772752985E+00 
    2.0745785511273858E+00 
    2.0756349495681397E+00 
    2.1164416549511409E+00 
    2.1540654634229606E+00 
    2.1983847551323383E+00 
    2.0961254343265892E+00 
    2.2182830037134154E+00 
    2.0803434032723951E+00 
    2.1344259516433097E+00 
    2.0841142310244347E+00 
    2.0831571239240176E+00 
    2.0933803455268540E+00 
    2.2190241857378692E+00 
    2.1707909662745051E+00 
    2.1451934058727717E+00 
    2.1635643172856125E+00 
    2.1805121109293579E+00 
    2.0828086523694598E+00 
    2.1432255065876991E+00 
    2.1717756690281802E+00 
    2.2180026525668644E+00 
    2.2102266585430068E+00 
    2.2070501191411718E+00 
    2.2187215695770104E+00 
    2.2243035767362569E+00 
    2.1588967268362484E+00 
    2.0981984444011688E+00 
    2.1790622527784818E+00 
    2.1773795284984980E+00 
    2.1375821242157573E+00 
    2.0821837673457666E+00 
    2.1748001892061066E+00 
    2.1887707033896531E+00 
    2.1961603703465289E+00 
    2.1849172817007592E+00 
    2.0833743722755527E+00 
    2.1802568421524358E+00 
    2.1761741558768173E+00 
    2.0932884898988835E+00 
    2.1078663911937419E+00 
    2.1713133738716781E+00 
    2.1832402489186351E+00 
    2.1785269067447692E+00 
    2.1904393966751567E+00 
    2.1895259968737220E+00 
    2.2167947651604027E+00 
    2.1742190275832498E+00 
    2.2011888807778566E+00 
    2.1676026334553504E+00 
    2.1807628785543649E+00 
    2.0791204647012149E+00 
    2.2302950534174104E+00 
    2.2130079674328829E+00 
    2.2233265351161133E+00 
    2.1385490192290266E+00 
    2.1264974636572154E+00 
    2.1121671864099794E+00 
    2.1945643936946193E+00 
    2.1714722741431136E+00 
    2.1978670820016792E+00 
    2.1301855770332203E+00 
    2.0940160115030042E+00 
    2.1066389017657663E+00 
    2.2069715897280142E+00 
    2.1023767272300979E+00 
    2.1597789545670434E+00 
    2.1139816907102817E+00 
    2.2057710322253574E+00 
    2.1692033004371432E+00 
    2.1570728670960793E+00 
    2.2260620424764448E+00 
    2.2205709982357313E+00 
    2.1471225104534737E+00 
    2.1388629805825561E+00 
    2.1206097281745793E+00 
    2.1523129620571444E+00 
    2.1971633517851670E+00 
    2.0770501010751610E+00 
    2.2150811112164086E+00 
    2.2261297272764602E+00 
    2.1453702855424650E+00 
    2.1410530192303714E+00 
    2.0949834951210167E+00 
    2.0817123584112247E+00 
    2.2226001196592997E+00 
    2.1265044532798729E+00 
    2.1719591214241118E+00 
    2.1456696039721215E+00 
    2.1820358625435774E+00 
    2.1080531430662997E+00 
    2.1613811240042313E+00 
    2.2221667148552986E+00 
    2.1171462308500701E+00 
    2.1436353245968500E+00 
    2.1144069067089872E+00 
    2.1524359434220708E+00 
    2.2279196865343422E+00 
    2.1221433695228988E+00 
    2.1703266882753871E+00 
    2.1323347489539226E+00 
    2.0958774371790274E+00 
    2.1901380499908512E+00 
    2.1898319222966012E+00 
    2.1779596747608205E+00 
    2.1310744030814250E+00 
    2.1283792381587663E+00 
    2.1005182934569278E+00 
    2.1733932803584035E+00 
    2.1892349838556875E+00 
    2.1585050138156507E+00 
    2.0972599300355874E+00 
    2.1252308807542999E+00 