# vtk DataFile Version 2.0
Pressure Field Data 
ASCII 
DATASET UNSTRUCTURED_GRID 

POINTS 2213 double 

    0.0000000000000000E+00     0.0000000000000000E+00     0.0000000000000000E+00 
    5.0000000000000000E-01     0.0000000000000000E+00     0.0000000000000000E+00 
    1.0000000000000000E+00     0.0000000000000000E+00     0.0000000000000000E+00 
    1.0000000000000000E+00     5.0000000000000000E-01     0.0000000000000000E+00 
    1.0000000000000000E+00     1.0000000000000000E+00     0.0000000000000000E+00 
    5.0000000000000000E-01     1.0000000000000000E+00     0.0000000000000000E+00 
    0.0000000000000000E+00     1.0000000000000000E+00     0.0000000000000000E+00 
    0.0000000000000000E+00     5.0000000000000000E-01     0.0000000000000000E+00 
    1.5624999999971041E-02     0.0000000000000000E+00     0.0000000000000000E+00 
    3.1249999999936742E-02     0.0000000000000000E+00     0.0000000000000000E+00 
    4.6874999999913257E-02     0.0000000000000000E+00     0.0000000000000000E+00 
    6.2499999999889783E-02     0.0000000000000000E+00     0.0000000000000000E+00 
    7.8124999999844805E-02     0.0000000000000000E+00     0.0000000000000000E+00 
    9.3749999999799827E-02     0.0000000000000000E+00     0.0000000000000000E+00 
    1.0937499999975490E-01     0.0000000000000000E+00     0.0000000000000000E+00 
    1.2499999999970990E-01     0.0000000000000000E+00     0.0000000000000000E+00 
    1.4062499999966460E-01     0.0000000000000000E+00     0.0000000000000000E+00 
    1.5624999999961930E-01     0.0000000000000000E+00     0.0000000000000000E+00 
    1.7187499999957390E-01     0.0000000000000000E+00     0.0000000000000000E+00 
    1.8749999999952860E-01     0.0000000000000000E+00     0.0000000000000000E+00 
    2.0312499999948330E-01     0.0000000000000000E+00     0.0000000000000000E+00 
    2.1874999999943801E-01     0.0000000000000000E+00     0.0000000000000000E+00 
    2.3437499999939271E-01     0.0000000000000000E+00     0.0000000000000000E+00 
    2.4999999999934730E-01     0.0000000000000000E+00     0.0000000000000000E+00 
    2.6562499999938810E-01     0.0000000000000000E+00     0.0000000000000000E+00 
    2.8124999999942890E-01     0.0000000000000000E+00     0.0000000000000000E+00 
    2.9687499999946970E-01     0.0000000000000000E+00     0.0000000000000000E+00 
    3.1249999999951050E-01     0.0000000000000000E+00     0.0000000000000000E+00 
    3.2812499999955130E-01     0.0000000000000000E+00     0.0000000000000000E+00 
    3.4374999999959210E-01     0.0000000000000000E+00     0.0000000000000000E+00 
    3.5937499999963290E-01     0.0000000000000000E+00     0.0000000000000000E+00 
    3.7499999999967371E-01     0.0000000000000000E+00     0.0000000000000000E+00 
    3.9062499999971451E-01     0.0000000000000000E+00     0.0000000000000000E+00 
    4.0624999999975520E-01     0.0000000000000000E+00     0.0000000000000000E+00 
    4.2187499999979600E-01     0.0000000000000000E+00     0.0000000000000000E+00 
    4.3749999999983680E-01     0.0000000000000000E+00     0.0000000000000000E+00 
    4.5312499999987760E-01     0.0000000000000000E+00     0.0000000000000000E+00 
    4.6874999999991840E-01     0.0000000000000000E+00     0.0000000000000000E+00 
    4.8437499999995920E-01     0.0000000000000000E+00     0.0000000000000000E+00 
    5.1562499999992384E-01     0.0000000000000000E+00     0.0000000000000000E+00 
    5.3124999999985478E-01     0.0000000000000000E+00     0.0000000000000000E+00 
    5.4687499999994527E-01     0.0000000000000000E+00     0.0000000000000000E+00 
    5.6249999999998668E-01     0.0000000000000000E+00     0.0000000000000000E+00 
    5.7812499999998068E-01     0.0000000000000000E+00     0.0000000000000000E+00 
    5.9374999999994749E-01     0.0000000000000000E+00     0.0000000000000000E+00 
    6.0937499999997913E-01     0.0000000000000000E+00     0.0000000000000000E+00 
    6.2500000000000000E-01     0.0000000000000000E+00     0.0000000000000000E+00 
    6.4062499999998945E-01     0.0000000000000000E+00     0.0000000000000000E+00 
    6.5624999999996603E-01     0.0000000000000000E+00     0.0000000000000000E+00 
    6.7187499999995337E-01     0.0000000000000000E+00     0.0000000000000000E+00 
    6.8749999999998734E-01     0.0000000000000000E+00     0.0000000000000000E+00 
    7.0312499999998124E-01     0.0000000000000000E+00     0.0000000000000000E+00 
    7.1874999999997025E-01     0.0000000000000000E+00     0.0000000000000000E+00 
    7.3437499999999034E-01     0.0000000000000000E+00     0.0000000000000000E+00 
    7.5000000000000000E-01     0.0000000000000000E+00     0.0000000000000000E+00 
    7.6562499999996902E-01     0.0000000000000000E+00     0.0000000000000000E+00 
    7.8124999999993228E-01     0.0000000000000000E+00     0.0000000000000000E+00 
    7.9687499999989997E-01     0.0000000000000000E+00     0.0000000000000000E+00 
    8.1249999999996247E-01     0.0000000000000000E+00     0.0000000000000000E+00 
    8.2812499999999578E-01     0.0000000000000000E+00     0.0000000000000000E+00 
    8.4374999999999556E-01     0.0000000000000000E+00     0.0000000000000000E+00 
    8.5937500000000111E-01     0.0000000000000000E+00     0.0000000000000000E+00 
    8.7499999999997691E-01     0.0000000000000000E+00     0.0000000000000000E+00 
    8.9062500000000921E-01     0.0000000000000000E+00     0.0000000000000000E+00 
    9.0625000000004452E-01     0.0000000000000000E+00     0.0000000000000000E+00 
    9.2187500000005529E-01     0.0000000000000000E+00     0.0000000000000000E+00 
    9.3750000000012723E-01     0.0000000000000000E+00     0.0000000000000000E+00 
    9.5312500000011835E-01     0.0000000000000000E+00     0.0000000000000000E+00 
    9.6875000000005151E-01     0.0000000000000000E+00     0.0000000000000000E+00 
    9.8437500000003086E-01     0.0000000000000000E+00     0.0000000000000000E+00 
    1.0000000000000000E+00     1.5624999999971041E-02     0.0000000000000000E+00 
    1.0000000000000000E+00     3.1249999999936742E-02     0.0000000000000000E+00 
    1.0000000000000000E+00     4.6874999999913257E-02     0.0000000000000000E+00 
    1.0000000000000000E+00     6.2499999999889783E-02     0.0000000000000000E+00 
    1.0000000000000000E+00     7.8124999999844805E-02     0.0000000000000000E+00 
    1.0000000000000000E+00     9.3749999999799827E-02     0.0000000000000000E+00 
    1.0000000000000000E+00     1.0937499999975490E-01     0.0000000000000000E+00 
    1.0000000000000000E+00     1.2499999999970990E-01     0.0000000000000000E+00 
    1.0000000000000000E+00     1.4062499999966460E-01     0.0000000000000000E+00 
    1.0000000000000000E+00     1.5624999999961930E-01     0.0000000000000000E+00 
    1.0000000000000000E+00     1.7187499999957390E-01     0.0000000000000000E+00 
    1.0000000000000000E+00     1.8749999999952860E-01     0.0000000000000000E+00 
    1.0000000000000000E+00     2.0312499999948330E-01     0.0000000000000000E+00 
    1.0000000000000000E+00     2.1874999999943801E-01     0.0000000000000000E+00 
    1.0000000000000000E+00     2.3437499999939271E-01     0.0000000000000000E+00 
    1.0000000000000000E+00     2.4999999999934730E-01     0.0000000000000000E+00 
    1.0000000000000000E+00     2.6562499999938810E-01     0.0000000000000000E+00 
    1.0000000000000000E+00     2.8124999999942890E-01     0.0000000000000000E+00 
    1.0000000000000000E+00     2.9687499999946970E-01     0.0000000000000000E+00 
    1.0000000000000000E+00     3.1249999999951050E-01     0.0000000000000000E+00 
    1.0000000000000000E+00     3.2812499999955130E-01     0.0000000000000000E+00 
    1.0000000000000000E+00     3.4374999999959210E-01     0.0000000000000000E+00 
    1.0000000000000000E+00     3.5937499999963290E-01     0.0000000000000000E+00 
    1.0000000000000000E+00     3.7499999999967371E-01     0.0000000000000000E+00 
    1.0000000000000000E+00     3.9062499999971451E-01     0.0000000000000000E+00 
    1.0000000000000000E+00     4.0624999999975520E-01     0.0000000000000000E+00 
    1.0000000000000000E+00     4.2187499999979600E-01     0.0000000000000000E+00 
    1.0000000000000000E+00     4.3749999999983680E-01     0.0000000000000000E+00 
    1.0000000000000000E+00     4.5312499999987760E-01     0.0000000000000000E+00 
    1.0000000000000000E+00     4.6874999999991840E-01     0.0000000000000000E+00 
    1.0000000000000000E+00     4.8437499999995920E-01     0.0000000000000000E+00 
    1.0000000000000000E+00     5.1562499999992384E-01     0.0000000000000000E+00 
    1.0000000000000000E+00     5.3124999999985478E-01     0.0000000000000000E+00 
    1.0000000000000000E+00     5.4687499999994527E-01     0.0000000000000000E+00 
    1.0000000000000000E+00     5.6249999999998668E-01     0.0000000000000000E+00 
    1.0000000000000000E+00     5.7812499999998068E-01     0.0000000000000000E+00 
    1.0000000000000000E+00     5.9374999999994749E-01     0.0000000000000000E+00 
    1.0000000000000000E+00     6.0937499999997913E-01     0.0000000000000000E+00 
    1.0000000000000000E+00     6.2500000000000000E-01     0.0000000000000000E+00 
    1.0000000000000000E+00     6.4062499999998945E-01     0.0000000000000000E+00 
    1.0000000000000000E+00     6.5624999999996603E-01     0.0000000000000000E+00 
    1.0000000000000000E+00     6.7187499999995337E-01     0.0000000000000000E+00 
    1.0000000000000000E+00     6.8749999999998734E-01     0.0000000000000000E+00 
    1.0000000000000000E+00     7.0312499999998124E-01     0.0000000000000000E+00 
    1.0000000000000000E+00     7.1874999999997025E-01     0.0000000000000000E+00 
    1.0000000000000000E+00     7.3437499999999034E-01     0.0000000000000000E+00 
    1.0000000000000000E+00     7.5000000000000000E-01     0.0000000000000000E+00 
    1.0000000000000000E+00     7.6562499999996902E-01     0.0000000000000000E+00 
    1.0000000000000000E+00     7.8124999999993228E-01     0.0000000000000000E+00 
    1.0000000000000000E+00     7.9687499999989997E-01     0.0000000000000000E+00 
[...]
CELL_DATA 2084 
SCALARS Pressure double 1 
LOOKUP_TABLE default 

    2.6488087445590156E+00 
    2.6764571870923488E+00 
    2.8651591181264822E+00 
    2.6772081053637131E+00 
    2.7819866867430787E+00 
    2.7384305117538381E+00 
    2.6210302160704329E+00 
    2.7231470474142294E+00 
    2.7332700590750365E+00 
    2.7862348301738220E+00 
    2.8593239855673960E+00 
    2.6351956439757163E+00 
    2.7121659753223550E+00 
    2.6738720349418781E+00 
    2.6440042720813821E+00 
    2.6634907483255907E+00 
    2.8195281265722434E+00 
    2.6940072210537465E+00 
    2.8913708939907248E+00 
    2.6556953093133098E+00 
    2.6592534026594659E+00 
    2.7650713566060485E+00 
    2.6618427513749654E+00 
    2.7081790209012917E+00 
    2.6521238393959634E+00 
    2.7097221422476845E+00 
    2.6692223434098326E+00 
    2.6241218859881261E+00 
    2.7165415135624684E+00 
    2.6832982737827256E+00 
    2.6134303999493564E+00 
    2.7238448852429489E+00 
    2.6012957509210954E+00 
    2.6585788492428941E+00 
    2.6387640899091855E+00 
    2.7758123528230483E+00 
    2.6886717841541685E+00 
    2.6844525519376257E+00 
    2.7650428821791309E+00 
    2.7248089598026115E+00 
    2.6267180652528133E+00 
    2.7908156075051975E+00 
    2.6525410610623439E+00 
    2.7452090434348952E+00 
    2.7375066861683464E+00 
    2.6338864939297357E+00 
    2.7891913695980683E+00 
    2.6177010164855870E+00 
    2.6196833007416509E+00 
    2.7129943992945571E+00 
    2.7103781744486195E+00 
    2.6234282663086255E+00 
    2.6336837500376609E+00 
    2.6971232015927953E+00 
    2.6982657082273760E+00 
    2.6268319174990395E+00 
    2.6065747162046189E+00 
    2.7514582924418458E+00 
    2.7626182941432256E+00 
    2.7051868230119487E+00 
    2.7039225761801511E+00 
    2.6563320004805568E+00 
    2.6375773294716605E+00 
    2.6716555818907559E+00 
    2.7867313601389672E+00 
    2.7010809485965184E+00 
    2.7331127008833445E+00 
    2.6323855807435255E+00 
    2.6183389912532893E+00 
    2.6175125648045170E+00 
    2.6502798602937592E+00 
    2.9214200883363302E+00 
    2.7104917843738465E+00 
    2.8427428597282085E+00 
    2.7590115202905601E+00 
    2.8401794774412097E+00 
    2.7060826680969248E+00 
    2.7787947707344336E+00 
    2.6349046852322893E+00 
    2.7958332737222227E+00 
    2.6625182587733582E+00 
    2.7244560099213460E+00 
    2.7501373267657847E+00 
    2.6122933739506116E+00 
    2.7381158171195823E+00 
    2.6604453089112901E+00 
    2.6913125651467582E+00 
    2.7405929440071017E+00 
    2.7602519197612012E+00 
    2.7514943821848590E+00 
    2.7337935934340916E+00 
    2.7303469651225498E+00 
    2.6643660789976096E+00 
    2.7496763444275483E+00 
    2.6937391941562918E+00 
    2.6233325224872432E+00 
    2.6793772731749876E+00 
    2.7175478264505513E+00 
    2.7725137475965349E+00 
    2.6832112864982087E+00 
    2.7841576613035470E+00 
    2.7474990849917313E+00 
    2.7628986956606614E+00 
    2.7642290104581093E+00 
    2.6941583721747779E+00 
    2.7491427612062802E+00 
    2.7222036788215447E+00 
    2.7731889722111567E+00 
    2.6465518410662967E+00 
    2.9536613549467909E+00 
    2.6673374190157726E+00 
    2.7165630445628302E+00 
    2.7467632709585303E+00 
    2.8003245927259037E+00 
    2.8531994220246961E+00 
    2.6730945465841298E+00 
    2.7498063142042470E+00 
    2.7465985845150622E+00 
    2.6852809007933436E+00 
    2.6533468843165098E+00 
    2.7004295674144920E+00 
    2.7617071264654207E+00 
    2.6535645426382408E+00 
    2.8274992589587140E+00 
    2.7209590985502117E+00 
    2.7622193815629128E+00 
    2.7023780440251142E+00 
    2.6535971481276572E+00 
    2.6891916253657930E+00 
    2.6623166864460877E+00 
    2.8494679034291033E+00 
    2.8619348495727444E+00 
    2.6288654550927020E+00 
    2.7866775294917283E+00 
    2.7727754376619451E+00 
    2.7036749098916486E+00 
    2.7541945457965893E+00 
    2.6523975956990200E+00 
    2.7712288406436301E+00 
    2.8331959498003774E+00 
    2.7365888409376891E+00 
    2.8759346552268035E+00 
    2.8430022676880098E+00 
    2.7208779529104410E+00 
    2.6735345022981147E+00 
    2.7167795619111965E+00 
    2.7478546348287383E+00 
    2.7699972450297388E+00 
    2.6937726801692778E+00 
    2.7354798497855874E+00 
    2.7409451400628089E+00 
    2.8341831351584368E+00 
    2.9083372713157964E+00 
    2.6931057435050301E+00 
    2.7020706650545767E+00 
    2.8912795121129209E+00 
    2.6614483323451319E+00 
    2.7437291351331834E+00 
    2.6974475070504678E+00 
    2.8270973767527168E+00 
    3.0340110532666360E+00 
    2.9731060949473598E+00 
    2.9120283390559702E+00 
    2.9327256915335247E+00 
    2.8835961320659145E+00 
    2.9002372555165712E+00 
    2.7457855667097859E+00 
    2.9469500933936472E+00 
    2.7372389539878759E+00 
    2.8930731236157738E+00 
    2.7375473788828302E+00 
    2.8204795579622188E+00 
    2.8384258831292777E+00 
    2.7760957479859760E+00 
    2.8131293950373739E+00 
    2.6816023817558290E+00 
    2.8161032751714110E+00 
    2.7281376570529732E+00 
    2.7356423277810120E+00 
    2.7345374793496728E+00 
    2.7587202719796511E+00 
    2.6794502885147677E+00 
    2.8212132122989755E+00 
    2.7610666142886844E+00 
    2.7574505994957419E+00 
    2.6048799061740882E+00 
    2.7815036368712001E+00 
    2.8449082250772562E+00 
    2.6870589092739752E+00 
    2.8028240609662642E+00 
    2.8598324749322868E+00 
    2.8822744929035413E+00 
    2.7591482005754910E+00 
    2.7033991277575704E+00 
    2.6714737596352998E+00 
    2.6894735258778515E+00 
    2.7884350133361799E+00 
    2.7516182663068598E+00 
    2.7000401421082865E+00 
    2.7928892994027117E+00 
    2.7279846447723757E+00 
    2.6917621832856971E+00 
    2.7587403441895120E+00 
    2.6363295562387576E+00 
    2.6910306424022727E+00 
    2.8635472868733989E+00 
    2.7877159144706698E+00 
    2.6829350371379954E+00 
    2.8111068660847121E+00 
    2.8033550484177860E+00 
    2.6968442668779575E+00 
    2.7177649586487069E+00 
    2.7234250189541749E+00 
    2.7779886199367958E+00 
    2.7742883316483229E+00 
    2.8379726975966428E+00 
    2.7130188103117643E+00 
    2.7748592149112854E+00 
    2.7890867915912332E+00 
    2.7013773175593578E+00 
    2.7086249554004325E+00 
    2.5965267772631466E+00 
    2.7033552176942317E+00 
    2.8728639139241721E+00 
    2.7511827066073242E+00 
    2.7736457236122902E+00 
    2.7280386111246759E+00 
    2.7737700912059133E+00 
    2.6898570960950803E+00 
    2.6774704573356227E+00 
    2.6517005167184373E+00 
    2.6868916974549442E+00 
    2.6561187495767271E+00 
    2.7132919854693083E+00 
    2.7604347125942206E+00 
    2.6690358636318945E+00 
    2.8054603239596907E+00 
    2.8076760650033044E+00 
    2.7098431880373375E+00 
    2.6776634280485978E+00 
    2.7604760806448696E+00 
    2.6965161442956513E+00 
    2.6427403243667542E+00 
    2.6898824339213521E+00 
    2.6487453999126371E+00 
    2.6496230566417074E+00 
    2.7008323178216553E+00 
    2.7469986438066472E+00 
    2.8246059201568099E+00 
    2.6385456123933371E+00 
    2.6880077861456142E+00 
    2.6658846804680136E+00 
    2.6876127526713840E+00 
    2.9205376279089021E+00 
    2.6540483472689127E+00 
    2.7231822181628060E+00 
    2.6649267617006829E+00 
    2.7030322314866613E+00 
    2.6747353892822048E+00 
    2.7113014947056930E+00 
    2.6647273771455260E+00 
    2.7078315563493018E+00 
    2.6765153370397630E+00 
    2.7112176624970683E+00 
    2.6723606796667632E+00 
    2.6711940725698646E+00 
    2.6484147166980581E+00 
    2.6587183364973415E+00 
    2.8055628891076236E+00 
    2.6289391707972261E+00 
    2.6383813621825096E+00 
    2.6838343291894007E+00 
    2.6687489748869169E+00 
    2.9892904150815265E+00 
    2.6865106630372924E+00 
    2.7765111116287087E+00 
    2.6790695382299714E+00 
    2.6240654049905188E+00 
    2.6993154713953396E+00 
    2.6596216628362690E+00 
    2.7142003957610217E+00 
    2.6728655592027715E+00 
    2.6731814145652435E+00 
    2.6846697707736311E+00 
    2.6507737866396588E+00 
    2.6863057554756602E+00 
    2.6736646666875310E+00 
    2.6295092015758397E+00 
    2.6631517787739756E+00 
    2.6630783898291623E+00 
    2.6812857269800281E+00 
    2.6222400858283290E+00 
    2.6657804463813393E+00 
    2.6810450041628204E+00 
    2.7130941539680529E+00 
    2.6533974502509334E+00 
    2.6418102482534174E+00 
    2.7882796316652008E+00 
    2.6540940756677944E+00 
    2.7350115874105585E+00 
    2.9893228534802097E+00 
    2.7990827055728515E+00 
    2.7356981588579523E+00 
    2.8207369910051412E+00 
    2.6694544785270606E+00 
    2.6632676513388311E+00 
    2.6405684205879720E+00 
    2.6443124317530389E+00 
    2.6453494160794877E+00 
    2.6381893007737514E+00 
    2.8239646828891170E+00 
    2.6424091979058644E+00 
    2.7004556353853881E+00 
    2.8035743248436598E+00 
    2.7126785228010299E+00 
    2.6535931215787434E+00 
    2.7700487673567387E+00 
    2.6361514471258842E+00 
    2.6364833817630062E+00 
    2.6455759776878476E+00 
    2.9569906371533645E+00 
    2.7480017656040898E+00 
    2.8133681549548490E+00 
    2.8190505971789204E+00 
    2.7221976008306688E+00 
    2.7901877761558613E+00 
    2.6567018326772085E+00 
    2.5895951490486886E+00 
    3.1333394383282287E+00 
    2.6125777207044805E+00 
    2.6281782690572730E+00 
    2.6274826654221481E+00 
    2.7368795336572309E+00 
    2.8025814243967209E+00 
    2.5891520399063963E+00 
    2.8556146076285636E+00 
    2.8772955899996360E+00 
    2.7229942636789564E+00 
    2.6736520100925141E+00 
    2.8422182634731685E+00 
    2.7250258450668579E+00 
    2.6468504245040068E+00 
    2.8130151817072440E+00 
    2.6199811299143874E+00 
    2.6189184505909164E+00 
    2.7343730435142066E+00 
    2.6825488769335513E+00 
    2.5976554331295643E+00 
    2.6732697613551473E+00 
    2.6059608963799912E+00 
    2.8323588859416495E+00 
    2.6123538672758606E+00 
    2.6626401308921275E+00 
    2.8006919197825346E+00 
    2.6821189112354396E+00 
    2.7251516085758754E+00 
    2.6107073980533038E+00 
    2.7045556727867122E+00 
    2.7102594541442282E+00 
    2.6478218349601810E+00 
    2.6826985291431322E+00 
    2.8073309604551544E+00 
    2.6057317870942924E+00 
    2.6805222532964228E+00 
    2.6520158617990774E+00 
    2.6529297778440850E+00 
    2.6976194470270083E+00 
    2.6455959221472276E+00 
    2.6887031556007215E+00 
    2.8200867187222047E+00 
    2.8352191301562857E+00 
    2.6030302656303110E+00 
    3.0005302182496885E+00 
    2.7027932518328424E+00 
    2.6660697207184594E+00 
    2.8637887664903765E+00 
    2.7290879068526617E+00 
    2.7449443644628717E+00 
    2.6521839431673753E+00 
    2.6446466656832599E+00 
    2.7639693467667970E+00 
    2.7237428323027966E+00 
    2.5981999293436289E+00 
    2.6520148376707757E+00 
    2.8920507201516634E+00 
    2.7186379003013799E+00 
    2.7942399770149331E+00 
    2.7348992367034857E+00 
    2.8079647218494452E+00 
    2.7639188228451848E+00 
    2.5963816416563681E+00 
    2.6308822192556445E+00 
    2.6751914258748015E+00 
    2.8367613626733847E+00 
    2.7922421196740750E+00 
    2.6713461863843975E+00 
    2.6457807370902624E+00 
    2.6698359119040345E+00 
    2.6573965142400144E+00 
    2.7769608289605299E+00 
    2.6485324920116660E+00 
    2.7437619355383025E+00 
    2.9330233912887218E+00 
    2.6428768357819807E+00 
    2.8972293549690047E+00 
    2.6922434933316706E+00 
    2.9123941351734550E+00 
    2.8026872925656514E+00 
    3.0461756777051745E+00 
    2.6632197709117547E+00 
    2.7901577114768936E+00 
    2.7109943604636890E+00 
    2.6382561835994256E+00 
    2.8174722676677049E+00 
    2.7024294932654658E+00 
    2.8267141665315272E+00 
    2.6420399151509826E+00 
    2.7928056020271081E+00 
    2.6928933508514654E+00 
    2.7268651571113285E+00 
    2.6112222481213792E+00 
    2.6457248697116591E+00 
    2.6334445211697108E+00 
    2.8582210937774679E+00 
    2.6651956076279784E+00 
    2.9239769430708238E+00 
    2.8753675218726271E+00 
    2.6554659781783401E+00 
    2.6909930377478060E+00 
    2.6756191638319020E+00 
    2.6093964140056154E+00 
    2.6963068405449144E+00 
    2.8066386834110379E+00 
    2.6545661382740877E+00 
    2.6181739184434303E+00 
    2.9521211408060100E+00 
    2.7769565554939848E+00 
    2.5898679720926534E+00 
    2.5893601365783487E+00 
    2.6291606980058382E+00 
    2.6357130801156612E+00 
    2.6161272129023336E+00 
    2.6062661150660817E+00 
    2.6712205987626030E+00 
    2.6609271888196844E+00 
    2.5828788295589926E+00 
    2.5826719589886440E+00 
    2.5486281707107676E+00 
    2.4865909533673927E+00 
    2.4806334197017632E+00 
    2.4863076054044901E+00 
    2.5067291086972445E+00 
    2.5035340561456656E+00 
    2.5616479908148921E+00 
    2.4646238423781894E+00 
    2.5478486418453241E+00 
    2.4706550049407983E+00 
    2.5283671394124623E+00 
    2.5006861216210976E+00 
    2.4975150954777741E+00 
    2.4729452873230779E+00 
    2.4646379669692764E+00 
    2.6031270122561527E+00 
    2.5587574339795722E+00 
    2.5835866917630677E+00 
    2.5548607879817959E+00 
    2.5141537273273897E+00 
    2.4644189073213463E+00 
    2.4614908540564842E+00 
    2.5986475251650658E+00 
    2.5250586289427264E+00 
    2.4632385419976801E+00 
    2.5063245037231714E+00 
    2.5755343305946647E+00 
    2.5755564138246712E+00 
    2.4486331028598189E+00 
    2.4620093895575952E+00 
    2.5278085475882306E+00 
    2.5852697861757310E+00 
    2.5615374565022613E+00 
    2.5147171829912534E+00 
    2.4888054067661014E+00 
    2.6113611244790342E+00 
    2.5859508302252876E+00 
    2.5752854132951826E+00 
    2.6270815491147324E+00 
    2.4881657714634549E+00 
    2.5030066648600613E+00 
    2.4980478476440817E+00 
    2.5969210341464111E+00 
    2.5017251509993366E+00 
    2.5801296222403098E+00 
    2.5407493660994471E+00 
    2.5375861037202920E+00 
    2.5226274902165637E+00 
    2.5271594764072112E+00 
    2.5857233143184182E+00 
    2.5815297830737074E+00 
    2.5341902192073689E+00 
    2.4816870637992419E+00 
    2.5251126546778528E+00 
    2.5197965895993506E+00 
    2.4650732438947243E+00 
    2.5644747184266361E+00 
    2.4682822167433360E+00 
    2.5853151462694859E+00 
    2.4722716577091504E+00 
    2.5491511920998740E+00 
    2.4936186516583136E+00 
    2.4466975485961351E+00 
    2.4466250747058691E+00 
    2.4488024862909912E+00 
    2.4405433683413289E+00 
    2.5231225540167186E+00 
    2.4410900057732587E+00 
    2.4630212326191034E+00 
    2.4654389101782681E+00 
    2.6156466900854203E+00 
    2.5272336097360921E+00 
    2.4647925769886303E+00 
    2.5847228791898886E+00 
    2.5085695864770936E+00 
    2.4900170904005439E+00 
    2.5679152388632480E+00 
    2.6129065151889046E+00 
    2.5543442321377205E+00 
    2.5570952875737025E+00 
    2.5331089171092560E+00 
    2.5475836809788475E+00 
    2.5713005954696464E+00 
    2.5684456485826095E+00 
    2.5654792983545125E+00 
    2.5696353196136053E+00 
    2.5380803130270735E+00 
    2.5820708095452591E+00 
    2.5819178476756610E+00 
    2.5514358721838057E+00 
    2.5600563075951039E+00 
    2.6020267414479386E+00 
    2.5700883200290141E+00 
    2.5787434864671823E+00 
    2.6056730031422037E+00 
    2.5066641435703780E+00 
    2.4952796790707947E+00 
    2.5496377511465402E+00 
    2.5863199298489943E+00 
    2.6134669856029062E+00 
    2.5819739043745260E+00 
    2.4485401852844766E+00 
    2.4923926936854603E+00 
    2.5474037661729998E+00 
    2.5193379078257143E+00 
    2.4732419183850505E+00 
    2.5709425133400794E+00 
    2.5459098918436793E+00 
    2.4723544015814767E+00 
    2.5614298906834780E+00 
    2.4835852652076884E+00 
    2.4965645388640314E+00 
    2.4922491626475494E+00 
    2.5523299894010623E+00 
    2.5799171401004752E+00 
    2.5990237689364966E+00 
    2.5695323483822943E+00 
    2.5934565681197026E+00 
    2.4811534881290358E+00 
    2.4659750010511043E+00 
    2.5988588177950755E+00 
    2.5648636292388773E+00 
    2.4476875703164374E+00 
    2.4476087019040085E+00 
    2.6095852013324232E+00 
    2.5398145472146605E+00 
    2.5725375320579085E+00 
    2.5469476413295924E+00 
    2.5095491328330777E+00 
    2.5504259671249518E+00 
    2.5634598852071329E+00 
    2.5365379143117455E+00 
    2.5318394640760693E+00 
    2.5315888300714611E+00 
    2.4383240416223937E+00 
    2.5897455446424540E+00 
    2.6276089349823804E+00 
    2.4390668744622128E+00 
    2.4385994990370805E+00 
    2.4400079753045243E+00 
    2.4392393435318778E+00 
    2.4473601356777426E+00 
    2.5736085020069015E+00 
    2.5119736488439948E+00 
    2.4604565492012407E+00 
    2.5614312911401758E+00 
    2.5588070951920923E+00 
    2.5028396143756813E+00 
    2.5213991578252100E+00 
    2.5124859126627967E+00 
    2.5352361919729658E+00 
    2.5958681139854280E+00 
    2.4384958938668495E+00 
    2.4395761038557846E+00 
    2.4854765394496900E+00 
    2.5276361982790498E+00 
    2.5765069020290707E+00 
    2.4627429614992682E+00 
    2.5985337721315953E+00 
    2.4448552963624639E+00 
    2.5056782386148031E+00 
    2.4447629185584137E+00 
    2.4446577842310480E+00 
    2.4592336880338785E+00 
    2.5993271453952875E+00 
    2.5459472211677325E+00 
    2.5177405210696091E+00 
    2.5382035662383671E+00 
    2.5569189944952133E+00 
    2.4473312471108253E+00 
    2.5155041692907929E+00 
    2.5473229934817740E+00 
    2.5981334183165274E+00 
    2.5895267652575882E+00 
    2.5860338473268945E+00 
    2.5989577694758865E+00 
    2.6049793710647338E+00 
    2.5326844664225598E+00 
    2.4650621430379700E+00 
    2.5552938964344007E+00 
    2.5534087598805044E+00 
    2.5092172720624335E+00 
    2.4468411776327721E+00 
    2.5505338587280506E+00 
    2.5659714124343771E+00 
    2.5740878569829122E+00 
    2.5616963947013414E+00 
    2.4475821885802587E+00 
    2.5565159086698581E+00 
    2.5519809100320954E+00 
    2.4580275649068515E+00 
    2.4759412694431404E+00 
    2.5465061431734308E+00 
    2.5597802159721397E+00 
    2.5545545191055643E+00 
    2.5679846985677344E+00 
    2.5669638802595363E+00 
    2.5967446502644793E+00 
    2.5497716655299443E+00 
    2.5798263891085447E+00 
    2.5426931897828804E+00 
    2.5572784456874240E+00 
    2.4432115636290428E+00 
    2.6116531947740467E+00 
    2.5925977564980913E+00 
    2.6039335571067541E+00 
    2.5098017221708373E+00 
    2.4968167252665578E+00 
    2.4804850096924680E+00 
    2.5725022613943400E+00 
    2.5467139694538328E+00 
    2.5761620284747182E+00 
    2.5009686887661706E+00 
    2.4588618743001893E+00 
    2.4736428529030117E+00 
    2.5859528854092431E+00 
    2.4690592935183018E+00 
    2.5339922177027594E+00 
    2.4827114772123386E+00 
    2.5848227155044983E+00 
    2.5444204159805932E+00 
    2.5306686597692205E+00 
    2.6070643544508680E+00 
    2.6010896548556706E+00 
    2.5198615288781889E+00 
    2.5106245061813839E+00 
    2.4895270475582518E+00 
    2.5256697232605694E+00 
    2.5751303364548295E+00 
    2.4411948744948258E+00 
    2.5950821752769362E+00 
    2.6071626376713226E+00 
    2.5179127019050274E+00 
    2.5130635713045075E+00 
    2.4614410911449820E+00 
    2.4458273040183576E+00 
    2.6031125383672684E+00 
    2.4965543382920763E+00 
    2.5472937940914964E+00 
    2.5178874611050159E+00 
    2.5583799420226865E+00 
    2.4757318978628304E+00 
    2.5357649311400414E+00 
    2.6026359140685220E+00 
    2.4863454740626718E+00 
    2.5158192638890418E+00 
    2.4825074940124319E+00 
    2.5258217757089678E+00 
    2.6089374438316502E+00 
    2.4919574600840568E+00 
    2.5455606795832080E+00 
    2.5032922299490652E+00 
    2.4613013899554330E+00 
    2.5673557282669339E+00 
    2.5673146672339890E+00 
    2.5538570367305020E+00 
    2.5018578712378798E+00 
    2.4984327485775042E+00 
    2.4669657567259407E+00 
    2.5491119789981238E+00 
    2.5663661891331420E+00 
    2.5325590736745869E+00 
    2.4637140717003305E+00 
    2.4952641478609956E+00 