# vtk DataFile Version 2.0
Pressure Field Data 
ASCII 
DATASET UNSTRUCTURED_GRID 

POINTS 2213 double 

    0.0000000000000000E+00     0.0000000000000000E+00     0.0000000000000000E+00 
    5.0000000000000000E-01     0.0000000000000000E+00     0.0000000000000000E+00 
    1.0000000000000000E+00     0.0000000000000000E+00     0.0000000000000000E+00 
    1.0000000000000000E+00     5.0000000000000000E-01     0.0000000000000000E+00 
    1.0000000000000000E+00     1.0000000000000000E+00     0.0000000000000000E+00 
    5.0000000000000000E-01     1.0000000000000000E+00     0.0000000000000000E+00 
    0.0000000000000000E+00     1.0000000000000000E+00     0.0000000000000000E+00 
    0.0000000000000000E+00     5.0000000000000000E-01     0.0000000000000000E+00 
    1.5624999999971041E-02     0.0000000000000000E+00     0.0000000000000000E+00 
    3.1249999999936742E-02     0.0000000000000000E+00     0.0000000000000000E+00 
    4.6874999999913257E-02     0.0000000000000000E+00     0.0000000000000000E+00 
    6.2499999999889783E-02     0.0000000000000000E+00     0.0000000000000000E+00 
    7.8124999999844805E-02     0.0000000000000000E+00     0.0000000000000000E+00 
    9.3749999999799827E-02     0.0000000000000000E+00     0.0000000000000000E+00 
    1.0937499999975490E-01     0.0000000000000000E+00     0.0000000000000000E+00 
    1.2499999999970990E-01     0.0000000000000000E+00     0.0000000000000000E+00 
    1.4062499999966460E-01     0.0000000000000000E+00     0.0000000000000000E+00 
    1.5624999999961930E-01     0.0000000000000000E+00     0.0000000000000000E+00 
    1.7187499999957390E-01     0.0000000000000000E+00     0.0000000000000000E+00 
    1.8749999999952860E-01     0.0000000000000000E+00     0.0000000000000000E+00 
    2.0312499999948330E-01     0.0000000000000000E+00     0.0000000000000000E+00 
    2.1874999999943801E-01     0.0000000000000000E+00     0.0000000000000000E+00 
    2.3437499999939271E-01     0.0000000000000000E+00     0.0000000000000000E+00 
    2.4999999999934730E-01     0.0000000000000000E+00     0.0000000000000000E+00 
    2.6562499999938810E-01     0.0000000000000000E+00     0.0000000000000000E+00 
    2.8124999999942890E-01     0.0000000000000000E+00     0.0000000000000000E+00 
    2.9687499999946970E-01     0.0000000000000000E+00     0.0000000000000000E+00 
    3.1249999999951050E-01     0.0000000000000000E+00     0.0000000000000000E+00 
    3.2812499999955130E-01     0.0000000000000000E+00     0.0000000000000000E+00 
    3.4374999999959210E-01     0.0000000000000000E+00     0.0000000000000000E+00 
    3.5937499999963290E-01     0.0000000000000000E+00     0.0000000000000000E+00 
    3.7499999999967371E-01     0.0000000000000000E+00     0.0000000000000000E+00 
    3.9062499999971451E-01     0.0000000000000000E+00     0.0000000000000000E+00 
    4.0624999999975520E-01     0.0000000000000000E+00     0.0000000000000000E+00 
    4.2187499999979600E-01     0.0000000000000000E+00     0.0000000000000000E+00 
    4.3749999999983680E-01     0.0000000000000000E+00     0.0000000000000000E+00 
    4.5312499999987760E-01     0.0000000000000000E+00     0.0000000000000000E+00 
    4.6874999999991840E-01     0.0000000000000000E+00     0.0000000000000000E+00 
    4.8437499999995920E-01     0.0000000000000000E+00     0.0000000000000000E+00 
    5.1562499999992384E-01     0.0000000000000000E+00     0.0000000000000000E+00 
    5.3124999999985478E-01     0.0000000000000000E+00     0.0000000000000000E+00 
    5.4687499999994527E-01     0.0000000000000000E+00     0.0000000000000000E+00 
    5.6249999999998668E-01     0.0000000000000000E+00     0.0000000000000000E+00 
    5.7812499999998068E-01     0.0000000000000000E+00     0.0000000000000000E+00 
    5.9374999999994749E-01     0.0000000000000000E+00     0.0000000000000000E+00 
    6.0937499999997913E-01     0.0000000000000000E+00     0.0000000000000000E+00 
    6.2500000000000000E-01     0.0000000000000000E+00     0.0000000000000000E+00 
    6.4062499999998945E-01     0.0000000000000000E+00     0.0000000000000000E+00 
    6.5624999999996603E-01     0.0000000000000000E+00     0.0000000000000000E+00 
    6.7187499999995337E-01     0.0000000000000000E+00     0.0000000000000000E+00 
    6.8749999999998734E-01     0.0000000000000000E+00     0.0000000000000000E+00 
    7.0312499999998124E-01     0.0000000000000000E+00     0.0000000000000000E+00 
    7.1874999999997025E-01     0.0000000000000000E+00     0.0000000000000000E+00 
    7.3437499999999034E-01     0.0000000000000000E+00     0.0000000000000000E+00 
    7.5000000000000000E-01     0.0000000000000000E+00     0.0000000000000000E+00 
    7.6562499999996902E-01     0.0000000000000000E+00     0.0000000000000000E+00 
    7.8124999999993228E-01     0.0000000000000000E+00     0.0000000000000000E+00 
    7.9687499999989997E-01     0.0000000000000000E+00     0.0000000000000000E+00 
    8.1249999999996247E-01     0.0000000000000000E+00     0.0000000000000000E+00 
    8.2812499999999578E-01     0.0000000000000000E+00     0.0000000000000000E+00 
    8.4374999999999556E-01     0.0000000000000000E+00     0.0000000000000000E+00 
    8.5937500000000111E-01     0.0000000000000000E+00     0.0000000000000000E+00 
    8.7499999999997691E-01     0.0000000000000000E+00     0.0000000000000000E+00 
    8.9062500000000921E-01     0.0000000000000000E+00     0.0000000000000000E+00 
    9.0625000000004452E-01     0.0000000000000000E+00     0.0000000000000000E+00 
    9.2187500000005529E-01     0.0000000000000000E+00     0.0000000000000000E+00 
    9.3750000000012723E-01     0.0000000000000000E+00     0.0000000000000000E+00 
    9.5312500000011835E-01     0.0000000000000000E+00     0.0000000000000000E+00 
    9.6875000000005151E-01     0.0000000000000000E+00     0.0000000000000000E+00 
    9.8437500000003086E-01     0.0000000000000000E+00     0.0000000000000000E+00 
    1.0000000000000000E+00     1.5624999999971041E-02     0.0000000000000000E+00 
    1.0000000000000000E+00     3.1249999999936742E-02     0.0000000000000000E+00 
    1.0000000000000000E+00     4.6874999999913257E-02     0.0000000000000000E+00 
    1.0000000000000000E+00     6.2499999999889783E-02     0.0000000000000000E+00 
    1.0000000000000000E+00     7.8124999999844805E-02     0.0000000000000000E+00 
    1.0000000000000000E+00     9.3749999999799827E-02     0.0000000000000000E+00 
    1.0000000000000000E+00     1.0937499999975490E-01     0.0000000000000000E+00 
    1.0000000000000000E+00     1.2499999999970990E-01     0.0000000000000000E+00 
    1.0000000000000000E+00     1.4062499999966460E-01     0.0000000000000000E+00 
    1.0000000000000000E+00     1.5624999999961930E-01     0.0000000000000000E+00 
    1.0000000000000000E+00     1.7187499999957390E-01     0.0000000000000000E+00 
    1.0000000000000000E+00     1.8749999999952860E-01     0.0000000000000000E+00 
    1.0000000000000000E+00     2.0312499999948330E-01     0.0000000000000000E+00 
    1.0000000000000000E+00     2.1874999999943801E-01     0.0000000000000000E+00 
    1.0000000000000000E+00     2.3437499999939271E-01     0.0000000000000000E+00 
    1.0000000000000000E+00     2.4999999999934730E-01     0.0000000000000000E+00 
    1.0000000000000000E+00     2.6562499999938810E-01     0.0000000000000000E+00 
    1.0000000000000000E+00     2.8124999999942890E-01     0.0000000000000000E+00 
    1.0000000000000000E+00     2.9687499999946970E-01     0.0000000000000000E+00 
    1.0000000000000000E+00     3.1249999999951050E-01     0.0000000000000000E+00 
    1.0000000000000000E+00     3.2812499999955130E-01     0.0000000000000000E+00 
    1.0000000000000000E+00     3.4374999999959210E-01     0.0000000000000000E+00 
    1.0000000000000000E+00     3.5937499999963290E-01     0.0000000000000000E+00 
    1.0000000000000000E+00     3.7499999999967371E-01     0.0000000000000000E+00 
    1.0000000000000000E+00     3.9062499999971451E-01     0.0000000000000000E+00 
    1.0000000000000000E+00     4.0624999999975520E-01     0.0000000000000000E+00 
    1.0000000000000000E+00     4.2187499999979600E-01     0.0000000000000000E+00 
    1.0000000000000000E+00     4.3749999999983680E-01     0.0000000000000000E+00 
    1.0000000000000000E+00     4.5312499999987760E-01     0.0000000000000000E+00 
    1.0000000000000000E+00     4.6874999999991840E-01     0.0000000000000000E+00 
    1.0000000000000000E+00     4.8437499999995920E-01     0.0000000000000000E+00 
    1.0000000000000000E+00     5.1562499999992384E-01     0.0000000000000000E+00 
    1.0000000000000000E+00     5.3124999999985478E-01     0.0000000000000000E+00 
    1.0000000000000000E+00     5.4687499999994527E-01     0.0000000000000000E+00 
    1.0000000000000000E+00     5.6249999999998668E-01     0.0000000000000000E+00 
    1.0000000000000000E+00     5.7812499999998068E-01     0.0000000000000000E+00 
    1.0000000000000000E+00     5.9374999999994749E-01     0.0000000000000000E+00 
    1.0000000000000000E+00     6.0937499999997913E-01     0.0000000000000000E+00 
    1.0000000000000000E+00     6.2500000000000000E-01     0.0000000000000000E+00 
    1.0000000000000000E+00     6.4062499999998945E-01     0.0000000000000000E+00 
    1.0000000000000000E+00     6.5624999999996603E-01     0.0000000000000000E+00 
    1.0000000000000000E+00     6.7187499999995337E-01     0.0000000000000000E+00 
    1.0000000000000000E+00     6.8749999999998734E-01     0.0000000000000000E+00 
    1.0000000000000000E+00     7.0312499999998124E-01     0.0000000000000000E+00 
    1.0000000000000000E+00     7.1874999999997025E-01     0.0000000000000000E+00 
    1.0000000000000000E+00     7.3437499999999034E-01     0.0000000000000000E+00 
    1.0000000000000000E+00     7.5000000000000000E-01     0.0000000000000000E+00 
    1.0000000000000000E+00     7.6562499999996902E-01     0.0000000000000000E+00 
    1.0000000000000000E+00     7.8124999999993228E-01     0.0000000000000000E+00 
    1.0000000000000000E+00     7.9687499999989997E-01     0.0000000000000000E+00 
[...]
CELL_DATA 2084 
SCALARS Pressure double 1 
LOOKUP_TABLE default 

    2.5668529294177840E+00 
    2.5940758098403718E+00 
    2.7811644480465763E+00 
    2.5948151006204752E+00 
    2.6984383443577018E+00 
    2.6552784710117399E+00 
    2.5395143511012122E+00 
    2.6401635296027464E+00 
    2.6501729294308460E+00 
    2.7026554383209400E+00 
    2.7753508865996714E+00 
    2.5534657544970409E+00 
    2.6293103467390471E+00 
    2.5915310343654689E+00 
    2.5621057333983406E+00 
    2.5813049987067886E+00 
    2.7357338492030454E+00 
    2.6113845900128485E+00 
    2.8072947212367900E+00 
    2.5736162983530275E+00 
    2.5771314030721930E+00 
    2.6816606997096777E+00 
    2.5796821859397454E+00 
    2.6253722570208686E+00 
    2.5700989555013254E+00 
    2.6268983907434618E+00 
    2.5869496419467990E+00 
    2.5425826740999855E+00 
    2.6336342092360239E+00 
    2.6008059144400808E+00 
    2.5320488291285135E+00 
    2.6408433024934541E+00 
    2.5201753130455162E+00 
    2.5764569691976669E+00 
    2.5569737454822334E+00 
    2.6923138633460546E+00 
    2.6061210218055550E+00 
    2.6019600331039827E+00 
    2.6816334776665269E+00 
    2.6417983632722812E+00 
    2.5451047939844904E+00 
    2.7072031067125413E+00 
    2.5705031027172494E+00 
    2.6619817888346158E+00 
    2.6543643893990785E+00 
    2.5521549479250645E+00 
    2.7055908016945587E+00 
    2.5362769092708422E+00 
    2.5381910484969952E+00 
    2.6301207583254311E+00 
    2.6275447701995795E+00 
    2.5419020378364388E+00 
    2.5519804268132527E+00 
    2.6144589585324831E+00 
    2.6155872150942296E+00 
    2.5452470832721481E+00 
    2.5253543331901951E+00 
    2.6681742836837334E+00 
    2.6792311656404508E+00 
    2.6224100664929564E+00 
    2.6211573980203196E+00 
    2.5742564805025787E+00 
    2.5557812101444140E+00 
    2.5893294350814693E+00 
    2.7031472957904032E+00 
    2.6183546112424887E+00 
    2.6500132921857884E+00 
    2.5506768974860936E+00 
    2.5369029057589483E+00 
    2.5360593337249000E+00 
    2.5682777422093017E+00 
    2.8372751905476057E+00 
    2.6276583878418007E+00 
    2.7588361579421168E+00 
    2.6756566140471030E+00 
    2.7562832118485789E+00 
    2.6233035096985073E+00 
    2.6952707144018642E+00 
    2.5531801781122474E+00 
    2.7121857679512398E+00 
    2.5803468504596077E+00 
    2.6414475985000014E+00 
    2.6668659119913745E+00 
    2.5309670158513957E+00 
    2.6549666886617587E+00 
    2.5782860187814518E+00 
    2.6087263475277940E+00 
    2.6574174061432871E+00 
    2.6768854112039926E+00 
    2.6682103424436798E+00 
    2.6506898319515972E+00 
    2.6472765416461068E+00 
    2.5821648074298365E+00 
    2.6664094155888365E+00 
    2.6111053784185434E+00 
    2.5417785267701740E+00 
    2.5969561054139558E+00 
    2.6346218548892528E+00 
    2.6890409787921925E+00 
    2.6007208655519221E+00 
    2.7005935925052000E+00 
    2.6642529018100460E+00 
    2.6795091125865009E+00 
    2.6808261372003468E+00 
    2.6115196368799656E+00 
    2.6658806178364105E+00 
    2.6392289220172542E+00 
    2.6897105359172966E+00 
    2.5646331257429913E+00 
    2.8694641070451605E+00 
    2.5850933954321786E+00 
    2.6336547068496095E+00 
    2.6635250217817377E+00 
    2.7166476191924374E+00 
    2.7692473131483348E+00 
    2.5907645016161776E+00 
    2.6665378335447296E+00 
    2.6633620778848668E+00 
    2.6027625710739319E+00 
    2.5713111467343626E+00 
    2.6177221302414773E+00 
    2.6783278149859400E+00 
    2.5715284728599106E+00 
    2.7436652143008873E+00 
    2.6380004763289397E+00 
    2.6788349566668321E+00 
    2.6196465643618110E+00 
    2.5715590551125542E+00 
    2.6066211247136652E+00 
    2.5801296235806137E+00 
    2.7655308965227854E+00 
    2.7779502910906135E+00 
    2.5472175850818575E+00 
    2.7030953520657346E+00 
    2.6893013012755485E+00 
    2.6209134710057764E+00 
    2.6708823839512568E+00 
    2.5703752111223412E+00 
    2.6877671153616984E+00 
    2.7493331821236731E+00 
    2.6534555082510298E+00 
    2.7919009994083299E+00 
    2.7590937916282994E+00 
    2.6379144011243927E+00 
    2.5911817215041402E+00 
    2.6338678375377587E+00 
    2.6646048131340727E+00 
    2.6865452415376807E+00 
    2.6111380877836678E+00 
    2.6523561378811862E+00 
    2.6577658520720870E+00 
    2.7503140066748553E+00 
    2.8242172793924309E+00 
    2.6104842359080767E+00 
    2.6193377876905011E+00 
    2.8072023238119406E+00 
    2.5792731844812185E+00 
    2.6605174253066388E+00 
    2.6147749905221569E+00 
    2.7432646637585418E+00 
    2.9497460451031716E+00 
    2.8888881265159720E+00 
    2.8279034727595413E+00 
    2.8485607999999720E+00 
    2.7995424674232430E+00 
    2.8161385269589698E+00 
    2.6625554740838888E+00 
    2.8627641681492042E+00 
    2.6540975945388663E+00 
    2.8089900243114521E+00 
    2.6544032262366053E+00 
    2.7366807054777489E+00 
    2.7545391103255072E+00 
    2.6925952654959464E+00 
    2.7293729356122030E+00 
    2.5991499899326156E+00 
    2.7323305426259452E+00 
    2.6450965151453589E+00 
    2.6525184905232768E+00 
    2.6514260850468281E+00 
    2.6753678402695180E+00 
    2.5970286559130322E+00 
    2.7374114567466994E+00 
    2.6776929845237585E+00 
    2.6741089664169149E+00 
    2.5236529110842296E+00 
    2.6979587813190040E+00 
    2.7609901633116194E+00 
    2.6045283583189356E+00 
    2.7191308842159363E+00 
    2.7758544402054270E+00 
    2.7982216842963852E+00 
    2.6757916422616077E+00 
    2.6206528406698570E+00 
    2.5891678805217961E+00 
    2.6069096109206082E+00 
    2.7048383524291730E+00 
    2.6683331080713253E+00 
    2.6173374592880188E+00 
    2.7092606729860220E+00 
    2.6449450549361617E+00 
    2.6091664758235744E+00 
    2.6753866350652000E+00 
    2.5545813544144171E+00 
    2.6084426164682522E+00 
    2.7795554898898405E+00 
    2.7041262953787628E+00 
    2.6004639010267838E+00 
    2.7273628111058290E+00 
    2.7196589109790676E+00 
    2.6141712387018612E+00 
    2.6348337828841970E+00 
    2.6404333206393900E+00 
    2.6944711215720805E+00 
    2.6907995746477025E+00 
    2.7540864262556410E+00 
    2.6301425815752659E+00 
    2.6913685213239940E+00 
    2.7054876751809509E+00 
    2.6186524103159190E+00 
    2.6258070549034844E+00 
    2.5154970006184283E+00 
    2.6206088652713615E+00 
    2.7888407675723332E+00 
    2.6679015778351887E+00 
    2.6901650424639989E+00 
    2.6449980621541025E+00 
    2.6902877697564640E+00 
    2.6072897565102759E+00 
    2.5950621771625819E+00 
    2.5696987033278194E+00 
    2.6043655694334178E+00 
    2.5740473455734021E+00 
    2.6304200762717707E+00 
    2.6770640192360142E+00 
    2.5867668602777916E+00 
    2.7217513568399272E+00 
    2.7239513310990273E+00 
    2.6270139574836544E+00 
    2.5952626968121306E+00 
    2.6771083531400510E+00 
    2.6138511833381011E+00 
    2.5608833060892411E+00 
    2.6073083450175343E+00 
    2.5667884773354062E+00 
    2.5676317297555729E+00 
    2.6181183342159242E+00 
    2.6637536693933552E+00 
    2.7407839558613567E+00 
    2.5567329927156623E+00 
    2.6054662553532930E+00 
    2.5836450479822330E+00 
    2.6050677271108906E+00 
    2.8363927784426819E+00 
    2.5720086151029333E+00 
    2.6401980750322820E+00 
    2.5827196200708262E+00 
    2.6202783867144674E+00 
    2.5923825112947538E+00 
    2.6284519649409708E+00 
    2.5825162462888152E+00 
    2.6250192835404342E+00 
    2.5941253217747948E+00 
    2.6283756807676686E+00 
    2.5900235774992928E+00 
    2.5888930315729710E+00 
    2.5664467763872771E+00 
    2.5765886845599333E+00 
    2.7218518179942195E+00 
    2.5473154970216756E+00 
    2.5565738164261020E+00 
    2.6013340179168898E+00 
    2.5864737119815482E+00 
    2.9050535780980833E+00 
    2.6039845468320966E+00 
    2.6930056505968634E+00 
    2.5966448096765675E+00 
    2.5425288975636060E+00 
    2.6166156670781917E+00 
    2.5774958505718129E+00 
    2.6313102104142931E+00 
    2.5905202124415991E+00 
    2.5908506583282405E+00 
    2.6021634856368889E+00 
    2.5687754724796781E+00 
    2.6037867233825254E+00 
    2.5913268932173117E+00 
    2.5478767304265313E+00 
    2.5809502234011674E+00 
    2.5808989312575172E+00 
    2.5988249536322670E+00 
    2.5407032038269906E+00 
    2.5835562033464377E+00 
    2.5985939065717072E+00 
    2.6302238570086418E+00 
    2.5713460268410158E+00 
    2.5599452013770607E+00 
    2.7046843341298268E+00 
    2.5720542302743898E+00 
    2.6518879876611123E+00 
    2.9050889904874313E+00 
    2.7154134003939179E+00 
    2.6525747621314753E+00 
    2.7369367290210151E+00 
    2.5871634048259016E+00 
    2.5810645865963466E+00 
    2.5587484483854901E+00 
    2.5624055648395094E+00 
    2.5634505742179425E+00 
    2.5563876648238719E+00 
    2.7401479210748683E+00 
    2.5605564765595976E+00 
    2.6177490779098078E+00 
    2.7198753046113953E+00 
    2.6298165876092807E+00 
    2.5715610959003943E+00 
    2.6865961369865232E+00 
    2.5543780449897548E+00 
    2.5547325640598566E+00 
    2.5636734246614927E+00 
    2.8727896711620993E+00 
    2.6647518339461058E+00 
    2.7296096669647367E+00 
    2.7352601730177017E+00 
    2.6392220608377932E+00 
    2.7065807672624773E+00 
    2.5746201331197112E+00 
    2.5086539221898905E+00 
    3.0490434709014069E+00 
    2.5312112791945127E+00 
    2.5465389543057486E+00 
    2.5458865503452688E+00 
    2.6537367286875826E+00 
    2.7188904009213419E+00 
    2.5082653107161192E+00 
    2.7716535822979496E+00 
    2.7932588766811306E+00 
    2.6400110230160521E+00 
    2.5912956526448365E+00 
    2.7583138636023228E+00 
    2.6420169608827084E+00 
    2.5649047985112334E+00 
    2.7292577467168826E+00 
    2.5384837165681362E+00 
    2.5374735262903201E+00 
    2.6512581073349519E+00 
    2.6000660470669792E+00 
    2.5165619164589734E+00 
    2.5909247205467381E+00 
    2.5247525961085535E+00 
    2.7484985736963834E+00 
    2.5309915145550557E+00 
    2.5804526684330864E+00 
    2.7170108426634285E+00 
    2.5996573778113459E+00 
    2.6421418913330639E+00 
    2.5294117342255227E+00 
    2.6217933609112549E+00 
    2.6274289814699179E+00 
    2.5658828610264188E+00 
    2.6002307787615946E+00 
    2.7236083259999426E+00 
    2.5244892484677406E+00 
    2.5980850383827061E+00 
    2.5700057641045415E+00 
    2.5708883191259573E+00 
    2.6149472501481963E+00 
    2.5636769896759444E+00 
    2.6061519230267791E+00 
    2.7362910567937035E+00 
    2.7513448445141626E+00 
    2.5218773740353146E+00 
    2.9162853767448578E+00 
    2.6200543003395134E+00 
    2.5838325229804626E+00 
    2.7797977924006179E+00 
    2.6460351312215513E+00 
    2.6617211260730804E+00 
    2.5701745477728486E+00 
    2.5627592907541867E+00 
    2.6805703056172656E+00 
    2.6407525227917934E+00 
    2.5170964643030778E+00 
    2.5699863018806917E+00 
    2.8079709561533619E+00 
    2.6357047793417898E+00 
    2.7106027419394687E+00 
    2.6517770366193694E+00 
    2.7242375856346630E+00 
    2.6805197627829789E+00 
    2.5153549993599409E+00 
    2.5491975492183290E+00 
    2.5928246626717404E+00 
    2.7528805247644770E+00 
    2.7086182210189604E+00 
    2.5890393404931076E+00 
    2.5638747460540872E+00 
    2.5875536996111119E+00 
    2.5753055386287542E+00 
    2.6934526142612714E+00 
    2.5665681300604657E+00 
    2.6605512593674954E+00 
    2.8488555310428199E+00 
    2.5609932487929949E+00 
    2.8131373786963918E+00 
    2.6096289320547474E+00 
    2.8282650507411060E+00 
    2.7189934666812876E+00 
    2.9619075942628115E+00 
    2.5810300627931562E+00 
    2.7065491966645747E+00 
    2.6281426394567577E+00 
    2.5564727385894548E+00 
    2.7336907023353745E+00 
    2.6196831660920665E+00 
    2.7428826021033781E+00 
    2.5601768614489222E+00 
    2.7091780519918753E+00 
    2.6102840078760772E+00 
    2.6438301782694151E+00 
    2.5298803443090225E+00 
    2.5638174585417763E+00 
    2.5517427376448616E+00 
    2.7742502512981391E+00 
    2.5829787886646747E+00 
    2.8398263500886518E+00 
    2.7913378514364258E+00 
    2.5733845578647698E+00 
    2.6084111256520970E+00 
    2.5932511792118125E+00 
    2.5281246212855519E+00 
    2.6136520400598418E+00 
    2.7229196499571890E+00 
    2.5725187186578231E+00 
    2.5367420239535639E+00 
    2.8679249652800531E+00 
    2.6934488633623204E+00 
    2.5089216147132953E+00 
    2.5084695407312805E+00 
    2.5475048753430167E+00 
    2.5539471542009977E+00 
    2.5347319190716955E+00 
    2.5250134614791691E+00 
    2.5889104842060839E+00 
    2.5787709086176567E+00 
    2.5020673188800862E+00 
    2.5019136083114217E+00 
    2.4685833142736802E+00 
    2.4080778392658710E+00 
    2.4020628012960135E+00 
    2.4075474919494870E+00 
    2.4275702472533482E+00 
    2.4244516604162341E+00 
    2.4813215637698058E+00 
    2.3866955102514646E+00 
    2.4678021530666672E+00 
    2.3923138268120954E+00 
    2.4486894889835207E+00 
    2.4216774716960767E+00 
    2.4185873353669707E+00 
    2.3944727371306138E+00 
    2.3865116086486844E+00 
    2.5219340352658302E+00 
    2.4784740624161272E+00 
    2.5027680408068131E+00 
    2.4746161420310080E+00 
    2.4347646862134993E+00 
    2.3861542376262337E+00 
    2.3834176474345088E+00 
    2.5175450374147981E+00 
    2.4454281073292705E+00 
    2.3852931195799116E+00 
    2.4272765537937016E+00 
    2.4949198712055782E+00 
    2.4948892177787716E+00 
    2.3715915200055115E+00 
    2.3840782555665094E+00 
    2.4481212843106563E+00 
    2.5044121683339808E+00 
    2.4811491043544813E+00 
    2.4354365618949165E+00 
    2.4101021786959964E+00 
    2.5300204805859674E+00 
    2.5050967860955322E+00 
    2.4946750046543436E+00 
    2.5454825542442459E+00 
    2.4094710418945264E+00 
    2.4240362079395172E+00 
    2.4192130062450241E+00 
    2.5158422149971793E+00 
    2.4227667082760838E+00 
    2.4993713615718769E+00 
    2.4608778284619937E+00 
    2.4577054105577352E+00 
    2.4430476037657591E+00 
    2.4476036718890279E+00 
    2.5048590501286689E+00 
    2.5007635818060328E+00 
    2.4544704771388712E+00 
    2.4031721612290093E+00 
    2.4455200919068458E+00 
    2.4403124071075495E+00 
    2.3873060465612741E+00 
    2.4840874250714990E+00 
    2.3903868079379604E+00 
    2.5044598725139293E+00 
    2.3940580326234113E+00 
    2.4690267283168819E+00 
    2.4148552213170196E+00 
    2.3696267785769263E+00 
    2.3698244650990974E+00 
    2.3712497758541176E+00 
    2.3628427240708478E+00 
    2.4435732577126057E+00 
    2.3634184689783009E+00 
    2.3848235467641796E+00 
    2.3871279986667333E+00 
    2.5342403697358709E+00 
    2.4476460507558762E+00 
    2.3866991807870255E+00 
    2.5038805662262034E+00 
    2.4293628412655384E+00 
    2.4112355159305725E+00 
    2.4874005732724780E+00 
    2.5315447857921209E+00 
    2.4741078937690300E+00 
    2.4768033161892697E+00 
    2.4534118965512866E+00 
    2.4674934341405539E+00 
    2.4907170644218746E+00 
    2.4879213922492474E+00 
    2.4850402010386694E+00 
    2.4890985924476747E+00 
    2.4581831906710292E+00 
    2.5013238875174455E+00 
    2.5011251584798417E+00 
    2.4712618819529610E+00 
    2.4797022420406849E+00 
    2.5208655194229199E+00 
    2.4895300574884067E+00 
    2.4980219083012614E+00 
    2.5244473166544932E+00 
    2.4275707653194960E+00 
    2.4163783749192072E+00 
    2.4694935720596893E+00 
    2.5054672814425873E+00 
    2.5320974396001881E+00 
    2.5011880258158992E+00 
    2.3711695580269598E+00 
    2.4137135670856531E+00 
    2.4673825751499696E+00 
    2.4399666673946627E+00 
    2.3948445328127730E+00 
    2.4903902455686766E+00 
    2.4658920736983396E+00 
    2.3942883974006297E+00 
    2.4810772384129756E+00 
    2.4050706785395506E+00 
    2.4177508620960722E+00 
    2.4135630936455876E+00 
    2.4722025484579624E+00 
    2.4991915438799546E+00 
    2.5179315098962949E+00 
    2.4890386464550041E+00 
    2.5124557194476695E+00 
    2.4027931295642948E+00 
    2.3877795091085252E+00 
    2.5177488789476468E+00 
    2.4844255002338280E+00 
    2.3705799099863576E+00 
    2.3702483666237613E+00 
    2.5283041603080929E+00 
    2.4598925714015967E+00 
    2.4919289181461126E+00 
    2.4668582779370527E+00 
    2.4304110039803506E+00 
    2.4702667721934595E+00 
    2.4830351746102446E+00 
    2.4567381086141675E+00 
    2.4520927920440605E+00 
    2.4518491571381236E+00 
    2.3606475884364739E+00 
    2.5088165723100317E+00 
    2.5459930599401850E+00 
    2.3613728640775506E+00 
    2.3609110628878356E+00 
    2.3623320952820230E+00 
    2.3615525878475272E+00 
    2.3697450542126264E+00 
    2.4929783169609583E+00 
    2.4327419351930613E+00 
    2.3827050214943943E+00 
    2.4810498366690985E+00 
    2.4784728408949208E+00 
    2.4237251600850396E+00 
    2.4419741379092428E+00 
    2.4332818262894027E+00 
    2.4554870469657248E+00 
    2.5148101656829054E+00 
    2.3608100078316894E+00 
    2.3618859132266272E+00 
    2.4068047400182691E+00 
    2.4479706320179866E+00 
    2.4958414115181147E+00 
    2.3845048192141012E+00 
    2.5174273021408831E+00 
    2.3671326644913124E+00 
    2.4264685618127966E+00 
    2.3681443747767603E+00 
    2.3677935324021884E+00 
    2.3812865432460497E+00 
    2.5182071282256744E+00 
    2.4659223049257331E+00 
    2.4382975671833953E+00 
    2.4583066035714114E+00 
    2.4766230120692105E+00 
    2.3696634541764863E+00 
    2.4361319102558188E+00 
    2.4672329907384540E+00 
    2.5170424790066104E+00 
    2.5086316582609278E+00 
    2.5052004509135428E+00 
    2.5178476050833112E+00 
    2.5237752775076618E+00 
    2.4529612050665852E+00 
    2.3867589950208039E+00 
    2.4750313349648709E+00 
    2.4731855812617392E+00 
    2.4299333828538239E+00 
    2.3691103595888947E+00 
    2.4703702066343105E+00 
    2.4854980660797086E+00 
    2.4934597619463390E+00 
    2.4813102735242634E+00 
    2.3700338823318390E+00 
    2.4762387554873384E+00 
    2.4717997143595074E+00 
    2.3804427061067397E+00 
    2.3974227167854201E+00 
    2.4664821488823319E+00 
    2.4794484422776102E+00 
    2.4743335893387766E+00 
    2.4874691792230155E+00 
    2.4864672428718069E+00 
    2.5157093023569876E+00 
    2.4696545442731654E+00 
    2.4990746666762642E+00 
    2.4627061019218481E+00 
    2.4769798192350843E+00 
    2.3655272977296873E+00 
    2.5303089314452851E+00 
    2.5116225561314223E+00 
    2.5227411366012098E+00 
    2.4306481949922625E+00 
    2.4178571629512069E+00 
    2.4019015063083975E+00 
    2.4918937075579772E+00 
    2.4666666552174377E+00 
    2.4954819364795000E+00 
    2.4218758244755025E+00 
    2.3811779998263485E+00 
    2.3954337989111170E+00 
    2.5051132846125901E+00 
    2.3908922300358779E+00 
    2.4541955282459602E+00 
    2.4040140308595479E+00 
    2.5039739347004488E+00 
    2.4643824482728380E+00 
    2.4509810450089451E+00 
    2.5258002280493770E+00 
    2.5199330350932736E+00 
    2.4403893911855277E+00 
    2.4313640148040347E+00 
    2.4108902939374341E+00 
    2.4460595984820479E+00 
    2.4945174098349887E+00 
    2.3635191645310383E+00 
    2.5140374168564716E+00 
    2.5258949856188351E+00 
    2.4384806633057794E+00 
    2.4337515654266615E+00 
    2.3832915151201512E+00 
    2.3681876021740629E+00 
    2.5219556894585424E+00 
    2.4176074441320332E+00 
    2.4672136784299807E+00 
    2.4385067455192946E+00 
    2.4781209528790122E+00 
    2.3973935586300992E+00 
    2.4559150327281771E+00 
    2.5214801251623555E+00 
    2.4075721553303429E+00 
    2.4363988344925795E+00 
    2.4040503069223176E+00 
    2.4461919872220443E+00 
    2.5276713664329189E+00 
    2.4130634241138100E+00 
    2.4655002396134535E+00 
    2.4242093473223347E+00 
    2.3835282836570570E+00 
    2.4869097932220510E+00 
    2.4868129658583364E+00 
    2.4736933310741605E+00 
    2.4228160704269426E+00 
    2.4195298407976580E+00 
    2.3889249536296542E+00 
    2.4689822112269106E+00 
    2.4859344036938977E+00 
    2.4527753718573941E+00 
    2.3855249720089970E+00 
    2.4163899149178989E+00 