# vtk DataFile Version 2.0
Pressure Field Data 
ASCII 
DATASET UNSTRUCTURED_GRID 

POINTS 2213 double 

    0.0000000000000000E+00     0.0000000000000000E+00     0.0000000000000000E+00 
    5.0000000000000000E-01     0.0000000000000000E+00     0.0000000000000000E+00 
    1.0000000000000000E+00     0.0000000000000000E+00     0.0000000000000000E+00 
    1.0000000000000000E+00     5.0000000000000000E-01     0.0000000000000000E+00 
    1.0000000000000000E+00     1.0000000000000000E+00     0.0000000000000000E+00 
    5.0000000000000000E-01     1.0000000000000000E+00     0.0000000000000000E+00 
    0.0000000000000000E+00     1.0000000000000000E+00     0.0000000000000000E+00 
    0.0000000000000000E+00     5.0000000000000000E-01     0.0000000000000000E+00 
    1.5624999999971041E-02     0.0000000000000000E+00     0.0000000000000000E+00 
    3.1249999999936742E-02     0.0000000000000000E+00     0.0000000000000000E+00 
    4.6874999999913257E-02     0.0000000000000000E+00     0.0000000000000000E+00 
    6.2499999999889783E-02     0.0000000000000000E+00     0.0000000000000000E+00 
    7.8124999999844805E-02     0.0000000000000000E+00     0.0000000000000000E+00 
    9.3749999999799827E-02     0.0000000000000000E+00     0.0000000000000000E+00 
    1.0937499999975490E-01     0.0000000000000000E+00     0.0000000000000000E+00 
    1.2499999999970990E-01     0.0000000000000000E+00     0.0000000000000000E+00 
    1.4062499999966460E-01     0.0000000000000000E+00     0.0000000000000000E+00 
    1.5624999999961930E-01     0.0000000000000000E+00     0.0000000000000000E+00 
    1.7187499999957390E-01     0.0000000000000000E+00     0.0000000000000000E+00 
    1.8749999999952860E-01     0.0000000000000000E+00     0.0000000000000000E+00 
    2.0312499999948330E-01     0.0000000000000000E+00     0.0000000000000000E+00 
    2.1874999999943801E-01     0.0000000000000000E+00     0.0000000000000000E+00 
    2.3437499999939271E-01     0.0000000000000000E+00     0.0000000000000000E+00 
    2.4999999999934730E-01     0.0000000000000000E+00     0.0000000000000000E+00 
    2.6562499999938810E-01     0.0000000000000000E+00     0.0000000000000000E+00 
    2.8124999999942890E-01     0.0000000000000000E+00     0.0000000000000000E+00 
    2.9687499999946970E-01     0.0000000000000000E+00     0.0000000000000000E+00 
    3.1249999999951050E-01     0.0000000000000000E+00     0.0000000000000000E+00 
    3.2812499999955130E-01     0.0000000000000000E+00     0.0000000000000000E+00 
    3.4374999999959210E-01     0.0000000000000000E+00     0.0000000000000000E+00 
    3.5937499999963290E-01     0.0000000000000000E+00     0.0000000000000000E+00 
    3.7499999999967371E-01     0.0000000000000000E+00     0.0000000000000000E+00 
    3.9062499999971451E-01     0.0000000000000000E+00     0.0000000000000000E+00 
    4.0624999999975520E-01     0.0000000000000000E+00     0.0000000000000000E+00 
    4.2187499999979600E-01     0.0000000000000000E+00     0.0000000000000000E+00 
    4.3749999999983680E-01     0.0000000000000000E+00     0.0000000000000000E+00 
    4.5312499999987760E-01     0.0000000000000000E+00     0.0000000000000000E+00 
    4.6874999999991840E-01     0.0000000000000000E+00     0.0000000000000000E+00 
    4.8437499999995920E-01     0.0000000000000000E+00     0.0000000000000000E+00 
    5.1562499999992384E-01     0.0000000000000000E+00     0.0000000000000000E+00 
    5.3124999999985478E-01     0.0000000000000000E+00     0.0000000000000000E+00 
    5.4687499999994527E-01     0.0000000000000000E+00     0.0000000000000000E+00 
    5.6249999999998668E-01     0.0000000000000000E+00     0.0000000000000000E+00 
    5.7812499999998068E-01     0.0000000000000000E+00     0.0000000000000000E+00 
    5.9374999999994749E-01     0.0000000000000000E+00     0.0000000000000000E+00 
    6.0937499999997913E-01     0.0000000000000000E+00     0.0000000000000000E+00 
    6.2500000000000000E-01     0.0000000000000000E+00     0.0000000000000000E+00 
    6.4062499999998945E-01     0.0000000000000000E+00     0.0000000000000000E+00 
    6.5624999999996603E-01     0.0000000000000000E+00     0.0000000000000000E+00 
    6.7187499999995337E-01     0.0000000000000000E+00     0.0000000000000000E+00 
    6.8749999999998734E-01     0.0000000000000000E+00     0.0000000000000000E+00 
    7.0312499999998124E-01     0.0000000000000000E+00     0.0000000000000000E+00 
    7.1874999999997025E-01     0.0000000000000000E+00     0.0000000000000000E+00 
    7.3437499999999034E-01     0.0000000000000000E+00     0.0000000000000000E+00 
    7.5000000000000000E-01     0.0000000000000000E+00     0.0000000000000000E+00 
    7.6562499999996902E-01     0.0000000000000000E+00     0.0000000000000000E+00 
    7.8124999999993228E-01     0.0000000000000000E+00     0.0000000000000000E+00 
    7.9687499999989997E-01     0.0000000000000000E+00     0.0000000000000000E+00 
    8.1249999999996247E-01     0.0000000000000000E+00     0.0000000000000000E+00 
    8.2812499999999578E-01     0.0000000000000000E+00     0.0000000000000000E+00 
    8.4374999999999556E-01     0.0000000000000000E+00     0.0000000000000000E+00 
    8.5937500000000111E-01     0.0000000000000000E+00     0.0000000000000000E+00 
    8.7499999999997691E-01     0.0000000000000000E+00     0.0000000000000000E+00 
    8.9062500000000921E-01     0.0000000000000000E+00     0.0000000000000000E+00 
    9.0625000000004452E-01     0.0000000000000000E+00     0.0000000000000000E+00 
    9.2187500000005529E-01     0.0000000000000000E+00     0.0000000000000000E+00 
    9.3750000000012723E-01     0.0000000000000000E+00     0.0000000000000000E+00 
    9.5312500000011835E-01     0.0000000000000000E+00     0.0000000000000000E+00 
    9.6875000000005151E-01     0.0000000000000000E+00     0.0000000000000000E+00 
    9.8437500000003086E-01     0.0000000000000000E+00     0.0000000000000000E+00 
    1.0000000000000000E+00     1.5624999999971041E-02     0.0000000000000000E+00 
    1.0000000000000000E+00     3.1249999999936742E-02     0.0000000000000000E+00 
    1.0000000000000000E+00     4.6874999999913257E-02     0.0000000000000000E+00 
    1.0000000000000000E+00     6.2499999999889783E-02     0.0000000000000000E+00 
    1.0000000000000000E+00     7.8124999999844805E-02     0.0000000000000000E+00 
    1.0000000000000000E+00     9.3749999999799827E-02     0.0000000000000000E+00 
    1.0000000000000000E+00     1.0937499999975490E-01     0.0000000000000000E+00 
    1.0000000000000000E+00     1.2499999999970990E-01     0.0000000000000000E+00 
    1.0000000000000000E+00     1.4062499999966460E-01     0.0000000000000000E+00 
    1.0000000000000000E+00     1.5624999999961930E-01     0.0000000000000000E+00 
    1.0000000000000000E+00     1.7187499999957390E-01     0.0000000000000000E+00 
    1.0000000000000000E+00     1.8749999999952860E-01     0.0000000000000000E+00 
    1.0000000000000000E+00     2.0312499999948330E-01     0.0000000000000000E+00 
    1.0000000000000000E+00     2.1874999999943801E-01     0.0000000000000000E+00 
    1.0000000000000000E+00     2.3437499999939271E-01     0.0000000000000000E+00 
    1.0000000000000000E+00     2.4999999999934730E-01     0.0000000000000000E+00 
    1.0000000000000000E+00     2.6562499999938810E-01     0.0000000000000000E+00 
    1.0000000000000000E+00     2.8124999999942890E-01     0.0000000000000000E+00 
    1.0000000000000000E+00     2.9687499999946970E-01     0.0000000000000000E+00 
    1.0000000000000000E+00     3.1249999999951050E-01     0.0000000000000000E+00 
    1.0000000000000000E+00     3.2812499999955130E-01     0.0000000000000000E+00 
    1.0000000000000000E+00     3.4374999999959210E-01     0.0000000000000000E+00 
    1.0000000000000000E+00     3.5937499999963290E-01     0.0000000000000000E+00 
    1.0000000000000000E+00     3.7499999999967371E-01     0.0000000000000000E+00 
    1.0000000000000000E+00     3.9062499999971451E-01     0.0000000000000000E+00 
    1.0000000000000000E+00     4.0624999999975520E-01     0.0000000000000000E+00 
    1.0000000000000000E+00     4.2187499999979600E-01     0.0000000000000000E+00 
    1.0000000000000000E+00     4.3749999999983680E-01     0.0000000000000000E+00 
    1.0000000000000000E+00     4.5312499999987760E-01     0.0000000000000000E+00 
    1.0000000000000000E+00     4.6874999999991840E-01     0.0000000000000000E+00 
    1.0000000000000000E+00     4.8437499999995920E-01     0.0000000000000000E+00 
    1.0000000000000000E+00     5.1562499999992384E-01     0.0000000000000000E+00 
    1.0000000000000000E+00     5.3124999999985478E-01     0.0000000000000000E+00 
    1.0000000000000000E+00     5.4687499999994527E-01     0.0000000000000000E+00 
    1.0000000000000000E+00     5.6249999999998668E-01     0.0000000000000000E+00 
    1.0000000000000000E+00     5.7812499999998068E-01     0.0000000000000000E+00 
    1.0000000000000000E+00     5.9374999999994749E-01     0.0000000000000000E+00 
    1.0000000000000000E+00     6.0937499999997913E-01     0.0000000000000000E+00 
    1.0000000000000000E+00     6.2500000000000000E-01     0.0000000000000000E+00 
    1.0000000000000000E+00     6.4062499999998945E-01     0.0000000000000000E+00 
    1.0000000000000000E+00     6.5624999999996603E-01     0.0000000000000000E+00 
    1.0000000000000000E+00     6.7187499999995337E-01     0.0000000000000000E+00 
    1.0000000000000000E+00     6.8749999999998734E-01     0.0000000000000000E+00 
    1.0000000000000000E+00     7.0312499999998124E-01     0.0000000000000000E+00 
    1.0000000000000000E+00     7.1874999999997025E-01     0.0000000000000000E+00 
    1.0000000000000000E+00     7.3437499999999034E-01     0.0000000000000000E+00 
    1.0000000000000000E+00     7.5000000000000000E-01     0.0000000000000000E+00 
    1.0000000000000000E+00     7.6562499999996902E-01     0.0000000000000000E+00 
    1.0000000000000000E+00     7.8124999999993228E-01     0.0000000000000000E+00 
    1.0000000000000000E+00     7.9687499999989997E-01     0.0000000000000000E+00 
[...]
CELL_DATA 2084 
SCALARS Pressure double 1 
LOOKUP_TABLE default 

    2.9696047023584260E+00 
    3.0061726691153310E+00 
    3.2281068251272891E+00 
    3.0071549905794890E+00 
    3.1354123004423444E+00 
    3.0835417965734764E+00 
    2.9317465506549367E+00 
    3.0647736574870184E+00 
    3.0772657153339353E+00 
    3.1403164634179830E+00 
    3.2218024534324141E+00 
    2.9510399354972141E+00 
    3.0513794332382851E+00 
    3.0021742150398953E+00 
    2.9633462062973743E+00 
    2.9885615883221361E+00 
    3.1781449756002460E+00 
    3.0281621884171437E+00 
    3.2561038133654128E+00 
    2.9790809135504062E+00 
    2.9836998003864075E+00 
    3.1155602148468304E+00 
    2.9864140134381696E+00 
    3.0463915288831127E+00 
    2.9742934273634676E+00 
    3.0480283320122608E+00 
    2.9965813578077172E+00 
    2.9360312330631579E+00 
    3.0566379111089503E+00 
    3.0146545294929759E+00 
    2.9213340684444766E+00 
    3.0657786097901076E+00 
    2.9037413818613200E+00 
    2.9829386578672907E+00 
    2.9559837276393739E+00 
    3.1282031652371831E+00 
    3.0213676934078411E+00 
    3.0159019379651864E+00 
    3.1155654804832884E+00 
    3.0669864224812304E+00 
    2.9397287923616879E+00 
    3.1455664609893383E+00 
    2.9743642559382129E+00 
    3.0918561808642191E+00 
    3.0824239979706221E+00 
    2.9498640880595932E+00 
    3.1437189190898467E+00 
    2.9268192169891614E+00 
    2.9300381846991161E+00 
    3.0523478682232716E+00 
    3.0489868840217502E+00 
    2.9347972582654802E+00 
    2.9486882662140310E+00 
    3.0321857236550755E+00 
    3.0335624995552108E+00 
    2.9392773092407860E+00 
    2.9113539974516045E+00 
    3.0993867984895944E+00 
    3.1126836679378442E+00 
    3.0425862015769063E+00 
    3.0409392611802084E+00 
    2.9791583087691444E+00 
    2.9544161617150637E+00 
    2.9995871930838458E+00 
    3.1408810130206137E+00 
    3.0373953405199794E+00 
    3.0771874049737149E+00 
    2.9475290053133039E+00 
    2.9279478289109675E+00 
    2.9272117125334338E+00 
    2.9713868516066713E+00 
    3.2876746189967880E+00 
    3.0490278122130428E+00 
    3.2037797406461803E+00 
    3.1084197974734082E+00 
    3.2009954378578489E+00 
    3.0435283069512367E+00 
    3.1316683524326954E+00 
    2.9504265241217102E+00 
    3.1513288045633567E+00 
    2.9873781408745939E+00 
    3.0665390190872324E+00 
    3.0978200103671010E+00 
    2.9194513481032671E+00 
    3.0832676227749563E+00 
    2.9848971813468479E+00 
    3.0248185502074989E+00 
    3.0862472585453036E+00 
    3.1098422592545485E+00 
    3.0993869411218080E+00 
    3.0779940393201501E+00 
    3.0737930670763522E+00 
    2.9904604775017969E+00 
    3.0972530838062164E+00 
    3.0280372943881204E+00 
    2.9353061652682357E+00 
    3.0094273050916853E+00 
    3.0580186181517650E+00 
    3.1243297256958211E+00 
    3.0145591815770434E+00 
    3.1378931263953729E+00 
    3.0946658412730508E+00 
    3.1130237073935190E+00 
    3.1145604107767340E+00 
    3.0285845074249069E+00 
    3.0966400408372086E+00 
    3.0637704468757621E+00 
    3.1251146603999387E+00 
    2.9661210654821955E+00 
    3.3210901695584805E+00 
    2.9937502429966418E+00 
    3.0567387682449314E+00 
    3.0936835934023290E+00 
    3.1564503895742653E+00 
    3.2152217383023833E+00 
    3.0012248901354930E+00 
    3.0974247315858867E+00 
    3.0935299137300909E+00 
    3.0172499792283252E+00 
    2.9762224369913151E+00 
    3.0364401820220119E+00 
    3.1116223483319634E+00 
    2.9764418154453889E+00 
    3.1869777892094850E+00 
    3.0620876091933766E+00 
    3.1121932781611439E+00 
    3.0387978356935235E+00 
    2.9765314705376333E+00 
    3.0222897397383974E+00 
    2.9874097563223612E+00 
    3.2111634104749442E+00 
    3.2246642816855213E+00 
    2.9429575380125370E+00 
    3.1408027329991794E+00 
    3.1246323666960865E+00 
    3.0406456419841046E+00 
    3.1026224378484089E+00 
    2.9749694217241802E+00 
    3.1228143281704046E+00 
    3.1932915880520012E+00 
    3.0814296713160969E+00 
    3.2397342483083338E+00 
    3.2040820350563650E+00 
    3.0621599054269337E+00 
    3.0020712680642592E+00 
    3.0571293655837586E+00 
    3.0950580272288701E+00 
    3.1213917513773977E+00 
    3.0280707899811428E+00 
    3.0800835544058147E+00 
    3.0866583012024020E+00 
    3.1944121846419979E+00 
    3.2740390110391631E+00 
    3.0273100104646091E+00 
    3.0387569753818982E+00 
    3.2560339210320679E+00 
    2.9861850539553028E+00 
    3.0900665194778463E+00 
    3.0329457817576637E+00 
    3.1865471934025393E+00 
    3.4029691367884558E+00 
    3.3410008394939417E+00 
    3.2778393750969799E+00 
    3.2994294631180501E+00 
    3.2478357018406965E+00 
    3.2654729387740535E+00 
    3.0925595180969130E+00 
    3.3141230296216131E+00 
    3.0822317703438737E+00 
    3.2579598924675479E+00 
    3.0826164394643571E+00 
    3.1792008116082306E+00 
    3.1990323965987457E+00 
    3.1285233200742359E+00 
    3.1709505105204787E+00 
    3.0123439227169579E+00 
    3.1742729507436218E+00 
    3.0710847909351617E+00 
    3.0803049894994232E+00 
    3.0789415602313941E+00 
    3.1080467657447692E+00 
    3.0098391116776950E+00 
    3.1799991909629215E+00 
    3.1108383637646884E+00 
    3.1065249734998663E+00 
    2.9094763797532943E+00 
    3.1348377524701241E+00 
    3.2061933135934897E+00 
    3.0197423685596503E+00 
    3.1592857957672198E+00 
    3.2224181137557233E+00 
    3.2464929622109402E+00 
    3.1085496816872391E+00 
    3.0402818787657457E+00 
    2.9990712894977074E+00 
    3.0228290882742734E+00 
    3.1428409520420533E+00 
    3.0994990479379618E+00 
    3.0359933661362044E+00 
    3.1479863498576024E+00 
    3.0708132131392967E+00 
    3.0257432595840710E+00 
    3.1080525988187619E+00 
    2.9522348924839537E+00 
    3.0247826243746814E+00 
    3.2264345684305953E+00 
    3.1419825009512943E+00 
    3.0141160343023961E+00 
    3.1686651301409898E+00 
    3.1598923859120234E+00 
    3.0320153962599896E+00 
    3.0582679266477251E+00 
    3.0653201711719924E+00 
    3.1307283072485963E+00 
    3.1264153809811144E+00 
    3.1985713521035462E+00 
    3.0523414471449155E+00 
    3.1270735784210624E+00 
    3.1435767315572782E+00 
    3.0378603813730116E+00 
    3.0469161888429168E+00 
    2.8970309635501721E+00 
    3.0403244363087039E+00 
    3.2364342570846909E+00 
    3.0989851487308151E+00 
    3.1256170912442776E+00 
    3.0709144883949011E+00 
    3.1258239811116431E+00 
    3.0231530946777982E+00 
    3.0072175767945830E+00 
    2.9730572424418598E+00 
    3.0192488397255937E+00 
    2.9789831444273300E+00 
    3.0528029928897600E+00 
    3.1100807370586057E+00 
    2.9960274081052045E+00 
    3.1622735500891266E+00 
    3.1648041885627878E+00 
    3.0485113263103600E+00 
    3.0077465726645713E+00 
    3.1100790061442085E+00 
    3.0316688201817872E+00 
    2.9614339573149007E+00 
    3.0233019424743492E+00 
    2.9699236077305193E+00 
    2.9705609360389049E+00 
    3.0371949818232831E+00 
    3.0940114164598858E+00 
    3.1838187178002775E+00 
    2.9556542321384014E+00 
    3.0207316157931001E+00 
    2.9921444902242129E+00 
    3.0203755062648927E+00 
    3.2867903799910594E+00 
    2.9766405622660823E+00 
    3.0648055400542829E+00 
    2.9908434798836150E+00 
    3.0398258823386568E+00 
    3.0035752822021031E+00 
    3.0502845304206465E+00 
    2.9910536384933506E+00 
    3.0458822526400930E+00 
    3.0061328221408132E+00 
    3.0498951329964301E+00 
    3.0004819290295943E+00 
    2.9989138755112945E+00 
    2.9692999995929426E+00 
    2.9828448216064860E+00 
    3.1624056292457436E+00 
    2.9427481310058101E+00 
    2.9557193016022385E+00 
    3.0153354987664671E+00 
    2.9961616664477999E+00 
    3.3576106233377678E+00 
    3.0190511139156588E+00 
    3.1290320486617809E+00 
    3.0094749118908943E+00 
    2.9355277640941084E+00 
    3.0352364566970533E+00 
    2.9838103300604466E+00 
    3.0538210822489145E+00 
    3.0011212648043344E+00 
    3.0012591732782381E+00 
    3.0165701860221397E+00 
    2.9727992106020853E+00 
    3.0186918690665321E+00 
    3.0022607038539921E+00 
    2.9432119659747831E+00 
    2.9883962247252049E+00 
    2.9880061960992146E+00 
    3.0121826721395664E+00 
    2.9334700170959751E+00 
    2.9923808352707533E+00 
    3.0120437920310339E+00 
    3.0525403387901271E+00 
    2.9754864837775656E+00 
    2.9601908017140808E+00 
    3.1426820559596909E+00 
    2.9761061020901511E+00 
    3.0794884366300259E+00 
    3.3575756613434464E+00 
    3.1550558676380192E+00 
    3.0802102029382010E+00 
    3.1794840821423009E+00 
    2.9968643332943965E+00 
    2.9885582943036715E+00 
    2.9581615922183073E+00 
    2.9633478718107433E+00 
    2.9644066408416601E+00 
    2.9557544722500553E+00 
    3.1830627726849454E+00 
    2.9612812312892336E+00 
    3.0363278123150552E+00 
    3.1601538719451252E+00 
    3.0519683804935096E+00 
    2.9754773751925581E+00 
    3.1214786306447841E+00 
    2.9523524660527145E+00 
    2.9524244966935687E+00 
    2.9649681373587566E+00 
    3.3245000939422633E+00 
    3.0951457425952089E+00 
    3.1712243542103389E+00 
    3.1775869655514328E+00 
    3.0638358781625166E+00 
    3.1448490717468527E+00 
    2.9802391112890656E+00 
    2.8877236116484024E+00 
    3.5030007467311659E+00 
    2.9200562169365667E+00 
    2.9415172620173329E+00 
    2.9401474081565300E+00 
    3.0817703908274470E+00 
    3.1590161211225243E+00 
    2.8864639803029704E+00 
    3.2178325801004588E+00 
    3.2411648988783903E+00 
    3.0647885378415238E+00 
    3.0021497730147049E+00 
    3.2032072341774587E+00 
    3.0673039721370716E+00 
    2.9670083222116972E+00 
    3.1708484953234266E+00 
    2.9302736083049314E+00 
    2.9283582616738610E+00 
    3.0787034198644623E+00 
    3.0136759119752177E+00 
    2.8992260597700441E+00 
    3.0018789832454638E+00 
    2.9103822626499531E+00 
    3.1923972936431144E+00 
    2.9197217820838817E+00 
    2.9880635727183642E+00 
    3.1569040223959770E+00 
    3.0134057669093677E+00 
    3.0674709676909204E+00 
    2.9169408533894088E+00 
    3.0418873510573152E+00 
    3.0487176974113050E+00 
    2.9680581557005530E+00 
    3.0136188907706258E+00 
    3.1644291211229385E+00 
    2.9104867327037014E+00 
    3.0108480188042086E+00 
    2.9743314285064435E+00 
    2.9751524613746327E+00 
    3.0331320107954025E+00 
    2.9658166511805666E+00 
    3.0213595005262599E+00 
    3.1787319110774717E+00 
    3.1955577495414444E+00 
    2.9061671473701707E+00 
    3.3690309557908433E+00 
    3.0395646646383021E+00 
    2.9926132687770499E+00 
    3.2266552464915770E+00 
    3.0723003957792026E+00 
    3.0915349594861117E+00 
    2.9739338791668577E+00 
    2.9635109383720404E+00 
    3.1142291839740417E+00 
    3.0654995507483962E+00 
    2.8999045459772184E+00 
    2.9738048236591843E+00 
    3.2568657611541272E+00 
    3.0593977862497326E+00 
    3.1495319937831749E+00 
    3.0793520606657530E+00 
    3.1651484853415464E+00 
    3.1141826730982070E+00 
    2.8967566195101560E+00 
    2.9452446270573751E+00 
    3.0045643779110707E+00 
    3.1972411906207192E+00 
    3.1472290054966150E+00 
    2.9995668112157921E+00 
    2.9650029784475578E+00 
    2.9974625601063147E+00 
    2.9807421242265044E+00 
    3.1295154027854490E+00 
    2.9697838469166271E+00 
    3.0901107834707533E+00 
    3.2997919894477330E+00 
    2.9614391476013275E+00 
    3.2623154438000705E+00 
    3.0261167554413477E+00 
    3.2782993491618866E+00 
    3.1591646626964072E+00 
    3.4152055377704365E+00 
    2.9890850886402114E+00 
    3.1448261946508156E+00 
    3.0498294360559468E+00 
    2.9556035728610377E+00 
    3.1758245003625056E+00 
    3.0390473029496068E+00 
    3.1861327575461500E+00 
    2.9609983968458611E+00 
    3.1478672833116894E+00 
    3.0271219563089837E+00 
    3.0695156138431838E+00 
    2.9184182691893552E+00 
    2.9658095431633189E+00 
    2.9489981335231330E+00 
    3.2206505357081610E+00 
    2.9916520058777962E+00 
    3.2903622123286822E+00 
    3.2390840117265149E+00 
    2.9784400099147010E+00 
    3.0242814413785615E+00 
    3.0050098855456220E+00 
    2.9151366544184483E+00 
    3.0314011775261838E+00 
    3.1636467587519199E+00 
    2.9767485127241953E+00 
    2.9273549259164517E+00 
    3.3195229950457446E+00 
    3.1294970205858479E+00 
    2.8880807681058767E+00 
    2.8867351864903203E+00 
    2.9428705321561677E+00 
    2.9517714908778885E+00 
    2.9245646099489511E+00 
    2.9113000572818075E+00 
    2.9994118686912916E+00 
    2.9860660089962501E+00 
    2.8780556271154785E+00 
    2.8770958914156757E+00 
    2.8265132857599093E+00 
    2.7156462086653659E+00 
    2.7138450173399966E+00 
    2.7447096958081714E+00 
    2.7589339464539542E+00 
    2.7623975963180580E+00 
    2.8462482645096112E+00 
    2.6777565345117078E+00 
    2.8273429764162032E+00 
    2.6969450962625445E+00 
    2.7972448380151982E+00 
    2.7474646647228131E+00 
    2.7508506610665773E+00 
    2.7267682525926804E+00 
    2.6915345916810249E+00 
    2.9075917940031157E+00 
    2.8441144548371979E+00 
    2.8825284460968281E+00 
    2.8368908485166529E+00 
    2.7815400686946319E+00 
    2.7096040943139181E+00 
    2.6768196617767201E+00 
    2.9030905147684054E+00 
    2.7992363227757830E+00 
    2.6733703674198486E+00 
    2.7570645788564074E+00 
    2.8667228946444188E+00 
    2.8674582825340611E+00 
    2.6499828413183373E+00 
    2.6757824273022224E+00 
    2.8021529088971162E+00 
    2.8818878590379593E+00 
    2.8486531078587380E+00 
    2.7738629844123674E+00 
    2.7216948667697864E+00 
    2.9194012484223850E+00 
    2.8858551410026383E+00 
    2.8664984047492608E+00 
    2.9412921283850264E+00 
    2.7208563535087769E+00 
    2.7512693832405231E+00 
    2.7408992190562276E+00 
    2.8987893399490625E+00 
    2.7504855534239878E+00 
    2.8749353363038885E+00 
    2.8145310612712557E+00 
    2.8117026088356329E+00 
    2.7967105861390071E+00 
    2.7926500333091839E+00 
    2.8844239648096317E+00 
    2.8795625553574276E+00 
    2.8039710261573609E+00 
    2.7070523200834362E+00 
    2.7903689745932505E+00 
    2.7833847177225204E+00 
    2.6746113687239776E+00 
    2.8505930666832859E+00 
    2.6803076898317131E+00 
    2.8842613806509241E+00 
    2.6937207137500843E+00 
    2.8283956051192853E+00 
    2.7354255336529816E+00 
    2.6472643494260328E+00 
    2.6467466283664391E+00 
    2.6541619581807634E+00 
    2.6733309184499574E+00 
    2.7874301368588408E+00 
    2.6705288031269410E+00 
    2.7065424499818622E+00 
    2.7166630789777431E+00 
    2.9262183982982828E+00 
    2.7955199893970213E+00 
    2.6864295973468360E+00 
    2.8837946442391118E+00 
    2.7625827383957429E+00 
    2.7425799688607726E+00 
    2.8565155545899712E+00 
    2.9223749090617752E+00 
    2.8367451840311682E+00 
    2.8403743597796587E+00 
    2.8024568637699367E+00 
    2.8258518774440051E+00 
    2.8647644422043776E+00 
    2.8616373275726188E+00 
    2.8560540132987553E+00 
    2.8634475675716060E+00 
    2.8137660632803918E+00 
    2.8763060091147366E+00 
    2.8767387212609639E+00 
    2.8320817127598881E+00 
    2.8449703238570283E+00 
    2.9078785260538238E+00 
    2.8635267375347504E+00 
    2.8762105807567644E+00 
    2.9128051380563282E+00 
    2.7606771718488963E+00 
    2.7390826637227037E+00 
    2.8318176725296400E+00 
    2.8855052245493686E+00 
    2.9232337048671848E+00 
    2.8805283347750010E+00 
    2.6509247187358462E+00 
    2.7283187506410669E+00 
    2.8249670068790449E+00 
    2.7799245826511201E+00 
    2.7169772141989239E+00 
    2.8641973575203674E+00 
    2.8260093471243977E+00 
    2.6880516151638019E+00 
    2.8497690947850836E+00 
    2.7156928512167555E+00 
    2.7390184180398878E+00 
    2.7286386305721622E+00 
    2.8323147208693151E+00 
    2.8762224093776010E+00 
    2.9028699959609363E+00 
    2.8582165080907371E+00 
    2.8962726577674851E+00 
    2.7050615537740508E+00 
    2.7002020606898536E+00 
    2.9029107646577912E+00 
    2.8565422481352818E+00 
    2.6484408766545005E+00 
    2.6490646636771316E+00 
    2.9164708291637447E+00 
    2.8138651078587724E+00 
    2.8660031833335253E+00 
    2.8285811117823849E+00 
    2.7636151771947759E+00 
    2.8323342180359385E+00 
    2.8502389076138339E+00 
    2.8102945214428430E+00 
    2.8015041357123152E+00 
    2.8008918584148232E+00 
    2.6752459181392245E+00 
    2.8911785461250368E+00 
    2.9421793775308362E+00 
    2.6770311746021695E+00 
    2.6769080520955484E+00 
    2.6732398135567887E+00 
    2.6746547993433407E+00 
    2.6562238529547733E+00 
    2.8670008539805036E+00 
    2.7707227877987259E+00 
    2.6674174265364057E+00 
    2.8467223041868657E+00 
    2.8465186782179801E+00 
    2.7671438598432556E+00 
    2.7837085400976798E+00 
    2.7682456386214467E+00 
    2.8061231451008233E+00 
    2.8977698295607692E+00 
    2.6765135792983790E+00 
    2.6758412048537874E+00 
    2.7206208427064005E+00 
    2.7967838687697570E+00 
    2.8723262380644594E+00 
    2.7099904215679320E+00 
    2.9017953172556132E+00 
    2.6576654780412947E+00 
    2.7719423357493089E+00 
    2.6445172553310132E+00 
    2.6449536335671331E+00 
    2.6701117660070417E+00 
    2.9032361042817278E+00 
    2.8268451555155085E+00 
    2.7808091864504592E+00 
    2.8132528878228746E+00 
    2.8444664918307585E+00 
    2.6531596907161745E+00 
    2.7747038150562946E+00 
    2.8265867202579167E+00 
    2.9025391799849483E+00 
    2.8871534514924728E+00 
    2.8831612356637626E+00 
    2.9033060204004264E+00 
    2.9112685202108644E+00 
    2.8054083695142471E+00 
    2.7158712502052258E+00 
    2.8427688976473058E+00 
    2.8406353034741754E+00 
    2.7756588832669054E+00 
    2.6559605106836832E+00 
    2.8370157580344073E+00 
    2.8584958662959172E+00 
    2.8697720508131108E+00 
    2.8527507075226199E+00 
    2.6508553472595131E+00 
    2.8454941423288731E+00 
    2.8389521810895531E+00 
    2.6631936001907959E+00 
    2.7226338609951708E+00 
    2.8260956745005696E+00 
    2.8490562064255061E+00 
    2.8412169477217835E+00 
    2.8564383173845833E+00 
    2.8556711776257582E+00 
    2.8975709274540851E+00 
    2.8338233296749809E+00 
    2.8738924113168287E+00 
    2.8187649804084072E+00 
    2.8414750946254834E+00 
    2.6679817944311752E+00 
    2.9201497843674979E+00 
    2.8944722274159056E+00 
    2.9104196561640325E+00 
    2.7647895048602544E+00 
    2.7452379026148650E+00 
    2.7307538624035428E+00 
    2.8644649704418237E+00 
    2.8287271902038467E+00 
    2.8689232476275768E+00 
    2.7609404687674557E+00 
    2.6667382336107086E+00 
    2.6941986885315270E+00 
    2.8841433885171956E+00 
    2.6905436909515612E+00 
    2.8052266879391130E+00 
    2.7413570260849132E+00 
    2.8823329966009159E+00 
    2.8256863406862283E+00 
    2.8033949244708261E+00 
    2.9132517694833231E+00 
    2.9043529111059474E+00 
    2.7817852536925884E+00 
    2.7666922945400430E+00 
    2.7248322594804208E+00 
    2.7919434307523630E+00 
    2.8670573324095119E+00 
    2.6640579850896429E+00 
    2.8957474117772630E+00 
    2.9129773335929747E+00 
    2.7791789946586603E+00 
    2.7702183649427647E+00 
    2.6883714851702849E+00 
    2.6584547138101344E+00 
    2.9067126438207884E+00 
    2.7546392465835954E+00 
    2.8320050498007761E+00 
    2.7814577561387774E+00 
    2.8415895861591522E+00 
    2.6954980561553010E+00 
    2.8110321723340652E+00 
    2.9073238305464693E+00 
    2.7429935381870711E+00 
    2.7881618111773312E+00 
    2.7110175715185689E+00 
    2.7947686050986436E+00 
    2.9150329726453488E+00 
    2.7490535126942164E+00 
    2.8303316631394275E+00 
    2.7532912488769052E+00 
    2.6686051676932765E+00 
    2.8546848124179989E+00 
    2.8553884033878396E+00 
    2.8349924940466962E+00 
    2.7500371436132318E+00 
    2.7469595817954797E+00 
    2.6789802003206282E+00 
    2.8297848433903918E+00 
    2.8540054607542666E+00 
    2.8070906094915533E+00 
    2.7042083957883958E+00 
    2.7363421569703354E+00 