# vtk DataFile Version 2.0
Pressure Field Data 
ASCII 
DATASET UNSTRUCTURED_GRID 

POINTS 2213 double 

    0.0000000000000000E+00     0.0000000000000000E+00     0.0000000000000000E+00 
    5.0000000000000000E-01     0.0000000000000000E+00     0.0000000000000000E+00 
    1.0000000000000000E+00     0.0000000000000000E+00     0.0000000000000000E+00 
    1.0000000000000000E+00     5.0000000000000000E-01     0.0000000000000000E+00 
    1.0000000000000000E+00     1.0000000000000000E+00     0.0000000000000000E+00 
    5.0000000000000000E-01     1.0000000000000000E+00     0.0000000000000000E+00 
    0.0000000000000000E+00     1.0000000000000000E+00     0.0000000000000000E+00 
    0.0000000000000000E+00     5.0000000000000000E-01     0.0000000000000000E+00 
    1.5624999999971041E-02     0.0000000000000000E+00     0.0000000000000000E+00 
    3.1249999999936742E-02     0.0000000000000000E+00     0.0000000000000000E+00 
    4.6874999999913257E-02     0.0000000000000000E+00     0.0000000000000000E+00 
    6.2499999999889783E-02     0.0000000000000000E+00     0.0000000000000000E+00 
    7.8124999999844805E-02     0.0000000000000000E+00     0.0000000000000000E+00 
    9.3749999999799827E-02     0.0000000000000000E+00     0.0000000000000000E+00 
    1.0937499999975490E-01     0.0000000000000000E+00     0.0000000000000000E+00 
    1.2499999999970990E-01     0.0000000000000000E+00     0.0000000000000000E+00 
    1.4062499999966460E-01     0.0000000000000000E+00     0.0000000000000000E+00 
    1.5624999999961930E-01     0.0000000000000000E+00     0.0000000000000000E+00 
    1.7187499999957390E-01     0.0000000000000000E+00     0.0000000000000000E+00 
    1.8749999999952860E-01     0.0000000000000000E+00     0.0000000000000000E+00 
    2.0312499999948330E-01     0.0000000000000000E+00     0.0000000000000000E+00 
    2.1874999999943801E-01     0.0000000000000000E+00     0.0000000000000000E+00 
    2.3437499999939271E-01     0.0000000000000000E+00     0.0000000000000000E+00 
    2.4999999999934730E-01     0.0000000000000000E+00     0.0000000000000000E+00 
    2.6562499999938810E-01     0.0000000000000000E+00     0.0000000000000000E+00 
    2.8124999999942890E-01     0.0000000000000000E+00     0.0000000000000000E+00 
    2.9687499999946970E-01     0.0000000000000000E+00     0.0000000000000000E+00 
    3.1249999999951050E-01     0.0000000000000000E+00     0.0000000000000000E+00 
    3.2812499999955130E-01     0.0000000000000000E+00     0.0000000000000000E+00 
    3.4374999999959210E-01     0.0000000000000000E+00     0.0000000000000000E+00 
    3.5937499999963290E-01     0.0000000000000000E+00     0.0000000000000000E+00 
    3.7499999999967371E-01     0.0000000000000000E+00     0.0000000000000000E+00 
    3.9062499999971451E-01     0.0000000000000000E+00     0.0000000000000000E+00 
    4.0624999999975520E-01     0.0000000000000000E+00     0.0000000000000000E+00 
    4.2187499999979600E-01     0.0000000000000000E+00     0.0000000000000000E+00 
    4.3749999999983680E-01     0.0000000000000000E+00     0.0000000000000000E+00 
    4.5312499999987760E-01     0.0000000000000000E+00     0.0000000000000000E+00 
    4.6874999999991840E-01     0.0000000000000000E+00     0.0000000000000000E+00 
    4.8437499999995920E-01     0.0000000000000000E+00     0.0000000000000000E+00 
    5.1562499999992384E-01     0.0000000000000000E+00     0.0000000000000000E+00 
    5.3124999999985478E-01     0.0000000000000000E+00     0.0000000000000000E+00 
    5.4687499999994527E-01     0.0000000000000000E+00     0.0000000000000000E+00 
    5.6249999999998668E-01     0.0000000000000000E+00     0.0000000000000000E+00 
    5.7812499999998068E-01     0.0000000000000000E+00     0.0000000000000000E+00 
    5.9374999999994749E-01     0.0000000000000000E+00     0.0000000000000000E+00 
    6.0937499999997913E-01     0.0000000000000000E+00     0.0000000000000000E+00 
    6.2500000000000000E-01     0.0000000000000000E+00     0.0000000000000000E+00 
    6.4062499999998945E-01     0.0000000000000000E+00     0.0000000000000000E+00 
    6.5624999999996603E-01     0.0000000000000000E+00     0.0000000000000000E+00 
    6.7187499999995337E-01     0.0000000000000000E+00     0.0000000000000000E+00 
    6.8749999999998734E-01     0.0000000000000000E+00     0.0000000000000000E+00 
    7.0312499999998124E-01     0.0000000000000000E+00     0.0000000000000000E+00 
    7.1874999999997025E-01     0.0000000000000000E+00     0.0000000000000000E+00 
    7.3437499999999034E-01     0.0000000000000000E+00     0.0000000000000000E+00 
    7.5000000000000000E-01     0.0000000000000000E+00     0.0000000000000000E+00 
    7.6562499999996902E-01     0.0000000000000000E+00     0.0000000000000000E+00 
    7.8124999999993228E-01     0.0000000000000000E+00     0.0000000000000000E+00 
    7.9687499999989997E-01     0.0000000000000000E+00     0.0000000000000000E+00 
    8.1249999999996247E-01     0.0000000000000000E+00     0.0000000000000000E+00 
    8.2812499999999578E-01     0.0000000000000000E+00     0.0000000000000000E+00 
    8.4374999999999556E-01     0.0000000000000000E+00     0.0000000000000000E+00 
    8.5937500000000111E-01     0.0000000000000000E+00     0.0000000000000000E+00 
    8.7499999999997691E-01     0.0000000000000000E+00     0.0000000000000000E+00 
    8.9062500000000921E-01     0.0000000000000000E+00     0.0000000000000000E+00 
    9.0625000000004452E-01     0.0000000000000000E+00     0.0000000000000000E+00 
    9.2187500000005529E-01     0.0000000000000000E+00     0.0000000000000000E+00 
    9.3750000000012723E-01     0.0000000000000000E+00     0.0000000000000000E+00 
    9.5312500000011835E-01     0.0000000000000000E+00     0.0000000000000000E+00 
    9.6875000000005151E-01     0.0000000000000000E+00     0.0000000000000000E+00 
    9.8437500000003086E-01     0.0000000000000000E+00     0.0000000000000000E+00 
    1.0000000000000000E+00     1.5624999999971041E-02     0.0000000000000000E+00 
    1.0000000000000000E+00     3.1249999999936742E-02     0.0000000000000000E+00 
    1.0000000000000000E+00     4.6874999999913257E-02     0.0000000000000000E+00 
    1.0000000000000000E+00     6.2499999999889783E-02     0.0000000000000000E+00 
    1.0000000000000000E+00     7.8124999999844805E-02     0.0000000000000000E+00 
    1.0000000000000000E+00     9.3749999999799827E-02     0.0000000000000000E+00 
    1.0000000000000000E+00     1.0937499999975490E-01     0.0000000000000000E+00 
    1.0000000000000000E+00     1.2499999999970990E-01     0.0000000000000000E+00 
    1.0000000000000000E+00     1.4062499999966460E-01     0.0000000000000000E+00 
    1.0000000000000000E+00     1.5624999999961930E-01     0.0000000000000000E+00 
    1.0000000000000000E+00     1.7187499999957390E-01     0.0000000000000000E+00 
    1.0000000000000000E+00     1.8749999999952860E-01     0.0000000000000000E+00 
    1.0000000000000000E+00     2.0312499999948330E-01     0.0000000000000000E+00 
    1.0000000000000000E+00     2.1874999999943801E-01     0.0000000000000000E+00 
    1.0000000000000000E+00     2.3437499999939271E-01     0.0000000000000000E+00 
    1.0000000000000000E+00     2.4999999999934730E-01     0.0000000000000000E+00 
    1.0000000000000000E+00     2.6562499999938810E-01     0.0000000000000000E+00 
    1.0000000000000000E+00     2.8124999999942890E-01     0.0000000000000000E+00 
    1.0000000000000000E+00     2.9687499999946970E-01     0.0000000000000000E+00 
    1.0000000000000000E+00     3.1249999999951050E-01     0.0000000000000000E+00 
    1.0000000000000000E+00     3.2812499999955130E-01     0.0000000000000000E+00 
    1.0000000000000000E+00     3.4374999999959210E-01     0.0000000000000000E+00 
    1.0000000000000000E+00     3.5937499999963290E-01     0.0000000000000000E+00 
    1.0000000000000000E+00     3.7499999999967371E-01     0.0000000000000000E+00 
    1.0000000000000000E+00     3.9062499999971451E-01     0.0000000000000000E+00 
    1.0000000000000000E+00     4.0624999999975520E-01     0.0000000000000000E+00 
    1.0000000000000000E+00     4.2187499999979600E-01     0.0000000000000000E+00 
    1.0000000000000000E+00     4.3749999999983680E-01     0.0000000000000000E+00 
    1.0000000000000000E+00     4.5312499999987760E-01     0.0000000000000000E+00 
    1.0000000000000000E+00     4.6874999999991840E-01     0.0000000000000000E+00 
    1.0000000000000000E+00     4.8437499999995920E-01     0.0000000000000000E+00 
    1.0000000000000000E+00     5.1562499999992384E-01     0.0000000000000000E+00 
    1.0000000000000000E+00     5.3124999999985478E-01     0.0000000000000000E+00 
    1.0000000000000000E+00     5.4687499999994527E-01     0.0000000000000000E+00 
    1.0000000000000000E+00     5.6249999999998668E-01     0.0000000000000000E+00 
    1.0000000000000000E+00     5.7812499999998068E-01     0.0000000000000000E+00 
    1.0000000000000000E+00     5.9374999999994749E-01     0.0000000000000000E+00 
    1.0000000000000000E+00     6.0937499999997913E-01     0.0000000000000000E+00 
    1.0000000000000000E+00     6.2500000000000000E-01     0.0000000000000000E+00 
    1.0000000000000000E+00     6.4062499999998945E-01     0.0000000000000000E+00 
    1.0000000000000000E+00     6.5624999999996603E-01     0.0000000000000000E+00 
    1.0000000000000000E+00     6.7187499999995337E-01     0.0000000000000000E+00 
    1.0000000000000000E+00     6.8749999999998734E-01     0.0000000000000000E+00 
    1.0000000000000000E+00     7.0312499999998124E-01     0.0000000000000000E+00 
    1.0000000000000000E+00     7.1874999999997025E-01     0.0000000000000000E+00 
    1.0000000000000000E+00     7.3437499999999034E-01     0.0000000000000000E+00 
    1.0000000000000000E+00     7.5000000000000000E-01     0.0000000000000000E+00 
    1.0000000000000000E+00     7.6562499999996902E-01     0.0000000000000000E+00 
    1.0000000000000000E+00     7.8124999999993228E-01     0.0000000000000000E+00 
    1.0000000000000000E+00     7.9687499999989997E-01     0.0000000000000000E+00 
[...]
CELL_DATA 2084 
SCALARS Pressure double 1 
LOOKUP_TABLE default 

    2.6769506354607580E+00 
    2.7047492018910861E+00 
    2.8940214626486114E+00 
    2.7055041710408139E+00 
    2.8106908770583483E+00 
    2.7669945566550394E+00 
    2.6490144271791163E+00 
    2.7516515394651599E+00 
    2.7618147021841541E+00 
    2.8149499964846538E+00 
    2.8881786635908990E+00 
    2.6632576123060030E+00 
    2.7406253062113808E+00 
    2.7021495749668012E+00 
    2.6721246872491431E+00 
    2.6917134631094437E+00 
    2.8483193260404187E+00 
    2.7223842283924324E+00 
    2.9202622016920325E+00 
    2.6838800144458763E+00 
    2.6874540401071689E+00 
    2.7937265406084308E+00 
    2.6900565906125209E+00 
    2.7366211288901834E+00 
    2.6802892480531519E+00 
    2.7381701829779539E+00 
    2.6974760620727918E+00 
    2.6521165817091501E+00 
    2.7450190977753151E+00 
    2.7116283526808909E+00 
    2.6413670993612319E+00 
    2.7523551834496516E+00 
    2.6291421027853779E+00 
    2.6867788669802066E+00 
    2.6668474825107853E+00 
    2.8044988447238630E+00 
    2.7170234271548215E+00 
    2.7127836013629882E+00 
    2.7936979184337902E+00 
    2.7533225467124471E+00 
    2.6547370519689948E+00 
    2.8195425437466319E+00 
    2.6807102450738398E+00 
    2.7737992610108058E+00 
    2.7660672888002837E+00 
    2.6619479704521383E+00 
    2.8179140125828854E+00 
    2.6456547888398299E+00 
    2.6476593171182401E+00 
    2.7414595417494438E+00 
    2.7388296721911707E+00 
    2.6514181743149692E+00 
    2.6617361262380710E+00 
    2.7255149308751911E+00 
    2.7266624376022266E+00 
    2.6548424017578549E+00 
    2.6344565260081785E+00 
    2.7800689856638430E+00 
    2.7912653252484079E+00 
    2.7336177676072300E+00 
    2.7323491930504016E+00 
    2.6845158279489296E+00 
    2.6656610212700929E+00 
    2.6999268867435675E+00 
    2.8154480226364447E+00 
    2.7294939832069325E+00 
    2.7616578286512095E+00 
    2.6604385019836356E+00 
    2.6462971765933720E+00 
    2.6454749729592670E+00 
    2.6784364027165228E+00 
    2.9503358355555220E+00 
    2.7389432467876702E+00 
    2.8715739595765952E+00 
    2.7876472554121032E+00 
    2.8690069468670054E+00 
    2.7345149871820293E+00 
    2.8074901359424547E+00 
    2.6629645961118196E+00 
    2.8245724356267736E+00 
    2.6907359704935780E+00 
    2.7529687378069276E+00 
    2.7787434634759878E+00 
    2.6402127104332163E+00 
    2.7666788420595259E+00 
    2.6886575590723671E+00 
    2.7196767750067616E+00 
    2.7691653044845177E+00 
    2.7888917967005913E+00 
    2.7801050972411843E+00 
    2.7623405924560891E+00 
    2.7588817786843944E+00 
    2.6925946604105189E+00 
    2.7782808435078987E+00 
    2.7221193365064069E+00 
    2.6513307902863579E+00 
    2.7076831773545105E+00 
    2.7460315471907322E+00 
    2.8011912168106066E+00 
    2.7115407257499395E+00 
    2.8128672582304901E+00 
    2.7760963736784614E+00 
    2.7915466355703589E+00 
    2.7928814511757585E+00 
    2.7225402943961043E+00 
    2.7777456611477822E+00 
    2.7507051095651196E+00 
    2.8018682038192622E+00 
    2.6746803123735261E+00 
    2.9825957478079514E+00 
    2.6955808010791920E+00 
    2.7450410143482764E+00 
    2.7753577931262683E+00 
    2.8290742224778080E+00 
    2.8820466903552759E+00 
    2.7013682549289562E+00 
    2.7784115039371904E+00 
    2.7751924933018297E+00 
    2.7136202772627698E+00 
    2.6815169828263103E+00 
    2.7288365806703783E+00 
    2.7903514659593962E+00 
    2.6817348936770227E+00 
    2.8563046698359744E+00 
    2.7494548008532669E+00 
    2.7908655951949966E+00 
    2.7307935027790795E+00 
    2.6817681590944615E+00 
    2.7175495343346379E+00 
    2.6905388502830552E+00 
    2.8783098522218795E+00 
    2.8907936673296644E+00 
    2.6568971394471790E+00 
    2.8153935691999452E+00 
    2.8014532025292445E+00 
    2.7321002527308287E+00 
    2.7828148459622546E+00 
    2.6805628768767691E+00 
    2.7999021783142273E+00 
    2.8620115241118600E+00 
    2.7651462745609239E+00 
    2.9048108960002259E+00 
    2.8718340813711003E+00 
    2.7493750357635713E+00 
    2.7018153045742941E+00 
    2.7452586619492378E+00 
    2.7764530272018431E+00 
    2.7986673617471274E+00 
    2.7221530733311057E+00 
    2.7640336353180648E+00 
    2.7695188224317686E+00 
    2.8630009998060832E+00 
    2.9372441763813320E+00 
    2.7214817798389275E+00 
    2.7304864462874665E+00 
    2.9201711873722935E+00 
    2.6896661325849260E+00 
    2.7723138765912858E+00 
    2.7258420519250848E+00 
    2.8559022759270896E+00 
    3.0629695598327613E+00 
    3.0020478616627457E+00 
    2.9409369594656383E+00 
    2.9616485802106065E+00 
    2.9124794369349485E+00 
    2.9291366296989283E+00 
    2.7743769283494095E+00 
    2.9758804378400225E+00 
    2.7657990457492883E+00 
    2.9219669236468406E+00 
    2.7661085193095696E+00 
    2.8492725002299570E+00 
    2.8672499035459462E+00 
    2.8047829126026662E+00 
    2.8419072951300040E+00 
    2.7099193397675267E+00 
    2.8448869289728189E+00 
    2.7566625317905697E+00 
    2.7641963386637780E+00 
    2.7630871470497427E+00 
    2.7873551672872816E+00 
    2.7077565386856137E+00 
    2.8500071162173510E+00 
    2.7897088253473847E+00 
    2.7860814043072066E+00 
    2.6327618437670499E+00 
    2.8102066141754758E+00 
    2.8737433975846409E+00 
    2.7154035408322863E+00 
    2.8315795732940083E+00 
    2.8886889573235153E+00 
    2.9111575131737126E+00 
    2.7877843279941885E+00 
    2.7318198903424640E+00 
    2.6997389138525629E+00 
    2.7178298831491765E+00 
    2.8171561094353645E+00 
    2.7802293741774702E+00 
    2.7284454966963789E+00 
    2.8216219374648794E+00 
    2.7565089619609267E+00 
    2.7201296943589979E+00 
    2.7873753936277383E+00 
    2.6643977492176556E+00 
    2.7193952525752492E+00 
    2.8924086840631178E+00 
    2.8164347510931576E+00 
    2.7112586453682295E+00 
    2.8398803389935487E+00 
    2.8321114962825926E+00 
    2.7252383759833716E+00 
    2.7462503900609514E+00 
    2.7519321265630854E+00 
    2.8066816731360866E+00 
    2.8029711802021100E+00 
    2.8667965763242300E+00 
    2.7414847293806965E+00 
    2.8035428781860272E+00 
    2.8178088638606962E+00 
    2.7297901944717422E+00 
    2.7370705314697061E+00 
    2.6243411015593741E+00 
    2.7317760165504597E+00 
    2.9017364083084298E+00 
    2.7797923892853711E+00 
    2.8023259993492649E+00 
    2.7565632750991287E+00 
    2.8024508884085053E+00 
    2.7182147276862301E+00 
    2.7057709826266172E+00 
    2.6798583678029968E+00 
    2.7152347426042804E+00 
    2.6843012133501181E+00 
    2.7417568947232303E+00 
    2.7890757291610475E+00 
    2.6972881062721781E+00 
    2.8342213437913442E+00 
    2.8364425824900108E+00 
    2.7382930891297561E+00 
    2.7059621456169625E+00 
    2.7891163920149817E+00 
    2.7249076387894631E+00 
    2.6708473113989579E+00 
    2.7182420232478068E+00 
    2.6768878761457513E+00 
    2.6777758533522551E+00 
    2.7292416407035187E+00 
    2.7755951277141704E+00 
    2.8534070648257259E+00 
    2.6666350480841174E+00 
    2.7163562925334230E+00 
    2.6941255496655812E+00 
    2.7159619560725861E+00 
    2.9494533636312692E+00 
    2.6822198878114913E+00 
    2.7516869243549138E+00 
    2.6931572992909718E+00 
    2.7314548564887113E+00 
    2.7030173119545235E+00 
    2.7397583359626525E+00 
    2.6929592590656584E+00 
    2.7362749298272329E+00 
    2.7048097831259290E+00 
    2.7396721405606894E+00 
    2.7006358077783905E+00 
    2.6994576676866102E+00 
    2.6765598280775040E+00 
    2.6869205037577544E+00 
    2.8343247379263183E+00 
    2.6569637803202837E+00 
    2.6664694352158334E+00 
    2.7121671927161981E+00 
    2.6970030869550632E+00 
    3.0182388913724316E+00 
    2.7148534922024448E+00 
    2.8052001373382844E+00 
    2.7073763887312610E+00 
    2.6520588498539222E+00 
    2.7277193806775855E+00 
    2.6878234673987045E+00 
    2.7426712675912817E+00 
    2.7011435531773200E+00 
    2.7014553293533297E+00 
    2.7130051639140249E+00 
    2.6789304383403780E+00 
    2.7146463609803075E+00 
    2.7019412952603186E+00 
    2.6575366997418906E+00 
    2.6913788667674052E+00 
    2.6912988745271353E+00 
    2.7096049194953178E+00 
    2.6502318204280337E+00 
    2.6940170808059816E+00 
    2.7093612801401892E+00 
    2.7415584167289770E+00 
    2.6815713796406229E+00 
    2.6699184617372227E+00 
    2.8170004607164931E+00 
    2.6822652556945328E+00 
    2.7635650869557669E+00 
    3.0182702636964467E+00 
    2.8278297212751733E+00 
    2.7642520777008386E+00 
    2.8495304469775009E+00 
    2.6977136687297651E+00 
    2.6914952931970992E+00 
    2.6686620927326445E+00 
    2.6724351636259018E+00 
    2.6734707991652433E+00 
    2.6662757536127817E+00 
    2.8527638537697495E+00 
    2.6705148446523572E+00 
    2.7288622745573581E+00 
    2.8323317181540975E+00 
    2.7411401198614871E+00 
    2.6817615657244773E+00 
    2.7987190784441824E+00 
    2.6642268965192297E+00 
    2.6645524842417161E+00 
    2.6736988607951258E+00 
    2.9859263367803113E+00 
    2.7766004174567041E+00 
    2.8421466779274591E+00 
    2.8478405690371931E+00 
    2.7506991968990593E+00 
    2.8189126742431494E+00 
    2.6848882230438837E+00 
    2.6173754724905218E+00 
    3.1623089664870956E+00 
    2.6405089409532017E+00 
    2.6562062043118799E+00 
    2.6554971196673214E+00 
    2.7654398581549775E+00 
    2.8313361184970405E+00 
    2.6169157366059368E+00 
    2.8844650865896200E+00 
    2.9061729308527102E+00 
    2.7514986648296014E+00 
    2.7019339184452744E+00 
    2.8710485570837765E+00 
    2.7535390993135720E+00 
    2.6749872793433180E+00 
    2.8417934497799098E+00 
    2.6479587691760251E+00 
    2.6468794853340762E+00 
    2.7629235376164698E+00 
    2.7108755387588421E+00 
    2.6254898953466181E+00 
    2.7015481697153212E+00 
    2.6338383609800093E+00 
    2.8611735398115985E+00 
    2.6402836129014906E+00 
    2.6908628978985858E+00 
    2.8294431297345990E+00 
    2.7104392279602680E+00 
    2.7536652241214039E+00 
    2.6386156849520104E+00 
    2.7329820044606321E+00 
    2.7387098755468036E+00 
    2.6759576373756033E+00 
    2.7110208221638383E+00 
    2.8360968854494524E+00 
    2.6336190308686040E+00 
    2.7088337871962409E+00 
    2.6801770860035057E+00 
    2.6811006379409732E+00 
    2.7260140587875967E+00 
    2.6737242038208908E+00 
    2.7170549345500663E+00 
    2.8488783984194228E+00 
    2.8640388324450892E+00 
    2.6308880803174928E+00 
    3.0294815396334305E+00 
    2.7312114362992927E+00 
    2.6943102262294762E+00 
    2.8926498060949344E+00 
    2.7576168419838654E+00 
    2.7735332143000719E+00 
    2.6803446385907064E+00 
    2.6727640340058714E+00 
    2.7926207342171354E+00 
    2.7522497199057603E+00 
    2.6260378275734149E+00 
    2.6801809019823652E+00 
    2.9209433479545011E+00 
    2.7471246220584637E+00 
    2.8229756468386635E+00 
    2.7634522501380454E+00 
    2.8367321099839033E+00 
    2.7925702150520055E+00 
    2.6241948116844642E+00 
    2.6589262934996678E+00 
    2.7034780748530873E+00 
    2.8655833917729661E+00 
    2.8209728868975135E+00 
    2.6996119555158113E+00 
    2.6739046558104809E+00 
    2.6980930135819161E+00 
    2.6855859404848070E+00 
    2.8056508447405331E+00 
    2.6766769962726706E+00 
    2.7723463774200905E+00 
    2.9619473247422694E+00 
    2.6709913465543842E+00 
    2.9261263271894173E+00 
    2.7206167848053773E+00 
    2.9413042860581942E+00 
    2.8314430272411979E+00 
    3.0751352763552573E+00 
    2.6914440047110073E+00 
    2.8188832325166278E+00 
    2.7394516400427036E+00 
    2.6663373303755447E+00 
    2.8462589931468796E+00 
    2.7308494274375250E+00 
    2.8555186063114806E+00 
    2.6701482680695419E+00 
    2.8215376542907831E+00 
    2.7212658062401074E+00 
    2.7553873152844126E+00 
    2.6391450615174885E+00 
    2.6738498547167793E+00 
    2.6614967829757239E+00 
    2.8870749955001647E+00 
    2.6934295710624778E+00 
    2.9528947462424995E+00 
    2.9042423683309928E+00 
    2.6836508683668741E+00 
    2.7193556503387173E+00 
    2.7039065082257459E+00 
    2.6372962800524933E+00 
    2.7246953345934211E+00 
    2.8354031864519373E+00 
    2.6827400016115059E+00 
    2.6461303637429836E+00 
    2.9810551409094419E+00 
    2.8056463890418470E+00 
    2.6176500847493540E+00 
    2.6171251842589158E+00 
    2.6571945050990289E+00 
    2.6637859012827922E+00 
    2.6440707552868434E+00 
    2.6341570118567295E+00 
    2.6994871554061644E+00 
    2.6891395057706928E+00 
    2.6106130299933894E+00 
    2.6103902080043055E+00 
    2.5760935908747236E+00 
    2.5135088223183817E+00 
    2.5075691797168989E+00 
    2.5133259984325438E+00 
    2.5338725015477914E+00 
    2.5306619852816890E+00 
    2.5892132986145091E+00 
    2.4913307955102995E+00 
    2.5753159055275470E+00 
    2.4975099166725285E+00 
    2.5556983934412791E+00 
    2.5277751984726624E+00 
    2.5245874238063464E+00 
    2.4998632420896656E+00 
    2.4914258364763415E+00 
    2.6309976138693716E+00 
    2.5863088646664774E+00 
    2.6113277772746883E+00 
    2.5823933052327512E+00 
    2.5413879209939494E+00 
    2.4912587690874419E+00 
    2.4882461920893295E+00 
    2.6264885256746116E+00 
    2.5523796604493136E+00 
    2.4899359319992818E+00 
    2.5334348579278965E+00 
    2.6032016486186582E+00 
    2.6032393240435407E+00 
    2.4749875025949906E+00 
    2.4887206788203313E+00 
    2.5551485779265573E+00 
    2.6130208209749224E+00 
    2.5891230016809090E+00 
    2.5419118020956883E+00 
    2.5157837193939252E+00 
    2.6392845685066111E+00 
    2.6137052297546362E+00 
    2.6029513876473458E+00 
    2.6550980017382200E+00 
    2.5151414768888314E+00 
    2.5300896058576465E+00 
    2.5250818937164148E+00 
    2.6247510081992864E+00 
    2.5288047169119268E+00 
    2.6078458369308795E+00 
    2.5681533607871230E+00 
    2.5649899047087503E+00 
    2.5499316588026870E+00 
    2.5544510158458564E+00 
    2.6134789872444446E+00 
    2.6092532481858646E+00 
    2.5615401151231119E+00 
    2.5085968479391747E+00 
    2.5524120193115052E+00 
    2.5470585775005272E+00 
    2.4917152531303888E+00 
    2.5920616777568775E+00 
    2.4949726260054219E+00 
    2.6130681757580048E+00 
    2.4990852146369180E+00 
    2.5766409866586626E+00 
    2.5206289913811255E+00 
    2.4730596415556194E+00 
    2.4729040084231557E+00 
    2.4753755850014767E+00 
    2.4671850360629994E+00 
    2.5504066299295980E+00 
    2.4677235346919661E+00 
    2.4898403403588336E+00 
    2.4923000930920822E+00 
    2.6435950758492859E+00 
    2.5545381532920937E+00 
    2.4915667746995922E+00 
    2.6124718355577663E+00 
    2.5357304901565021E+00 
    2.5170393969207034E+00 
    2.5955441201771632E+00 
    2.6408387700611007E+00 
    2.5818743958527182E+00 
    2.5846447880772279E+00 
    2.5604508570529099E+00 
    2.5750611304263300E+00 
    2.5989577273577176E+00 
    2.5960830421866716E+00 
    2.5930870692278796E+00 
    2.5972781732703183E+00 
    2.5654912394305338E+00 
    2.6097850657727326E+00 
    2.6096454358854513E+00 
    2.5789435357924662E+00 
    2.5876280981486550E+00 
    2.6298889060251693E+00 
    2.5977371355025225E+00 
    2.6064511188208694E+00 
    2.6335579734178971E+00 
    2.5337924542880068E+00 
    2.5223319815057907E+00 
    2.5771372524544751E+00 
    2.6140735139736795E+00 
    2.6414022369828496E+00 
    2.6097038469039511E+00 
    2.4750388493157169E+00 
    2.5193706153459168E+00 
    2.5748609904101278E+00 
    2.5465637819104776E+00 
    2.5001291039772489E+00 
    2.5985903982713250E+00 
    2.5733679621842951E+00 
    2.4991087753299728E+00 
    2.5890068802229838E+00 
    2.5105069940265894E+00 
    2.5235917396956355E+00 
    2.5192300091622184E+00 
    2.5798248035030364E+00 
    2.6076257677361068E+00 
    2.6268616437188088E+00 
    2.5971570960827726E+00 
    2.6212624365683457E+00 
    2.5080161752112140E+00 
    2.4927893094253837E+00 
    2.6267016937150691E+00 
    2.5924717468405940E+00 
    2.4740796223896582E+00 
    2.4740832179023080E+00 
    2.6374890551424555E+00 
    2.5672319012720752E+00 
    2.6002029126662798E+00 
    2.5744284370972559E+00 
    2.5366921397755493E+00 
    2.5779301314115237E+00 
    2.5910570520689475E+00 
    2.5639178799070521E+00 
    2.5591942719265064E+00 
    2.5589409650099046E+00 
    2.4649611507580764E+00 
    2.6175262515683966E+00 
    2.6556309402174074E+00 
    2.4657116912755246E+00 
    2.4652423369754182E+00 
    2.4666446305318233E+00 
    2.4658784478081577E+00 
    2.4739617916278349E+00 
    2.6012808979692705E+00 
    2.5391517561772980E+00 
    2.4870766717700858E+00 
    2.5890125507552351E+00 
    2.5863754549737501E+00 
    2.5299817471095327E+00 
    2.5486444088587348E+00 
    2.5396521535862706E+00 
    2.5625968432434743E+00 
    2.6236912690639644E+00 
    2.4651373259889255E+00 
    2.4662189921525410E+00 
    2.5124471156678490E+00 
    2.5549637879440668E+00 
    2.6041948229067855E+00 
    2.4895757231138838E+00 
    2.6263745110348946E+00 
    2.4714926516449514E+00 
    2.5328516646709511E+00 
    2.4709881984732136E+00 
    2.4709659874127747E+00 
    2.4859385200504320E+00 
    2.6271731324781054E+00 
    2.5734082667269753E+00 
    2.5449884690977957E+00 
    2.5656137524216569E+00 
    2.5844745470696537E+00 
    2.4739378899666260E+00 
    2.5427246690775411E+00 
    2.5748014306341700E+00 
    2.6259706594601595E+00 
    2.6172935259023280E+00 
    2.6137794495529776E+00 
    2.6268011188837650E+00 
    2.6328567506333216E+00 
    2.5600379311926584E+00 
    2.4919200804689763E+00 
    2.5828383650380418E+00 
    2.5809400130354567E+00 
    2.5364155643917061E+00 
    2.4734768000849385E+00 
    2.5780447251960261E+00 
    2.5935913628713281E+00 
    2.6017627923482927E+00 
    2.5892860426137627E+00 
    2.4741368429812272E+00 
    2.5840675349548428E+00 
    2.5794988247674033E+00 
    2.4845811939908438E+00 
    2.5028675421011477E+00 
    2.5739659135923958E+00 
    2.5873507631436357E+00 
    2.5820858118929166E+00 
    2.5956137065930864E+00 
    2.5945869270654964E+00 
    2.6245610993822379E+00 
    2.5772660701233652E+00 
    2.6075396093488683E+00 
    2.5701341897024106E+00 
    2.5848311445336720E+00 
    2.4698474643713095E+00 
    2.6395784102680584E+00 
    2.6203946273098926E+00 
    2.6318069152880152E+00 
    2.5369506551662551E+00 
    2.5238918724743997E+00 
    2.5074388244189492E+00 
    2.6001658890519161E+00 
    2.5741833681728732E+00 
    2.6038501468536936E+00 
    2.5280975867568327E+00 
    2.4854758918080271E+00 
    2.5004529376335314E+00 
    2.6137013745800579E+00 
    2.4958579616264034E+00 
    2.5613651888856901E+00 
    2.5097084601988873E+00 
    2.6125718762370522E+00 
    2.5718838186366773E+00 
    2.5580101223415554E+00 
    2.6349604110575484E+00 
    2.6289468680409076E+00 
    2.5471177220239589E+00 
    2.5378051335578387E+00 
    2.5164911203708731E+00 
    2.5529759089984521E+00 
    2.6027977186826097E+00 
    2.4678221559799094E+00 
    2.6228995287608057E+00 
    2.6350593949307699E+00 
    2.5451550070368549E+00 
    2.5402621793831055E+00 
    2.4882319317538459E+00 
    2.4724415105550896E+00 
    2.6309720419025124E+00 
    2.5236358948843933E+00 
    2.5747760629551069E+00 
    2.5451190873560683E+00 
    2.5859214952798610E+00 
    2.5025764018509116E+00 
    2.5631598153825337E+00 
    2.6304958753292391E+00 
    2.5133647509993340E+00 
    2.5430699731588464E+00 
    2.5094073668689512E+00 
    2.5531373640620187E+00 
    2.6368356569757836E+00 
    2.5190174815377446E+00 
    2.5730356774764815E+00 
    2.5304088216398082E+00 
    2.4879297466124322E+00 
    2.5949633524446640E+00 
    2.5949386973744883E+00 
    2.5813649491692354E+00 
    2.5289592083710275E+00 
    2.5254937470986687E+00 
    2.4936983888177382E+00 
    2.5766050811252645E+00 
    2.5939693032122033E+00 
    2.5599312876671583E+00 
    2.4905287760912356E+00 
    2.5223047457380940E+00 