# vtk DataFile Version 2.0
Pressure Field Data 
ASCII 
DATASET UNSTRUCTURED_GRID 

POINTS 2213 double 

    0.0000000000000000E+00     0.0000000000000000E+00     0.0000000000000000E+00 
    5.0000000000000000E-01     0.0000000000000000E+00     0.0000000000000000E+00 
    1.0000000000000000E+00     0.0000000000000000E+00     0.0000000000000000E+00 
    1.0000000000000000E+00     5.0000000000000000E-01     0.0000000000000000E+00 
    1.0000000000000000E+00     1.0000000000000000E+00     0.0000000000000000E+00 
    5.0000000000000000E-01     1.0000000000000000E+00     0.0000000000000000E+00 
    0.0000000000000000E+00     1.0000000000000000E+00     0.0000000000000000E+00 
    0.0000000000000000E+00     5.0000000000000000E-01     0.0000000000000000E+00 
    1.5624999999971041E-02     0.0000000000000000E+00     0.0000000000000000E+00 
    3.1249999999936742E-02     0.0000000000000000E+00     0.0000000000000000E+00 
    4.6874999999913257E-02     0.0000000000000000E+00     0.0000000000000000E+00 
    6.2499999999889783E-02     0.0000000000000000E+00     0.0000000000000000E+00 
    7.8124999999844805E-02     0.0000000000000000E+00     0.0000000000000000E+00 
    9.3749999999799827E-02     0.0000000000000000E+00     0.0000000000000000E+00 
    1.0937499999975490E-01     0.0000000000000000E+00     0.0000000000000000E+00 
    1.2499999999970990E-01     0.0000000000000000E+00     0.0000000000000000E+00 
    1.4062499999966460E-01     0.0000000000000000E+00     0.0000000000000000E+00 
    1.5624999999961930E-01     0.0000000000000000E+00     0.0000000000000000E+00 
    1.7187499999957390E-01     0.0000000000000000E+00     0.0000000000000000E+00 
    1.8749999999952860E-01     0.0000000000000000E+00     0.0000000000000000E+00 
    2.0312499999948330E-01     0.0000000000000000E+00     0.0000000000000000E+00 
    2.1874999999943801E-01     0.0000000000000000E+00     0.0000000000000000E+00 
    2.3437499999939271E-01     0.0000000000000000E+00     0.0000000000000000E+00 
    2.4999999999934730E-01     0.0000000000000000E+00     0.0000000000000000E+00 
    2.6562499999938810E-01     0.0000000000000000E+00     0.0000000000000000E+00 
    2.8124999999942890E-01     0.0000000000000000E+00     0.0000000000000000E+00 
    2.9687499999946970E-01     0.0000000000000000E+00     0.0000000000000000E+00 
    3.1249999999951050E-01     0.0000000000000000E+00     0.0000000000000000E+00 
    3.2812499999955130E-01     0.0000000000000000E+00     0.0000000000000000E+00 
    3.4374999999959210E-01     0.0000000000000000E+00     0.0000000000000000E+00 
    3.5937499999963290E-01     0.0000000000000000E+00     0.0000000000000000E+00 
    3.7499999999967371E-01     0.0000000000000000E+00     0.0000000000000000E+00 
    3.9062499999971451E-01     0.0000000000000000E+00     0.0000000000000000E+00 
    4.0624999999975520E-01     0.0000000000000000E+00     0.0000000000000000E+00 
    4.2187499999979600E-01     0.0000000000000000E+00     0.0000000000000000E+00 
    4.3749999999983680E-01     0.0000000000000000E+00     0.0000000000000000E+00 
    4.5312499999987760E-01     0.0000000000000000E+00     0.0000000000000000E+00 
    4.6874999999991840E-01     0.0000000000000000E+00     0.0000000000000000E+00 
    4.8437499999995920E-01     0.0000000000000000E+00     0.0000000000000000E+00 
    5.1562499999992384E-01     0.0000000000000000E+00     0.0000000000000000E+00 
    5.3124999999985478E-01     0.0000000000000000E+00     0.0000000000000000E+00 
    5.4687499999994527E-01     0.0000000000000000E+00     0.0000000000000000E+00 
    5.6249999999998668E-01     0.0000000000000000E+00     0.0000000000000000E+00 
    5.7812499999998068E-01     0.0000000000000000E+00     0.0000000000000000E+00 
    5.9374999999994749E-01     0.0000000000000000E+00     0.0000000000000000E+00 
    6.0937499999997913E-01     0.0000000000000000E+00     0.0000000000000000E+00 
    6.2500000000000000E-01     0.0000000000000000E+00     0.0000000000000000E+00 
    6.4062499999998945E-01     0.0000000000000000E+00     0.0000000000000000E+00 
    6.5624999999996603E-01     0.0000000000000000E+00     0.0000000000000000E+00 
    6.7187499999995337E-01     0.0000000000000000E+00     0.0000000000000000E+00 
    6.8749999999998734E-01     0.0000000000000000E+00     0.0000000000000000E+00 
    7.0312499999998124E-01     0.0000000000000000E+00     0.0000000000000000E+00 
    7.1874999999997025E-01     0.0000000000000000E+00     0.0000000000000000E+00 
    7.3437499999999034E-01     0.0000000000000000E+00     0.0000000000000000E+00 
    7.5000000000000000E-01     0.0000000000000000E+00     0.0000000000000000E+00 
    7.6562499999996902E-01     0.0000000000000000E+00     0.0000000000000000E+00 
    7.8124999999993228E-01     0.0000000000000000E+00     0.0000000000000000E+00 
    7.9687499999989997E-01     0.0000000000000000E+00     0.0000000000000000E+00 
    8.1249999999996247E-01     0.0000000000000000E+00     0.0000000000000000E+00 
    8.2812499999999578E-01     0.0000000000000000E+00     0.0000000000000000E+00 
    8.4374999999999556E-01     0.0000000000000000E+00     0.0000000000000000E+00 
    8.5937500000000111E-01     0.0000000000000000E+00     0.0000000000000000E+00 
    8.7499999999997691E-01     0.0000000000000000E+00     0.0000000000000000E+00 
    8.9062500000000921E-01     0.0000000000000000E+00     0.0000000000000000E+00 
    9.0625000000004452E-01     0.0000000000000000E+00     0.0000000000000000E+00 
    9.2187500000005529E-01     0.0000000000000000E+00     0.0000000000000000E+00 
    9.3750000000012723E-01     0.0000000000000000E+00     0.0000000000000000E+00 
    9.5312500000011835E-01     0.0000000000000000E+00     0.0000000000000000E+00 
    9.6875000000005151E-01     0.0000000000000000E+00     0.0000000000000000E+00 
    9.8437500000003086E-01     0.0000000000000000E+00     0.0000000000000000E+00 
    1.0000000000000000E+00     1.5624999999971041E-02     0.0000000000000000E+00 
    1.0000000000000000E+00     3.1249999999936742E-02     0.0000000000000000E+00 
    1.0000000000000000E+00     4.6874999999913257E-02     0.0000000000000000E+00 
    1.0000000000000000E+00     6.2499999999889783E-02     0.0000000000000000E+00 
    1.0000000000000000E+00     7.8124999999844805E-02     0.0000000000000000E+00 
    1.0000000000000000E+00     9.3749999999799827E-02     0.0000000000000000E+00 
    1.0000000000000000E+00     1.0937499999975490E-01     0.0000000000000000E+00 
    1.0000000000000000E+00     1.2499999999970990E-01     0.0000000000000000E+00 
    1.0000000000000000E+00     1.4062499999966460E-01     0.0000000000000000E+00 
    1.0000000000000000E+00     1.5624999999961930E-01     0.0000000000000000E+00 
    1.0000000000000000E+00     1.7187499999957390E-01     0.0000000000000000E+00 
    1.0000000000000000E+00     1.8749999999952860E-01     0.0000000000000000E+00 
    1.0000000000000000E+00     2.0312499999948330E-01     0.0000000000000000E+00 
    1.0000000000000000E+00     2.1874999999943801E-01     0.0000000000000000E+00 
    1.0000000000000000E+00     2.3437499999939271E-01     0.0000000000000000E+00 
    1.0000000000000000E+00     2.4999999999934730E-01     0.0000000000000000E+00 
    1.0000000000000000E+00     2.6562499999938810E-01     0.0000000000000000E+00 
    1.0000000000000000E+00     2.8124999999942890E-01     0.0000000000000000E+00 
    1.0000000000000000E+00     2.9687499999946970E-01     0.0000000000000000E+00 
    1.0000000000000000E+00     3.1249999999951050E-01     0.0000000000000000E+00 
    1.0000000000000000E+00     3.2812499999955130E-01     0.0000000000000000E+00 
    1.0000000000000000E+00     3.4374999999959210E-01     0.0000000000000000E+00 
    1.0000000000000000E+00     3.5937499999963290E-01     0.0000000000000000E+00 
    1.0000000000000000E+00     3.7499999999967371E-01     0.0000000000000000E+00 
    1.0000000000000000E+00     3.9062499999971451E-01     0.0000000000000000E+00 
    1.0000000000000000E+00     4.0624999999975520E-01     0.0000000000000000E+00 
    1.0000000000000000E+00     4.2187499999979600E-01     0.0000000000000000E+00 
    1.0000000000000000E+00     4.3749999999983680E-01     0.0000000000000000E+00 
    1.0000000000000000E+00     4.5312499999987760E-01     0.0000000000000000E+00 
    1.0000000000000000E+00     4.6874999999991840E-01     0.0000000000000000E+00 
    1.0000000000000000E+00     4.8437499999995920E-01     0.0000000000000000E+00 
    1.0000000000000000E+00     5.1562499999992384E-01     0.0000000000000000E+00 
    1.0000000000000000E+00     5.3124999999985478E-01     0.0000000000000000E+00 
    1.0000000000000000E+00     5.4687499999994527E-01     0.0000000000000000E+00 
    1.0000000000000000E+00     5.6249999999998668E-01     0.0000000000000000E+00 
    1.0000000000000000E+00     5.7812499999998068E-01     0.0000000000000000E+00 
    1.0000000000000000E+00     5.9374999999994749E-01     0.0000000000000000E+00 
    1.0000000000000000E+00     6.0937499999997913E-01     0.0000000000000000E+00 
    1.0000000000000000E+00     6.2500000000000000E-01     0.0000000000000000E+00 
    1.0000000000000000E+00     6.4062499999998945E-01     0.0000000000000000E+00 
    1.0000000000000000E+00     6.5624999999996603E-01     0.0000000000000000E+00 
    1.0000000000000000E+00     6.7187499999995337E-01     0.0000000000000000E+00 
    1.0000000000000000E+00     6.8749999999998734E-01     0.0000000000000000E+00 
    1.0000000000000000E+00     7.0312499999998124E-01     0.0000000000000000E+00 
    1.0000000000000000E+00     7.1874999999997025E-01     0.0000000000000000E+00 
    1.0000000000000000E+00     7.3437499999999034E-01     0.0000000000000000E+00 
    1.0000000000000000E+00     7.5000000000000000E-01     0.0000000000000000E+00 
    1.0000000000000000E+00     7.6562499999996902E-01     0.0000000000000000E+00 
    1.0000000000000000E+00     7.8124999999993228E-01     0.0000000000000000E+00 
    1.0000000000000000E+00     7.9687499999989997E-01     0.0000000000000000E+00 
[...]
CELL_DATA 2084 
SCALARS Pressure double 1 
LOOKUP_TABLE default 

    1.9858909896977686E+00 
    2.0101369628878536E+00 
    2.1858994535391991E+00 
    2.0107951186433195E+00 
    2.1062478171993457E+00 
    2.0658415730696635E+00 
    1.9616253662698573E+00 
    2.0519085710551832E+00 
    2.0611241735981238E+00 
    2.1102506887689660E+00 
    2.1802335411758222E+00 
    1.9740645695440004E+00 
    2.0419926445445395E+00 
    2.0077896739519092E+00 
    1.9815603272317792E+00 
    1.9986561349162872E+00 
    2.1418434594660125E+00 
    2.0256636943023363E+00 
    2.2114741221711638E+00 
    1.9918195671517225E+00 
    1.9950277771865406E+00 
    2.0904301960084219E+00 
    1.9972137694702836E+00 
    2.0383975506103882E+00 
    1.9886771194516586E+00 
    2.0397626592052105E+00 
    2.0037551191326517E+00 
    1.9645330183458434E+00 
    2.0459209850693196E+00 
    2.0160253794555376E+00 
    1.9551139158454534E+00 
    2.0524750804866576E+00 
    1.9450052837091851E+00 
    1.9943641575449569E+00 
    1.9771608008735022E+00 
    2.1004740354070037E+00 
    2.0209094600051141E+00 
    2.0171528314668192E+00 
    2.0904100488204849E+00 
    2.0533720155147082E+00 
    1.9665475388006535E+00 
    2.1145615329155634E+00 
    1.9889293905130083E+00 
    2.0720321833619026E+00 
    2.0649970028948204E+00 
    1.9728047725845375E+00 
    2.1130400278816914E+00 
    1.9589940135436146E+00 
    1.9604816487099195E+00 
    2.0426595307184203E+00 
    2.0403564907977696E+00 
    1.9639112109553560E+00 
    1.9727315855630023E+00 
    2.0284518652975234E+00 
    2.0294716342010721E+00 
    1.9668249528156128E+00 
    1.9495038149775779E+00 
    2.0778287707418048E+00 
    2.0881696339619968E+00 
    2.0356367525218215E+00 
    2.0344517344156396E+00 
    1.9923902092401291E+00 
    1.9759273198018275E+00 
    2.0057265236286677E+00 
    2.1107108656342923E+00 
    2.0319328538224553E+00 
    2.0609679677938537E+00 
    1.9714554805714442E+00 
    1.9595640797893596E+00 
    1.9586419036337583E+00 
    1.9869607860661398E+00 
    2.2409883140344009E+00 
    2.0404592821286371E+00 
    2.1641731952450156E+00 
    2.0848182930886301E+00 
    2.1616901007004041E+00 
    2.0364899093024489E+00 
    2.1032506039138390E+00 
    1.9737908182578827E+00 
    2.1193097328197825E+00 
    1.9978100946893116E+00 
    2.0530320317558992E+00 
    2.0766156311306805E+00 
    1.9543853455286211E+00 
    2.0655679054817639E+00 
    1.9958627894479684E+00 
    2.0232763152841855E+00 
    2.0678254286889359E+00 
    2.0859534141390661E+00 
    2.0778573957415318E+00 
    2.0616061355304205E+00 
    2.0584323421856303E+00 
    1.9995053096516391E+00 
    2.0761903567689313E+00 
    2.0253266619301762E+00 
    1.9636608667325270E+00 
    2.0126616592754765E+00 
    2.0467953988421721E+00 
    2.0973699583294088E+00 
    2.0159571650035431E+00 
    2.1082965944307293E+00 
    2.0741773121435076E+00 
    2.0884303346238280E+00 
    2.0896502944319253E+00 
    2.0257087393433717E+00 
    2.0756946587778633E+00 
    2.0510550801900091E+00 
    2.0980086619442138E+00 
    1.9838732655120286E+00 
    2.2728236063865652E+00 
    2.0020512126278964E+00 
    2.0459434589670633E+00 
    2.0734883108361828E+00 
    2.1235677298384172E+00 
    2.1742721262290523E+00 
    2.0071074526979613E+00 
    2.0763036515462203E+00 
    2.0733460905056598E+00 
    2.0178058268050783E+00 
    1.9898531189341335E+00 
    2.0314195943926969E+00 
    2.0873200997163401E+00 
    1.9900621900243900E+00 
    2.1494990145182218E+00 
    2.0499227206594703E+00 
    2.0877798871414015E+00 
    2.0331622422500875E+00 
    1.9900829105345599E+00 
    2.0213005434777238E+00 
    1.9975159515180270E+00 
    2.1706575903973984E+00 
    2.1827525952925133E+00 
    1.9684481675269914E+00 
    2.1106730148285555E+00 
    2.0976309315898387E+00 
    2.0342371547957581E+00 
    2.0803396166015973E+00 
    1.9890111196368099E+00 
    2.0961824601794450E+00 
    2.1549705786851905E+00 
    2.0641706260774471E+00 
    2.1963685728296420E+00 
    2.1644165800506445E+00 
    2.0498264953997669E+00 
    2.0073955071440248E+00 
    2.0461543215619136E+00 
    2.0745044921040319E+00 
    2.0950213504826425E+00 
    2.0253523595610567E+00 
    2.0631422480291266E+00 
    2.0681443433676110E+00 
    2.1559057583355563E+00 
    2.2280987777573662E+00 
    2.0248083322305646E+00 
    2.0328918567961307E+00 
    2.2113745017614845E+00 
    1.9967333296748779E+00 
    2.0706778938223760E+00 
    2.0287599657178559E+00 
    2.1491090560903645E+00 
    2.3526497405197624E+00 
    2.2921079845670844E+00 
    2.2317525958931212E+00 
    2.2521383788243181E+00 
    2.2038753652967755E+00 
    2.2201640196209094E+00 
    2.0725918589386159E+00 
    2.2662002904785576E+00 
    2.0647614459109334E+00 
    2.2131216834980703E+00 
    2.0650482350060528E+00 
    2.1427554912224975E+00 
    2.1600130524985151E+00 
    2.1007419693013660E+00 
    2.1357412914737135E+00 
    2.0146421031087476E+00 
    2.1385875858623384E+00 
    2.0564592497479137E+00 
    2.0633062052300515E+00 
    2.0622985759921142E+00 
    2.0845396491418637E+00 
    2.0127790281611020E+00 
    2.1434693489877481E+00 
    2.0867252392484987E+00 
    2.0833626424060978E+00 
    1.9478111853585240E+00 
    2.1057881082410086E+00 
    2.1662484794152088E+00 
    2.0195227096221147E+00 
    2.1259318680920876E+00 
    2.1807016791196641E+00 
    2.2025594786708864E+00 
    2.0849422541392979E+00 
    2.0340880093193805E+00 
    2.0056769376605192E+00 
    2.0216686951401517E+00 
    2.1123140555947386E+00 
    2.0779661402179492E+00 
    2.0310744764316895E+00 
    2.1165087964633118E+00 
    2.0563033977735508E+00 
    2.0236996718449629E+00 
    2.0845547533339124E+00 
    1.9750114455509207E+00 
    2.0230258857310512E+00 
    2.1843079956088784E+00 
    2.1116429098258682E+00 
    2.0158314196714646E+00 
    2.1338181345446965E+00 
    2.1264463768196933E+00 
    2.0281217213106029E+00 
    2.0469633843574968E+00 
    2.0521500192906834E+00 
    2.1024968479264534E+00 
    2.0990247736133063E+00 
    2.1595631395923287E+00 
    2.0426550920475943E+00 
    2.0995833230286149E+00 
    2.1129479308646144E+00 
    2.0322596780191566E+00 
    2.0387475320092934E+00 
    1.9409644397451635E+00 
    2.0340580554077450E+00 
    2.1933805616488220E+00 
    2.0775636803110631E+00 
    2.0984369408599242E+00 
    2.0563542068180207E+00 
    2.0985596094694423E+00 
    2.0219996707391186E+00 
    2.0108892267095988E+00 
    1.9883601816665788E+00 
    2.0193519042503034E+00 
    1.9922262412489726E+00 
    2.0429883700086355E+00 
    2.0861118869053765E+00 
    2.0035570860092000E+00 
    2.1284498337485949E+00 
    2.1305405964618767E+00 
    2.0398858876094974E+00 
    2.0111875328255109E+00 
    2.0861655512346200E+00 
    2.0278732531780537E+00 
    1.9806113268129206E+00 
    2.0219862954239383E+00 
    1.9858685359035297E+00 
    1.9863964936124221E+00 
    2.0318077299434676E+00 
    2.0736797033768677E+00 
    2.1466987553400423E+00 
    1.9767551120260163E+00 
    2.0203515883888685E+00 
    2.0006665206744669E+00 
    2.0199459469450045E+00 
    2.2401059782487409E+00 
    1.9904628119493872E+00 
    2.0519362766907387E+00 
    1.9999743855795800E+00 
    2.0336537045973357E+00 
    2.0085977398377368E+00 
    2.0411729108998031E+00 
    1.9997988321861013E+00 
    2.0379872848200478E+00 
    2.0101058813623718E+00 
    2.0411110934340071E+00 
    2.0063394585270085E+00 
    2.0054665490898427E+00 
    1.9854188654935780E+00 
    1.9944034939819568E+00 
    2.1285295346298354E+00 
    1.9686866574515316E+00 
    1.9766634792890740E+00 
    2.0164953402336656E+00 
    2.0032826088764799E+00 
    2.3081466012409901E+00 
    2.0190113079484391E+00 
    2.1011116040730133E+00 
    2.0123861781788683E+00 
    1.9644512428502181E+00 
    2.0303962753750824E+00 
    1.9953176253743932E+00 
    2.0437252676408768E+00 
    2.0067741946395237E+00 
    2.0071799236668610E+00 
    2.0173096924511023E+00 
    1.9875789480579078E+00 
    2.0188503318771343E+00 
    2.0076583743056755E+00 
    1.9691495283928742E+00 
    1.9982194745559405E+00 
    1.9982928274281591E+00 
    2.0142869145269175E+00 
    1.9626715114896529E+00 
    2.0007420321538230E+00 
    2.0141527954052343E+00 
    2.0428012465927905E+00 
    1.9896756005541993E+00 
    1.9796122674581562E+00 
    2.1121653171276256E+00 
    1.9904304614142709E+00 
    2.0626636898162038E+00 
    2.3082021803320778E+00 
    2.1223843285576156E+00 
    2.0633375740884885E+00 
    2.1430003732351302E+00 
    2.0038288435721592E+00 
    1.9983245549066575E+00 
    1.9786953604059090E+00 
    1.9817558218153801E+00 
    1.9828188948683449E+00 
    1.9765522474918855E+00 
    2.1461027826717856E+00 
    1.9803504402428838E+00 
    2.0314355252626446E+00 
    2.1266422983919071E+00 
    2.0424433392936212E+00 
    1.9899967652579127E+00 
    2.0950731489740870E+00 
    1.9746701997193399E+00 
    1.9751419493169959E+00 
    1.9830478998643490E+00 
    2.2761241175619076E+00 
    2.0746302821498039E+00 
    2.1359661697891252E+00 
    2.1413913186278140E+00 
    2.0510574301746693E+00 
    2.1139859892792514E+00 
    1.9927893439959328E+00 
    1.9348063072991815E+00 
    2.4517394770262837E+00 
    1.9543744095153006E+00 
    1.9677770751418764E+00 
    1.9673828555514723E+00 
    2.0643790153228916E+00 
    2.1257120427951985E+00 
    1.9347254445677726E+00 
    2.1766160357215831E+00 
    2.1977055871507676E+00 
    2.0517883884841477E+00 
    2.0074730635609579E+00 
    2.1636666844718473E+00 
    2.0536148606709075E+00 
    1.9840099688023669E+00 
    2.1356167942061779E+00 
    1.9607225570226423E+00 
    1.9600305968648002E+00 
    2.0620976879440569E+00 
    2.0153497749373797E+00 
    1.9416504363313389E+00 
    2.0072161237269013E+00 
    1.9489757314042346E+00 
    2.1541537802096005E+00 
    1.9541816394441380E+00 
    1.9978674463525516E+00 
    2.1238973903880618E+00 
    2.0151400075206953E+00 
    2.0537353709902870E+00 
    1.9530148897391713E+00 
    2.0351405894019599E+00 
    2.0402478830877260E+00 
    1.9850118231667455E+00 
    2.0155958587353799E+00 
    2.1302089546340399E+00 
    1.9485225371269430E+00 
    2.0136700066446394E+00 
    1.9887173156816214E+00 
    1.9893210059209618E+00 
    2.0289306059803480E+00 
    1.9830299370028701E+00 
    2.0209304064125568E+00 
    2.1423912999718362E+00 
    2.1569005572784925E+00 
    1.9464789290518854E+00 
    2.3193246263847218E+00 
    2.0335475856739453E+00 
    2.0009035744240693E+00 
    2.1845577025016301E+00 
    2.0573228737388924E+00 
    2.0718019315475296E+00 
    1.9888136617933891E+00 
    1.9822140796772592E+00 
    2.0894098219501509E+00 
    2.0524483521385379E+00 
    1.9421079531832808E+00 
    1.9884947990486534E+00 
    2.2121251165297973E+00 
    2.0478327691719946E+00 
    2.1177945101567421E+00 
    2.0625630044443963E+00 
    2.1308103599677399E+00 
    2.0893598029511433E+00 
    1.9408377608482792E+00 
    1.9701206523530492E+00 
    2.0089904071394553E+00 
    2.1583911756413765E+00 
    2.1159051613218502E+00 
    2.0056300189606997E+00 
    1.9831945518952487E+00 
    2.0043028879535245E+00 
    1.9933565221938028E+00 
    2.1015342717387773E+00 
    1.9856066737986808E+00 
    2.0707218487334078E+00 
    2.2524132035640836E+00 
    1.9805096822526054E+00 
    2.2172087184006637E+00 
    2.0239836780385705E+00 
    2.2320848254257677E+00 
    2.1257905975887876E+00 
    2.3647909809317675E+00 
    1.9984641935275733E+00 
    2.1139356861053291E+00 
    2.0408295675567323E+00 
    1.9767437672813173E+00 
    2.1398879922054728E+00 
    2.0331096640986037E+00 
    2.1487355563785169E+00 
    1.9799167428105671E+00 
    2.1164396373559144E+00 
    2.0247100417473880E+00 
    2.0552293702592968E+00 
    1.9532384469973523E+00 
    1.9832366727286930E+00 
    1.9725775255756710E+00 
    2.1791475879149429E+00 
    2.0002204029029373E+00 
    2.2435006776455988E+00 
    2.1958324669813392E+00 
    1.9915265220524430E+00 
    2.0229734451018428E+00 
    2.0093962730271344E+00 
    1.9518972962005299E+00 
    2.0277463017193846E+00 
    2.1295482639611270E+00 
    1.9908431053398881E+00 
    1.9593926431339044E+00 
    2.2712915819390700E+00 
    2.1015335101367509E+00 
    1.9350355352544228E+00 
    1.9349003791413795E+00 
    1.9686281624144346E+00 
    1.9742936206118673E+00 
    1.9576437359499304E+00 
    1.9489803406496107E+00 
    2.0054773562702422E+00 
    1.9964398236190639E+00 
    1.9291256341698588E+00 
    1.9292634517883880E+00 
    1.9008519665581078E+00 
    1.8503868443094327E+00 
    1.8447262312279749E+00 
    1.8498419323926516E+00 
    1.8659647568421889E+00 
    1.8638582003437345E+00 
    1.9116626973978050E+00 
    1.8328385069941679E+00 
    1.9002305570785076E+00 
    1.8366490182147097E+00 
    1.8837006725803733E+00 
    1.8610593298283196E+00 
    1.8589562604037086E+00 
    1.8389678010911439E+00 
    1.8324222094934577E+00 
    1.9463868064679064E+00 
    1.9093029025916521E+00 
    1.9300871521696705E+00 
    1.9056285141244078E+00 
    1.8722024788098712E+00 
    1.8318447753206892E+00 
    1.8293532692823309E+00 
    1.9428071471546897E+00 
    1.8812442643691440E+00 
    1.8312355964582512E+00 
    1.8662125359979960E+00 
    1.9232685513514769E+00 
    1.9229576762496483E+00 
    1.8214227864021508E+00 
    1.8305564854718233E+00 
    1.8834562396111107E+00 
    1.9311819286652168E+00 
    1.9113020055416932E+00 
    1.8729893370448898E+00 
    1.8514720352580498E+00 
    1.9534669842726955E+00 
    1.9321705952271087E+00 
    1.9230641746374046E+00 
    1.9671471438135839E+00 
    1.8509354446655728E+00 
    1.8635156036826606E+00 
    1.8595327063705378E+00 
    1.9410890441697279E+00 
    1.8624411416758486E+00 
    1.9268736835114983E+00 
    1.8943417312534079E+00 
    1.8913196416711469E+00 
    1.8792989399985316E+00 
    1.8831755343237582E+00 
    1.9317505150938803E+00 
    1.9284528151752500E+00 
    1.8889429418976327E+00 
    1.8457578051277739E+00 
    1.8810032521362157E+00 
    1.8766451810153213E+00 
    1.8337365136463917E+00 
    1.9140201510345698E+00 
    1.8361627605159474E+00 
    1.9314528450273840E+00 
    1.8387242687287955E+00 
    1.9008812819812504E+00 
    1.8558726750971866E+00 
    1.8194896349949128E+00 
    1.8206900049186805E+00 
    1.8201154989259063E+00 
    1.8126378182680511E+00 
    1.8793674913118184E+00 
    1.8134077169170504E+00 
    1.8310146750716980E+00 
    1.8328453306661030E+00 
    1.9573216948017502E+00 
    1.8832292026367474E+00 
    1.8325932605152480E+00 
    1.9310000083551937E+00 
    1.8674581735729618E+00 
    1.8528625794477560E+00 
    1.9165508865155148E+00 
    1.9549300350071079E+00 
    1.9052241874889069E+00 
    1.9074963622551320E+00 
    1.8880537031879048E+00 
    1.8995739320610328E+00 
    1.9196633881649923E+00 
    1.9173722234304706E+00 
    1.9149762366346472E+00 
    1.9184794450394640E+00 
    1.8917783054061998E+00 
    1.9287603181170552E+00 
    1.9283210414539418E+00 
    1.9027894199714306E+00 
    1.9099769143538274E+00 
    1.9457232228917425E+00 
    1.9186990190237214E+00 
    1.9260769608643904E+00 
    1.9488390192944984E+00 
    1.8664273660153832E+00 
    1.8566276743598953E+00 
    1.9014125598529501E+00 
    1.9324671539950176E+00 
    1.9554382892443223E+00 
    1.9287653142989050E+00 
    1.8204194703358494E+00 
    1.8550047526688234E+00 
    1.8998395884593680E+00 
    1.8767819425084902E+00 
    1.8392851411291671E+00 
    1.9195585341132635E+00 
    1.8986541504180976E+00 
    1.8392094138061743E+00 
    1.9115803314989925E+00 
    1.8477780353197084E+00 
    1.8582987978169723E+00 
    1.8548617834830243E+00 
    1.9039184176078463E+00 
    1.9270649623624960E+00 
    1.9431956538124255E+00 
    1.9182493687933873E+00 
    1.9384801048539864E+00 
    1.8460577857487215E+00 
    1.8334595852523885E+00 
    1.9429104720887489E+00 
    1.9144958930599985E+00 
    1.8204750454481609E+00 
    1.8192962169797109E+00 
    1.9521238766464488E+00 
    1.8931317406576256E+00 
    1.9206523611488511E+00 
    1.8992184988393526E+00 
    1.8688078956925012E+00 
    1.9020306229233330E+00 
    1.9128352128739239E+00 
    1.8908840005009682E+00 
    1.8865445930924662E+00 
    1.8863358549934757E+00 
    1.8109253279683453E+00 
    1.9353590985577447E+00 
    1.9675547184392503E+00 
    1.8116201590176975E+00 
    1.8112139697965790E+00 
    1.8124848647819987E+00 
    1.8116262045936560E+00 
    1.8187514833646037E+00 
    1.9215036165054291E+00 
    1.8707420973443729E+00 
    1.8294190301007986E+00 
    1.9111123457838055E+00 
    1.9091545794550082E+00 
    1.8633128513299708E+00 
    1.8784576484093964E+00 
    1.8712043755115826E+00 
    1.8897999020756897E+00 
    1.9402476079994577E+00 
    1.8110978538016183E+00 
    1.8120819470338403E+00 
    1.8486680328410039E+00 
    1.8831140698884543E+00 
    1.9242301751386279E+00 
    1.8305523532810684E+00 
    1.9425499395087324E+00 
    1.8159648218892301E+00 
    1.8653758799487550E+00 
    1.8202192922966578E+00 
    1.8192522684216985E+00 
    1.8277191835188200E+00 
    1.9432657455490570E+00 
    1.8987023500366476E+00 
    1.8749664188201487E+00 
    1.8918519531176787E+00 
    1.9076298274239654E+00 
    1.8181485475249071E+00 
    1.8731211397256009E+00 
    1.8993969692437396E+00 
    1.9424035892472296E+00 
    1.9350475734314054E+00 
    1.9321434558876098E+00 
    1.9430331402763708E+00 
    1.9482629793601953E+00 
    1.8877214010366561E+00 
    1.8325035687969882E+00 
    1.9063280423704188E+00 
    1.9048114358479058E+00 
    1.8682131152764512E+00 
    1.8175881591374496E+00 
    1.9024636388900200E+00 
    1.9153455974188902E+00 
    1.9221914800072621E+00 
    1.9118090530956939E+00 
    1.8187010279969813E+00 
    1.9075274714068404E+00 
    1.9037686846964432E+00 
    1.8278351426650350E+00 
    1.8410663527261275E+00 
    1.8991322590187174E+00 
    1.9102533157187060E+00 
    1.9058935170440010E+00 
    1.9166000990392200E+00 
    1.9157874081930668E+00 
    1.9411601753375254E+00 
    1.9019058930682946E+00 
    1.9265718680149997E+00 
    1.8955268509434369E+00 
    1.9076895631806523E+00 
    1.8151626336384536E+00 
    1.9537642067648571E+00 
    1.9377712658108603E+00 
    1.9473703680365206E+00 
    1.8689978564077132E+00 
    1.8578555566066990E+00 
    1.8451379470516327E+00 
    1.9204907410011018E+00 
    1.8993547720196498E+00 
    1.9235075847485645E+00 
    1.8613890279658574E+00 
    1.8285089402395418E+00 
    1.8399240136584838E+00 
    1.9321207252242478E+00 
    1.8360718776549272E+00 
    1.8883255817249067E+00 
    1.8468831462246116E+00 
    1.9309006083135332E+00 
    1.8971664543037854E+00 
    1.8860752424865519E+00 
    1.9497679141572026E+00 
    1.9446049488345831E+00 
    1.8766907773931543E+00 
    1.8691288409862752E+00 
    1.8526237912269992E+00 
    1.8814639041090260E+00 
    1.9229613796307710E+00 
    1.8130981422462589E+00 
    1.9394835873818246E+00 
    1.9497969900465639E+00 
    1.8750923245230746E+00 
    1.8711280056111275E+00 
    1.8292399570308513E+00 
    1.8174221471548728E+00 
    1.9465722122777214E+00 
    1.8581807950936533E+00 
    1.8998854519452095E+00 
    1.8755718824356644E+00 
    1.9089461959178935E+00 
    1.8410432850233214E+00 
    1.8898960666738787E+00 
    1.9462364140762780E+00 
    1.8496044959683764E+00 
    1.8739326060735166E+00 
    1.8469802322438291E+00 
    1.8816396943499822E+00 
    1.9515394265708279E+00 
    1.8540968475241872E+00 
    1.8983687938543099E+00 
    1.8631558680123019E+00 
    1.8301136036860353E+00 
    1.9164228234776470E+00 
    1.9160355854696189E+00 
    1.9051922423787810E+00 
    1.8620014499171389E+00 
    1.8597324631741272E+00 
    1.8342412755243345E+00 
    1.9009073741833271E+00 
    1.9156138272891416E+00 
    1.8872832197049794E+00 
    1.8315985031227071E+00 
    1.8566669094465136E+00 