# vtk DataFile Version 2.0
Pressure Field Data 
ASCII 
DATASET UNSTRUCTURED_GRID 

POINTS 2213 double 

    0.0000000000000000E+00     0.0000000000000000E+00     0.0000000000000000E+00 
    5.0000000000000000E-01     0.0000000000000000E+00     0.0000000000000000E+00 
    1.0000000000000000E+00     0.0000000000000000E+00     0.0000000000000000E+00 
    1.0000000000000000E+00     5.0000000000000000E-01     0.0000000000000000E+00 
    1.0000000000000000E+00     1.0000000000000000E+00     0.0000000000000000E+00 
    5.0000000000000000E-01     1.0000000000000000E+00     0.0000000000000000E+00 
    0.0000000000000000E+00     1.0000000000000000E+00     0.0000000000000000E+00 
    0.0000000000000000E+00     5.0000000000000000E-01     0.0000000000000000E+00 
    1.5624999999971041E-02     0.0000000000000000E+00     0.0000000000000000E+00 
    3.1249999999936742E-02     0.0000000000000000E+00     0.0000000000000000E+00 
    4.6874999999913257E-02     0.0000000000000000E+00     0.0000000000000000E+00 
    6.2499999999889783E-02     0.0000000000000000E+00     0.0000000000000000E+00 
    7.8124999999844805E-02     0.0000000000000000E+00     0.0000000000000000E+00 
    9.3749999999799827E-02     0.0000000000000000E+00     0.0000000000000000E+00 
    1.0937499999975490E-01     0.0000000000000000E+00     0.0000000000000000E+00 
    1.2499999999970990E-01     0.0000000000000000E+00     0.0000000000000000E+00 
    1.4062499999966460E-01     0.0000000000000000E+00     0.0000000000000000E+00 
    1.5624999999961930E-01     0.0000000000000000E+00     0.0000000000000000E+00 
    1.7187499999957390E-01     0.0000000000000000E+00     0.0000000000000000E+00 
    1.8749999999952860E-01     0.0000000000000000E+00     0.0000000000000000E+00 
    2.0312499999948330E-01     0.0000000000000000E+00     0.0000000000000000E+00 
    2.1874999999943801E-01     0.0000000000000000E+00     0.0000000000000000E+00 
    2.3437499999939271E-01     0.0000000000000000E+00     0.0000000000000000E+00 
    2.4999999999934730E-01     0.0000000000000000E+00     0.0000000000000000E+00 
    2.6562499999938810E-01     0.0000000000000000E+00     0.0000000000000000E+00 
    2.8124999999942890E-01     0.0000000000000000E+00     0.0000000000000000E+00 
    2.9687499999946970E-01     0.0000000000000000E+00     0.0000000000000000E+00 
    3.1249999999951050E-01     0.0000000000000000E+00     0.0000000000000000E+00 
    3.2812499999955130E-01     0.0000000000000000E+00     0.0000000000000000E+00 
    3.4374999999959210E-01     0.0000000000000000E+00     0.0000000000000000E+00 
    3.5937499999963290E-01     0.0000000000000000E+00     0.0000000000000000E+00 
    3.7499999999967371E-01     0.0000000000000000E+00     0.0000000000000000E+00 
    3.9062499999971451E-01     0.0000000000000000E+00     0.0000000000000000E+00 
    4.0624999999975520E-01     0.0000000000000000E+00     0.0000000000000000E+00 
    4.2187499999979600E-01     0.0000000000000000E+00     0.0000000000000000E+00 
    4.3749999999983680E-01     0.0000000000000000E+00     0.0000000000000000E+00 
    4.5312499999987760E-01     0.0000000000000000E+00     0.0000000000000000E+00 
    4.6874999999991840E-01     0.0000000000000000E+00     0.0000000000000000E+00 
    4.8437499999995920E-01     0.0000000000000000E+00     0.0000000000000000E+00 
    5.1562499999992384E-01     0.0000000000000000E+00     0.0000000000000000E+00 
    5.3124999999985478E-01     0.0000000000000000E+00     0.0000000000000000E+00 
    5.4687499999994527E-01     0.0000000000000000E+00     0.0000000000000000E+00 
    5.6249999999998668E-01     0.0000000000000000E+00     0.0000000000000000E+00 
    5.7812499999998068E-01     0.0000000000000000E+00     0.0000000000000000E+00 
    5.9374999999994749E-01     0.0000000000000000E+00     0.0000000000000000E+00 
    6.0937499999997913E-01     0.0000000000000000E+00     0.0000000000000000E+00 
    6.2500000000000000E-01     0.0000000000000000E+00     0.0000000000000000E+00 
    6.4062499999998945E-01     0.0000000000000000E+00     0.0000000000000000E+00 
    6.5624999999996603E-01     0.0000000000000000E+00     0.0000000000000000E+00 
    6.7187499999995337E-01     0.0000000000000000E+00     0.0000000000000000E+00 
    6.8749999999998734E-01     0.0000000000000000E+00     0.0000000000000000E+00 
    7.0312499999998124E-01     0.0000000000000000E+00     0.0000000000000000E+00 
    7.1874999999997025E-01     0.0000000000000000E+00     0.0000000000000000E+00 
    7.3437499999999034E-01     0.0000000000000000E+00     0.0000000000000000E+00 
    7.5000000000000000E-01     0.0000000000000000E+00     0.0000000000000000E+00 
    7.6562499999996902E-01     0.0000000000000000E+00     0.0000000000000000E+00 
    7.8124999999993228E-01     0.0000000000000000E+00     0.0000000000000000E+00 
    7.9687499999989997E-01     0.0000000000000000E+00     0.0000000000000000E+00 
    8.1249999999996247E-01     0.0000000000000000E+00     0.0000000000000000E+00 
    8.2812499999999578E-01     0.0000000000000000E+00     0.0000000000000000E+00 
    8.4374999999999556E-01     0.0000000000000000E+00     0.0000000000000000E+00 
    8.5937500000000111E-01     0.0000000000000000E+00     0.0000000000000000E+00 
    8.7499999999997691E-01     0.0000000000000000E+00     0.0000000000000000E+00 
    8.9062500000000921E-01     0.0000000000000000E+00     0.0000000000000000E+00 
    9.0625000000004452E-01     0.0000000000000000E+00     0.0000000000000000E+00 
    9.2187500000005529E-01     0.0000000000000000E+00     0.0000000000000000E+00 
    9.3750000000012723E-01     0.0000000000000000E+00     0.0000000000000000E+00 
    9.5312500000011835E-01     0.0000000000000000E+00     0.0000000000000000E+00 
    9.6875000000005151E-01     0.0000000000000000E+00     0.0000000000000000E+00 
    9.8437500000003086E-01     0.0000000000000000E+00     0.0000000000000000E+00 
    1.0000000000000000E+00     1.5624999999971041E-02     0.0000000000000000E+00 
    1.0000000000000000E+00     3.1249999999936742E-02     0.0000000000000000E+00 
    1.0000000000000000E+00     4.6874999999913257E-02     0.0000000000000000E+00 
    1.0000000000000000E+00     6.2499999999889783E-02     0.0000000000000000E+00 
    1.0000000000000000E+00     7.8124999999844805E-02     0.0000000000000000E+00 
    1.0000000000000000E+00     9.3749999999799827E-02     0.0000000000000000E+00 
    1.0000000000000000E+00     1.0937499999975490E-01     0.0000000000000000E+00 
    1.0000000000000000E+00     1.2499999999970990E-01     0.0000000000000000E+00 
    1.0000000000000000E+00     1.4062499999966460E-01     0.0000000000000000E+00 
    1.0000000000000000E+00     1.5624999999961930E-01     0.0000000000000000E+00 
    1.0000000000000000E+00     1.7187499999957390E-01     0.0000000000000000E+00 
    1.0000000000000000E+00     1.8749999999952860E-01     0.0000000000000000E+00 
    1.0000000000000000E+00     2.0312499999948330E-01     0.0000000000000000E+00 
    1.0000000000000000E+00     2.1874999999943801E-01     0.0000000000000000E+00 
    1.0000000000000000E+00     2.3437499999939271E-01     0.0000000000000000E+00 
    1.0000000000000000E+00     2.4999999999934730E-01     0.0000000000000000E+00 
    1.0000000000000000E+00     2.6562499999938810E-01     0.0000000000000000E+00 
    1.0000000000000000E+00     2.8124999999942890E-01     0.0000000000000000E+00 
    1.0000000000000000E+00     2.9687499999946970E-01     0.0000000000000000E+00 
    1.0000000000000000E+00     3.1249999999951050E-01     0.0000000000000000E+00 
    1.0000000000000000E+00     3.2812499999955130E-01     0.0000000000000000E+00 
    1.0000000000000000E+00     3.4374999999959210E-01     0.0000000000000000E+00 
    1.0000000000000000E+00     3.5937499999963290E-01     0.0000000000000000E+00 
    1.0000000000000000E+00     3.7499999999967371E-01     0.0000000000000000E+00 
    1.0000000000000000E+00     3.9062499999971451E-01     0.0000000000000000E+00 
    1.0000000000000000E+00     4.0624999999975520E-01     0.0000000000000000E+00 
    1.0000000000000000E+00     4.2187499999979600E-01     0.0000000000000000E+00 
    1.0000000000000000E+00     4.3749999999983680E-01     0.0000000000000000E+00 
    1.0000000000000000E+00     4.5312499999987760E-01     0.0000000000000000E+00 
    1.0000000000000000E+00     4.6874999999991840E-01     0.0000000000000000E+00 
    1.0000000000000000E+00     4.8437499999995920E-01     0.0000000000000000E+00 
    1.0000000000000000E+00     5.1562499999992384E-01     0.0000000000000000E+00 
    1.0000000000000000E+00     5.3124999999985478E-01     0.0000000000000000E+00 
    1.0000000000000000E+00     5.4687499999994527E-01     0.0000000000000000E+00 
    1.0000000000000000E+00     5.6249999999998668E-01     0.0000000000000000E+00 
    1.0000000000000000E+00     5.7812499999998068E-01     0.0000000000000000E+00 
    1.0000000000000000E+00     5.9374999999994749E-01     0.0000000000000000E+00 
    1.0000000000000000E+00     6.0937499999997913E-01     0.0000000000000000E+00 
    1.0000000000000000E+00     6.2500000000000000E-01     0.0000000000000000E+00 
    1.0000000000000000E+00     6.4062499999998945E-01     0.0000000000000000E+00 
    1.0000000000000000E+00     6.5624999999996603E-01     0.0000000000000000E+00 
    1.0000000000000000E+00     6.7187499999995337E-01     0.0000000000000000E+00 
    1.0000000000000000E+00     6.8749999999998734E-01     0.0000000000000000E+00 
    1.0000000000000000E+00     7.0312499999998124E-01     0.0000000000000000E+00 
    1.0000000000000000E+00     7.1874999999997025E-01     0.0000000000000000E+00 
    1.0000000000000000E+00     7.3437499999999034E-01     0.0000000000000000E+00 
    1.0000000000000000E+00     7.5000000000000000E-01     0.0000000000000000E+00 
    1.0000000000000000E+00     7.6562499999996902E-01     0.0000000000000000E+00 
    1.0000000000000000E+00     7.8124999999993228E-01     0.0000000000000000E+00 
    1.0000000000000000E+00     7.9687499999989997E-01     0.0000000000000000E+00 
[...]
CELL_DATA 2084 
SCALARS Pressure double 1 
LOOKUP_TABLE default 

    1.9510071037385237E+00 
    1.9750789726967943E+00 
    2.1501691024725464E+00 
    1.9757326881594628E+00 
    2.0706958756047187E+00 
    2.0304504039592222E+00 
    1.9269336449672916E+00 
    2.0165873376129824E+00 
    2.0257562577167505E+00 
    2.0746864251119472E+00 
    2.1445117874614974E+00 
    1.9392713373505002E+00 
    2.0067307892438988E+00 
    1.9727358903341841E+00 
    1.9467091549537716E+00 
    1.9636672546734077E+00 
    2.1061930333841667E+00 
    1.9904925203034596E+00 
    2.1757116725857704E+00 
    1.9568930846609303E+00 
    1.9600785426142293E+00 
    2.0549363792411843E+00 
    1.9622358290920927E+00 
    2.0031557728333969E+00 
    1.9537732437581181E+00 
    2.0045075017497744E+00 
    1.9687387886073575E+00 
    1.9298207584233984E+00 
    2.0106324008193259E+00 
    1.9809172796306562E+00 
    1.9204802050969363E+00 
    2.0171516277523853E+00 
    1.9104603980670611E+00 
    1.9594197409107279E+00 
    1.9423440203601881E+00 
    2.0649433917889755E+00 
    1.9857687960044048E+00 
    1.9820357722205131E+00 
    2.0549148513524553E+00 
    2.0180450912918091E+00 
    1.9318159774693229E+00 
    2.0789824031075632E+00 
    1.9540147656385842E+00 
    2.0366144115023821E+00 
    2.0296100583622261E+00 
    1.9380264443924724E+00 
    2.0774674237198645E+00 
    1.9243246777548348E+00 
    1.9258012315995769E+00 
    2.0073904222139674E+00 
    2.0050994898465229E+00 
    1.9292003951346035E+00 
    1.9379451903888878E+00 
    1.9932642109203322E+00 
    1.9942769025074423E+00 
    1.9320873097785827E+00 
    1.9149197091986412E+00 
    2.0423855050676885E+00 
    2.0526853298811614E+00 
    2.0004089958251727E+00 
    1.9992278484076007E+00 
    1.9574482942483455E+00 
    1.9411170798216513E+00 
    1.9706895271655618E+00 
    2.0751456998055366E+00 
    1.9967261815542556E+00 
    2.0256039860932615E+00 
    1.9366839971102965E+00 
    1.9248931595017869E+00 
    1.9239797255481406E+00 
    1.9520617875574826E+00 
    2.2051990621538158E+00 
    2.0052007266823706E+00 
    2.1284777792512450E+00 
    2.0493464020847107E+00 
    2.1259981465607733E+00 
    2.0012545569406437E+00 
    2.0677100910915991E+00 
    1.9389966021008589E+00 
    2.0837186805114003E+00 
    1.9628286370659085E+00 
    2.0177057457748213E+00 
    2.0411792915692852E+00 
    1.9197585690335381E+00 
    2.0301807386432604E+00 
    1.9608970488532531E+00 
    1.9881223413483342E+00 
    2.0324260023400025E+00 
    2.0504744915568485E+00 
    2.0424128922485996E+00 
    2.0262372586248323E+00 
    2.0230804217064593E+00 
    1.9645235486021249E+00 
    2.0407561276127684E+00 
    1.9901584793906419E+00 
    1.9289566098193185E+00 
    1.9775758212199772E+00 
    2.0115044080080251E+00 
    2.0618477373052913E+00 
    1.9808501549330377E+00 
    2.0727395876859673E+00 
    2.0387506941470650E+00 
    2.0529447788030635E+00 
    2.0541596772038666E+00 
    1.9905386719858236E+00 
    2.0402618326936559E+00 
    2.0157404442543920E+00 
    2.0624868581205669E+00 
    1.9489973075835711E+00 
    2.2370140243357488E+00 
    1.9670401308229293E+00 
    2.0106558112191895E+00 
    2.0380620740896269E+00 
    2.0879646130815201E+00 
    2.1385582106370915E+00 
    1.9720591835351486E+00 
    2.0408673083499949E+00 
    2.0379219326942128E+00 
    1.9826872762224854E+00 
    1.9549465887924391E+00 
    1.9962150916401626E+00 
    2.0518384834150316E+00 
    1.9551538073870811E+00 
    2.1138317170332064E+00 
    2.0146121910211794E+00 
    2.0522939196806842E+00 
    1.9979459360877847E+00 
    1.9551746972462856E+00 
    1.9861601664858712E+00 
    1.9625388677116273E+00 
    2.1349491825012890E+00 
    2.1470255868166630E+00 
    1.9337047511416650E+00 
    2.0751085280905661E+00 
    2.0621108396852175E+00 
    1.9990150734764267E+00 
    2.0448865800742317E+00 
    1.9541107259500481E+00 
    2.0606675271895503E+00 
    2.1192921172776344E+00 
    2.0287905679781373E+00 
    2.1606223601353371E+00 
    2.1287196481467303E+00 
    2.0145198133231186E+00 
    1.9723475737718927E+00 
    2.0108690983824844E+00 
    2.0390774942204390E+00 
    2.0595080623629363E+00 
    1.9901837269832083E+00 
    2.0277681113657620E+00 
    2.0327428599675379E+00 
    2.1202242521106749E+00 
    2.1923190580942684E+00 
    1.9896466335794936E+00 
    1.9976836377381142E+00 
    2.1756115660019275E+00 
    1.9617604118384557E+00 
    2.0352666472072212E+00 
    1.9935775090137242E+00 
    2.1134427449167035E+00 
    2.3168142713276745E+00 
    2.2562904436471154E+00 
    2.1959711901062913E+00 
    2.2163411682308940E+00 
    2.1681218136356466E+00 
    2.1843923745728455E+00 
    2.0371730968944646E+00 
    2.2303952167241010E+00 
    2.0293798509921492E+00 
    2.1773562467428795E+00 
    2.0296652643098141E+00 
    2.1071020190724155E+00 
    2.1243256402646056E+00 
    2.0652107567461839E+00 
    2.1001051312673504E+00 
    1.9795440663784916E+00 
    2.1029451187341204E+00 
    2.0211175017676908E+00 
    2.0279314263318411E+00 
    2.0269282604309153E+00 
    2.0490674241892783E+00 
    1.9776996806818148E+00 
    2.1078155964324399E+00 
    2.0512466647421110E+00 
    2.0478973989305604E+00 
    1.9132438227693758E+00 
    2.0702367607881000E+00 
    2.1305481820476797E+00 
    1.9844000021550956E+00 
    2.0903202695222212E+00 
    2.1449774115329823E+00 
    2.1668060014931427E+00 
    2.0494708173418195E+00 
    1.9988688921905948E+00 
    1.9706382575016197E+00 
    1.9865322876599327E+00 
    2.0767438415709671E+00 
    2.0425201930189862E+00 
    1.9958728222652111E+00 
    2.0809234127428469E+00 
    2.0209598849201935E+00 
    1.9885500410655814E+00 
    2.0490844858375925E+00 
    1.9402056187893002E+00 
    1.9878798444361558E+00 
    2.1485780218525061E+00 
    2.0760729741534729E+00 
    1.9807265456473744E+00 
    2.0981873572511804E+00 
    2.0908353438719063E+00 
    1.9929373672839832E+00 
    2.0116697195669224E+00 
    2.0168315603289830E+00 
    2.0669589992656516E+00 
    2.0634987672576810E+00 
    2.1238756161177257E+00 
    2.0073843347747657E+00 
    2.0640563128953433E+00 
    2.0773763875112277E+00 
    1.9970548066450415E+00 
    2.0035025900765024E+00 
    1.9064575193531208E+00 
    1.9988411680754119E+00 
    2.1576386481477603E+00 
    2.0421195411038471E+00 
    2.0629111255018113E+00 
    2.0210109793244926E+00 
    2.0630352870113553E+00 
    1.9868574341986964E+00 
    1.9758180828013092E+00 
    1.9534502364584194E+00 
    1.9842248873366530E+00 
    1.9572881145295185E+00 
    2.0077207447728607E+00 
    2.0506345817548444E+00 
    1.9685366479616917E+00 
    2.0928334290894872E+00 
    2.0949182867698126E+00 
    2.0046362673067231E+00 
    1.9761221650146843E+00 
    2.0506857409748358E+00 
    1.9926934160926073E+00 
    1.9457679959313028E+00 
    1.9868460601832310E+00 
    1.9509910874840888E+00 
    1.9515026009859981E+00 
    1.9966066144759307E+00 
    2.0382545435586934E+00 
    2.1110358453772071E+00 
    1.9419371319249938E+00 
    1.9852191994346784E+00 
    1.9656675664010044E+00 
    1.9848178177682949E+00 
    2.2043166722561360E+00 
    1.9555448238334954E+00 
    2.0166144296719395E+00 
    1.9649836834692591E+00 
    1.9984346929585342E+00 
    1.9735443413731555E+00 
    2.0059147422151757E+00 
    1.9648158099113384E+00 
    2.0027438907564199E+00 
    1.9750444382795336E+00 
    2.0058482356821026E+00 
    1.9712974599965623E+00 
    1.9704338979316836E+00 
    1.9505386705001841E+00 
    1.9594528947568199E+00 
    2.0929108056357233E+00 
    1.9339409664227012E+00 
    1.9418505551198630E+00 
    1.9813836909250055E+00 
    1.9682714436305890E+00 
    2.2723218954739544E+00 
    1.9838919408155746E+00 
    2.0655768166544228E+00 
    1.9773102800366138E+00 
    1.9297343709357151E+00 
    1.9952019034769299E+00 
    1.9603601396431583E+00 
    2.0084486787171838E+00 
    1.9717283651259292E+00 
    1.9721302329730668E+00 
    1.9821976822725027E+00 
    1.9526890237787458E+00 
    1.9837303013052310E+00 
    1.9726126602059557E+00 
    1.9343956159320497E+00 
    1.9632349070342761E+00 
    1.9633063859711148E+00 
    1.9791938617265850E+00 
    1.9279713333514110E+00 
    1.9657521309039021E+00 
    1.9790657708273145E+00 
    2.0075343508375285E+00 
    1.9547550855863123E+00 
    1.9447732742530934E+00 
    2.0765937837349790E+00 
    1.9555023939123004E+00 
    2.0272891224796923E+00 
    2.2723786809160997E+00 
    2.0867833770362263E+00 
    2.0279581216957898E+00 
    2.1073460251179834E+00 
    1.9688085550774674E+00 
    1.9633394645607254E+00 
    1.9438621980783746E+00 
    1.9468970072606246E+00 
    1.9479498031290956E+00 
    1.9417447537801737E+00 
    2.1104433675316732E+00 
    1.9455136139096121E+00 
    1.9962289998971292E+00 
    2.0910304347989266E+00 
    2.0071768327707420E+00 
    1.9550725214702176E+00 
    2.0595606087788236E+00 
    1.9398683444501721E+00 
    1.9403347459101206E+00 
    1.9481812952826068E+00 
    2.2403132012892746E+00 
    2.0391987266800480E+00 
    2.1003300786301375E+00 
    2.1057408495423227E+00 
    2.0157454562175752E+00 
    2.0784110208549675E+00 
    1.9578553078416574E+00 
    1.9003591298399478E+00 
    2.4158922481400564E+00 
    1.9197463477724199E+00 
    1.9330324492732323E+00 
    1.9326402247232450E+00 
    2.0289964821843349E+00 
    2.0901025583265960E+00 
    1.9002769256870087E+00 
    2.1408981145722632E+00 
    2.1619580901279249E+00 
    2.0164721138972825E+00 
    1.9724226468718842E+00 
    2.1279721241767771E+00 
    2.0182891520655502E+00 
    1.9491371864331835E+00 
    2.0999796985827874E+00 
    1.9260385012300740E+00 
    1.9253509234642758E+00 
    2.0267269161138994E+00 
    1.9802454750709870E+00 
    1.9071390877624734E+00 
    1.9721733774222832E+00 
    1.9143953503784357E+00 
    2.1184767277923857E+00 
    1.9195551533239144E+00 
    1.9628928251712385E+00 
    2.0882910708201727E+00 
    1.9800462243823755E+00 
    2.0184091809894040E+00 
    1.9183972696157605E+00 
    1.9999192768091829E+00 
    2.0049901861966304E+00 
    1.9501313742825526E+00 
    1.9804888854539267E+00 
    2.0945861377894808E+00 
    1.9139470765625637E+00 
    1.9785764526678664E+00 
    1.9538187348567075E+00 
    1.9544076517405815E+00 
    1.9937466727420654E+00 
    1.9481735161742502E+00 
    1.9857886583672379E+00 
    2.1067404055480843E+00 
    2.1212168484239422E+00 
    1.9119204308300795E+00 
    2.2834968937439317E+00 
    1.9983325075157097E+00 
    1.9659082634187033E+00 
    2.1488287121690419E+00 
    2.0219776441775417E+00 
    2.0363859087850029E+00 
    1.9539045352224162E+00 
    1.9473505017352650E+00 
    2.0539172772204863E+00 
    2.0171240728530342E+00 
    1.9075916978967924E+00 
    1.9535856050433755E+00 
    2.1763608811702557E+00 
    2.0125369719407367E+00 
    2.0822062665971712E+00 
    2.0271890445469398E+00 
    2.0951869921030379E+00 
    2.0538673660857607E+00 
    1.9063313742508250E+00 
    1.9353571265136433E+00 
    1.9739399288557868E+00 
    2.1227048311284236E+00 
    2.0803237670283745E+00 
    1.9706035644795168E+00 
    1.9483226902285948E+00 
    1.9692841578970530E+00 
    1.9584114875691681E+00 
    2.0659974427159109E+00 
    1.9507311643745333E+00 
    2.0353111389916103E+00 
    2.2166149358153615E+00 
    1.9456609720247315E+00 
    2.1814397169205999E+00 
    1.9888234776133942E+00 
    2.1963014837506520E+00 
    2.0901788820659415E+00 
    2.3289544113696117E+00 
    1.9634907031233724E+00 
    2.0783582631644433E+00 
    2.0055692757548695E+00 
    1.9419344388665019E+00 
    2.1042424965083177E+00 
    1.9978937042891642E+00 
    2.1130701025553189E+00 
    1.9450836905530333E+00 
    2.0808567992176772E+00 
    1.9895521958851590E+00 
    2.0198920137882510E+00 
    1.9186229363886997E+00 
    1.9483784648584295E+00 
    1.9378008803750717E+00 
    2.1434264660024276E+00 
    1.9652344496034089E+00 
    2.2077090053584509E+00 
    2.1600876787232943E+00 
    1.9565953665087878E+00 
    1.9878188400615751E+00 
    1.9743418859808346E+00 
    1.9172898632828075E+00 
    1.9925676348493486E+00 
    2.0939282158369310E+00 
    1.9559120515988788E+00 
    1.9247186488803245E+00 
    2.2354824572918934E+00 
    2.0659967757191882E+00 
    1.9005859447676985E+00 
    1.9004499985116059E+00 
    1.9338766404466496E+00 
    1.9394951021482709E+00 
    1.9229855122032140E+00 
    1.9144010180206414E+00 
    1.9704514166024503E+00 
    1.9614808353291833E+00 
    1.8947331178983924E+00 
    1.8948672436015215E+00 
    1.8667440610581625E+00 
    1.8168461932876390E+00 
    1.8112782063828503E+00 
    1.8163880077514210E+00 
    1.8322506205315705E+00 
    1.8301952806011583E+00 
    1.8774424385176296E+00 
    1.7995192342238511E+00 
    1.8661410861491623E+00 
    1.8033054067901768E+00 
    1.8497903253317010E+00 
    1.8274028587282334E+00 
    1.8253442728229259E+00 
    1.8056578216619985E+00 
    1.7991370710988019E+00 
    1.9118391472201619E+00 
    1.8751217068122989E+00 
    1.8957196451893967E+00 
    1.8714746556097706E+00 
    1.8384536539737428E+00 
    1.7986100663473885E+00 
    1.7960989380204251E+00 
    1.9083129609129446E+00 
    1.8473990098063495E+00 
    1.7979515300666715E+00 
    1.8324867684212618E+00 
    1.8889311917034901E+00 
    1.8886262176122557E+00 
    1.7882867326494283E+00 
    1.7972716221177780E+00 
    1.8495791609058148E+00 
    1.8967732035156653E+00 
    1.8771014348935042E+00 
    1.8391926382617780E+00 
    1.8179311455409171E+00 
    1.9188593726694252E+00 
    1.8977840143196085E+00 
    1.8887298750976724E+00 
    1.9324278087301303E+00 
    1.8174017364478139E+00 
    1.8298222689088559E+00 
    1.8258846026490569E+00 
    1.9065891831116855E+00 
    1.8287645541811022E+00 
    1.8925105582592832E+00 
    1.8603040082674638E+00 
    1.8573254527401961E+00 
    1.8454824205051639E+00 
    1.8492582634218038E+00 
    1.8973547114332066E+00 
    1.8941019370409056E+00 
    1.8549625637803513E+00 
    1.8122875494481419E+00 
    1.8471169191874095E+00 
    1.8428138530369418E+00 
    1.8004014677800517E+00 
    1.8797765504483468E+00 
    1.8027966251168324E+00 
    1.8970642335396646E+00 
    1.8053365797557337E+00 
    1.8667784631835236E+00 
    1.8222751867371045E+00 
    1.7863758102523724E+00 
    1.7875359020251309E+00 
    1.7869662989460522E+00 
    1.7796579590867481E+00 
    1.8455003521530013E+00 
    1.7804109051865087E+00 
    1.7977867340803106E+00 
    1.7996179075151206E+00 
    1.9226929880926464E+00 
    1.8493241788192800E+00 
    1.7992959615484083E+00 
    1.8966198624615302E+00 
    1.8337272061311349E+00 
    1.8193375454640286E+00 
    1.8822853642881729E+00 
    1.9203205117109452E+00 
    1.8710783132636204E+00 
    1.8733236107313127E+00 
    1.8540839090774413E+00 
    1.8654842967344358E+00 
    1.8853947853619022E+00 
    1.8831362139240122E+00 
    1.8807541290689478E+00 
    1.8842346460833983E+00 
    1.8577864515682279E+00 
    1.8943696107649433E+00 
    1.8939370481314368E+00 
    1.8686675216056488E+00 
    1.8757794370389433E+00 
    1.9112035240034844E+00 
    1.8844450572600400E+00 
    1.8917539137706560E+00 
    1.9142900994052081E+00 
    1.8327079976202281E+00 
    1.8230285553524568E+00 
    1.8673209700343747E+00 
    1.8980692872503682E+00 
    1.9208259165197497E+00 
    1.8944135715898112E+00 
    1.7872605299725759E+00 
    1.8214094422069331E+00 
    1.8657440329367863E+00 
    1.8429364040561387E+00 
    1.8059336546036915E+00 
    1.8852928775658142E+00 
    1.8645917951544324E+00 
    1.8058047007764655E+00 
    1.8773892605369857E+00 
    1.8142791692788154E+00 
    1.8246679111071535E+00 
    1.8212693672741822E+00 
    1.8697789291551907E+00 
    1.8927174284718722E+00 
    1.9086914735356548E+00 
    1.8839641043238566E+00 
    1.9040317505136466E+00 
    1.8125696162285290E+00 
    1.8001727879497103E+00 
    1.9084094364037665E+00 
    1.8802909898850431E+00 
    1.7873157038084924E+00 
    1.7861773187147136E+00 
    1.9175261317008572E+00 
    1.8591116078691428E+00 
    1.8863688936670375E+00 
    1.8651556267183396E+00 
    1.8350542272524848E+00 
    1.8679278754719584E+00 
    1.8786097382366853E+00 
    1.8568960653603876E+00 
    1.8525974580437641E+00 
    1.8523903068931546E+00 
    1.7779833226536590E+00 
    1.9009414896064909E+00 
    1.9328332313921841E+00 
    1.7786700505610045E+00 
    1.7782718590045250E+00 
    1.7795101989375617E+00 
    1.7786687444487441E+00 
    1.7856325108310394E+00 
    1.8872066812605812E+00 
    1.8369771703737103E+00 
    1.7961610929587999E+00 
    1.8769012755284247E+00 
    1.8749910663066200E+00 
    1.8296842627680747E+00 
    1.8445944665466112E+00 
    1.8374218594941774E+00 
    1.8558122976797755E+00 
    1.9057607592533279E+00 
    1.7781568115375046E+00 
    1.7791207571856633E+00 
    1.8151678294611198E+00 
    1.8492135060223527E+00 
    1.8899197198969218E+00 
    1.7973443859250386E+00 
    1.9080448298840251E+00 
    1.7829005785995578E+00 
    1.8317230166133680E+00 
    1.7870948845207433E+00 
    1.7861699799826398E+00 
    1.7944831951808440E+00 
    1.9087576471164889E+00 
    1.8646449488177967E+00 
    1.8411572634300899E+00 
    1.8578552393182879E+00 
    1.8734877542437403E+00 
    1.7850418755141522E+00 
    1.8393249141622718E+00 
    1.8653154189685739E+00 
    1.9079153351093214E+00 
    1.9005972389508929E+00 
    1.8977298710545387E+00 
    1.9085340512999802E+00 
    1.9137136820356668E+00 
    1.8537741195385189E+00 
    1.7992792477729924E+00 
    1.8722050839857032E+00 
    1.8707096838118538E+00 
    1.8345188369759708E+00 
    1.7844937048518374E+00 
    1.8683911714495449E+00 
    1.8811341235457566E+00 
    1.8879086695224201E+00 
    1.8776372348368284E+00 
    1.7855864253654867E+00 
    1.8734020879946953E+00 
    1.8696829959781860E+00 
    1.7946020749145279E+00 
    1.8076984569017129E+00 
    1.8650594363048658E+00 
    1.8760905487412134E+00 
    1.8717735945595422E+00 
    1.8823329158977764E+00 
    1.8815337540632164E+00 
    1.9066535628154244E+00 
    1.8678243643090655E+00 
    1.8922066126470845E+00 
    1.8614827496958823E+00 
    1.8735201496885852E+00 
    1.7821299710377725E+00 
    1.9191580653198050E+00 
    1.9033239535599820E+00 
    1.9128351119143678E+00 
    1.8352441987195307E+00 
    1.8242469215422148E+00 
    1.8117205276005579E+00 
    1.8861954790222673E+00 
    1.8652957972324102E+00 
    1.8891752522819805E+00 
    1.8277663858612712E+00 
    1.7952425721510956E+00 
    1.8065170591747011E+00 
    1.8977176167093137E+00 
    1.8027230074841247E+00 
    1.8543599914707463E+00 
    1.8134755223680967E+00 
    1.8965046579722182E+00 
    1.8631314039180760E+00 
    1.8521523603903851E+00 
    1.9151913655233792E+00 
    1.9100693250459084E+00 
    1.8428531890702482E+00 
    1.8353795066181602E+00 
    1.8190614065282871E+00 
    1.8475744445442299E+00 
    1.8886343349500450E+00 
    1.7800922768284695E+00 
    1.9049944142952682E+00 
    1.9152151273343805E+00 
    1.8412747040961792E+00 
    1.8373540026054453E+00 
    1.7960032743206580E+00 
    1.7843327077640256E+00 
    1.9120171048738002E+00 
    1.8245990131626908E+00 
    1.8658401061071257E+00 
    1.8417567311822478E+00 
    1.8747553361634879E+00 
    1.8076320131027319E+00 
    1.8559295799511679E+00 
    1.9116979148782882E+00 
    1.8161440573220469E+00 
    1.8401908573430910E+00 
    1.8134868338892816E+00 
    1.8477595508809852E+00 
    1.9169409739784882E+00 
    1.8205708168488033E+00 
    1.8643441125906952E+00 
    1.8294761039287166E+00 
    1.7968470841263764E+00 
    1.8821538034519234E+00 
    1.8817737663425256E+00 
    1.8710417682862701E+00 
    1.8283343732747102E+00 
    1.8260938734484873E+00 
    1.8009177231750360E+00 
    1.8668127972628366E+00 
    1.8813583035040420E+00 
    1.8533508954459896E+00 
    1.7983532058674563E+00 
    1.8230632667176085E+00 