# vtk DataFile Version 2.0
Pressure Field Data 
ASCII 
DATASET UNSTRUCTURED_GRID 

POINTS 2213 double 

    0.0000000000000000E+00     0.0000000000000000E+00     0.0000000000000000E+00 
    5.0000000000000000E-01     0.0000000000000000E+00     0.0000000000000000E+00 
    1.0000000000000000E+00     0.0000000000000000E+00     0.0000000000000000E+00 
    1.0000000000000000E+00     5.0000000000000000E-01     0.0000000000000000E+00 
    1.0000000000000000E+00     1.0000000000000000E+00     0.0000000000000000E+00 
    5.0000000000000000E-01     1.0000000000000000E+00     0.0000000000000000E+00 
    0.0000000000000000E+00     1.0000000000000000E+00     0.0000000000000000E+00 
    0.0000000000000000E+00     5.0000000000000000E-01     0.0000000000000000E+00 
    1.5624999999971041E-02     0.0000000000000000E+00     0.0000000000000000E+00 
    3.1249999999936742E-02     0.0000000000000000E+00     0.0000000000000000E+00 
    4.6874999999913257E-02     0.0000000000000000E+00     0.0000000000000000E+00 
    6.2499999999889783E-02     0.0000000000000000E+00     0.0000000000000000E+00 
    7.8124999999844805E-02     0.0000000000000000E+00     0.0000000000000000E+00 
    9.3749999999799827E-02     0.0000000000000000E+00     0.0000000000000000E+00 
    1.0937499999975490E-01     0.0000000000000000E+00     0.0000000000000000E+00 
    1.2499999999970990E-01     0.0000000000000000E+00     0.0000000000000000E+00 
    1.4062499999966460E-01     0.0000000000000000E+00     0.0000000000000000E+00 
    1.5624999999961930E-01     0.0000000000000000E+00     0.0000000000000000E+00 
    1.7187499999957390E-01     0.0000000000000000E+00     0.0000000000000000E+00 
    1.8749999999952860E-01     0.0000000000000000E+00     0.0000000000000000E+00 
    2.0312499999948330E-01     0.0000000000000000E+00     0.0000000000000000E+00 
    2.1874999999943801E-01     0.0000000000000000E+00     0.0000000000000000E+00 
    2.3437499999939271E-01     0.0000000000000000E+00     0.0000000000000000E+00 
    2.4999999999934730E-01     0.0000000000000000E+00     0.0000000000000000E+00 
    2.6562499999938810E-01     0.0000000000000000E+00     0.0000000000000000E+00 
    2.8124999999942890E-01     0.0000000000000000E+00     0.0000000000000000E+00 
    2.9687499999946970E-01     0.0000000000000000E+00     0.0000000000000000E+00 
    3.1249999999951050E-01     0.0000000000000000E+00     0.0000000000000000E+00 
    3.2812499999955130E-01     0.0000000000000000E+00     0.0000000000000000E+00 
    3.4374999999959210E-01     0.0000000000000000E+00     0.0000000000000000E+00 
    3.5937499999963290E-01     0.0000000000000000E+00     0.0000000000000000E+00 
    3.7499999999967371E-01     0.0000000000000000E+00     0.0000000000000000E+00 
    3.9062499999971451E-01     0.0000000000000000E+00     0.0000000000000000E+00 
    4.0624999999975520E-01     0.0000000000000000E+00     0.0000000000000000E+00 
    4.2187499999979600E-01     0.0000000000000000E+00     0.0000000000000000E+00 
    4.3749999999983680E-01     0.0000000000000000E+00     0.0000000000000000E+00 
    4.5312499999987760E-01     0.0000000000000000E+00     0.0000000000000000E+00 
    4.6874999999991840E-01     0.0000000000000000E+00     0.0000000000000000E+00 
    4.8437499999995920E-01     0.0000000000000000E+00     0.0000000000000000E+00 
    5.1562499999992384E-01     0.0000000000000000E+00     0.0000000000000000E+00 
    5.3124999999985478E-01     0.0000000000000000E+00     0.0000000000000000E+00 
    5.4687499999994527E-01     0.0000000000000000E+00     0.0000000000000000E+00 
    5.6249999999998668E-01     0.0000000000000000E+00     0.0000000000000000E+00 
    5.7812499999998068E-01     0.0000000000000000E+00     0.0000000000000000E+00 
    5.9374999999994749E-01     0.0000000000000000E+00     0.0000000000000000E+00 
    6.0937499999997913E-01     0.0000000000000000E+00     0.0000000000000000E+00 
    6.2500000000000000E-01     0.0000000000000000E+00     0.0000000000000000E+00 
    6.4062499999998945E-01     0.0000000000000000E+00     0.0000000000000000E+00 
    6.5624999999996603E-01     0.0000000000000000E+00     0.0000000000000000E+00 
    6.7187499999995337E-01     0.0000000000000000E+00     0.0000000000000000E+00 
    6.8749999999998734E-01     0.0000000000000000E+00     0.0000000000000000E+00 
    7.0312499999998124E-01     0.0000000000000000E+00     0.0000000000000000E+00 
    7.1874999999997025E-01     0.0000000000000000E+00     0.0000000000000000E+00 
    7.3437499999999034E-01     0.0000000000000000E+00     0.0000000000000000E+00 
    7.5000000000000000E-01     0.0000000000000000E+00     0.0000000000000000E+00 
    7.6562499999996902E-01     0.0000000000000000E+00     0.0000000000000000E+00 
    7.8124999999993228E-01     0.0000000000000000E+00     0.0000000000000000E+00 
    7.9687499999989997E-01     0.0000000000000000E+00     0.0000000000000000E+00 
    8.1249999999996247E-01     0.0000000000000000E+00     0.0000000000000000E+00 
    8.2812499999999578E-01     0.0000000000000000E+00     0.0000000000000000E+00 
    8.4374999999999556E-01     0.0000000000000000E+00     0.0000000000000000E+00 
    8.5937500000000111E-01     0.0000000000000000E+00     0.0000000000000000E+00 
    8.7499999999997691E-01     0.0000000000000000E+00     0.0000000000000000E+00 
    8.9062500000000921E-01     0.0000000000000000E+00     0.0000000000000000E+00 
    9.0625000000004452E-01     0.0000000000000000E+00     0.0000000000000000E+00 
    9.2187500000005529E-01     0.0000000000000000E+00     0.0000000000000000E+00 
    9.3750000000012723E-01     0.0000000000000000E+00     0.0000000000000000E+00 
    9.5312500000011835E-01     0.0000000000000000E+00     0.0000000000000000E+00 
    9.6875000000005151E-01     0.0000000000000000E+00     0.0000000000000000E+00 
    9.8437500000003086E-01     0.0000000000000000E+00     0.0000000000000000E+00 
    1.0000000000000000E+00     1.5624999999971041E-02     0.0000000000000000E+00 
    1.0000000000000000E+00     3.1249999999936742E-02     0.0000000000000000E+00 
    1.0000000000000000E+00     4.6874999999913257E-02     0.0000000000000000E+00 
    1.0000000000000000E+00     6.2499999999889783E-02     0.0000000000000000E+00 
    1.0000000000000000E+00     7.8124999999844805E-02     0.0000000000000000E+00 
    1.0000000000000000E+00     9.3749999999799827E-02     0.0000000000000000E+00 
    1.0000000000000000E+00     1.0937499999975490E-01     0.0000000000000000E+00 
    1.0000000000000000E+00     1.2499999999970990E-01     0.0000000000000000E+00 
    1.0000000000000000E+00     1.4062499999966460E-01     0.0000000000000000E+00 
    1.0000000000000000E+00     1.5624999999961930E-01     0.0000000000000000E+00 
    1.0000000000000000E+00     1.7187499999957390E-01     0.0000000000000000E+00 
    1.0000000000000000E+00     1.8749999999952860E-01     0.0000000000000000E+00 
    1.0000000000000000E+00     2.0312499999948330E-01     0.0000000000000000E+00 
    1.0000000000000000E+00     2.1874999999943801E-01     0.0000000000000000E+00 
    1.0000000000000000E+00     2.3437499999939271E-01     0.0000000000000000E+00 
    1.0000000000000000E+00     2.4999999999934730E-01     0.0000000000000000E+00 
    1.0000000000000000E+00     2.6562499999938810E-01     0.0000000000000000E+00 
    1.0000000000000000E+00     2.8124999999942890E-01     0.0000000000000000E+00 
    1.0000000000000000E+00     2.9687499999946970E-01     0.0000000000000000E+00 
    1.0000000000000000E+00     3.1249999999951050E-01     0.0000000000000000E+00 
    1.0000000000000000E+00     3.2812499999955130E-01     0.0000000000000000E+00 
    1.0000000000000000E+00     3.4374999999959210E-01     0.0000000000000000E+00 
    1.0000000000000000E+00     3.5937499999963290E-01     0.0000000000000000E+00 
    1.0000000000000000E+00     3.7499999999967371E-01     0.0000000000000000E+00 
    1.0000000000000000E+00     3.9062499999971451E-01     0.0000000000000000E+00 
    1.0000000000000000E+00     4.0624999999975520E-01     0.0000000000000000E+00 
    1.0000000000000000E+00     4.2187499999979600E-01     0.0000000000000000E+00 
    1.0000000000000000E+00     4.3749999999983680E-01     0.0000000000000000E+00 
    1.0000000000000000E+00     4.5312499999987760E-01     0.0000000000000000E+00 
    1.0000000000000000E+00     4.6874999999991840E-01     0.0000000000000000E+00 
    1.0000000000000000E+00     4.8437499999995920E-01     0.0000000000000000E+00 
    1.0000000000000000E+00     5.1562499999992384E-01     0.0000000000000000E+00 
    1.0000000000000000E+00     5.3124999999985478E-01     0.0000000000000000E+00 
    1.0000000000000000E+00     5.4687499999994527E-01     0.0000000000000000E+00 
    1.0000000000000000E+00     5.6249999999998668E-01     0.0000000000000000E+00 
    1.0000000000000000E+00     5.7812499999998068E-01     0.0000000000000000E+00 
    1.0000000000000000E+00     5.9374999999994749E-01     0.0000000000000000E+00 
    1.0000000000000000E+00     6.0937499999997913E-01     0.0000000000000000E+00 
    1.0000000000000000E+00     6.2500000000000000E-01     0.0000000000000000E+00 
    1.0000000000000000E+00     6.4062499999998945E-01     0.0000000000000000E+00 
    1.0000000000000000E+00     6.5624999999996603E-01     0.0000000000000000E+00 
    1.0000000000000000E+00     6.7187499999995337E-01     0.0000000000000000E+00 
    1.0000000000000000E+00     6.8749999999998734E-01     0.0000000000000000E+00 
    1.0000000000000000E+00     7.0312499999998124E-01     0.0000000000000000E+00 
    1.0000000000000000E+00     7.1874999999997025E-01     0.0000000000000000E+00 
    1.0000000000000000E+00     7.3437499999999034E-01     0.0000000000000000E+00 
    1.0000000000000000E+00     7.5000000000000000E-01     0.0000000000000000E+00 
    1.0000000000000000E+00     7.6562499999996902E-01     0.0000000000000000E+00 
    1.0000000000000000E+00     7.8124999999993228E-01     0.0000000000000000E+00 
    1.0000000000000000E+00     7.9687499999989997E-01     0.0000000000000000E+00 
[...]
CELL_DATA 2084 
SCALARS Pressure double 1 
LOOKUP_TABLE default 

    3.1294196296651591E+00 
    3.2182073355577812E+00 
    3.9750263369016774E+00 
    3.2206783873849436E+00 
    3.6082151874174762E+00 
    3.4342007562137682E+00 
    3.0444194632755446E+00 
    3.3770990375922154E+00 
    3.4148327603826747E+00 
    3.6261074433197500E+00 
    3.9478607989953169E+00 
    3.0871254161732899E+00 
    3.3390432724669110E+00 
    3.2056181641375123E+00 
    3.1141219598074041E+00 
    3.1721392027860782E+00 
    3.7687438467654886E+00 
    3.2732178505934275E+00 
    4.0972127713057969E+00 
    3.1515297151389090E+00 
    3.1632540512519927E+00 
    3.5389021567978101E+00 
    3.1670407473933091E+00 
    3.3247244356364387E+00 
    3.1399655607626542E+00 
    3.3283081997011497E+00 
    3.1936937028290542E+00 
    3.0552871784486939E+00 
    3.3531834755790775E+00 
    3.2369703920580162E+00 
    3.0233015078982870E+00 
    3.3795699906368415E+00 
    2.9895606129439019E+00 
    3.1609860825028480E+00 
    3.0983136670316980E+00 
    3.5830239884888897E+00 
    3.2551384612120504E+00 
    3.2406426502006411E+00 
    3.5388918266698783E+00 
    3.3835526654816976E+00 
    3.0616232979168556E+00 
    3.6450295881427923E+00 
    3.1379838733651639E+00 
    3.4604076849922150E+00 
    3.4307544161819159E+00 
    3.0846552675844259E+00 
    3.6385913486914201E+00 
    3.0352920456749688E+00 
    3.0411216802784340E+00 
    3.3405542763988407E+00 
    3.3312110598277709E+00 
    3.0519451228900016E+00 
    3.0812298772792874E+00 
    3.2842242024907335E+00 
    3.2878960466900353E+00 
    3.0610354054465265E+00 
    3.0045851624823490E+00 
    3.4851661419751663E+00 
    3.5295838741816783E+00 
    3.3131525617162922E+00 
    3.3076170405003595E+00 
    3.1497854943769124E+00 
    3.0932079868973275E+00 
    3.1988962914276935E+00 
    3.6278762118496855E+00 
    3.2984223497428493E+00 
    3.4149784006447250E+00 
    3.0786105317633501E+00 
    3.0382666917410726E+00 
    3.0357788528722227E+00 
    3.1311874305413649E+00 
    4.2400142847175832E+00 
    3.3312452760813116E+00 
    3.8724812275096552E+00 
    3.5150891875618524E+00 
    3.8618488898320251E+00 
    3.3157047923693632E+00 
    3.5947869918580548E+00 
    3.0851432781477111E+00 
    3.6664210797852617E+00 
    3.1694804291116725E+00 
    3.3818552226149752E+00 
    3.4803847028676911E+00 
    3.0207942974280724E+00 
    3.4338912901570042E+00 
    3.1630676064472900E+00 
    3.2647193909518446E+00 
    3.4428266686906275E+00 
    3.5193152392576215E+00 
    3.4849571055015569E+00 
    3.4172949374805817E+00 
    3.4044018873274609E+00 
    3.1795539172684419E+00 
    3.4785914248877763E+00 
    3.2722952546127786E+00 
    3.0528806356052045E+00 
    3.2241683808410215E+00 
    3.3573207748131297E+00 
    3.5688767201459073E+00 
    3.2369002727535570E+00 
    3.6172850621631794E+00 
    3.4699353201203031E+00 
    3.5307112753645349E+00 
    3.5355946226776598E+00 
    3.2739104534784293E+00 
    3.4764234114185575E+00 
    3.3743921843266715E+00 
    3.5719399590128491E+00 
    3.1198001700515894E+00 
    4.4017948819480823E+00 
    3.1852135243748680E+00 
    3.3536430731936564E+00 
    3.4662601590450572E+00 
    3.6857248751983072E+00 
    3.9211235779540399E+00 
    3.2033483030241401E+00 
    3.4788067710004267E+00 
    3.4660874875683683E+00 
    3.2440743941982269E+00 
    3.1461531461518590E+00 
    3.2961308118061288E+00 
    3.5258775250016119E+00 
    3.1467486599251804E+00 
    3.8049625237219700E+00 
    3.3691450480301293E+00 
    3.5272514049920463E+00 
    3.3024507052527281E+00 
    3.1469608619082883E+00 
    3.2575804805750934E+00 
    3.1693008192720198E+00 
    3.9039364969521753E+00 
    3.9615391961731290E+00 
    3.0694271858613145E+00 
    3.6279423597302056E+00 
    3.5704721193688687E+00 
    3.3069400499857622E+00 
    3.4956831847142884E+00 
    3.1430976063929381E+00 
    3.5640703789644479E+00 
    3.8304073794734701E+00 
    3.4282332492493803E+00 
    4.0267269356407409E+00 
    3.8746867873740847E+00 
    3.3697013603826345E+00 
    3.2052834674350223E+00 
    3.3555546195295944E+00 
    3.4713876086585840E+00 
    3.5587327365093424E+00 
    3.2723097828678456E+00 
    3.4240922859282334E+00 
    3.4439884860615213E+00 
    3.8346108306691824E+00 
    4.1809054424229268E+00 
    3.2712656118464438E+00 
    3.3034697456924031E+00 
    4.0981087048229128E+00 
    3.1659658956615124E+00 
    3.4548408308613427E+00 
    3.2876829142263588E+00 
    3.8029966118790708E+00 
    4.7611399729602155E+00 
    4.4854474176359105E+00 
    4.1931784739540294E+00 
    4.2946416367680129E+00 
    4.0599996140643313E+00 
    4.1405214878934133E+00 
    3.4632292507783631E+00 
    4.3579495024962105E+00 
    3.4309132903775694E+00 
    4.1078465922213780E+00 
    3.4321471926245000E+00 
    3.7735162596879013E+00 
    3.8529237575281488E+00 
    3.5842155331512462E+00 
    3.7413438465337157E+00 
    3.2319188869113757E+00 
    3.7544889571480855E+00 
    3.3965805209614173E+00 
    3.4249372249231502E+00 
    3.4206843594206826E+00 
    3.5135310957581161E+00 
    3.2269108776417972E+00 
    3.7767932525796342E+00 
    3.5233147937564495E+00 
    3.5087365913228048E+00 
    2.9998672856509776E+00 
    3.6059588852760665E+00 
    3.8830033171961000E+00 
    3.2527720442095087E+00 
    3.6963681861768327E+00 
    3.9517248664112836E+00 
    4.0561957318243831E+00 
    3.5156004970010657E+00 
    3.3070047123237591E+00 
    3.1979312795154979E+00 
    3.2609531354098715E+00 
    3.6348927390187327E+00 
    3.4851242791509671E+00 
    3.2950454232993578E+00 
    3.6537243459713569E+00 
    3.3951757732705286E+00 
    3.2686103894407519E+00 
    3.5137550710906278E+00 
    3.0888042206764741E+00 
    3.2658012363312321E+00 
    3.9685741229913782E+00 
    3.6320028055250337E+00 
    3.2367345281934856E+00 
    3.7325440673064669E+00 
    3.6988731742541194E+00 
    3.2834033398269908E+00 
    3.3574917044302675E+00 
    3.3792563102094260E+00 
    3.5915199145390950E+00 
    3.5761864731621618E+00 
    3.8515337112711379E+00 
    3.3400463247627941E+00 
    3.5790924903720072E+00 
    3.6381830630077334E+00 
    3.3008497168955202E+00 
    3.3256453083650688E+00 
    2.9768905538863333E+00 
    3.3075594538974129E+00 
    4.0123440564646131E+00 
    3.4834458560776973E+00 
    3.5735533874955987E+00 
    3.3955697998030803E+00 
    3.5745780966901513E+00 
    3.2610371410511791E+00 
    3.2185049062633855E+00 
    3.1358581295089167E+00 
    3.2503438922268950E+00 
    3.1499691101124312E+00 
    3.3429235007069051E+00 
    3.5202121812814520E+00 
    3.1911422453575975E+00 
    3.7080788646395488E+00 
    3.7169828785733494E+00 
    3.3307854492562647E+00 
    3.2220677089905205E+00 
    3.5201823264353265E+00 
    3.2833384816801763E+00 
    3.1106569501615566E+00 
    3.2615898641980765E+00 
    3.1314513228555185E+00 
    3.1294454104826754E+00 
    3.2994484614807189E+00 
    3.4673127481983479E+00 
    3.7916211317368131E+00 
    3.0957176673227682E+00 
    3.2544954445214200E+00 
    3.1810517739948652E+00 
    3.2535212460510139E+00 
    4.2390559433496300E+00 
    3.1459305756773084E+00 
    3.3770828517843574E+00 
    3.1793682582057721E+00 
    3.3045464618453559E+00 
    3.2104668400465952E+00 
    3.3354357396109551E+00 
    3.1809825755911754E+00 
    3.3218311899845774E+00 
    3.2169498268396706E+00 
    3.3336363135140936E+00 
    3.2009392323295383E+00 
    3.1985644731556770E+00 
    3.1280180546236251E+00 
    3.1592342883391744E+00 
    3.7081592980778950E+00 
    3.0698259872686733E+00 
    3.0968365308564141E+00 
    3.2386163577942564E+00 
    3.1926624771265364E+00 
    4.5949478251355433E+00 
    3.2508281201995550E+00 
    3.5854838615676599E+00 
    3.2257770168444879E+00 
    3.0532647639042469E+00 
    3.2933741980660143E+00 
    3.1622417228567836E+00 
    3.3443480823819400E+00 
    3.2023193228940294E+00 
    3.2033146604700145E+00 
    3.2432145754331865E+00 
    3.1378802868003013E+00 
    3.2496789327517073E+00 
    3.2073952406661750E+00 
    3.0699499924941502E+00 
    3.1711081512273864E+00 
    3.1707584375362479E+00 
    3.2315140022482178E+00 
    3.0480958981870665E+00 
    3.1843355650822449E+00 
    3.2326156404610451E+00 
    3.3420567221728792E+00 
    3.1405667778047190E+00 
    3.1062481284183474E+00 
    3.6344084638495797E+00 
    3.1424845519540594E+00 
    3.4212860929009601E+00 
    4.5567883535111262E+00 
    3.6804995291979878E+00 
    3.4237563023199797E+00 
    3.7745390258920870E+00 
    3.1929932573859401E+00 
    3.1715586211339706E+00 
    3.1023022797259308E+00 
    3.1127677988439957E+00 
    3.1156640650230756E+00 
    3.0979671506771140E+00 
    3.7883608537291407E+00 
    3.1112355967662784E+00 
    3.2955432155789137E+00 
    3.6992745685605706E+00 
    3.3402291975190068E+00 
    3.1411073546184825E+00 
    3.5591915780982655E+00 
    3.0882831443033361E+00 
    3.0891580136997434E+00 
    3.1178109234332325E+00 
    4.4127854712067487E+00 
    3.4709753603518130E+00 
    3.7419999903630825E+00 
    3.7671267287615118E+00 
    3.3751430599554335E+00 
    3.6428598862825119E+00 
    3.1547255387289819E+00 
    2.9583212255653040E+00 
    4.9597531132838517E+00 
    3.0205700684646160E+00 
    3.0648703378244950E+00 
    3.0628269195738991E+00 
    3.4284647495111655E+00 
    3.6956640043587918E+00 
    2.9571887482693908E+00 
    3.9320340006342072E+00 
    4.0328771451330541E+00 
    3.3779786190894199E+00 
    3.2049735826821464E+00 
    3.8704182983250539E+00 
    3.3853331081366602E+00 
    3.1219017007465855E+00 
    3.7405348644989593E+00 
    3.0413668307062549E+00 
    3.0382794550233072E+00 
    3.4192247520929233E+00 
    3.2342419893099517E+00 
    2.9799486682346603E+00 
    3.2058599638074115E+00 
    3.0025313609331992E+00 
    3.8260313659527112E+00 
    3.0198912910190225E+00 
    3.1721809348931300E+00 
    3.6871343948755704E+00 
    3.2362755757948825E+00 
    3.3859014265869516E+00 
    3.0153224714269817E+00 
    3.3123507020372140E+00 
    3.3303011425166194E+00 
    3.1251832735696787E+00 
    3.2347051176333492E+00 
    3.7159219649054589E+00 
    3.0015904050919828E+00 
    3.2276461774895728E+00 
    3.1417923951025859E+00 
    3.1407947556567657E+00 
    3.2882249387540856E+00 
    3.1213111949055450E+00 
    3.2549364073760763E+00 
    3.7712202371311965E+00 
    3.8391678312756001E+00 
    2.9942359373316503E+00 
    4.6302941690134762E+00 
    3.3051770144178905E+00 
    3.1836134088613881E+00 
    3.9692278060955428E+00 
    3.4003804248334841E+00 
    3.4596436089496274E+00 
    3.1388397011573477E+00 
    3.1137794945287833E+00 
    3.5341865238330561E+00 
    3.3792210469822943E+00 
    2.9811664477341098E+00 
    3.1371449061410490E+00 
    4.1026432107245725E+00 
    3.3618846800948208E+00 
    3.6597148202885190E+00 
    3.4209049667386280E+00 
    3.7182952810561183E+00 
    3.5339646232498114E+00 
    2.9762883858793017E+00 
    3.0730194823949590E+00 
    3.2138840662534389E+00 
    3.8461452705660499E+00 
    3.6509649668389468E+00 
    3.2016545972835950E+00 
    3.1170364694312434E+00 
    3.1961911679021817E+00 
    3.1544981017770435E+00 
    3.5871544106360806E+00 
    3.1306743955016718E+00 
    3.4552508553663541E+00 
    4.3014756115878079E+00 
    3.1085051476888235E+00 
    4.1267539718159814E+00 
    3.2670145047782917E+00 
    4.2002338748464778E+00 
    3.6956610618838956E+00 
    4.7983088049024065E+00 
    3.1761090670578604E+00 
    3.6422011633760802E+00 
    3.3328733957191177E+00 
    3.0982717294614304E+00 
    3.7601401273587651E+00 
    3.3023540345997522E+00 
    3.8007491096220956E+00 
    3.1100658368826020E+00 
    3.6533390658743250E+00 
    3.2719393344376071E+00 
    3.3908696124721627E+00 
    3.0177147152349360E+00 
    3.1217778175057544E+00 
    3.0835301197784344E+00 
    3.9439286861282707E+00 
    3.1825291980936976E+00 
    4.2549344175352459E+00 
    4.0235801094102506E+00 
    3.1482661587743626E+00 
    3.2627754237890687E+00 
    3.2149783011229598E+00 
    3.0117553609583543E+00 
    3.2830409043833391E+00 
    3.7124841611166155E+00 
    3.1440007398238570E+00 
    3.0362174017221122E+00 
    4.3969506572265056E+00 
    3.5871558352271329E+00 
    2.9589545629274610E+00 
    2.9576703364637877E+00 
    3.0678187730119326E+00 
    3.0870724321073695E+00 
    3.0306054082094516E+00 
    3.0031840425685488E+00 
    3.2009452099284266E+00 
    3.1687001031323896E+00 
    2.9407117831966350E+00 
    2.9402289967836519E+00 
    2.8560322661238291E+00 
    2.7197328982278326E+00 
    2.7144438551540602E+00 
    2.7470476868703537E+00 
    2.7616717439768621E+00 
    2.7680120501271954E+00 
    2.8874480909681584E+00 
    2.6809440655034553E+00 
    2.8584860091260733E+00 
    2.6975685426218661E+00 
    2.8118611962880311E+00 
    2.7488354875644108E+00 
    2.7534239118014852E+00 
    2.7244564785465619E+00 
    2.6912367540258368E+00 
    2.9975831773631052E+00 
    2.8857027087936382E+00 
    2.9555989893199213E+00 
    2.8709878713203514E+00 
    2.7932092922034610E+00 
    2.7037640446218303E+00 
    2.6790632168670050E+00 
    2.9931941254943641E+00 
    2.8192678464621541E+00 
    2.6761700116076068E+00 
    2.7608597979551401E+00 
    2.9219872503272404E+00 
    2.9220385073601616E+00 
    2.6523791554787750E+00 
    2.6787075561539870E+00 
    2.8227143640866101E+00 
    2.9483285315352092E+00 
    2.8920675282471060E+00 
    2.7814169444676105E+00 
    2.7245074220508663E+00 
    3.0218352793512042E+00 
    2.9622005808835747E+00 
    2.9217155132845161E+00 
    3.0692674628562737E+00 
    2.7236909296234484E+00 
    2.7543726404675288E+00 
    2.7435228664935392E+00 
    2.9803351539193628E+00 
    2.7534179378629053E+00 
    2.9364289763164955E+00 
    2.8378548280434064E+00 
    2.8329046404278451E+00 
    2.8164246008152944E+00 
    2.8063493292881421E+00 
    2.9565580914185827E+00 
    2.9506465966185784E+00 
    2.8223422452923312E+00 
    2.7105523423921563E+00 
    2.8018856959303089E+00 
    2.7926841991694964E+00 
    2.6779772966503739E+00 
    2.8946585908451863E+00 
    2.6838007073634773E+00 
    2.9571364269241154E+00 
    2.6970130652428383E+00 
    2.8576724899090409E+00 
    2.7375762209917172E+00 
    2.6495984846478664E+00 
    2.6495371077611747E+00 
    2.6566994934417405E+00 
    2.6634369177985162E+00 
    2.7978068480265188E+00 
    2.6626635184428462E+00 
    2.7004421483827072E+00 
    2.7121323355851676E+00 
    3.0387482757183313E+00 
    2.8112841855854915E+00 
    2.6882369776812296E+00 
    2.9571301661964950E+00 
    2.7659180054453936E+00 
    2.7432089808314348E+00 
    2.9034138103217488E+00 
    3.0303485746066121E+00 
    2.8712335190098881E+00 
    2.8766488135718316E+00 
    2.8202063393200216E+00 
    2.8536553669293196E+00 
    2.9227876901405483E+00 
    2.9191987228180785E+00 
    2.9082691501884037E+00 
    2.9231020742396976E+00 
    2.8370137012215690E+00 
    2.9388886758171995E+00 
    2.9384717513572918E+00 
    2.8635840355967974E+00 
    2.8842722642941880E+00 
    3.0028829784940307E+00 
    2.9215991302961042E+00 
    2.9451420160376212E+00 
    3.0125408495096582E+00 
    2.7650787392639677E+00 
    2.7401422976921697E+00 
    2.8655476637282766E+00 
    2.9601412144763835E+00 
    3.0325232260159320E+00 
    2.9525292734627131E+00 
    2.6536180558469749E+00 
    2.7316442915008325E+00 
    2.8537349011140924E+00 
    2.7891620127808423E+00 
    2.7133150798168000E+00 
    2.9228052329689524E+00 
    2.8576330510999246E+00 
    2.6917064078557620E+00 
    2.8970367601623170E+00 
    2.7183558075602883E+00 
    2.7416288930324493E+00 
    2.7319156350671974E+00 
    2.8650915505794474E+00 
    2.9428604227710662E+00 
    2.9919903312553933E+00 
    2.9075986535039511E+00 
    2.9813114697289516E+00 
    2.7091138231231517E+00 
    2.6973160690362552E+00 
    2.9915510860643777E+00 
    2.9111122832258420E+00 
    2.6511994536794674E+00 
    2.6513845150009092E+00 
    3.0164254918073410E+00 
    2.8354830445566663E+00 
    2.9240138553838109E+00 
    2.8612721934070731E+00 
    2.7685060534772759E+00 
    2.8656221455506752E+00 
    2.8932017959367946E+00 
    2.8326831643913457E+00 
    2.8174780452578840E+00 
    2.8165973919609932E+00 
    2.6642120251587507E+00 
    2.9719514217538832E+00 
    3.0711802863837168E+00 
    2.6658247038188083E+00 
    2.6657853171036026E+00 
    2.6636209334081484E+00 
    2.6639286736179257E+00 
    2.6582279837139127E+00 
    2.9248206678672681E+00 
    2.7778250712088686E+00 
    2.6701304796514078E+00 
    2.8869104152547007E+00 
    2.8911227918688591E+00 
    2.7758996103809057E+00 
    2.7941535766100287E+00 
    2.7742200002032766E+00 
    2.8255241157900990E+00 
    2.9794587522365994E+00 
    2.6654720357799842E+00 
    2.6652302827722725E+00 
    2.7218911661798200E+00 
    2.8115841031402997E+00 
    2.9374429212453519E+00 
    2.7040391639462351E+00 
    2.9878388831761531E+00 
    2.6576243560038151E+00 
    2.7814680956084588E+00 
    2.6472918327096346E+00 
    2.6472722301543339E+00 
    2.6726568382925837E+00 
    2.9913811195398745E+00 
    2.8596484989063091E+00 
    2.7895287351479632E+00 
    2.8356656098866670E+00 
    2.8886794632344026E+00 
    2.6552418780104294E+00 
    2.7809794177279472E+00 
    2.8555492562646640E+00 
    2.9926263963042548E+00 
    2.9586100232506372E+00 
    2.9526449600905340E+00 
    2.9929824711969126E+00 
    3.0086402786433202E+00 
    2.8261137167149757E+00 
    2.7110477207545958E+00 
    2.8868409117222313E+00 
    2.8842828778575167E+00 
    2.7858619349624978E+00 
    2.6574194534655549E+00 
    2.8791177152922800E+00 
    2.9145324607905017E+00 
    2.9339825761482712E+00 
    2.9053139838799069E+00 
    2.6531016689143763E+00 
    2.8935234501761444E+00 
    2.8827892280662071E+00 
    2.6658351677666103E+00 
    2.7193220772759501E+00 
    2.8571138723703173E+00 
    2.8981866296208394E+00 
    2.8847254671834439E+00 
    2.9031351310803375E+00 
    2.9026489396744837E+00 
    2.9782156808739169E+00 
    2.8721113310405832E+00 
    2.9336818203235686E+00 
    2.8430023098886097E+00 
    2.8792141238140343E+00 
    2.6627288065827046E+00 
    3.0242298817914572E+00 
    2.9770371171293455E+00 
    3.0079131824229290E+00 
    2.7699146136559589E+00 
    2.7458625435858468E+00 
    2.7290809409584815E+00 
    2.9187892716297021E+00 
    2.8633306099753746E+00 
    2.9253420369231016E+00 
    2.7656145964608343E+00 
    2.6697917792400765E+00 
    2.6977184111402415E+00 
    2.9561285876785299E+00 
    2.6932480036715263E+00 
    2.8229005170151886E+00 
    2.7432628677635638E+00 
    2.9510306001585156E+00 
    2.8576013590417548E+00 
    2.8238061888066270E+00 
    3.0090999237888973E+00 
    2.9903983340112319E+00 
    2.7902483814341834E+00 
    2.7708485675658916E+00 
    2.7279107920213561E+00 
    2.8040421290245137E+00 
    2.9235229141856767E+00 
    2.6583119071581041E+00 
    2.9737441598253693E+00 
    3.0074709132770137E+00 
    2.7867811258136568E+00 
    2.7753395262202365E+00 
    2.6863011640171801E+00 
    2.6593211308860232E+00 
    2.9959324951941930E+00 
    2.7585258247612359E+00 
    2.8714285302320057E+00 
    2.7922362787706216E+00 
    2.8799986303472460E+00 
    2.6987702983895292E+00 
    2.8336021722135873E+00 
    2.9994936063676354E+00 
    2.7437321601514006E+00 
    2.8065353573288352E+00 
    2.7145503719392328E+00 
    2.8091661684476796E+00 
    3.0125041296709867E+00 
    2.7509055296940739E+00 
    2.8689504089383582E+00 
    2.7551432910384550E+00 
    2.6713444697094242E+00 
    2.9014132226620499E+00 
    2.9013211517158322E+00 
    2.8695828909288377E+00 
    2.7516096637835048E+00 
    2.7490640628425185E+00 
    2.6819108533518952E+00 
    2.8610120526041793E+00 
    2.9008464160216350E+00 
    2.8284521117780757E+00 
    2.6987074759721508E+00 
    2.7378020554250129E+00 