# vtk DataFile Version 2.0
Pressure Field Data 
ASCII 
DATASET UNSTRUCTURED_GRID 

POINTS 2213 double 

    0.0000000000000000E+00     0.0000000000000000E+00     0.0000000000000000E+00 
    5.0000000000000000E-01     0.0000000000000000E+00     0.0000000000000000E+00 
    1.0000000000000000E+00     0.0000000000000000E+00     0.0000000000000000E+00 
    1.0000000000000000E+00     5.0000000000000000E-01     0.0000000000000000E+00 
    1.0000000000000000E+00     1.0000000000000000E+00     0.0000000000000000E+00 
    5.0000000000000000E-01     1.0000000000000000E+00     0.0000000000000000E+00 
    0.0000000000000000E+00     1.0000000000000000E+00     0.0000000000000000E+00 
    0.0000000000000000E+00     5.0000000000000000E-01     0.0000000000000000E+00 
    1.5624999999971041E-02     0.0000000000000000E+00     0.0000000000000000E+00 
    3.1249999999936742E-02     0.0000000000000000E+00     0.0000000000000000E+00 
    4.6874999999913257E-02     0.0000000000000000E+00     0.0000000000000000E+00 
    6.2499999999889783E-02     0.0000000000000000E+00     0.0000000000000000E+00 
    7.8124999999844805E-02     0.0000000000000000E+00     0.0000000000000000E+00 
    9.3749999999799827E-02     0.0000000000000000E+00     0.0000000000000000E+00 
    1.0937499999975490E-01     0.0000000000000000E+00     0.0000000000000000E+00 
    1.2499999999970990E-01     0.0000000000000000E+00     0.0000000000000000E+00 
    1.4062499999966460E-01     0.0000000000000000E+00     0.0000000000000000E+00 
    1.5624999999961930E-01     0.0000000000000000E+00     0.0000000000000000E+00 
    1.7187499999957390E-01     0.0000000000000000E+00     0.0000000000000000E+00 
    1.8749999999952860E-01     0.0000000000000000E+00     0.0000000000000000E+00 
    2.0312499999948330E-01     0.0000000000000000E+00     0.0000000000000000E+00 
    2.1874999999943801E-01     0.0000000000000000E+00     0.0000000000000000E+00 
    2.3437499999939271E-01     0.0000000000000000E+00     0.0000000000000000E+00 
    2.4999999999934730E-01     0.0000000000000000E+00     0.0000000000000000E+00 
    2.6562499999938810E-01     0.0000000000000000E+00     0.0000000000000000E+00 
    2.8124999999942890E-01     0.0000000000000000E+00     0.0000000000000000E+00 
    2.9687499999946970E-01     0.0000000000000000E+00     0.0000000000000000E+00 
    3.1249999999951050E-01     0.0000000000000000E+00     0.0000000000000000E+00 
    3.2812499999955130E-01     0.0000000000000000E+00     0.0000000000000000E+00 
    3.4374999999959210E-01     0.0000000000000000E+00     0.0000000000000000E+00 
    3.5937499999963290E-01     0.0000000000000000E+00     0.0000000000000000E+00 
    3.7499999999967371E-01     0.0000000000000000E+00     0.0000000000000000E+00 
    3.9062499999971451E-01     0.0000000000000000E+00     0.0000000000000000E+00 
    4.0624999999975520E-01     0.0000000000000000E+00     0.0000000000000000E+00 
    4.2187499999979600E-01     0.0000000000000000E+00     0.0000000000000000E+00 
    4.3749999999983680E-01     0.0000000000000000E+00     0.0000000000000000E+00 
    4.5312499999987760E-01     0.0000000000000000E+00     0.0000000000000000E+00 
    4.6874999999991840E-01     0.0000000000000000E+00     0.0000000000000000E+00 
    4.8437499999995920E-01     0.0000000000000000E+00     0.0000000000000000E+00 
    5.1562499999992384E-01     0.0000000000000000E+00     0.0000000000000000E+00 
    5.3124999999985478E-01     0.0000000000000000E+00     0.0000000000000000E+00 
    5.4687499999994527E-01     0.0000000000000000E+00     0.0000000000000000E+00 
    5.6249999999998668E-01     0.0000000000000000E+00     0.0000000000000000E+00 
    5.7812499999998068E-01     0.0000000000000000E+00     0.0000000000000000E+00 
    5.9374999999994749E-01     0.0000000000000000E+00     0.0000000000000000E+00 
    6.0937499999997913E-01     0.0000000000000000E+00     0.0000000000000000E+00 
    6.2500000000000000E-01     0.0000000000000000E+00     0.0000000000000000E+00 
    6.4062499999998945E-01     0.0000000000000000E+00     0.0000000000000000E+00 
    6.5624999999996603E-01     0.0000000000000000E+00     0.0000000000000000E+00 
    6.7187499999995337E-01     0.0000000000000000E+00     0.0000000000000000E+00 
    6.8749999999998734E-01     0.0000000000000000E+00     0.0000000000000000E+00 
    7.0312499999998124E-01     0.0000000000000000E+00     0.0000000000000000E+00 
    7.1874999999997025E-01     0.0000000000000000E+00     0.0000000000000000E+00 
    7.3437499999999034E-01     0.0000000000000000E+00     0.0000000000000000E+00 
    7.5000000000000000E-01     0.0000000000000000E+00     0.0000000000000000E+00 
    7.6562499999996902E-01     0.0000000000000000E+00     0.0000000000000000E+00 
    7.8124999999993228E-01     0.0000000000000000E+00     0.0000000000000000E+00 
    7.9687499999989997E-01     0.0000000000000000E+00     0.0000000000000000E+00 
    8.1249999999996247E-01     0.0000000000000000E+00     0.0000000000000000E+00 
    8.2812499999999578E-01     0.0000000000000000E+00     0.0000000000000000E+00 
    8.4374999999999556E-01     0.0000000000000000E+00     0.0000000000000000E+00 
    8.5937500000000111E-01     0.0000000000000000E+00     0.0000000000000000E+00 
    8.7499999999997691E-01     0.0000000000000000E+00     0.0000000000000000E+00 
    8.9062500000000921E-01     0.0000000000000000E+00     0.0000000000000000E+00 
    9.0625000000004452E-01     0.0000000000000000E+00     0.0000000000000000E+00 
    9.2187500000005529E-01     0.0000000000000000E+00     0.0000000000000000E+00 
    9.3750000000012723E-01     0.0000000000000000E+00     0.0000000000000000E+00 
    9.5312500000011835E-01     0.0000000000000000E+00     0.0000000000000000E+00 
    9.6875000000005151E-01     0.0000000000000000E+00     0.0000000000000000E+00 
    9.8437500000003086E-01     0.0000000000000000E+00     0.0000000000000000E+00 
    1.0000000000000000E+00     1.5624999999971041E-02     0.0000000000000000E+00 
    1.0000000000000000E+00     3.1249999999936742E-02     0.0000000000000000E+00 
    1.0000000000000000E+00     4.6874999999913257E-02     0.0000000000000000E+00 
    1.0000000000000000E+00     6.2499999999889783E-02     0.0000000000000000E+00 
    1.0000000000000000E+00     7.8124999999844805E-02     0.0000000000000000E+00 
    1.0000000000000000E+00     9.3749999999799827E-02     0.0000000000000000E+00 
    1.0000000000000000E+00     1.0937499999975490E-01     0.0000000000000000E+00 
    1.0000000000000000E+00     1.2499999999970990E-01     0.0000000000000000E+00 
    1.0000000000000000E+00     1.4062499999966460E-01     0.0000000000000000E+00 
    1.0000000000000000E+00     1.5624999999961930E-01     0.0000000000000000E+00 
    1.0000000000000000E+00     1.7187499999957390E-01     0.0000000000000000E+00 
    1.0000000000000000E+00     1.8749999999952860E-01     0.0000000000000000E+00 
    1.0000000000000000E+00     2.0312499999948330E-01     0.0000000000000000E+00 
    1.0000000000000000E+00     2.1874999999943801E-01     0.0000000000000000E+00 
    1.0000000000000000E+00     2.3437499999939271E-01     0.0000000000000000E+00 
    1.0000000000000000E+00     2.4999999999934730E-01     0.0000000000000000E+00 
    1.0000000000000000E+00     2.6562499999938810E-01     0.0000000000000000E+00 
    1.0000000000000000E+00     2.8124999999942890E-01     0.0000000000000000E+00 
    1.0000000000000000E+00     2.9687499999946970E-01     0.0000000000000000E+00 
    1.0000000000000000E+00     3.1249999999951050E-01     0.0000000000000000E+00 
    1.0000000000000000E+00     3.2812499999955130E-01     0.0000000000000000E+00 
    1.0000000000000000E+00     3.4374999999959210E-01     0.0000000000000000E+00 
    1.0000000000000000E+00     3.5937499999963290E-01     0.0000000000000000E+00 
    1.0000000000000000E+00     3.7499999999967371E-01     0.0000000000000000E+00 
    1.0000000000000000E+00     3.9062499999971451E-01     0.0000000000000000E+00 
    1.0000000000000000E+00     4.0624999999975520E-01     0.0000000000000000E+00 
    1.0000000000000000E+00     4.2187499999979600E-01     0.0000000000000000E+00 
    1.0000000000000000E+00     4.3749999999983680E-01     0.0000000000000000E+00 
    1.0000000000000000E+00     4.5312499999987760E-01     0.0000000000000000E+00 
    1.0000000000000000E+00     4.6874999999991840E-01     0.0000000000000000E+00 
    1.0000000000000000E+00     4.8437499999995920E-01     0.0000000000000000E+00 
    1.0000000000000000E+00     5.1562499999992384E-01     0.0000000000000000E+00 
    1.0000000000000000E+00     5.3124999999985478E-01     0.0000000000000000E+00 
    1.0000000000000000E+00     5.4687499999994527E-01     0.0000000000000000E+00 
    1.0000000000000000E+00     5.6249999999998668E-01     0.0000000000000000E+00 
    1.0000000000000000E+00     5.7812499999998068E-01     0.0000000000000000E+00 
    1.0000000000000000E+00     5.9374999999994749E-01     0.0000000000000000E+00 
    1.0000000000000000E+00     6.0937499999997913E-01     0.0000000000000000E+00 
    1.0000000000000000E+00     6.2500000000000000E-01     0.0000000000000000E+00 
    1.0000000000000000E+00     6.4062499999998945E-01     0.0000000000000000E+00 
    1.0000000000000000E+00     6.5624999999996603E-01     0.0000000000000000E+00 
    1.0000000000000000E+00     6.7187499999995337E-01     0.0000000000000000E+00 
    1.0000000000000000E+00     6.8749999999998734E-01     0.0000000000000000E+00 
    1.0000000000000000E+00     7.0312499999998124E-01     0.0000000000000000E+00 
    1.0000000000000000E+00     7.1874999999997025E-01     0.0000000000000000E+00 
    1.0000000000000000E+00     7.3437499999999034E-01     0.0000000000000000E+00 
    1.0000000000000000E+00     7.5000000000000000E-01     0.0000000000000000E+00 
    1.0000000000000000E+00     7.6562499999996902E-01     0.0000000000000000E+00 
    1.0000000000000000E+00     7.8124999999993228E-01     0.0000000000000000E+00 
    1.0000000000000000E+00     7.9687499999989997E-01     0.0000000000000000E+00 
[...]
CELL_DATA 2084 
SCALARS Pressure double 1 
LOOKUP_TABLE default 

    1.9289971823739089E+00 
    1.9529590149339096E+00 
    2.1276236470226357E+00 
    1.9536099478471447E+00 
    2.0482630553861916E+00 
    2.0081191496628956E+00 
    1.9050461153223792E+00 
    1.9943003286572401E+00 
    2.0034397324458961E+00 
    2.0522458342057419E+00 
    2.1219717630121169E+00 
    1.9173186998758516E+00 
    1.9844815996743699E+00 
    1.9506181339650843E+00 
    1.9247205221350256E+00 
    1.9415905888650380E+00 
    2.0836980548261903E+00 
    1.9683004632028185E+00 
    2.1531459578612862E+00 
    1.9348566830534575E+00 
    1.9380274000482436E+00 
    2.0325404352635115E+00 
    1.9401661016724918E+00 
    1.9809192689745321E+00 
    1.9317511853562745E+00 
    1.9822622895221640E+00 
    1.9466450334875067E+00 
    1.9079194333027438E+00 
    1.9883660846012239E+00 
    1.9587656599755363E+00 
    1.8986294939555695E+00 
    1.9948635409599587E+00 
    1.8886648938623003E+00 
    1.9373719536226737E+00 
    1.9203765219334694E+00 
    2.0425240848328339E+00 
    1.9635960663199090E+00 
    1.9598779610220414E+00 
    2.0325178960960004E+00 
    1.9957548000869763E+00 
    1.9099031993320610E+00 
    2.0565323480775688E+00 
    1.9319858319528833E+00 
    2.0142665976822589E+00 
    2.0072814837118713E+00 
    1.9160840460803286E+00 
    2.0550215776627443E+00 
    1.9024503998456712E+00 
    1.9039208942379982E+00 
    1.9851367575767818E+00 
    1.9828531880431330E+00 
    1.9072998764649194E+00 
    1.9159967644558715E+00 
    1.9710617522368157E+00 
    1.9720699272893556E+00 
    1.9101697393437294E+00 
    1.8930994211545251E+00 
    2.0200214015909479E+00 
    2.0302953608571297E+00 
    1.9781815339959083E+00 
    1.9770028396941624E+00 
    1.9354013896180722E+00 
    1.9191543770881445E+00 
    1.9485829935559242E+00 
    2.0527046127884847E+00 
    1.9745120832971375E+00 
    2.0032902136561126E+00 
    1.9147459029641622E+00 
    1.9030179679969692E+00 
    1.9021109867826387E+00 
    1.9300427696754381E+00 
    2.1826164392041449E+00 
    1.9829533855721939E+00 
    2.1059543831125511E+00 
    2.0269642268070718E+00 
    2.1034768913291519E+00 
    1.9790219202038277E+00 
    2.0452846048051505E+00 
    1.9170432510091819E+00 
    2.0612612233196135E+00 
    1.9407567125951355E+00 
    1.9954158634559380E+00 
    2.0188196613859142E+00 
    1.8979112925314496E+00 
    2.0078521292546152E+00 
    1.9388357042656343E+00 
    1.9659412371075338E+00 
    2.0100895827334275E+00 
    2.0280877674801858E+00 
    2.0200479526192860E+00 
    2.0039201962370408E+00 
    2.0007742942405824E+00 
    1.9424518496493908E+00 
    2.0183978531787412E+00 
    1.9679687731011331E+00 
    1.9070611863680631E+00 
    1.9554378176684355E+00 
    1.9892368766186264E+00 
    2.0394336500108712E+00 
    1.9586992286465306E+00 
    2.0503036553984200E+00 
    2.0163971687001521E+00 
    2.0305540000135469E+00 
    2.0317657542682870E+00 
    1.9683477722309215E+00 
    2.0179044031898736E+00 
    1.9934577225250016E+00 
    2.0400731985844005E+00 
    1.9269921778568651E+00 
    2.2144185740019737E+00 
    1.9449494740247750E+00 
    1.9883901387632232E+00 
    2.0157086615679725E+00 
    2.0654995214676277E+00 
    2.1160231045762110E+00 
    1.9499449464229990E+00 
    2.0185076070412804E+00 
    2.0155698909037332E+00 
    1.9605290362511398E+00 
    1.9329227655059753E+00 
    1.9740020109419230E+00 
    2.0294501771660443E+00 
    1.9331287143676044E+00 
    2.0913260206686735E+00 
    1.9923319674382070E+00 
    2.0299027544108950E+00 
    1.9757253240871362E+00 
    1.9331497637797888E+00 
    1.9639880917284747E+00 
    1.9404703355503139E+00 
    2.1124175238867893E+00 
    2.1244821996193508E+00 
    1.9117844942195297E+00 
    2.0526678575852975E+00 
    2.0396982496291147E+00 
    1.9767912083918189E+00 
    2.0225164426990534E+00 
    1.9320908301244146E+00 
    2.0382582087245247E+00 
    2.0967793897295195E+00 
    2.0064664805821053E+00 
    2.1380668626694277E+00 
    2.1061952426597732E+00 
    1.9922423355711283E+00 
    1.9502341094576872E+00 
    1.9886051312593489E+00 
    2.0167238115695487E+00 
    2.0370996414226186E+00 
    1.9679937349541787E+00 
    2.0054478986555813E+00 
    2.0104051190628875E+00 
    2.0977095730081143E+00 
    2.1697424375896808E+00 
    1.9674610431975541E+00 
    1.9754685285285851E+00 
    2.1530455392954142E+00 
    1.9396945099994618E+00 
    2.0129229608959922E+00 
    1.9713787114607377E+00 
    2.0909376990224926E+00 
    2.2942025104372532E+00 
    2.2336899767618097E+00 
    2.1733935190473535E+00 
    2.1937535110087292E+00 
    2.1455617172423822E+00 
    2.1618208320581282E+00 
    2.0148246374294660E+00 
    2.2078026189903257E+00 
    2.0070549010430438E+00 
    2.1547886290644955E+00 
    2.0073394229732955E+00 
    2.0846050399798579E+00 
    2.1018073021656103E+00 
    2.0427911070707561E+00 
    2.0776191017803800E+00 
    1.9573983688134411E+00 
    2.0804551186955100E+00 
    1.9988176488545948E+00 
    2.0056107475258922E+00 
    2.0046103656200640E+00 
    2.0266849738136061E+00 
    1.9555660160643433E+00 
    2.0853184922042178E+00 
    2.0288603351037566E+00 
    2.0255195233552539E+00 
    1.8914352183719174E+00 
    2.0478042766286921E+00 
    2.1080216798982323E+00 
    1.9622389958207886E+00 
    2.0678497077179787E+00 
    2.1224357652482277E+00 
    2.1442459366210151E+00 
    2.0270890148442153E+00 
    1.9766466208383984E+00 
    1.9485300754899291E+00 
    1.9643626312190958E+00 
    2.0542995727630844E+00 
    2.0201543003443847E+00 
    1.9736615749403488E+00 
    2.0584694197204145E+00 
    1.9986588179583988E+00 
    1.9663720321170512E+00 
    2.0267034361966276E+00 
    1.9182448687539519E+00 
    1.9657041591895639E+00 
    2.1260327565550545E+00 
    2.0536287245608271E+00 
    1.9585765532343342E+00 
    2.0757047510055706E+00 
    2.0683652378208079E+00 
    1.9707374136542404E+00 
    1.9894004988672989E+00 
    1.9945466132097007E+00 
    2.0445351945521542E+00 
    2.0410824589225327E+00 
    2.1013571869469487E+00 
    1.9851296286216837E+00 
    2.0416393355834237E+00 
    2.0549312433292326E+00 
    1.9748418339299880E+00 
    1.9812642338758870E+00 
    1.8846860688974272E+00 
    1.9766203974468899E+00 
    2.1350858735946101E+00 
    2.0197547978248043E+00 
    2.0404947499795125E+00 
    1.9987101191950969E+00 
    2.0406199582260629E+00 
    1.9646838960046598E+00 
    1.9536899047328058E+00 
    1.9314236078108866E+00 
    1.9620609087229177E+00 
    1.9352436699758875E+00 
    1.9854679793262697E+00 
    2.0282490877971497E+00 
    1.9464401025122742E+00 
    2.0703599159210029E+00 
    2.0724410805627942E+00 
    1.9823948912123064E+00 
    1.9539975923495412E+00 
    2.0282984392121777E+00 
    1.9704963261190143E+00 
    1.9237837266399709E+00 
    1.9646740675287855E+00 
    1.9289854762346057E+00 
    1.9294868287347140E+00 
    1.9743959271923397E+00 
    2.0159020540003794E+00 
    2.0885328966652010E+00 
    1.9199695083674373E+00 
    1.9630518588503327E+00 
    1.9435851700862832E+00 
    1.9626535083246370E+00 
    2.1817340107996097E+00 
    1.9335133467513941E+00 
    1.9943270197465663E+00 
    1.9429060878171749E+00 
    1.9762127728358940E+00 
    1.9514270007307797E+00 
    1.9836679971250997E+00 
    1.9427434649360169E+00 
    1.9805065203042980E+00 
    1.9529224189615084E+00 
    1.9835981469079851E+00 
    1.9491877507056963E+00 
    1.9483296592274832E+00 
    1.9285316314757799E+00 
    1.9374011813847367E+00 
    2.0704357438070238E+00 
    1.9120185235385836E+00 
    1.9198861805288399E+00 
    1.9592298195630098E+00 
    1.9461813091155120E+00 
    2.2497169173026337E+00 
    1.9617331556716648E+00 
    2.0431548219755511E+00 
    1.9551790865109291E+00 
    1.9078299708335686E+00 
    1.9729955952971421E+00 
    1.9383035447418393E+00 
    1.9861902776159606E+00 
    1.9496162231224301E+00 
    1.9500150620864920E+00 
    1.9600435957117459E+00 
    1.9306757974418502E+00 
    1.9615708938582146E+00 
    1.9505002306142032E+00 
    1.9124678388490497E+00 
    1.9411616124435611E+00 
    1.9412312586370610E+00 
    1.9570517945935728E+00 
    1.9060784466710334E+00 
    1.9436753501764312E+00 
    1.9569275091089788E+00 
    1.9852820641729869E+00 
    1.9327224143363568E+00 
    1.9227923409410848E+00 
    2.0541485580655534E+00 
    1.9334642267519007E+00 
    2.0049686641289406E+00 
    2.2497744675564686E+00 
    2.0643195926469713E+00 
    2.0056342736743891E+00 
    2.0848484765324327E+00 
    1.9467126340946241E+00 
    1.9412658398118385E+00 
    1.9218842107091092E+00 
    1.9249034720475209E+00 
    1.9259489811258996E+00 
    1.9197838573800337E+00 
    2.0879427131135211E+00 
    1.9235336111731309E+00 
    1.9740145577014723E+00 
    2.0685598334403252E+00 
    1.9849246087357841E+00 
    1.9330367911416959E+00 
    2.0371527085288044E+00 
    1.9179109408312136E+00 
    1.9183731163975226E+00 
    1.9261821631623457E+00 
    2.2177169175227300E+00 
    2.0168419303915219E+00 
    2.0778441502913960E+00 
    2.0832457472285388E+00 
    1.9934645644138622E+00 
    2.0559636966744370E+00 
    1.9358137242305233E+00 
    1.8786267612546987E+00 
    2.3932730801132536E+00 
    1.8978992072755814E+00 
    1.9111113514558487E+00 
    1.9107194881779139E+00 
    2.0066709775620661E+00 
    2.0676333966639908E+00 
    1.8785424444341949E+00 
    2.1183604501518172E+00 
    2.1394017757890662E+00 
    1.9941884391945237E+00 
    1.9503075973828516E+00 
    2.1054492635722140E+00 
    1.9959995996025133E+00 
    1.9271348268364092E+00 
    2.0774930502236115E+00 
    1.9041558318221139E+00 
    1.9034700565615026E+00 
    2.0044088565367337E+00 
    1.9580962622352522E+00 
    1.8853660112310999E+00 
    1.9500632166332514E+00 
    1.8925773895534090E+00 
    2.0959649185226481E+00 
    1.8977090098392619E+00 
    1.9408258787144166E+00 
    2.0658238638965458E+00 
    1.9579035176021755E+00 
    1.9961193053683020E+00 
    1.8965557012913334E+00 
    1.9776958181524229E+00 
    1.9827433758315198E+00 
    1.9281235177192531E+00 
    1.9583374507986868E+00 
    2.0721085225327918E+00 
    1.8921333080568270E+00 
    1.9564335330538769E+00 
    1.9317997952175507E+00 
    1.9323795593215312E+00 
    1.9715468395996745E+00 
    1.9261815762812626E+00 
    1.9636152142102730E+00 
    2.0842451371262798E+00 
    2.0987007705348075E+00 
    1.8901163019413560E+00 
    2.2608900105587777E+00 
    1.9761128296104959E+00 
    1.9438281926079204E+00 
    2.1262841096841876E+00 
    1.9996756545234189E+00 
    2.0140391948340821E+00 
    1.9318785454840730E+00 
    1.9253531912051971E+00 
    2.0315219287927451E+00 
    1.9948351286919677E+00 
    1.8858154958287900E+00 
    1.9315601351763187E+00 
    2.1537940141854728E+00 
    1.9902662327471865E+00 
    2.0597504969677871E+00 
    2.0048689699508526E+00 
    2.0727091097221937E+00 
    2.0314720908966861E+00 
    1.8845602440794862E+00 
    1.9134240458273795E+00 
    1.9518248233352344E+00 
    2.1001870875793291E+00 
    2.0578724228158087E+00 
    1.9485035693549480E+00 
    1.9263201201754399E+00 
    1.9471889422100164E+00 
    1.9363627086432886E+00 
    2.0435741157369200E+00 
    1.9287271026270310E+00 
    2.0129677841997995E+00 
    2.1940266184048416E+00 
    1.9236738486011955E+00 
    2.1588698427336657E+00 
    1.9666388298581068E+00 
    2.1737225724222253E+00 
    2.0677082539862610E+00 
    2.3063419609951126E+00 
    1.9414244317494447E+00 
    2.0559092911634442E+00 
    1.9833211989913977E+00 
    1.9199717968793504E+00 
    2.0817506179828791E+00 
    1.9756737185641950E+00 
    2.0905656258036367E+00 
    1.9231065807031666E+00 
    2.0584045459067539E+00 
    1.9673688587078733E+00 
    1.9975951182093770E+00 
    1.8967837952167002E+00 
    1.9263849781945035E+00 
    1.9158588869246020E+00 
    2.1208868239095815E+00 
    1.9431602122635740E+00 
    2.1851248404691490E+00 
    2.1375330694711798E+00 
    1.9345559746157359E+00 
    1.9656372565325935E+00 
    1.9522241158916396E+00 
    1.8954547531617714E+00 
    1.9703710477110026E+00 
    2.0714524355814681E+00 
    1.9338719986498678E+00 
    1.9028413848202610E+00 
    2.2128872995696338E+00 
    2.0435735031161943E+00 
    1.8788520407097231E+00 
    1.8787143322237565E+00 
    1.9119511700701664E+00 
    1.9175398176899496E+00 
    1.9011182492213476E+00 
    1.8925848064812365E+00 
    1.9483518956890762E+00 
    1.9394237873313014E+00 
    1.8730354261788729E+00 
    1.8731658769791324E+00 
    1.8452251977527643E+00 
    1.7956857922611256E+00 
    1.7901801577760865E+00 
    1.7952861901183625E+00 
    1.8109830249651515E+00 
    1.8089592975905944E+00 
    1.8558524725882926E+00 
    1.7784991196772828E+00 
    1.8446342960847517E+00 
    1.7822739413675106E+00 
    1.8283986983118539E+00 
    1.8061717416437828E+00 
    1.8041403075940574E+00 
    1.7846479122923546E+00 
    1.7781401850408753E+00 
    1.8900431345474844E+00 
    1.8535569500174496E+00 
    1.8740381939438322E+00 
    1.8499283810005167E+00 
    1.8171653308272664E+00 
    1.7776488494604994E+00 
    1.7751238818673456E+00 
    1.8865510258475970E+00 
    1.8260494938059222E+00 
    1.7769555595110111E+00 
    1.8112095578152601E+00 
    1.8672670865183369E+00 
    1.8669672673505981E+00 
    1.7673812732847043E+00 
    1.7762738060232628E+00 
    1.8282093424867343E+00 
    1.8750652911865515E+00 
    1.8555257987354650E+00 
    1.8178709031671036E+00 
    1.7967731175666017E+00 
    1.8970253566402617E+00 
    1.8760901211032472E+00 
    1.8670677385807508E+00 
    1.9105225677109765E+00 
    1.7962483631021633E+00 
    1.8085656265034535E+00 
    1.8046564598660044E+00 
    1.8848234890789948E+00 
    1.8075187285858623E+00 
    1.8708316472980671E+00 
    1.8388295868442319E+00 
    1.8358806456149375E+00 
    1.8241512156368216E+00 
    1.8278599868400975E+00 
    1.8756552522642389E+00 
    1.8724305889577095E+00 
    1.8335243789894915E+00 
    1.7911741950394755E+00 
    1.8257402616323701E+00 
    1.8214723319425807E+00 
    1.7793701597199318E+00 
    1.8581718351046703E+00 
    1.7817458341657419E+00 
    1.8753693734162771E+00 
    1.7842736793045757E+00 
    1.8452645850909708E+00 
    1.8010794847859490E+00 
    1.7654852662425922E+00 
    1.7666173171481601E+00 
    1.7660543996242266E+00 
    1.7588588701489956E+00 
    1.8241359002498514E+00 
    1.7595985224213846E+00 
    1.7768277196862634E+00 
    1.7786609773131565E+00 
    1.9008455475147796E+00 
    1.8279341428391049E+00 
    1.7782909764502757E+00 
    1.8749303923162246E+00 
    1.8124490052017630E+00 
    1.7981891846741580E+00 
    1.8606682817559692E+00 
    1.8984853181498678E+00 
    1.8495372008872217E+00 
    1.8517653700565149E+00 
    1.8326524541951350E+00 
    1.8439787577057438E+00 
    1.8637761751766808E+00 
    1.8615383304709927E+00 
    1.8591640542008099E+00 
    1.8626307945870766E+00 
    1.8363433208790607E+00 
    1.8726717456135809E+00 
    1.8722447751201974E+00 
    1.8471415747841757E+00 
    1.8542055374801303E+00 
    1.8894253048472902E+00 
    1.8628357706930094E+00 
    1.8701005945326834E+00 
    1.8924932747260972E+00 
    1.8114352762298764E+00 
    1.8018341743642505E+00 
    1.8458146136038702E+00 
    1.8763678373146457E+00 
    1.8989888885715867E+00 
    1.8727420958659804E+00 
    1.7663415090544248E+00 
    1.8002145908362179E+00 
    1.8442330453853299E+00 
    1.8215835101042457E+00 
    1.7848955237042119E+00 
    1.8636753346465298E+00 
    1.8431025166642718E+00 
    1.7847298574459987E+00 
    1.8558187067910932E+00 
    1.7931459364016078E+00 
    1.8034508243572611E+00 
    1.8000764439477486E+00 
    1.8482401053915591E+00 
    1.8710477664837761E+00 
    1.8869225256359421E+00 
    1.8623330459304366E+00 
    1.8822988116323101E+00 
    1.7914423499554162E+00 
    1.7791752923978275E+00 
    1.8866431569674720E+00 
    1.8587123248065449E+00 
    1.7663953641941952E+00 
    1.7652855468631714E+00 
    1.8956975113037859E+00 
    1.8376501446439568E+00 
    1.8647408000203312E+00 
    1.8436675961774431E+00 
    1.8137594884907120E+00 
    1.8464143478048813E+00 
    1.8570181103663079E+00 
    1.8354535930738116E+00 
    1.8311823042265687E+00 
    1.8309761289893300E+00 
    1.7572082586802198E+00 
    1.8792279972516259E+00 
    1.9109269126250437E+00 
    1.7578889840097993E+00 
    1.7574962590522341E+00 
    1.7587124405460557E+00 
    1.7578839336104677E+00 
    1.7647404264332929E+00 
    1.8655699795342782E+00 
    1.8156757826650622E+00 
    1.7751806429913268E+00 
    1.8553187078492961E+00 
    1.8534391818625755E+00 
    1.8084711131433588E+00 
    1.8232304713245435E+00 
    1.8161088069779019E+00 
    1.8343696263755345E+00 
    1.8840033909960670E+00 
    1.7573821743137712E+00 
    1.7583321369779106E+00 
    1.7940363770643557E+00 
    1.8278281938375283E+00 
    1.8682738959755845E+00 
    1.7764002226007629E+00 
    1.8862759063793513E+00 
    1.7620471998139682E+00 
    1.8104958700973384E+00 
    1.7661926987523360E+00 
    1.7652960092944483E+00 
    1.7735191072929968E+00 
    1.8869868599138113E+00 
    1.8431589912402315E+00 
    1.8198299301836305E+00 
    1.8364089225077276E+00 
    1.8519495456224442E+00 
    1.7641606492034845E+00 
    1.8180053907160698E+00 
    1.8438151835208685E+00 
    1.8861571356293447E+00 
    1.8788616458541922E+00 
    1.8760178214612413E+00 
    1.8867690136969060E+00 
    1.8919162257540643E+00 
    1.8323575899137210E+00 
    1.7783244926041348E+00 
    1.8506790563759736E+00 
    1.8491971410001702E+00 
    1.8132652879055742E+00 
    1.7636208066037020E+00 
    1.8468972175117055E+00 
    1.8595517954513610E+00 
    1.8662808019176260E+00 
    1.8560800352791362E+00 
    1.7646990869379484E+00 
    1.8518742131791752E+00 
    1.8481801907879438E+00 
    1.7736366901223637E+00 
    1.7866523501573213E+00 
    1.8435633511475749E+00 
    1.8545384729771544E+00 
    1.8502485373214392E+00 
    1.8607147529607428E+00 
    1.8599242884621237E+00 
    1.8848823699357764E+00 
    1.8463234814885821E+00 
    1.8705262566209111E+00 
    1.8400061526982294E+00 
    1.8519641559237683E+00 
    1.7612942492811929E+00 
    1.8973250159629498E+00 
    1.8815912604222933E+00 
    1.8910468986212459E+00 
    1.8139495768421092E+00 
    1.8030468633241667E+00 
    1.7906408639681484E+00 
    1.8645597167740773E+00 
    1.8438090303111856E+00 
    1.8675158379585428E+00 
    1.8065582376012439E+00 
    1.7742555071405373E+00 
    1.7854416390253876E+00 
    1.8760125400814478E+00 
    1.7816850090958893E+00 
    1.8329331841340228E+00 
    1.7924037869547482E+00 
    1.8748050114848220E+00 
    1.8416611312295170E+00 
    1.8307514926445105E+00 
    1.8933770415288254E+00 
    1.8882808915093512E+00 
    1.8215074253283128E+00 
    1.8140897484290588E+00 
    1.7978876874589331E+00 
    1.8261959022744412E+00 
    1.8669769809733108E+00 
    1.7592763850372322E+00 
    1.8832354355079217E+00 
    1.8933973706206055E+00 
    1.8199416894278695E+00 
    1.8160485110602151E+00 
    1.7750402706549324E+00 
    1.7634598388503677E+00 
    1.8902152470360030E+00 
    1.8034149521454901E+00 
    1.8443627502442064E+00 
    1.8204237289003813E+00 
    1.8531840272072935E+00 
    1.7865557916984631E+00 
    1.8345026580977151E+00 
    1.8899070066974324E+00 
    1.7950392727927023E+00 
    1.8189065740720773E+00 
    1.7923567908125673E+00 
    1.8263873166398641E+00 
    1.8951117186860433E+00 
    1.7994242136434131E+00 
    1.8428804790410493E+00 
    1.8082303915687734E+00 
    1.7758610893929569E+00 
    1.8605329602336056E+00 
    1.8601589973808275E+00 
    1.8494960663086248E+00 
    1.8070966037252556E+00 
    1.8048723896869641E+00 
    1.7798964805098760E+00 
    1.8453043716971096E+00 
    1.8597461749708837E+00 
    1.8319457757066819E+00 
    1.7773827323714226E+00 
    1.8018656061435576E+00 