# vtk DataFile Version 2.0
Pressure Field Data 
ASCII 
DATASET UNSTRUCTURED_GRID 

POINTS 2213 double 

    0.0000000000000000E+00     0.0000000000000000E+00     0.0000000000000000E+00 
    5.0000000000000000E-01     0.0000000000000000E+00     0.0000000000000000E+00 
    1.0000000000000000E+00     0.0000000000000000E+00     0.0000000000000000E+00 
    1.0000000000000000E+00     5.0000000000000000E-01     0.0000000000000000E+00 
    1.0000000000000000E+00     1.0000000000000000E+00     0.0000000000000000E+00 
    5.0000000000000000E-01     1.0000000000000000E+00     0.0000000000000000E+00 
    0.0000000000000000E+00     1.0000000000000000E+00     0.0000000000000000E+00 
    0.0000000000000000E+00     5.0000000000000000E-01     0.0000000000000000E+00 
    1.5624999999971041E-02     0.0000000000000000E+00     0.0000000000000000E+00 
    3.1249999999936742E-02     0.0000000000000000E+00     0.0000000000000000E+00 
    4.6874999999913257E-02     0.0000000000000000E+00     0.0000000000000000E+00 
    6.2499999999889783E-02     0.0000000000000000E+00     0.0000000000000000E+00 
    7.8124999999844805E-02     0.0000000000000000E+00     0.0000000000000000E+00 
    9.3749999999799827E-02     0.0000000000000000E+00     0.0000000000000000E+00 
    1.0937499999975490E-01     0.0000000000000000E+00     0.0000000000000000E+00 
    1.2499999999970990E-01     0.0000000000000000E+00     0.0000000000000000E+00 
    1.4062499999966460E-01     0.0000000000000000E+00     0.0000000000000000E+00 
    1.5624999999961930E-01     0.0000000000000000E+00     0.0000000000000000E+00 
    1.7187499999957390E-01     0.0000000000000000E+00     0.0000000000000000E+00 
    1.8749999999952860E-01     0.0000000000000000E+00     0.0000000000000000E+00 
    2.0312499999948330E-01     0.0000000000000000E+00     0.0000000000000000E+00 
    2.1874999999943801E-01     0.0000000000000000E+00     0.0000000000000000E+00 
    2.3437499999939271E-01     0.0000000000000000E+00     0.0000000000000000E+00 
    2.4999999999934730E-01     0.0000000000000000E+00     0.0000000000000000E+00 
    2.6562499999938810E-01     0.0000000000000000E+00     0.0000000000000000E+00 
    2.8124999999942890E-01     0.0000000000000000E+00     0.0000000000000000E+00 
    2.9687499999946970E-01     0.0000000000000000E+00     0.0000000000000000E+00 
    3.1249999999951050E-01     0.0000000000000000E+00     0.0000000000000000E+00 
    3.2812499999955130E-01     0.0000000000000000E+00     0.0000000000000000E+00 
    3.4374999999959210E-01     0.0000000000000000E+00     0.0000000000000000E+00 
    3.5937499999963290E-01     0.0000000000000000E+00     0.0000000000000000E+00 
    3.7499999999967371E-01     0.0000000000000000E+00     0.0000000000000000E+00 
    3.9062499999971451E-01     0.0000000000000000E+00     0.0000000000000000E+00 
    4.0624999999975520E-01     0.0000000000000000E+00     0.0000000000000000E+00 
    4.2187499999979600E-01     0.0000000000000000E+00     0.0000000000000000E+00 
    4.3749999999983680E-01     0.0000000000000000E+00     0.0000000000000000E+00 
    4.5312499999987760E-01     0.0000000000000000E+00     0.0000000000000000E+00 
    4.6874999999991840E-01     0.0000000000000000E+00     0.0000000000000000E+00 
    4.8437499999995920E-01     0.0000000000000000E+00     0.0000000000000000E+00 
    5.1562499999992384E-01     0.0000000000000000E+00     0.0000000000000000E+00 
    5.3124999999985478E-01     0.0000000000000000E+00     0.0000000000000000E+00 
    5.4687499999994527E-01     0.0000000000000000E+00     0.0000000000000000E+00 
    5.6249999999998668E-01     0.0000000000000000E+00     0.0000000000000000E+00 
    5.7812499999998068E-01     0.0000000000000000E+00     0.0000000000000000E+00 
    5.9374999999994749E-01     0.0000000000000000E+00     0.0000000000000000E+00 
    6.0937499999997913E-01     0.0000000000000000E+00     0.0000000000000000E+00 
    6.2500000000000000E-01     0.0000000000000000E+00     0.0000000000000000E+00 
    6.4062499999998945E-01     0.0000000000000000E+00     0.0000000000000000E+00 
    6.5624999999996603E-01     0.0000000000000000E+00     0.0000000000000000E+00 
    6.7187499999995337E-01     0.0000000000000000E+00     0.0000000000000000E+00 
    6.8749999999998734E-01     0.0000000000000000E+00     0.0000000000000000E+00 
    7.0312499999998124E-01     0.0000000000000000E+00     0.0000000000000000E+00 
    7.1874999999997025E-01     0.0000000000000000E+00     0.0000000000000000E+00 
    7.3437499999999034E-01     0.0000000000000000E+00     0.0000000000000000E+00 
    7.5000000000000000E-01     0.0000000000000000E+00     0.0000000000000000E+00 
    7.6562499999996902E-01     0.0000000000000000E+00     0.0000000000000000E+00 
    7.8124999999993228E-01     0.0000000000000000E+00     0.0000000000000000E+00 
    7.9687499999989997E-01     0.0000000000000000E+00     0.0000000000000000E+00 
    8.1249999999996247E-01     0.0000000000000000E+00     0.0000000000000000E+00 
    8.2812499999999578E-01     0.0000000000000000E+00     0.0000000000000000E+00 
    8.4374999999999556E-01     0.0000000000000000E+00     0.0000000000000000E+00 
    8.5937500000000111E-01     0.0000000000000000E+00     0.0000000000000000E+00 
    8.7499999999997691E-01     0.0000000000000000E+00     0.0000000000000000E+00 
    8.9062500000000921E-01     0.0000000000000000E+00     0.0000000000000000E+00 
    9.0625000000004452E-01     0.0000000000000000E+00     0.0000000000000000E+00 
    9.2187500000005529E-01     0.0000000000000000E+00     0.0000000000000000E+00 
    9.3750000000012723E-01     0.0000000000000000E+00     0.0000000000000000E+00 
    9.5312500000011835E-01     0.0000000000000000E+00     0.0000000000000000E+00 
    9.6875000000005151E-01     0.0000000000000000E+00     0.0000000000000000E+00 
    9.8437500000003086E-01     0.0000000000000000E+00     0.0000000000000000E+00 
    1.0000000000000000E+00     1.5624999999971041E-02     0.0000000000000000E+00 
    1.0000000000000000E+00     3.1249999999936742E-02     0.0000000000000000E+00 
    1.0000000000000000E+00     4.6874999999913257E-02     0.0000000000000000E+00 
    1.0000000000000000E+00     6.2499999999889783E-02     0.0000000000000000E+00 
    1.0000000000000000E+00     7.8124999999844805E-02     0.0000000000000000E+00 
    1.0000000000000000E+00     9.3749999999799827E-02     0.0000000000000000E+00 
    1.0000000000000000E+00     1.0937499999975490E-01     0.0000000000000000E+00 
    1.0000000000000000E+00     1.2499999999970990E-01     0.0000000000000000E+00 
    1.0000000000000000E+00     1.4062499999966460E-01     0.0000000000000000E+00 
    1.0000000000000000E+00     1.5624999999961930E-01     0.0000000000000000E+00 
    1.0000000000000000E+00     1.7187499999957390E-01     0.0000000000000000E+00 
    1.0000000000000000E+00     1.8749999999952860E-01     0.0000000000000000E+00 
    1.0000000000000000E+00     2.0312499999948330E-01     0.0000000000000000E+00 
    1.0000000000000000E+00     2.1874999999943801E-01     0.0000000000000000E+00 
    1.0000000000000000E+00     2.3437499999939271E-01     0.0000000000000000E+00 
    1.0000000000000000E+00     2.4999999999934730E-01     0.0000000000000000E+00 
    1.0000000000000000E+00     2.6562499999938810E-01     0.0000000000000000E+00 
    1.0000000000000000E+00     2.8124999999942890E-01     0.0000000000000000E+00 
    1.0000000000000000E+00     2.9687499999946970E-01     0.0000000000000000E+00 
    1.0000000000000000E+00     3.1249999999951050E-01     0.0000000000000000E+00 
    1.0000000000000000E+00     3.2812499999955130E-01     0.0000000000000000E+00 
    1.0000000000000000E+00     3.4374999999959210E-01     0.0000000000000000E+00 
    1.0000000000000000E+00     3.5937499999963290E-01     0.0000000000000000E+00 
    1.0000000000000000E+00     3.7499999999967371E-01     0.0000000000000000E+00 
    1.0000000000000000E+00     3.9062499999971451E-01     0.0000000000000000E+00 
    1.0000000000000000E+00     4.0624999999975520E-01     0.0000000000000000E+00 
    1.0000000000000000E+00     4.2187499999979600E-01     0.0000000000000000E+00 
    1.0000000000000000E+00     4.3749999999983680E-01     0.0000000000000000E+00 
    1.0000000000000000E+00     4.5312499999987760E-01     0.0000000000000000E+00 
    1.0000000000000000E+00     4.6874999999991840E-01     0.0000000000000000E+00 
    1.0000000000000000E+00     4.8437499999995920E-01     0.0000000000000000E+00 
    1.0000000000000000E+00     5.1562499999992384E-01     0.0000000000000000E+00 
    1.0000000000000000E+00     5.3124999999985478E-01     0.0000000000000000E+00 
    1.0000000000000000E+00     5.4687499999994527E-01     0.0000000000000000E+00 
    1.0000000000000000E+00     5.6249999999998668E-01     0.0000000000000000E+00 
    1.0000000000000000E+00     5.7812499999998068E-01     0.0000000000000000E+00 
    1.0000000000000000E+00     5.9374999999994749E-01     0.0000000000000000E+00 
    1.0000000000000000E+00     6.0937499999997913E-01     0.0000000000000000E+00 
    1.0000000000000000E+00     6.2500000000000000E-01     0.0000000000000000E+00 
    1.0000000000000000E+00     6.4062499999998945E-01     0.0000000000000000E+00 
    1.0000000000000000E+00     6.5624999999996603E-01     0.0000000000000000E+00 
    1.0000000000000000E+00     6.7187499999995337E-01     0.0000000000000000E+00 
    1.0000000000000000E+00     6.8749999999998734E-01     0.0000000000000000E+00 
    1.0000000000000000E+00     7.0312499999998124E-01     0.0000000000000000E+00 
    1.0000000000000000E+00     7.1874999999997025E-01     0.0000000000000000E+00 
    1.0000000000000000E+00     7.3437499999999034E-01     0.0000000000000000E+00 
    1.0000000000000000E+00     7.5000000000000000E-01     0.0000000000000000E+00 
    1.0000000000000000E+00     7.6562499999996902E-01     0.0000000000000000E+00 
    1.0000000000000000E+00     7.8124999999993228E-01     0.0000000000000000E+00 
    1.0000000000000000E+00     7.9687499999989997E-01     0.0000000000000000E+00 
[...]
CELL_DATA 2084 
SCALARS Pressure double 1 
LOOKUP_TABLE default 

    2.8133568275597787E+00 
    2.8418116374326301E+00 
    3.0335701358800611E+00 
    2.8425843545293139E+00 
    2.9495473582791631E+00 
    2.9052385072213398E+00 
    2.7847314201939586E+00 
    2.8896357204728718E+00 
    2.8999742155576214E+00 
    2.9538545238613456E+00 
    3.0276937480726307E+00 
    2.7993132181672529E+00 
    2.8784148883173839E+00 
    2.8391436257911367E+00 
    2.8084385722381144E+00 
    2.8284683112934070E+00 
    2.9875564034868414E+00 
    2.8598122721736865E+00 
    3.0599378952313012E+00 
    2.8204754698550452E+00 
    2.8241183013989275E+00 
    2.9323692211901364E+00 
    2.8267729021659709E+00 
    2.8743355572663152E+00 
    2.8168001889192018E+00 
    2.8759079799266614E+00 
    2.8343701034571236E+00 
    2.7878790473482198E+00 
    2.8828863213249090E+00 
    2.8488535313989489E+00 
    2.7768771841262221E+00 
    2.8903657548884545E+00 
    2.7642527431694370E+00 
    2.8234414149697642E+00 
    2.8029974188674660E+00 
    2.9432782862719478E+00 
    2.8543410704205936E+00 
    2.8500110945921784E+00 
    2.9323397252416390E+00 
    2.8913477473540365E+00 
    2.7906070071144375E+00 
    2.9584980548409545E+00 
    2.8172340676059555E+00 
    2.9121584215679510E+00 
    2.9042962983751806E+00 
    2.7980058619164465E+00 
    2.9568512774167077E+00 
    2.7812360177815205E+00 
    2.7833414016052940E+00 
    2.8792736945892843E+00 
    2.8765834670498114E+00 
    2.7871578247318909E+00 
    2.7977478224042551E+00 
    2.8630075773346531E+00 
    2.8641763870222485E+00 
    2.7906707785978124E+00 
    2.7697233918359623E+00 
    2.9185173788387870E+00 
    2.9298726367408503E+00 
    2.8712831995923866E+00 
    2.8699949841046921E+00 
    2.8211013973559487E+00 
    2.8018128276045493E+00 
    2.8368961910610992E+00 
    2.9543592116204711E+00 
    2.8670811655755299E+00 
    2.8998207808164391E+00 
    2.7964570648662730E+00 
    2.7818993378188592E+00 
    2.7810987533351423E+00 
    2.8149053400860495E+00 
    3.0901188234981056E+00 
    2.8766962341634885E+00 
    3.0109857242805393E+00 
    2.9262051065967469E+00 
    3.0084026643811086E+00 
    2.8721847453818201E+00 
    2.9463082669176104E+00 
    2.7990096907196502E+00 
    2.9635819560399597E+00 
    2.8274696535377073E+00 
    2.8909899387525768E+00 
    2.9171724565542938E+00 
    2.7756443344503205E+00 
    2.9049194052128255E+00 
    2.8253695664924856E+00 
    2.8570498758152558E+00 
    2.9074461074649935E+00 
    2.9274669530302746E+00 
    2.9185531492960579E+00 
    2.9005110743215750E+00 
    2.8969996425801789E+00 
    2.8293810076728345E+00 
    2.9167027053542856E+00 
    2.8595626615965126E+00 
    2.7871117124066567E+00 
    2.8448016240534439E+00 
    2.8839268312850805E+00 
    2.9399306056896002E+00 
    2.8487633017486274E+00 
    2.9517476046406150E+00 
    2.9144866164188779E+00 
    2.9301578873800622E+00 
    2.9315121768450449E+00 
    2.8599915213686691E+00 
    2.9161604802320702E+00 
    2.8886771185032676E+00 
    2.9406159178256819E+00 
    2.8110244620663316E+00 
    3.1224606619285722E+00 
    2.8324268160055617E+00 
    2.8829104707948385E+00 
    2.9137349487434521E+00 
    2.9681295007839270E+00 
    3.0215291929326993E+00 
    2.8383460220055654E+00 
    2.9168360536221458E+00 
    2.9135674803936422E+00 
    2.8508863832975035E+00 
    2.8180505160989164E+00 
    2.8663963766528755E+00 
    2.9289469480517223E+00 
    2.8182690459244051E+00 
    2.9956037619077551E+00 
    2.8874007935617367E+00 
    2.9294685300927714E+00 
    2.8683893712732553E+00 
    2.8183055157303660E+00 
    2.8548966389238672E+00 
    2.8272944103016999E+00 
    3.0177689295775938E+00 
    3.0303267326504120E+00 
    2.7928244978188039E+00 
    2.9543020742363124E+00 
    2.9401945813611157E+00 
    2.8697406664410106E+00 
    2.9213052885878552E+00 
    2.8170754557070716E+00 
    2.9386241974297787E+00 
    3.0013551889248693E+00 
    2.9033626442139471E+00 
    3.0444203866511641E+00 
    3.0112487981031011E+00 
    2.8873287086572414E+00 
    2.8388262797644934E+00 
    2.8831343811500889E+00 
    2.9148482151642883E+00 
    2.9373747964171919E+00 
    2.8595974004588665E+00 
    2.9022344305952794E+00 
    2.9078051991217277E+00 
    3.0023545574996047E+00 
    3.0769882988723118E+00 
    2.8589081228292215E+00 
    2.8680867588606525E+00 
    3.0598484706619251E+00 
    2.8264020507421868E+00 
    2.9106492184577433E+00 
    2.8633501075826269E+00 
    2.9951992378552847E+00 
    3.2029405562999234E+00 
    3.1419451997441885E+00 
    3.0806886670886278E+00 
    3.1014629028461376E+00 
    3.0521200398263906E+00 
    3.0688476523171575E+00 
    2.9127413847591352E+00 
    3.1157275840319292E+00 
    2.9040274026194526E+00 
    3.0616534934505686E+00 
    2.9043414650074038E+00 
    2.9885169409990522E+00 
    3.0066306751482452E+00 
    2.9435653328005160E+00 
    2.9810860053968473E+00 
    2.8470863727693874E+00 
    2.9840908744444388E+00 
    2.8947369410084374E+00 
    2.9023981787757598E+00 
    2.9012698627809854E+00 
    2.9259089091093222E+00 
    2.8448793376562316E+00 
    2.9892559883233121E+00 
    2.9282950932652252E+00 
    2.9246178076560376E+00 
    2.7680330813745933E+00 
    2.9490575259483958E+00 
    3.0131729295036402E+00 
    2.8526944457208225E+00 
    2.9706600767337683E+00 
    3.0282118203148127E+00 
    3.0507968001048300E+00 
    2.9263440129875740E+00 
    2.8694402986061398E+00 
    2.8366791253779482E+00 
    2.8551719276022949E+00 
    2.9560866518952826E+00 
    2.9186787679749049E+00 
    2.8659984217981678E+00 
    2.9606024657986447E+00 
    2.8945800282523702E+00 
    2.8575202884568012E+00 
    2.9259302585292670E+00 
    2.8004781854307335E+00 
    2.8567730465225063E+00 
    3.0319530310480940E+00 
    2.9553548308211735E+00 
    2.8484551164960679E+00 
    2.9790397820144618E+00 
    2.9711965677174748E+00 
    2.8627428902027061E+00 
    2.8841527294066260E+00 
    2.8899296184247731E+00 
    2.9454897174543637E+00 
    2.9417346355126965E+00 
    3.0061766690295504E+00 
    2.8793018114499209E+00 
    2.9423100233018493E+00 
    2.9567437204853064E+00 
    2.8673777085799879E+00 
    2.8747999156940511E+00 
    2.7593118056867376E+00 
    2.8693974539544804E+00 
    3.0413295106386489E+00 
    2.9182356207613696E+00 
    2.9410775156329532E+00 
    2.8946361241279046E+00 
    2.9412053944742365E+00 
    2.8555607476041538E+00 
    2.8428682020161582E+00 
    2.8163311044069701E+00 
    2.8525163346291196E+00 
    2.8208817789267591E+00 
    2.8795709245249399E+00 
    2.9276565480355687E+00 
    2.8341732588649253E+00 
    2.9733263768292413E+00 
    2.9755716885476966E+00 
    2.8760418616004251E+00 
    2.8430538928633511E+00 
    2.9276932985007842E+00 
    2.8624015789335298E+00 
    2.8071008429110083E+00 
    2.8555977605259479E+00 
    2.8132996410871978E+00 
    2.8142288025319919E+00 
    2.8668138232492235E+00 
    2.9139816052433618E+00 
    2.9926873497658089E+00 
    2.8028114305117580E+00 
    2.8536621412307799E+00 
    2.8309630120492528E+00 
    2.8532721913179175E+00 
    3.0892362818564574E+00 
    2.8187558828330919E+00 
    2.8896718914902517E+00 
    2.8299494715100759E+00 
    2.8690833184359419E+00 
    2.8400328499729781E+00 
    2.8775369760997420E+00 
    2.8297608608077347E+00 
    2.8739940549514933E+00 
    2.8418819069662895E+00 
    2.8774379662715077E+00 
    2.8376215448741795E+00 
    2.8363928648048513E+00 
    2.8129818225053027E+00 
    2.8235902788118148E+00 
    2.9734329805871096E+00 
    2.7928577506772050E+00 
    2.8026418540013802E+00 
    2.8494043862843736E+00 
    2.8339004825674783E+00 
    3.1581657558271847E+00 
    2.8521367442245644E+00 
    2.9439902713895196E+00 
    2.8445028749218140E+00 
    2.7878130869946305E+00 
    2.8652676378846582E+00 
    2.8244899457273629E+00 
    2.8805099808394532E+00 
    2.8381415592446024E+00 
    2.8384334762941372E+00 
    2.8502549329229017E+00 
    2.8154053222703914E+00 
    2.8519189501879740E+00 
    2.8389343301727599E+00 
    2.7934411382333439E+00 
    2.8281549983842278E+00 
    2.8280439027985027E+00 
    2.8467837929849544E+00 
    2.7859820100102066E+00 
    2.8308390486856765E+00 
    2.8465290156757019E+00 
    2.8793695274272411E+00 
    2.8181157873851492E+00 
    2.8061776773503486E+00 
    2.9559294855524598E+00 
    2.8187951250562513E+00 
    2.9017640496961898E+00 
    3.1581924538716497E+00 
    2.9668733838909822E+00 
    2.9024517925630988E+00 
    2.9887770428025457E+00 
    2.8346313945369217E+00 
    2.8282739234721777E+00 
    2.8048550429159080E+00 
    2.8087563373368338E+00 
    2.8097833216153014E+00 
    2.8024431216159091E+00 
    2.9920358228779955E+00 
    2.8067646563092858E+00 
    2.8664194046412121E+00 
    2.9714209269991931E+00 
    2.8789388852528752E+00 
    2.8182797570612745E+00 
    2.9374276917761293E+00 
    2.8003418435508505E+00 
    2.8006367553017335E+00 
    2.8100198256511590E+00 
    3.1257970099250820E+00 
    2.9149953983039731E+00 
    2.9813282933555927E+00 
    2.9870718989824514E+00 
    2.8886728726829380E+00 
    2.9578598472456537E+00 
    2.8214896476667781E+00 
    2.7522015591894018E+00 
    3.3023284799376325E+00 
    2.7759945324954280E+00 
    2.7921138580657652E+00 
    2.7913427013490750E+00 
    2.9036686540728325E+00 
    2.9704134191403648E+00 
    2.7516644400309729E+00 
    3.0239615486816351E+00 
    3.0457872344730506E+00 
    2.8894842860896803E+00 
    2.8389490536501860E+00 
    3.0104567834107856E+00 
    2.8915634745244079E+00 
    2.8113718079910326E+00 
    2.9809736063556227E+00 
    2.7836469253726994E+00 
    2.7824916247938281E+00 
    2.9011095658093904E+00 
    2.8480856496671327E+00 
    2.7605531016794012E+00 
    2.8385500406901087E+00 
    2.7690855774927781E+00 
    3.0005132594487436E+00 
    2.7757626406489635E+00 
    2.8276229233651016E+00 
    2.9685049445698013E+00 
    2.8476242129407643E+00 
    2.8916912293877561E+00 
    2.7739972126234087E+00 
    2.8706282527402833E+00 
    2.8764581692117228E+00 
    2.8123356227684284E+00 
    2.8482099979972721E+00 
    2.9752231344807005E+00 
    2.7689123929901482E+00 
    2.8459763352156386E+00 
    2.8166710570540241E+00 
    2.8176336654452272E+00 
    2.8635220654556477E+00 
    2.8100748658179762E+00 
    2.8543727709943303E+00 
    2.9881175908931614E+00 
    3.0034003954493524E+00 
    2.7660487870589012E+00 
    3.1694209273387113E+00 
    2.8688209899681798E+00 
    2.8311479722367889E+00 
    3.0321927343259927E+00 
    2.8957093889513681E+00 
    2.9118865335393447E+00 
    2.8168316057806102E+00 
    2.8090593742028407E+00 
    2.9312460426735267E+00 
    2.8902442559283501E+00 
    2.7611155610213491E+00 
    2.8166920908518081E+00 
    3.0606247538744515E+00 
    2.8850330483776623E+00 
    2.9619696299922955E+00 
    2.9016491182293689E+00 
    2.9758650221456562E+00 
    2.9311955879665348E+00 
    2.7591600743324616E+00 
    2.7949046794116139E+00 
    2.8405173400838590E+00 
    3.0049551382478881E+00 
    2.9599456956237953E+00 
    2.8365601747889468E+00 
    2.8102283529152143E+00 
    2.8350024624061412E+00 
    2.8221974619924968E+00 
    2.9444449877679757E+00 
    2.8130987085621872E+00 
    2.9106805647548901E+00 
    3.1017662554290597E+00 
    2.8072767853033520E+00 
    3.0658268070092412E+00 
    2.8580301178051712E+00 
    3.0810626467829918E+00 
    2.9705245481403408E+00 
    3.2151111021994989E+00 
    2.8282123398775876E+00 
    2.9578325878571978E+00 
    2.8772311808438302E+00 
    2.8024795652093846E+00 
    2.9854764803458980E+00 
    2.8684660557448090E+00 
    2.9948136251878146E+00 
    2.8064116312806884E+00 
    2.9605160782133244E+00 
    2.8586771968677440E+00 
    2.8934497076345553E+00 
    2.7745954095774028E+00 
    2.8101846947353546E+00 
    2.7975122686834157E+00 
    3.0265866191160424E+00 
    2.8302401459301576E+00 
    3.0926867275426777E+00 
    3.0438457210785179E+00 
    2.8202445395639959E+00 
    2.8567207156668060E+00 
    2.8409478885010211E+00 
    2.7726411223729288E+00 
    2.8621759470693382E+00 
    2.9745234787347803E+00 
    2.8192816681881543E+00 
    2.7817225743273966E+00 
    3.1209183299647845E+00 
    2.9444396936648078E+00 
    2.7524838258283726E+00 
    2.7518796659375240E+00 
    2.7931278828156478E+00 
    2.7998894814947133E+00 
    2.7796068355346408E+00 
    2.7694666641156220E+00 
    2.8364389764330507E+00 
    2.8258558824943081E+00 
    2.7452370387883445E+00 
    2.7449395301497805E+00 
    2.7095317781698860E+00 
    2.6445049290171219E+00 
    2.6386840217132477E+00 
    2.6448690641403214E+00 
    2.6658883097483748E+00 
    2.6626442804225614E+00 
    2.7230913679959610E+00 
    2.6213673966728455E+00 
    2.7087721093246735E+00 
    2.6282748252217472E+00 
    2.6885579717088466E+00 
    2.6595472557254975E+00 
    2.6563182986531442E+00 
    2.6309795233321025E+00 
    2.6219006968340817E+00 
    2.7662229478880374E+00 
    2.7201370859362344E+00 
    2.7460019176115056E+00 
    2.7161328679779682E+00 
    2.6738523627783852E+00 
    2.6220239252696209E+00 
    2.6185463013602490E+00 
    2.7615951883442418E+00 
    2.6852286830538761E+00 
    2.6198938211677469E+00 
    2.6652987480567334E+00 
    2.7375276023813200E+00 
    2.7376387262428872E+00 
    2.6033607518726152E+00 
    2.6187991414277301E+00 
    2.6880751485606882E+00 
    2.7477208992457376E+00 
    2.7231053524643807E+00 
    2.6741593711156360E+00 
    2.6470563327190773E+00 
    2.7747427514246898E+00 
    2.7484367971367853E+00 
    2.7372721726874993E+00 
    2.7909636568829059E+00 
    2.6464052564799641E+00 
    2.6618331565021451E+00 
    2.6566044368994888E+00 
    2.7597982740723856E+00 
    2.6605395710620678E+00 
    2.7423960289556968E+00 
    2.7013214746030578E+00 
    2.6981693684276720E+00 
    2.6827120291321660E+00 
    2.6871205090213621E+00 
    2.7482104368102256E+00 
    2.7438493340449210E+00 
    2.6944681089431768E+00 
    2.6395585256243641E+00 
    2.6851222038727114E+00 
    2.6796118721804363E+00 
    2.6214153308873791E+00 
    2.7260355595628090E+00 
    2.6249078685357228E+00 
    2.7477904512304110E+00 
    2.6296321479528726E+00 
    2.7101933890389347E+00 
    2.6520581090108273E+00 
    2.6014334580090570E+00 
    2.6009346013254606E+00 
    2.6048112614468129E+00 
    2.5970938048537398E+00 
    2.6830503983258414E+00 
    2.5975789455211862E+00 
    2.6205046589238781E+00 
    2.6231760677673592E+00 
    2.7791676653799149E+00 
    2.6872780024001037E+00 
    2.6219650336822355E+00 
    2.7471784377747190E+00 
    2.6678260747641582E+00 
    2.6485651520094509E+00 
    2.7297079113143661E+00 
    2.7763405727033024E+00 
    2.7156070087141013E+00 
    2.7184596525501061E+00 
    2.6933445807142320E+00 
    2.7085584094750650E+00 
    2.7332638872396084E+00 
    2.7303082308779296E+00 
    2.7271738539532664E+00 
    2.7315270037227370E+00 
    2.6987090287024031E+00 
    2.7443173040269992E+00 
    2.7442409008920912E+00 
    2.7125757097424517E+00 
    2.7215418123110315E+00 
    2.7650882158274284E+00 
    2.7320097131018293E+00 
    2.7409819483623283E+00 
    2.7688559761876639E+00 
    2.6657485997066046E+00 
    2.6539515032199885E+00 
    2.7107468321312620E+00 
    2.7487960051012390E+00 
    2.7769176564810243E+00 
    2.7443308164304834E+00 
    2.6040758887059297E+00 
    2.6506395986336537E+00 
    2.7082646012811025E+00 
    2.6789426208433369E+00 
    2.6310690076844034E+00 
    2.7328543431658892E+00 
    2.7067917679948668E+00 
    2.6293491302171570E+00 
    2.7229565563402311E+00 
    2.6415424868952870E+00 
    2.6550885704289571E+00 
    2.6505149133705221E+00 
    2.7133931795330906E+00 
    2.7421505101265282E+00 
    2.7619493433592108E+00 
    2.7312977174827031E+00 
    2.7562181700542636E+00 
    2.6387616685625797E+00 
    2.6233969698667594E+00 
    2.7618137694990033E+00 
    2.7265682835439042E+00 
    2.6025835619004005E+00 
    2.6029668639753236E+00 
    2.7728579327466720E+00 
    2.7004642899095215E+00 
    2.7345421667108210E+00 
    2.7079601315457986E+00 
    2.6687045900659321E+00 
    2.7115565966577320E+00 
    2.7250833648025727E+00 
    2.6969911190751392E+00 
    2.6921513033783953E+00 
    2.6918851853601899E+00 
    2.5948671736920126E+00 
    2.7523726729598672E+00 
    2.7915222354867586E+00 
    2.5956503311711439E+00 
    2.5951757714378481E+00 
    2.5965282915600998E+00 
    2.5957866988482441E+00 
    2.6035761278371372E+00 
    2.7356477868755391E+00 
    2.6713328330424666E+00 
    2.6166324445734017E+00 
    2.7229662575391984E+00 
    2.7202927548609819E+00 
    2.6620522568266738E+00 
    2.6811107601460455E+00 
    2.6717658460693170E+00 
    2.6955746168984782E+00 
    2.7587116082464731E+00 
    2.5950648699918322E+00 
    2.5961416046830461E+00 
    2.6437074244320442E+00 
    2.6878109230374507E+00 
    2.7386348984513371E+00 
    2.6203202980717877E+00 
    2.7614733490760734E+00 
    2.6013176607838262E+00 
    2.6650645563150550E+00 
    2.5988610620952457E+00 
    2.5992117244737627E+00 
    2.6159776318490526E+00 
    2.7622968394849114E+00 
    2.7068491730642616E+00 
    2.6774838521179531E+00 
    2.6988245496683749E+00 
    2.7183395169793405E+00 
    2.6035544903239378E+00 
    2.6750860168919210E+00 
    2.7083091001252546E+00 
    2.7610618444210937E+00 
    2.7520564836983992E+00 
    2.7484554283009710E+00 
    2.7619167629372545E+00 
    2.7681177012990821E+00 
    2.6929996602258033E+00 
    2.6227817043588257E+00 
    2.7166583440871230E+00 
    2.7147053846562144E+00 
    2.6687301662116814E+00 
    2.6032651168612300E+00 
    2.7117238349168455E+00 
    2.7277425069459897E+00 
    2.7361516716355423E+00 
    2.7233068297869925E+00 
    2.6034581955447234E+00 
    2.7179230900336773E+00 
    2.7132070231656686E+00 
    2.6138037134276946E+00 
    2.6339920763651268E+00 
    2.7073930807757414E+00 
    2.7212820339813728E+00 
    2.7158437937040882E+00 
    2.7297770831692798E+00 
    2.7287282662366046E+00 
    2.7595424201157490E+00 
    2.7108602612214789E+00 
    2.7420731807582541E+00 
    2.7034730637349864E+00 
    2.7186646143754229E+00 
    2.5996944356697318E+00 
    2.7750464299137434E+00 
    2.7553070054365234E+00 
    2.7670542924432104E+00 
    2.6689925035749544E+00 
    2.6556245755543664E+00 
    2.6386780193375259E+00 
    2.7344890747796136E+00 
    2.7076648177494178E+00 
    2.7382756976015830E+00 
    2.6601012108881368E+00 
    2.6150559663275170E+00 
    2.6309717460777029E+00 
    2.7483964149810300E+00 
    2.6263511603558567E+00 
    2.6944040451814475E+00 
    2.6411686907323548E+00 
    2.7472701318420056E+00 
    2.7053437632238251E+00 
    2.6909242833019107E+00 
    2.7702979180135854E+00 
    2.7641113142765863E+00 
    2.6796365806035429E+00 
    2.6699909517947522E+00 
    2.6477067230060718E+00 
    2.6857194505588038E+00 
    2.7371289089317252E+00 
    2.5976400600072500E+00 
    2.7578889604826711E+00 
    2.7703973300636986E+00 
    2.6776152605016748E+00 
    2.6725247052715906E+00 
    2.6187404179293821E+00 
    2.6021428462430287E+00 
    2.7661426509480185E+00 
    2.6554283388606090E+00 
    2.7083276019665066E+00 
    2.6775411999003507E+00 
    2.7196962703490382E+00 
    2.6332348008597459E+00 
    2.6963113628281707E+00 
    2.7656763373776521E+00 
    2.6449081573692759E+00 
    2.6756233288887472E+00 
    2.6403358357859386E+00 
    2.6859359710699615E+00 
    2.7721765289698248E+00 
    2.6507287480529600E+00 
    2.7065608404244772E+00 
    2.6623085292545778E+00 
    2.6175301040279244E+00 
    2.7290271490480484E+00 
    2.7290799049492938E+00 
    2.7149928153983534E+00 
    2.6607879947992967E+00 
    2.6571549715386227E+00 
    2.6238228833076929E+00 
    2.7101798798134604E+00 
    2.7280172956158490E+00 
    2.6929881321697198E+00 
    2.6211614372443206E+00 
    2.6538599567371701E+00 