# vtk DataFile Version 2.0
Pressure Field Data 
ASCII 
DATASET UNSTRUCTURED_GRID 

POINTS 2213 double 

    0.0000000000000000E+00     0.0000000000000000E+00     0.0000000000000000E+00 
    5.0000000000000000E-01     0.0000000000000000E+00     0.0000000000000000E+00 
    1.0000000000000000E+00     0.0000000000000000E+00     0.0000000000000000E+00 
    1.0000000000000000E+00     5.0000000000000000E-01     0.0000000000000000E+00 
    1.0000000000000000E+00     1.0000000000000000E+00     0.0000000000000000E+00 
    5.0000000000000000E-01     1.0000000000000000E+00     0.0000000000000000E+00 
    0.0000000000000000E+00     1.0000000000000000E+00     0.0000000000000000E+00 
    0.0000000000000000E+00     5.0000000000000000E-01     0.0000000000000000E+00 
    1.5624999999971041E-02     0.0000000000000000E+00     0.0000000000000000E+00 
    3.1249999999936742E-02     0.0000000000000000E+00     0.0000000000000000E+00 
    4.6874999999913257E-02     0.0000000000000000E+00     0.0000000000000000E+00 
    6.2499999999889783E-02     0.0000000000000000E+00     0.0000000000000000E+00 
    7.8124999999844805E-02     0.0000000000000000E+00     0.0000000000000000E+00 
    9.3749999999799827E-02     0.0000000000000000E+00     0.0000000000000000E+00 
    1.0937499999975490E-01     0.0000000000000000E+00     0.0000000000000000E+00 
    1.2499999999970990E-01     0.0000000000000000E+00     0.0000000000000000E+00 
    1.4062499999966460E-01     0.0000000000000000E+00     0.0000000000000000E+00 
    1.5624999999961930E-01     0.0000000000000000E+00     0.0000000000000000E+00 
    1.7187499999957390E-01     0.0000000000000000E+00     0.0000000000000000E+00 
    1.8749999999952860E-01     0.0000000000000000E+00     0.0000000000000000E+00 
    2.0312499999948330E-01     0.0000000000000000E+00     0.0000000000000000E+00 
    2.1874999999943801E-01     0.0000000000000000E+00     0.0000000000000000E+00 
    2.3437499999939271E-01     0.0000000000000000E+00     0.0000000000000000E+00 
    2.4999999999934730E-01     0.0000000000000000E+00     0.0000000000000000E+00 
    2.6562499999938810E-01     0.0000000000000000E+00     0.0000000000000000E+00 
    2.8124999999942890E-01     0.0000000000000000E+00     0.0000000000000000E+00 
    2.9687499999946970E-01     0.0000000000000000E+00     0.0000000000000000E+00 
    3.1249999999951050E-01     0.0000000000000000E+00     0.0000000000000000E+00 
    3.2812499999955130E-01     0.0000000000000000E+00     0.0000000000000000E+00 
    3.4374999999959210E-01     0.0000000000000000E+00     0.0000000000000000E+00 
    3.5937499999963290E-01     0.0000000000000000E+00     0.0000000000000000E+00 
    3.7499999999967371E-01     0.0000000000000000E+00     0.0000000000000000E+00 
    3.9062499999971451E-01     0.0000000000000000E+00     0.0000000000000000E+00 
    4.0624999999975520E-01     0.0000000000000000E+00     0.0000000000000000E+00 
    4.2187499999979600E-01     0.0000000000000000E+00     0.0000000000000000E+00 
    4.3749999999983680E-01     0.0000000000000000E+00     0.0000000000000000E+00 
    4.5312499999987760E-01     0.0000000000000000E+00     0.0000000000000000E+00 
    4.6874999999991840E-01     0.0000000000000000E+00     0.0000000000000000E+00 
    4.8437499999995920E-01     0.0000000000000000E+00     0.0000000000000000E+00 
    5.1562499999992384E-01     0.0000000000000000E+00     0.0000000000000000E+00 
    5.3124999999985478E-01     0.0000000000000000E+00     0.0000000000000000E+00 
    5.4687499999994527E-01     0.0000000000000000E+00     0.0000000000000000E+00 
    5.6249999999998668E-01     0.0000000000000000E+00     0.0000000000000000E+00 
    5.7812499999998068E-01     0.0000000000000000E+00     0.0000000000000000E+00 
    5.9374999999994749E-01     0.0000000000000000E+00     0.0000000000000000E+00 
    6.0937499999997913E-01     0.0000000000000000E+00     0.0000000000000000E+00 
    6.2500000000000000E-01     0.0000000000000000E+00     0.0000000000000000E+00 
    6.4062499999998945E-01     0.0000000000000000E+00     0.0000000000000000E+00 
    6.5624999999996603E-01     0.0000000000000000E+00     0.0000000000000000E+00 
    6.7187499999995337E-01     0.0000000000000000E+00     0.0000000000000000E+00 
    6.8749999999998734E-01     0.0000000000000000E+00     0.0000000000000000E+00 
    7.0312499999998124E-01     0.0000000000000000E+00     0.0000000000000000E+00 
    7.1874999999997025E-01     0.0000000000000000E+00     0.0000000000000000E+00 
    7.3437499999999034E-01     0.0000000000000000E+00     0.0000000000000000E+00 
    7.5000000000000000E-01     0.0000000000000000E+00     0.0000000000000000E+00 
    7.6562499999996902E-01     0.0000000000000000E+00     0.0000000000000000E+00 
    7.8124999999993228E-01     0.0000000000000000E+00     0.0000000000000000E+00 
    7.9687499999989997E-01     0.0000000000000000E+00     0.0000000000000000E+00 
    8.1249999999996247E-01     0.0000000000000000E+00     0.0000000000000000E+00 
    8.2812499999999578E-01     0.0000000000000000E+00     0.0000000000000000E+00 
    8.4374999999999556E-01     0.0000000000000000E+00     0.0000000000000000E+00 
    8.5937500000000111E-01     0.0000000000000000E+00     0.0000000000000000E+00 
    8.7499999999997691E-01     0.0000000000000000E+00     0.0000000000000000E+00 
    8.9062500000000921E-01     0.0000000000000000E+00     0.0000000000000000E+00 
    9.0625000000004452E-01     0.0000000000000000E+00     0.0000000000000000E+00 
    9.2187500000005529E-01     0.0000000000000000E+00     0.0000000000000000E+00 
    9.3750000000012723E-01     0.0000000000000000E+00     0.0000000000000000E+00 
    9.5312500000011835E-01     0.0000000000000000E+00     0.0000000000000000E+00 
    9.6875000000005151E-01     0.0000000000000000E+00     0.0000000000000000E+00 
    9.8437500000003086E-01     0.0000000000000000E+00     0.0000000000000000E+00 
    1.0000000000000000E+00     1.5624999999971041E-02     0.0000000000000000E+00 
    1.0000000000000000E+00     3.1249999999936742E-02     0.0000000000000000E+00 
    1.0000000000000000E+00     4.6874999999913257E-02     0.0000000000000000E+00 
    1.0000000000000000E+00     6.2499999999889783E-02     0.0000000000000000E+00 
    1.0000000000000000E+00     7.8124999999844805E-02     0.0000000000000000E+00 
    1.0000000000000000E+00     9.3749999999799827E-02     0.0000000000000000E+00 
    1.0000000000000000E+00     1.0937499999975490E-01     0.0000000000000000E+00 
    1.0000000000000000E+00     1.2499999999970990E-01     0.0000000000000000E+00 
    1.0000000000000000E+00     1.4062499999966460E-01     0.0000000000000000E+00 
    1.0000000000000000E+00     1.5624999999961930E-01     0.0000000000000000E+00 
    1.0000000000000000E+00     1.7187499999957390E-01     0.0000000000000000E+00 
    1.0000000000000000E+00     1.8749999999952860E-01     0.0000000000000000E+00 
    1.0000000000000000E+00     2.0312499999948330E-01     0.0000000000000000E+00 
    1.0000000000000000E+00     2.1874999999943801E-01     0.0000000000000000E+00 
    1.0000000000000000E+00     2.3437499999939271E-01     0.0000000000000000E+00 
    1.0000000000000000E+00     2.4999999999934730E-01     0.0000000000000000E+00 
    1.0000000000000000E+00     2.6562499999938810E-01     0.0000000000000000E+00 
    1.0000000000000000E+00     2.8124999999942890E-01     0.0000000000000000E+00 
    1.0000000000000000E+00     2.9687499999946970E-01     0.0000000000000000E+00 
    1.0000000000000000E+00     3.1249999999951050E-01     0.0000000000000000E+00 
    1.0000000000000000E+00     3.2812499999955130E-01     0.0000000000000000E+00 
    1.0000000000000000E+00     3.4374999999959210E-01     0.0000000000000000E+00 
    1.0000000000000000E+00     3.5937499999963290E-01     0.0000000000000000E+00 
    1.0000000000000000E+00     3.7499999999967371E-01     0.0000000000000000E+00 
    1.0000000000000000E+00     3.9062499999971451E-01     0.0000000000000000E+00 
    1.0000000000000000E+00     4.0624999999975520E-01     0.0000000000000000E+00 
    1.0000000000000000E+00     4.2187499999979600E-01     0.0000000000000000E+00 
    1.0000000000000000E+00     4.3749999999983680E-01     0.0000000000000000E+00 
    1.0000000000000000E+00     4.5312499999987760E-01     0.0000000000000000E+00 
    1.0000000000000000E+00     4.6874999999991840E-01     0.0000000000000000E+00 
    1.0000000000000000E+00     4.8437499999995920E-01     0.0000000000000000E+00 
    1.0000000000000000E+00     5.1562499999992384E-01     0.0000000000000000E+00 
    1.0000000000000000E+00     5.3124999999985478E-01     0.0000000000000000E+00 
    1.0000000000000000E+00     5.4687499999994527E-01     0.0000000000000000E+00 
    1.0000000000000000E+00     5.6249999999998668E-01     0.0000000000000000E+00 
    1.0000000000000000E+00     5.7812499999998068E-01     0.0000000000000000E+00 
    1.0000000000000000E+00     5.9374999999994749E-01     0.0000000000000000E+00 
    1.0000000000000000E+00     6.0937499999997913E-01     0.0000000000000000E+00 
    1.0000000000000000E+00     6.2500000000000000E-01     0.0000000000000000E+00 
    1.0000000000000000E+00     6.4062499999998945E-01     0.0000000000000000E+00 
    1.0000000000000000E+00     6.5624999999996603E-01     0.0000000000000000E+00 
    1.0000000000000000E+00     6.7187499999995337E-01     0.0000000000000000E+00 
    1.0000000000000000E+00     6.8749999999998734E-01     0.0000000000000000E+00 
    1.0000000000000000E+00     7.0312499999998124E-01     0.0000000000000000E+00 
    1.0000000000000000E+00     7.1874999999997025E-01     0.0000000000000000E+00 
    1.0000000000000000E+00     7.3437499999999034E-01     0.0000000000000000E+00 
    1.0000000000000000E+00     7.5000000000000000E-01     0.0000000000000000E+00 
    1.0000000000000000E+00     7.6562499999996902E-01     0.0000000000000000E+00 
    1.0000000000000000E+00     7.8124999999993228E-01     0.0000000000000000E+00 
    1.0000000000000000E+00     7.9687499999989997E-01     0.0000000000000000E+00 
[...]
CELL_DATA 2084 
SCALARS Pressure double 1 
LOOKUP_TABLE default 

    3.1290876724600301E+00 
    3.2174793279035963E+00 
    3.7182661515350417E+00 
    3.2199280711460627E+00 
    3.5498463443022295E+00 
    3.4330055805447932E+00 
    3.0453056134640049E+00 
    3.3836261928212643E+00 
    3.4168755274052711E+00 
    3.5598748090276575E+00 
    3.7082032943981735E+00 
    3.0868373812292167E+00 
    3.3440069298232125E+00 
    3.2052501062705510E+00 
    3.1146632865246562E+00 
    3.1717960049372906E+00 
    3.6336046713870638E+00 
    3.2738678226272628E+00 
    3.7610894163281241E+00 
    3.1514292589589772E+00 
    3.1628159507021905E+00 
    3.5080784856246301E+00 
    3.1667210449532890E+00 
    3.3285956993475905E+00 
    3.1400980561001512E+00 
    3.3355176863688802E+00 
    3.1932659739189133E+00 
    3.0550092413661885E+00 
    3.3587892950410474E+00 
    3.2396067214924757E+00 
    3.0240644610409841E+00 
    3.3890825543180219E+00 
    2.9893112353962978E+00 
    3.1606795264423018E+00 
    3.0980163902556153E+00 
    3.5348084249016694E+00 
    3.2550166783365548E+00 
    3.2402992088605931E+00 
    3.5074259946837860E+00 
    3.3916772482278144E+00 
    3.0624398582450723E+00 
    3.5704821702536393E+00 
    3.1394203857034078E+00 
    3.4541499228023684E+00 
    3.4301645487159718E+00 
    3.0850900801583392E+00 
    3.5668202942806353E+00 
    3.0350234124319710E+00 
    3.0419127023516186E+00 
    3.3499844909777776E+00 
    3.3354942856149052E+00 
    3.0516701361028535E+00 
    3.0809422455645623E+00 
    3.2846312273850091E+00 
    3.2904646465625329E+00 
    3.0607546409780904E+00 
    3.0043295099016145E+00 
    3.4707120186959206E+00 
    3.5014037161913940E+00 
    3.3187358666521600E+00 
    3.3169685134851985E+00 
    3.1494775428117907E+00 
    3.0941969752298424E+00 
    3.2006590387531264E+00 
    3.5616300758558257E+00 
    3.3029811564365268E+00 
    3.4178728713294024E+00 
    3.0793833490254210E+00 
    3.0379967886288490E+00 
    3.0364621340226736E+00 
    3.1325009321141275E+00 
    3.8057617963987602E+00 
    3.3363415821702040E+00 
    3.6784690836566423E+00 
    3.4915660911461108E+00 
    3.6733962700080016E+00 
    3.3184067545870279E+00 
    3.5426616195851128E+00 
    3.0848559350476381E+00 
    3.5824269329659604E+00 
    3.1691836678067298E+00 
    3.3910599349940047E+00 
    3.4675097885693056E+00 
    3.0205318087529349E+00 
    3.4316993515164889E+00 
    3.1644974327767437E+00 
    3.2646092260089232E+00 
    3.4393788421396025E+00 
    3.4949138389673768E+00 
    3.4707684415589566E+00 
    3.4184872125097678E+00 
    3.4093470870799889E+00 
    3.1790367755116291E+00 
    3.4662660895692108E+00 
    3.2764583587124227E+00 
    3.0535226565920390E+00 
    3.2239294406865122E+00 
    3.3661894770315253E+00 
    3.5265535440086277E+00 
    3.2392088690354655E+00 
    3.5553825780944859E+00 
    3.4600260528424935E+00 
    3.5020466777859136E+00 
    3.5058474858500004E+00 
    3.2776035649699478E+00 
    3.4647500640364783E+00 
    3.3802011443805715E+00 
    3.5287284641449883E+00 
    3.1195012335251233E+00 
    3.8496869694935572E+00 
    3.1849333595584413E+00 
    3.3592872257757804E+00 
    3.4577255128237194E+00 
    3.5923262509670715E+00 
    3.6974231726757987E+00 
    3.2030608583173095E+00 
    3.4662915860546728E+00 
    3.4569392094202533E+00 
    3.2458797783797513E+00 
    3.1456569505520600E+00 
    3.2971228222353925E+00 
    3.4988711782530313E+00 
    3.1462555023949457E+00 
    3.6486825947344270E+00 
    3.3754772035288818E+00 
    3.5000875554029225E+00 
    3.3046804043071680E+00 
    3.1464548831434760E+00 
    3.2589495238921233E+00 
    3.1705565238083095E+00 
    3.6906671638208222E+00 
    3.7126061094241223E+00 
    3.0699857008595979E+00 
    3.5611956807459464E+00 
    3.5275446372493784E+00 
    3.3144963152175060E+00 
    3.4789950156955141E+00 
    3.1426391693104239E+00 
    3.5237345364653523E+00 
    3.6599787377298689E+00 
    3.4272581595250196E+00 
    3.7365239325468869E+00 
    3.6785947110951445E+00 
    3.3777693685346466E+00 
    3.2067518042372916E+00 
    3.3616336313133073E+00 
    3.4613255299593777E+00 
    3.5201767539609814E+00 
    3.2770526277239136E+00 
    3.4249378492453899E+00 
    3.4405778145198878E+00 
    3.6620881361172621E+00 
    3.7871417783231225E+00 
    3.2724348910250378E+00 
    3.3056508831241858E+00 
    3.7610831546375123E+00 
    3.1675685848958031E+00 
    3.4498430577661878E+00 
    3.2881320924522428E+00 
    3.6481707873113258E+00 
    3.9459118084324043E+00 
    3.8738836173792075E+00 
    3.7921509721430127E+00 
    3.8213972944073538E+00 
    3.7487673654656466E+00 
    3.7745804698892544E+00 
    3.4555966104777163E+00 
    3.8404957218495506E+00 
    3.4300230434334269E+00 
    3.7639917544058310E+00 
    3.4307960329809233E+00 
    3.6348910488969453E+00 
    3.6703418666804506E+00 
    3.5355602433206181E+00 
    3.6195809115029931E+00 
    3.2316871539921732E+00 
    3.6257032986759334E+00 
    3.4002682473516574E+00 
    3.4249313765807479E+00 
    3.4210752321121873E+00 
    3.4906153842188279E+00 
    3.2264843677444683E+00 
    3.6364616562847938E+00 
    3.4974387115115189E+00 
    3.4879511929527083E+00 
    3.0005395720267956E+00 
    3.5486817190360544E+00 
    3.6825095116514790E+00 
    3.2519155881411632E+00 
    3.5974516396189751E+00 
    3.7091760221658658E+00 
    3.7469206996876840E+00 
    3.4924082145505220E+00 
    3.3091640209567261E+00 
    3.1976158527146543E+00 
    3.2600861461580211E+00 
    3.5656670658616032E+00 
    3.4712686173317313E+00 
    3.2960860904408893E+00 
    3.5754678787971486E+00 
    3.3996611396536531E+00 
    3.2680640756378279E+00 
    3.4913843311787303E+00 
    3.0885107586298646E+00 
    3.2652194247203505E+00 
    3.7157185559611294E+00 
    3.5631819707585572E+00 
    3.2364337944157371E+00 
    3.6153567308922474E+00 
    3.5988358665501132E+00 
    3.2871955614637183E+00 
    3.3679584130647662E+00 
    3.3863056338108137E+00 
    3.5406670668803590E+00 
    3.5316427028543065E+00 
    3.6694649817945821E+00 
    3.3522283354084599E+00 
    3.5326107428944375E+00 
    3.5666521575701444E+00 
    3.3031225826657868E+00 
    3.3320170192937337E+00 
    2.9766467478164547E+00 
    3.3098820436286776E+00 
    3.7313969520800128E+00 
    3.4701495003718326E+00 
    3.5291389892408249E+00 
    3.3998854622174450E+00 
    3.5296983807251689E+00 
    3.2607052117505346E+00 
    3.2195492913115378E+00 
    3.1355613034454577E+00 
    3.2500406478456885E+00 
    3.1496762107137681E+00 
    3.3491346106403204E+00 
    3.4960413260340055E+00 
    3.1908561020306641E+00 
    3.6032441061601959E+00 
    3.6086991209948507E+00 
    3.3353804332951174E+00 
    3.2213062953035241E+00 
    3.4952786627836048E+00 
    3.2847384480690760E+00 
    3.1103456585115246E+00 
    3.2609784228476979E+00 
    3.1310453805469729E+00 
    3.1306379776451139E+00 
    3.3003818490426005E+00 
    3.4592268259384937E+00 
    3.6434266231297361E+00 
    3.0968061429990499E+00 
    3.2540374256980598E+00 
    3.1820288869146549E+00 
    3.2530912579485918E+00 
    3.8047606117555564E+00 
    3.1455674118275572E+00 
    3.3844801496566381E+00 
    3.1789992061451522E+00 
    3.3125181491882736E+00 
    3.2101118921192948E+00 
    3.3423716693842729E+00 
    3.1803758132380220E+00 
    3.3306226420380871E+00 
    3.2166737820370708E+00 
    3.3419571604165532E+00 
    3.2029387082689773E+00 
    3.1982472754297002E+00 
    3.1283743418219196E+00 
    3.1597197667834811E+00 
    3.6035002142843107E+00 
    3.0695381770149268E+00 
    3.0975168825067856E+00 
    3.2412916907354083E+00 
    3.1922529182030535E+00 
    3.8945417130779845E+00 
    3.2500171879043664E+00 
    3.5364654081874534E+00 
    3.2252135818473922E+00 
    3.0529883501909851E+00 
    3.2952210221914728E+00 
    3.1619101904365605E+00 
    3.3560540341738569E+00 
    3.2043589419762495E+00 
    3.2029075619225291E+00 
    3.2432101990705799E+00 
    3.1375073072572208E+00 
    3.2492118090476403E+00 
    3.2069777841774991E+00 
    3.0696686375778528E+00 
    3.1728549905076981E+00 
    3.1704016566273645E+00 
    3.2320362804329394E+00 
    3.0489643887598534E+00 
    3.1837321741234339E+00 
    3.2319368259223120E+00 
    3.3490128874983793E+00 
    3.1420526361012193E+00 
    3.1071748383197044E+00 
    3.5647072710704260E+00 
    3.1421554200205133E+00 
    3.4242640735408667E+00 
    3.8939283739277570E+00 
    3.5892646874116108E+00 
    3.4247456170019470E+00 
    3.6354638758563969E+00 
    3.1935844509809850E+00 
    3.1732955676250532E+00 
    3.1020115324638309E+00 
    3.1140507912696531E+00 
    3.1153538311008186E+00 
    3.0982440051816393E+00 
    3.6423693927496599E+00 
    3.1108907611428585E+00 
    3.2997487293213346E+00 
    3.5998062759678304E+00 
    3.3456615463750259E+00 
    3.1407942158906850E+00 
    3.5204479230819934E+00 
    3.0894123797432611E+00 
    3.0888627036051322E+00 
    3.1175173932660267E+00 
    3.8538568154868118E+00 
    3.4610255524128291E+00 
    3.6206072849471993E+00 
    3.6319419602375267E+00 
    3.3811751139790669E+00 
    3.5691112160073266E+00 
    3.1543284728918959E+00 
    2.9589110681763011E+00 
    4.0526383121263123E+00 
    3.0213635096666462E+00 
    3.0658703515863324E+00 
    3.0625446217496624E+00 
    3.4298579428273821E+00 
    3.5968816938557322E+00 
    2.9569534126840007E+00 
    3.7016589144256211E+00 
    3.7385954157018801E+00 
    3.3835361495644247E+00 
    3.2070933003455795E+00 
    3.6774289457327640E+00 
    3.3913862608171303E+00 
    3.1227226306063378E+00 
    3.6195800921187233E+00 
    3.0422540395220419E+00 
    3.0380084920311554E+00 
    3.4220009489685475E+00 
    3.2366251212610178E+00 
    2.9805882509462034E+00 
    3.2060015928134811E+00 
    3.0022765009872066E+00 
    3.6589245453784272E+00 
    3.0206902401997366E+00 
    3.1723412296468294E+00 
    3.5929745349323072E+00 
    3.2355971062977771E+00 
    3.3915388890227938E+00 
    3.0150617563952826E+00 
    3.3147687960038130E+00 
    3.3365690464222628E+00 
    3.1248826157531759E+00 
    3.2342264598099431E+00 
    3.6073806656858567E+00 
    3.0023212609337291E+00 
    3.2273648095319061E+00 
    3.1413408096171711E+00 
    3.1414917212582698E+00 
    3.2884490771677735E+00 
    3.1212279357223078E+00 
    3.2547747832651379E+00 
    3.6345131694086996E+00 
    3.6641548425628909E+00 
    2.9939844786251357E+00 
    3.9076802209889570E+00 
    3.3075200919564760E+00 
    3.1834563150729833E+00 
    3.7160186519063343E+00 
    3.4042093044834267E+00 
    3.4533539931082671E+00 
    3.1385267130484720E+00 
    3.1134781793529323E+00 
    3.5045630932435583E+00 
    3.3860525710857146E+00 
    2.9818274583764715E+00 
    3.1382292385166681E+00 
    3.7622940545626866E+00 
    3.3682081067269114E+00 
    3.5784279655253268E+00 
    3.4239008277817868E+00 
    3.6093665359490159E+00 
    3.5045544518437191E+00 
    2.9760447465392965E+00 
    3.0740175298110333E+00 
    3.2131119545401776E+00 
    3.6669957183796091E+00 
    3.5744944074848770E+00 
    3.2010330642808325E+00 
    3.1167287707078200E+00 
    3.1957331638086526E+00 
    3.1541995663511591E+00 
    3.5375019537375660E+00 
    3.1304286098987499E+00 
    3.4498929697441612E+00 
    3.8223391348612026E+00 
    3.1097341501026898E+00 
    3.7701147740772991E+00 
    3.2716372159390028E+00 
    3.7931516359862902E+00 
    3.5973710972250026E+00 
    3.9590070662376387E+00 
    3.1755345031410238E+00 
    3.5690640798121853E+00 
    3.3438116483666964E+00 
    3.0979515425703386E+00 
    3.6289877451613552E+00 
    3.3120258090788992E+00 
    3.6478391968037176E+00 
    3.1101640497309484E+00 
    3.5757500564972844E+00 
    3.2716544550597937E+00 
    3.3987445867893396E+00 
    3.0184009783399524E+00 
    3.1214047034223942E+00 
    3.0832287612629150E+00 
    3.7063406095635605E+00 
    3.1819149910498821E+00 
    3.8094998337195580E+00 
    3.7353004855436862E+00 
    3.1491840151803787E+00 
    3.2630474658238735E+00 
    3.2144340005507739E+00 
    3.0114963327658812E+00 
    3.2834642696128569E+00 
    3.6065578729244798E+00 
    3.1436770286930766E+00 
    3.0359476514616341E+00 
    3.8478347638959902E+00 
    3.5374065899828953E+00 
    2.9595511726137285E+00 
    2.9574347620551289E+00 
    3.0688199197542110E+00 
    3.0881784850092311E+00 
    3.0303384825005040E+00 
    3.0039035828770104E+00 
    3.2003634005774462E+00 
    3.1682381522419205E+00 
    2.9412608072317092E+00 
    2.9400009334912118E+00 
    2.8558397882899271E+00 
    2.7195924383701220E+00 
    2.7146409416557566E+00 
    2.7469425916975565E+00 
    2.7619294340246663E+00 
    2.7678639632504463E+00 
    2.8872425628930394E+00 
    2.6808175933927347E+00 
    2.8582952311945253E+00 
    2.6977478109505815E+00 
    2.8121557296294100E+00 
    2.7490805800213960E+00 
    2.7532786167734224E+00 
    2.7243808341030169E+00 
    2.6911130594744943E+00 
    2.9980687710050402E+00 
    2.8855010922010345E+00 
    2.9555603570448237E+00 
    2.8713893310819554E+00 
    2.7933703397314171E+00 
    2.7038466945805562E+00 
    2.6792375351510338E+00 
    2.9931235066471245E+00 
    2.8193850913902057E+00 
    2.6763541656776240E+00 
    2.7607046778247941E+00 
    2.9217670151330450E+00 
    2.9225420863114753E+00 
    2.6525487660192244E+00 
    2.6785827423562680E+00 
    2.8228729113318232E+00 
    2.9488425977741564E+00 
    2.8924028712041800E+00 
    2.7812554231931759E+00 
    2.7247298877089055E+00 
    3.0221702286111847E+00 
    2.9619876424146732E+00 
    2.9214955386323234E+00 
    3.0689244574870864E+00 
    2.7239115509757710E+00 
    2.7542201533632187E+00 
    2.7433741195311057E+00 
    2.9808344618602609E+00 
    2.7532666152719920E+00 
    2.9368703583105171E+00 
    2.8376699652480779E+00 
    2.8332215492970700E+00 
    2.8165001726930283E+00 
    2.8061767897111256E+00 
    2.9567541833088411E+00 
    2.9504310694042495E+00 
    2.8221634029572602E+00 
    2.7107625641034634E+00 
    2.8021885376850153E+00 
    2.7929596606121994E+00 
    2.6778506970172553E+00 
    2.8944501627265415E+00 
    2.6836722077715311E+00 
    2.9572490880151530E+00 
    2.6968822162615669E+00 
    2.8580481233868964E+00 
    2.7374310238736599E+00 
    2.6497658318926214E+00 
    2.6494195818018587E+00 
    2.6565819160924127E+00 
    2.6635043907716955E+00 
    2.7981023694455618E+00 
    2.6625676791877937E+00 
    2.7003353074122605E+00 
    2.7120946177043330E+00 
    3.0385149936699078E+00 
    2.8111125850468563E+00 
    2.6881117816868816E+00 
    2.9571639946543899E+00 
    2.7661787714311252E+00 
    2.7430729619734104E+00 
    2.9038630786099797E+00 
    3.0302450563525278E+00 
    2.8716123924728829E+00 
    2.8770553614435159E+00 
    2.8200285283924478E+00 
    2.8540286683951890E+00 
    2.9229129619462579E+00 
    2.9191936494395736E+00 
    2.9080645494195858E+00 
    2.9229227908442699E+00 
    2.8373005395335675E+00 
    2.9386612658613078E+00 
    2.9390072553213415E+00 
    2.8639620686236746E+00 
    2.8846841128204894E+00 
    3.0026952394703841E+00 
    2.9216572965924898E+00 
    2.9450001878540513E+00 
    3.0123108420194504E+00 
    2.7649238484124457E+00 
    2.7403709007954027E+00 
    2.8658261191689487E+00 
    2.9599060649256730E+00 
    3.0323493598110365E+00 
    2.9524313267670133E+00 
    2.6535002082233681E+00 
    2.7314997173410553E+00 
    2.8535437188204393E+00 
    2.7889962680023896E+00 
    2.7131921857250787E+00 
    2.9225960460151774E+00 
    2.8574459183586365E+00 
    2.6915754007366068E+00 
    2.8968351310010383E+00 
    2.7182177141478951E+00 
    2.7414813384161798E+00 
    2.7317711799370850E+00 
    2.8648954843380361E+00 
    2.9426345680561243E+00 
    2.9917307383272869E+00 
    2.9073848836435712E+00 
    2.9811255254620939E+00 
    2.7089770928400849E+00 
    2.6971941444974985E+00 
    2.9916464007030581E+00 
    2.9109270029464795E+00 
    2.6510817522396066E+00 
    2.6515514695012050E+00 
    3.0161588624701507E+00 
    2.8358293459509758E+00 
    2.9242066365172636E+00 
    2.8615120862117491E+00 
    2.7683484632799775E+00 
    2.8659325788427763E+00 
    2.8936164967201430E+00 
    2.8325033973979568E+00 
    2.8177975066657193E+00 
    2.8169181111884263E+00 
    2.6642243854015772E+00 
    2.9717484335048918E+00 
    3.0709355105376388E+00 
    2.6657699007003877E+00 
    2.6657502183009618E+00 
    2.6635349433680719E+00 
    2.6639682690629156E+00 
    2.6581121603241264E+00 
    2.9250806114893044E+00 
    2.7776662977843749E+00 
    2.6703118354589561E+00 
    2.8873400886791418E+00 
    2.8913175263544204E+00 
    2.7757686463220641E+00 
    2.7939861449576049E+00 
    2.7740599564879171E+00 
    2.8253444534644103E+00 
    2.9798446377692547E+00 
    2.6654595204056539E+00 
    2.6651576745591097E+00 
    2.7221005241026770E+00 
    2.8118667080207187E+00 
    2.9372294690483760E+00 
    2.7040856212032836E+00 
    2.9881416339318125E+00 
    2.6577655726973997E+00 
    2.7815541094071512E+00 
    2.6471748638206791E+00 
    2.6474389328116397E+00 
    2.6728330577676473E+00 
    2.9915767488430158E+00 
    2.8594628313611059E+00 
    2.7897920980374646E+00 
    2.8359706868717738E+00 
    2.8888186571139665E+00 
    2.6554019848366228E+00 
    2.7812559551887386E+00 
    2.8558925477025499E+00 
    2.9924921015262065E+00 
    2.9583742003260283E+00 
    2.9524119687744088E+00 
    2.9929893898276290E+00 
    3.0083661515817801E+00 
    2.8259384419045244E+00 
    2.7110353524258755E+00 
    2.8869234570486837E+00 
    2.8843106726401477E+00 
    2.7859865854574712E+00 
    2.6575720035567638E+00 
    2.8790983340844756E+00 
    2.9144741485595329E+00 
    2.9338163637840400E+00 
    2.9052156938779206E+00 
    2.6532663348388592E+00 
    2.8933840283874419E+00 
    2.8826367360222340E+00 
    2.6660139425742746E+00 
    2.7194531896579943E+00 
    2.8569250993565070E+00 
    2.8979998976267596E+00 
    2.8845395569359571E+00 
    2.9035947873269934E+00 
    2.9030601415750783E+00 
    2.9779714296896831E+00 
    2.8719268199382317E+00 
    2.9341874556517822E+00 
    2.8433505642833201E+00 
    2.8795882953529341E+00 
    2.6626248841861284E+00 
    3.0244030982144867E+00 
    2.9767922311370274E+00 
    3.0076669045338020E+00 
    2.7697569269362017E+00 
    2.7460855243083380E+00 
    2.7289566251684145E+00 
    2.9191552839801380E+00 
    2.8631463634568193E+00 
    2.9257990548725337E+00 
    2.7657749004803738E+00 
    2.6696684934876980E+00 
    2.6975865485470405E+00 
    2.9558933630856021E+00 
    2.6931196009329521E+00 
    2.8232224654873095E+00 
    2.7431961684047752E+00 
    2.9513810294938208E+00 
    2.8577988686813134E+00 
    2.8236341036111243E+00 
    3.0095275284809730E+00 
    2.9909901716731579E+00 
    2.7905368993637283E+00 
    2.7711120820537642E+00 
    2.7277683501807575E+00 
    2.8043414244175682E+00 
    2.9233029653101594E+00 
    2.6584222469439691E+00 
    2.9743313807240908E+00 
    3.0080545900191642E+00 
    2.7870611928437135E+00 
    2.7756114502551332E+00 
    2.6864545068338805E+00 
    2.6592077920594348E+00 
    2.9956804924639520E+00 
    2.7583882048577073E+00 
    2.8712681177882096E+00 
    2.7920732395459087E+00 
    2.8797965047794594E+00 
    2.6989716066806362E+00 
    2.8338626403000795E+00 
    2.9992320281322362E+00 
    2.7438221610774201E+00 
    2.8064269019119497E+00 
    2.7144127991799794E+00 
    2.8094317119184349E+00 
    3.0122444681121396E+00 
    2.7510332804394819E+00 
    2.8688968840211935E+00 
    2.7553915239791027E+00 
    2.6715268981137372E+00 
    2.9012017392418881E+00 
    2.9017810137454250E+00 
    2.8693853909724032E+00 
    2.7518563840305714E+00 
    2.7489157075743975E+00 
    2.6821001177695289E+00 
    2.8613431540113989E+00 
    2.9006360925635581E+00 
    2.8286826329889463E+00 
    2.6985936328188811E+00 
    2.7380360405074935E+00 