# vtk DataFile Version 2.0
Pressure Field Data 
ASCII 
DATASET UNSTRUCTURED_GRID 

POINTS 2213 double 

    0.0000000000000000E+00     0.0000000000000000E+00     0.0000000000000000E+00 
    5.0000000000000000E-01     0.0000000000000000E+00     0.0000000000000000E+00 
    1.0000000000000000E+00     0.0000000000000000E+00     0.0000000000000000E+00 
    1.0000000000000000E+00     5.0000000000000000E-01     0.0000000000000000E+00 
    1.0000000000000000E+00     1.0000000000000000E+00     0.0000000000000000E+00 
    5.0000000000000000E-01     1.0000000000000000E+00     0.0000000000000000E+00 
    0.0000000000000000E+00     1.0000000000000000E+00     0.0000000000000000E+00 
    0.0000000000000000E+00     5.0000000000000000E-01     0.0000000000000000E+00 
    1.5624999999971041E-02     0.0000000000000000E+00     0.0000000000000000E+00 
    3.1249999999936742E-02     0.0000000000000000E+00     0.0000000000000000E+00 
    4.6874999999913257E-02     0.0000000000000000E+00     0.0000000000000000E+00 
    6.2499999999889783E-02     0.0000000000000000E+00     0.0000000000000000E+00 
    7.8124999999844805E-02     0.0000000000000000E+00     0.0000000000000000E+00 
    9.3749999999799827E-02     0.0000000000000000E+00     0.0000000000000000E+00 
    1.0937499999975490E-01     0.0000000000000000E+00     0.0000000000000000E+00 
    1.2499999999970990E-01     0.0000000000000000E+00     0.0000000000000000E+00 
    1.4062499999966460E-01     0.0000000000000000E+00     0.0000000000000000E+00 
    1.5624999999961930E-01     0.0000000000000000E+00     0.0000000000000000E+00 
    1.7187499999957390E-01     0.0000000000000000E+00     0.0000000000000000E+00 
    1.8749999999952860E-01     0.0000000000000000E+00     0.0000000000000000E+00 
    2.0312499999948330E-01     0.0000000000000000E+00     0.0000000000000000E+00 
    2.1874999999943801E-01     0.0000000000000000E+00     0.0000000000000000E+00 
    2.3437499999939271E-01     0.0000000000000000E+00     0.0000000000000000E+00 
    2.4999999999934730E-01     0.0000000000000000E+00     0.0000000000000000E+00 
    2.6562499999938810E-01     0.0000000000000000E+00     0.0000000000000000E+00 
    2.8124999999942890E-01     0.0000000000000000E+00     0.0000000000000000E+00 
    2.9687499999946970E-01     0.0000000000000000E+00     0.0000000000000000E+00 
    3.1249999999951050E-01     0.0000000000000000E+00     0.0000000000000000E+00 
    3.2812499999955130E-01     0.0000000000000000E+00     0.0000000000000000E+00 
    3.4374999999959210E-01     0.0000000000000000E+00     0.0000000000000000E+00 
    3.5937499999963290E-01     0.0000000000000000E+00     0.0000000000000000E+00 
    3.7499999999967371E-01     0.0000000000000000E+00     0.0000000000000000E+00 
    3.9062499999971451E-01     0.0000000000000000E+00     0.0000000000000000E+00 
    4.0624999999975520E-01     0.0000000000000000E+00     0.0000000000000000E+00 
    4.2187499999979600E-01     0.0000000000000000E+00     0.0000000000000000E+00 
    4.3749999999983680E-01     0.0000000000000000E+00     0.0000000000000000E+00 
    4.5312499999987760E-01     0.0000000000000000E+00     0.0000000000000000E+00 
    4.6874999999991840E-01     0.0000000000000000E+00     0.0000000000000000E+00 
    4.8437499999995920E-01     0.0000000000000000E+00     0.0000000000000000E+00 
    5.1562499999992384E-01     0.0000000000000000E+00     0.0000000000000000E+00 
    5.3124999999985478E-01     0.0000000000000000E+00     0.0000000000000000E+00 
    5.4687499999994527E-01     0.0000000000000000E+00     0.0000000000000000E+00 
    5.6249999999998668E-01     0.0000000000000000E+00     0.0000000000000000E+00 
    5.7812499999998068E-01     0.0000000000000000E+00     0.0000000000000000E+00 
    5.9374999999994749E-01     0.0000000000000000E+00     0.0000000000000000E+00 
    6.0937499999997913E-01     0.0000000000000000E+00     0.0000000000000000E+00 
    6.2500000000000000E-01     0.0000000000000000E+00     0.0000000000000000E+00 
    6.4062499999998945E-01     0.0000000000000000E+00     0.0000000000000000E+00 
    6.5624999999996603E-01     0.0000000000000000E+00     0.0000000000000000E+00 
    6.7187499999995337E-01     0.0000000000000000E+00     0.0000000000000000E+00 
    6.8749999999998734E-01     0.0000000000000000E+00     0.0000000000000000E+00 
    7.0312499999998124E-01     0.0000000000000000E+00     0.0000000000000000E+00 
    7.1874999999997025E-01     0.0000000000000000E+00     0.0000000000000000E+00 
    7.3437499999999034E-01     0.0000000000000000E+00     0.0000000000000000E+00 
    7.5000000000000000E-01     0.0000000000000000E+00     0.0000000000000000E+00 
    7.6562499999996902E-01     0.0000000000000000E+00     0.0000000000000000E+00 
    7.8124999999993228E-01     0.0000000000000000E+00     0.0000000000000000E+00 
    7.9687499999989997E-01     0.0000000000000000E+00     0.0000000000000000E+00 
    8.1249999999996247E-01     0.0000000000000000E+00     0.0000000000000000E+00 
    8.2812499999999578E-01     0.0000000000000000E+00     0.0000000000000000E+00 
    8.4374999999999556E-01     0.0000000000000000E+00     0.0000000000000000E+00 
    8.5937500000000111E-01     0.0000000000000000E+00     0.0000000000000000E+00 
    8.7499999999997691E-01     0.0000000000000000E+00     0.0000000000000000E+00 
    8.9062500000000921E-01     0.0000000000000000E+00     0.0000000000000000E+00 
    9.0625000000004452E-01     0.0000000000000000E+00     0.0000000000000000E+00 
    9.2187500000005529E-01     0.0000000000000000E+00     0.0000000000000000E+00 
    9.3750000000012723E-01     0.0000000000000000E+00     0.0000000000000000E+00 
    9.5312500000011835E-01     0.0000000000000000E+00     0.0000000000000000E+00 
    9.6875000000005151E-01     0.0000000000000000E+00     0.0000000000000000E+00 
    9.8437500000003086E-01     0.0000000000000000E+00     0.0000000000000000E+00 
    1.0000000000000000E+00     1.5624999999971041E-02     0.0000000000000000E+00 
    1.0000000000000000E+00     3.1249999999936742E-02     0.0000000000000000E+00 
    1.0000000000000000E+00     4.6874999999913257E-02     0.0000000000000000E+00 
    1.0000000000000000E+00     6.2499999999889783E-02     0.0000000000000000E+00 
    1.0000000000000000E+00     7.8124999999844805E-02     0.0000000000000000E+00 
    1.0000000000000000E+00     9.3749999999799827E-02     0.0000000000000000E+00 
    1.0000000000000000E+00     1.0937499999975490E-01     0.0000000000000000E+00 
    1.0000000000000000E+00     1.2499999999970990E-01     0.0000000000000000E+00 
    1.0000000000000000E+00     1.4062499999966460E-01     0.0000000000000000E+00 
    1.0000000000000000E+00     1.5624999999961930E-01     0.0000000000000000E+00 
    1.0000000000000000E+00     1.7187499999957390E-01     0.0000000000000000E+00 
    1.0000000000000000E+00     1.8749999999952860E-01     0.0000000000000000E+00 
    1.0000000000000000E+00     2.0312499999948330E-01     0.0000000000000000E+00 
    1.0000000000000000E+00     2.1874999999943801E-01     0.0000000000000000E+00 
    1.0000000000000000E+00     2.3437499999939271E-01     0.0000000000000000E+00 
    1.0000000000000000E+00     2.4999999999934730E-01     0.0000000000000000E+00 
    1.0000000000000000E+00     2.6562499999938810E-01     0.0000000000000000E+00 
    1.0000000000000000E+00     2.8124999999942890E-01     0.0000000000000000E+00 
    1.0000000000000000E+00     2.9687499999946970E-01     0.0000000000000000E+00 
    1.0000000000000000E+00     3.1249999999951050E-01     0.0000000000000000E+00 
    1.0000000000000000E+00     3.2812499999955130E-01     0.0000000000000000E+00 
    1.0000000000000000E+00     3.4374999999959210E-01     0.0000000000000000E+00 
    1.0000000000000000E+00     3.5937499999963290E-01     0.0000000000000000E+00 
    1.0000000000000000E+00     3.7499999999967371E-01     0.0000000000000000E+00 
    1.0000000000000000E+00     3.9062499999971451E-01     0.0000000000000000E+00 
    1.0000000000000000E+00     4.0624999999975520E-01     0.0000000000000000E+00 
    1.0000000000000000E+00     4.2187499999979600E-01     0.0000000000000000E+00 
    1.0000000000000000E+00     4.3749999999983680E-01     0.0000000000000000E+00 
    1.0000000000000000E+00     4.5312499999987760E-01     0.0000000000000000E+00 
    1.0000000000000000E+00     4.6874999999991840E-01     0.0000000000000000E+00 
    1.0000000000000000E+00     4.8437499999995920E-01     0.0000000000000000E+00 
    1.0000000000000000E+00     5.1562499999992384E-01     0.0000000000000000E+00 
    1.0000000000000000E+00     5.3124999999985478E-01     0.0000000000000000E+00 
    1.0000000000000000E+00     5.4687499999994527E-01     0.0000000000000000E+00 
    1.0000000000000000E+00     5.6249999999998668E-01     0.0000000000000000E+00 
    1.0000000000000000E+00     5.7812499999998068E-01     0.0000000000000000E+00 
    1.0000000000000000E+00     5.9374999999994749E-01     0.0000000000000000E+00 
    1.0000000000000000E+00     6.0937499999997913E-01     0.0000000000000000E+00 
    1.0000000000000000E+00     6.2500000000000000E-01     0.0000000000000000E+00 
    1.0000000000000000E+00     6.4062499999998945E-01     0.0000000000000000E+00 
    1.0000000000000000E+00     6.5624999999996603E-01     0.0000000000000000E+00 
    1.0000000000000000E+00     6.7187499999995337E-01     0.0000000000000000E+00 
    1.0000000000000000E+00     6.8749999999998734E-01     0.0000000000000000E+00 
    1.0000000000000000E+00     7.0312499999998124E-01     0.0000000000000000E+00 
    1.0000000000000000E+00     7.1874999999997025E-01     0.0000000000000000E+00 
    1.0000000000000000E+00     7.3437499999999034E-01     0.0000000000000000E+00 
    1.0000000000000000E+00     7.5000000000000000E-01     0.0000000000000000E+00 
    1.0000000000000000E+00     7.6562499999996902E-01     0.0000000000000000E+00 
    1.0000000000000000E+00     7.8124999999993228E-01     0.0000000000000000E+00 
    1.0000000000000000E+00     7.9687499999989997E-01     0.0000000000000000E+00 
[...]
CELL_DATA 2084 
SCALARS Pressure double 1 
LOOKUP_TABLE default 

    2.1328137230099409E+00 
    2.1578012143690719E+00 
    2.3364093883042290E+00 
    2.1584788887239581E+00 
    2.2559968647617876E+00 
    2.2149059675873910E+00 
    2.1077545415061913E+00 
    2.2006765722554134E+00 
    2.2100904653548019E+00 
    2.2600525245499097E+00 
    2.3307069098775379E+00 
    2.1206008095427071E+00 
    2.1905151661525113E+00 
    2.1554247412661494E+00 
    2.1283597621340467E+00 
    2.1460165480785767E+00 
    2.2920130943759913E+00 
    2.1737958733515361E+00 
    2.3621209936330829E+00 
    2.1389350952424424E+00 
    2.1422308271336274E+00 
    2.2399357692156778E+00 
    2.1445281899975286E+00 
    2.1868345359183921E+00 
    2.1356978660672024E+00 
    2.1882503896352574E+00 
    2.1512388155846143E+00 
    2.1107275846306321E+00 
    2.1945515058256149E+00 
    2.1639038980804237E+00 
    2.1009998446266991E+00 
    2.2012608685773207E+00 
    2.0904872009311974E+00 
    2.1415546854048126E+00 
    2.1237979250707379E+00 
    2.2501338696152824E+00 
    2.1689128688910801E+00 
    2.1650557447243717E+00 
    2.2399179391465256E+00 
    2.2021722490748741E+00 
    2.1128444192159224E+00 
    2.2644248542961352E+00 
    2.1359945263494495E+00 
    2.2212161790139158E+00 
    2.2140436673190216E+00 
    2.1192987626218063E+00 
    2.2628777124545651E+00 
    2.1050035703994143E+00 
    2.1065637297156834E+00 
    2.1912159546622849E+00 
    2.1888539293839901E+00 
    2.1100969662096083E+00 
    2.1192359573241282E+00 
    2.1766545527354215E+00 
    2.1777033590824089E+00 
    2.1131226272428436E+00 
    2.0951530879959868E+00 
    2.2271165941135145E+00 
    2.2376337551250169E+00 
    2.1840188712013577E+00 
    2.1828177220111082E+00 
    2.1395525311911325E+00 
    2.1225543310549830E+00 
    2.1533060474627779E+00 
    2.2605184324127792E+00 
    2.1802262555317649E+00 
    2.2099242418898646E+00 
    2.1179201376159358E+00 
    2.1055825928378504E+00 
    2.1046478985913968E+00 
    2.1339603458968162E+00 
    2.3917497076122696E+00 
    2.1889619368352631E+00 
    2.3145343046371334E+00 
    2.2342283260875364E+00 
    2.3120353250281105E+00 
    2.1848948025057573E+00 
    2.2529539078208751E+00 
    2.1203289678170307E+00 
    2.2692270462784396E+00 
    2.1451401427690051E+00 
    2.2018297427138500E+00 
    2.2258764012362775E+00 
    2.1002160560678589E+00 
    2.2146180997652012E+00 
    2.1431428294083972E+00 
    2.1713372996495393E+00 
    2.2169262528651297E+00 
    2.2353907745379171E+00 
    2.2271491655862197E+00 
    2.2105782330837926E+00 
    2.2073379050192234E+00 
    2.1468469160334380E+00 
    2.2254427188595844E+00 
    2.1734580406252606E+00 
    2.1098436789596113E+00 
    2.1604335109428057E+00 
    2.1954439534252148E+00 
    2.2469914329698173E+00 
    2.1638311243959105E+00 
    2.2580694305862696E+00 
    2.2233957414072187E+00 
    2.2378992987212083E+00 
    2.2391422344017591E+00 
    2.1738480536913465E+00 
    2.2249399808544417E+00 
    2.1997978967430440E+00 
    2.2476324983924258E+00 
    2.1307568152776528E+00 
    2.4236717915187276E+00 
    2.1495071896922551E+00 
    2.1945712652100640E+00 
    2.2227019749572277E+00 
    2.2735360553865673E+00 
    2.3247113308812368E+00 
    2.1547198861056480E+00 
    2.2255627065959795E+00 
    2.2225522983257107E+00 
    2.1657283583339910E+00 
    2.1368825148282955E+00 
    2.1796946339915548E+00 
    2.2367718753190435E+00 
    2.1370969610620421E+00 
    2.2997389160578989E+00 
    2.1986456872830531E+00 
    2.2372474739246848E+00 
    2.1814857614130596E+00 
    2.1371182871356806E+00 
    2.1693149078527720E+00 
    2.1448437515342400E+00 
    2.3210725707174085E+00 
    2.3332472250518665E+00 
    2.1147955155897002E+00 
    2.2604773574416810E+00 
    2.2472471522305733E+00 
    2.1825955059538962E+00 
    2.2296726470610007E+00 
    2.1360156491933027E+00 
    2.2457770448151368E+00 
    2.3052585069904765E+00 
    2.2131913024747329E+00 
    2.3469454059124781E+00 
    2.3147828339579219E+00 
    2.1985410277864346E+00 
    2.1550210686697233E+00 
    2.1947760810475692E+00 
    2.2237266679920031E+00 
    2.2446053584138381E+00 
    2.1734856373410532E+00 
    2.2121411240898450E+00 
    2.2172533999541835E+00 
    2.3062059412490883E+00 
    2.3788191676841586E+00 
    2.1729123771115719E+00 
    2.1811907164988305E+00 
    2.3620233194196540E+00 
    2.1440434491282856E+00 
    2.2198342150779546E+00 
    2.1769498653142954E+00 
    2.2993454494907266E+00 
    2.5036090073045294E+00 
    2.4429902745939334E+00 
    2.3824805191298091E+00 
    2.4029334292442326E+00 
    2.3544843359670886E+00 
    2.3708495034089307E+00 
    2.2217794903707055E+00 
    2.4170294351272528E+00 
    2.2137914225037787E+00 
    2.3637808523579378E+00 
    2.2140834902362658E+00 
    2.2929361666668928E+00 
    2.3103401637784144E+00 
    2.2504046513539970E+00 
    2.2858486319951568E+00 
    2.1624662751227772E+00 
    2.2887221022410378E+00 
    2.2053174992815823E+00 
    2.2123062280105916E+00 
    2.2112786790120280E+00 
    2.2339495255000301E+00 
    2.1605290364104266E+00 
    2.2936525165217305E+00 
    2.2361654741601780E+00 
    2.2327469575033603E+00 
    2.0934188561288973E+00 
    2.2555336627761120E+00 
    2.3166297879054247E+00 
    2.1674588851426284E+00 
    2.2759334892269294E+00 
    2.3311848926194618E+00 
    2.3531677461695928E+00 
    2.2343525626811234E+00 
    2.1824263681043186E+00 
    2.1532484033563639E+00 
    2.1696634224840898E+00 
    2.2621433011378391E+00 
    2.2272630559054543E+00 
    2.1793382005786595E+00 
    2.2663990553549236E+00 
    2.2051667490780047E+00 
    2.1717508414520585E+00 
    2.2339604738755487E+00 
    2.1215975496090964E+00 
    2.1710632440786397E+00 
    2.3348151143418123E+00 
    2.2614670257392131E+00 
    2.1636853466072394E+00 
    2.2839031389621578E+00 
    2.2764480451298716E+00 
    2.1763211792766688E+00 
    2.1956234221605606E+00 
    2.2009139547262766E+00 
    2.2521887704237971E+00 
    2.2486666695822990E+00 
    2.3098901996444772E+00 
    2.1912186376947411E+00 
    2.2492285639412195E+00 
    2.2627819041807156E+00 
    2.1805448567964354E+00 
    2.1872018939760034E+00 
    2.0862859437069923E+00 
    2.1823891633274743E+00 
    2.3439392885088299E+00 
    2.2268530754512188E+00 
    2.2480732809029353E+00 
    2.2052169912787831E+00 
    2.2481921494145491E+00 
    2.1700143088691464E+00 
    2.1586124129582278E+00 
    2.1353880669055725E+00 
    2.1673003005099591E+00 
    2.1393740503138114E+00 
    2.1915372848055341E+00 
    2.2355476368030698E+00 
    2.1510535086726548E+00 
    2.2784740144111497E+00 
    2.2805908673670610E+00 
    2.1883583969846496E+00 
    2.1588844436529513E+00 
    2.2356062704255284E+00 
    2.1760535324921211E+00 
    2.1273618045730482E+00 
    2.1699995751757153E+00 
    2.1327698057911388E+00 
    2.1333747180961757E+00 
    2.1800745687290131E+00 
    2.2228949560076097E+00 
    2.2969194006475075E+00 
    2.1234144432518982E+00 
    2.1683236644553041E+00 
    2.1480863050763377E+00 
    2.1679085706264281E+00 
    2.3908674938532410E+00 
    2.1375307399086103E+00 
    2.2007065632602250E+00 
    2.1473480100156017E+00 
    2.1819991385358581E+00 
    2.1562353989424023E+00 
    2.1896827664661278E+00 
    2.1471496381114230E+00 
    2.1864354012856664E+00 
    2.1577881817411613E+00 
    2.1896313473237576E+00 
    2.1539399613636134E+00 
    2.1530156065811958E+00 
    2.1323402013825228E+00 
    2.1416202885014024E+00 
    2.2785616120503156E+00 
    2.1150239825694048E+00 
    2.1233022604586882E+00 
    2.1643887786311105E+00 
    2.1507534096962497E+00 
    2.4590597120731741E+00 
    2.1669361074662206E+00 
    2.2507873434215444E+00 
    2.1601289708979952E+00 
    2.1106614538618000E+00 
    2.1786375478017974E+00 
    2.1425499734320193E+00 
    2.1923133825148691E+00 
    2.1543907587148583E+00 
    2.1547975276703570E+00 
    2.1652046693840852E+00 
    2.1345402621036369E+00 
    2.1667728012670118E+00 
    2.1552646488559235E+00 
    2.1155184498231727E+00 
    2.1455784858100118E+00 
    2.1456427820987232E+00 
    2.1621022266342531E+00 
    2.1088363289240704E+00 
    2.1481198870487770E+00 
    2.1619419901468371E+00 
    2.1913475408613636E+00 
    2.1367654560821059E+00 
    2.1263601675791737E+00 
    2.2619970554713782E+00 
    2.1375334354160125E+00 
    2.2116652125785370E+00 
    2.4591102342235938E+00 
    2.2723419081585075E+00 
    2.2123521606014496E+00 
    2.2931843773869671E+00 
    2.1513383310786001E+00 
    2.1456857839639132E+00 
    2.1253989275310050E+00 
    2.1285864973930710E+00 
    2.1296723952596417E+00 
    2.1231687001769251E+00 
    2.2963107303801840E+00 
    2.1270770502953171E+00 
    2.1797171183296880E+00 
    2.2766482623451116E+00 
    2.1909833112949157E+00 
    2.1370839545636175E+00 
    2.2446551604977429E+00 
    2.1212616696149329E+00 
    2.1217336843017915E+00 
    2.1298937340825885E+00 
    2.4269782139281482E+00 
    2.2238660116941751E+00 
    2.2860746690330216E+00 
    2.2915587131144406E+00 
    2.1997925918784840E+00 
    2.2638341270818207E+00 
    2.1399265108906649E+00 
    2.0799092811146234E+00 
    2.6027492539435757E+00 
    2.1002363947875362E+00 
    2.1141282629462315E+00 
    2.1137014440597914E+00 
    2.2134141055703664E+00 
    2.2757062657508698E+00 
    2.0797993293067170E+00 
    2.3270715721244448E+00 
    2.3482877380649390E+00 
    2.2005402056612540E+00 
    2.1551089319671459E+00 
    2.3140240247388277E+00 
    2.2024090119018283E+00 
    2.1308998780428370E+00 
    2.2857274279675135E+00 
    2.1068195038063862E+00 
    2.1060828197396750E+00 
    2.2110830303417139E+00 
    2.1632122839966645E+00 
    2.0870228319745192E+00 
    2.1548199693125873E+00 
    2.0946084380135304E+00 
    2.3044364275956464E+00 
    2.1000369659810882E+00 
    2.1451851392893047E+00 
    2.2738770425570909E+00 
    2.1629534978581604E+00 
    2.2025310654064620E+00 
    2.0988045643889506E+00 
    2.1834932531614029E+00 
    2.1887465904663594E+00 
    2.1319172617000248E+00 
    2.1634558773512516E+00 
    2.2802591427980139E+00 
    2.0941637326584668E+00 
    2.1614737337217220E+00 
    2.1357092915868487E+00 
    2.1363813333799562E+00 
    2.1771241679613733E+00 
    2.1298515227485404E+00 
    2.1689377009397148E+00 
    2.2925630781005530E+00 
    2.3072099285632888E+00 
    2.0920183554642540E+00 
    2.4702507788271708E+00 
    2.1818697506785849E+00 
    2.1483080549965510E+00 
    2.3350616852943324E+00 
    2.2061975184241249E+00 
    2.2209783225528636E+00 
    2.1358410551705758E+00 
    2.1290447539281745E+00 
    2.2389047248771421E+00 
    2.2012290599501987E+00 
    2.0875007226759217E+00 
    2.1355374212816756E+00 
    2.3627789683139824E+00 
    2.1964972990110443E+00 
    2.2676976767763897E+00 
    2.2115619346987616E+00 
    2.2808649356668349E+00 
    2.2388543752892476E+00 
    2.0861565479993041E+00 
    2.1165513137977126E+00 
    2.1566253726744686E+00 
    2.3087117420152881E+00 
    2.2657816771364465E+00 
    2.1531607561607133E+00 
    2.1300599201483492E+00 
    2.1517981792087668E+00 
    2.1405345273525245E+00 
    2.2512176590970627E+00 
    2.1325080257929909E+00 
    2.2198756545762031E+00 
    2.4032129400087867E+00 
    2.1272979594817771E+00 
    2.3678829220934827E+00 
    2.1720814574381455E+00 
    2.3828205406707506E+00 
    2.2757929083955388E+00 
    2.5157550627738412E+00 
    2.1457756762052935E+00 
    2.2637918617848105E+00 
    2.1893489458201922E+00 
    2.1233527737690143E+00 
    2.2900362737544540E+00 
    2.1814422711822772E+00 
    2.2989690009557404E+00 
    2.1266404274605635E+00 
    2.2663223753233437E+00 
    2.1727927593043268E+00 
    2.2040737392837904E+00 
    2.0990483886823386E+00 
    2.1300550973732881E+00 
    2.1190470815638469E+00 
    2.3296178494551167E+00 
    2.1475826649857761E+00 
    2.3942720282872560E+00 
    2.3464029459896589E+00 
    2.1386615117176273E+00 
    2.1710351326710762E+00 
    2.1570429453408542E+00 
    2.0976440349278400E+00 
    2.1759154141012074E+00 
    2.2795888418248351E+00 
    2.1379588405874368E+00 
    2.1054209994265105E+00 
    2.4221379191854164E+00 
    2.2512163596937222E+00 
    2.0801485563755420E+00 
    2.0799819892410558E+00 
    2.1150083422581867E+00 
    2.1208711205348352E+00 
    2.1036057150168839E+00 
    2.0946378718479464E+00 
    2.1530097734107865E+00 
    2.1436910466176053E+00 
    2.0739991489756768E+00 
    2.0741155363558792E+00 
    2.0444810617588804E+00 
    1.9915904889173610E+00 
    1.9856427042441789E+00 
    1.9907781105445539E+00 
    2.0079863371233531E+00 
    2.0056302909808572E+00 
    2.0557690239551114E+00 
    1.9731033246735012E+00 
    2.0437919714854185E+00 
    1.9771321966813125E+00 
    2.0265533578573693E+00 
    2.0028371018577094E+00 
    2.0005058196262828E+00 
    1.9793140752365275E+00 
    1.9725875001038768E+00 
    2.0919133829552830E+00 
    2.0532560223188367E+00 
    2.0748618865065795E+00 
    2.0495004709751297E+00 
    2.0143916879499795E+00 
    1.9718928120179604E+00 
    1.9694575859123575E+00 
    2.0881114433245891E+00 
    2.0238383452224933E+00 
    1.9714312897024802E+00 
    2.0082126168330379E+00 
    2.0678712926258949E+00 
    2.0675750044918346E+00 
    1.9609202314636192E+00 
    1.9706882696635533E+00 
    2.0261817188749451E+00 
    2.0761245888175481E+00 
    2.0553748370185594E+00 
    2.0153005799189669E+00 
    1.9927606889471883E+00 
    2.0992457196710403E+00 
    2.0770169066550541E+00 
    2.0676547522275417E+00 
    2.1133857018402882E+00 
    1.9921957488461985E+00 
    2.0053788480115129E+00 
    2.0012003035331003E+00 
    2.0864148957019193E+00 
    2.0042388399638362E+00 
    2.0716262186016001E+00 
    2.0376733570836576E+00 
    2.0345244041184825E+00 
    2.0217740636080688E+00 
    2.0259931166696101E+00 
    2.0766434301380690E+00 
    2.0731464454620396E+00 
    2.0320294872732347E+00 
    1.9867477554123387E+00 
    2.0237506086335126E+00 
    2.0191657858085268E+00 
    1.9740380096807288E+00 
    2.0582261871004572E+00 
    1.9766017915399605E+00 
    2.0763161493694855E+00 
    1.9792944307742024E+00 
    2.0445393041031483E+00 
    1.9973355512380941E+00 
    1.9589165341915635E+00 
    1.9601708391167374E+00 
    1.9596697159304495E+00 
    1.9516241446806049E+00 
    2.0220347970025787E+00 
    1.9524074300620811E+00 
    1.9709858344381390E+00 
    1.9728590764645999E+00 
    2.1031871059692469E+00 
    2.0260076238540314E+00 
    1.9727983506077622E+00 
    2.0758279985116239E+00 
    2.0095516458453400E+00 
    1.9940585988852175E+00 
    2.0608921010824641E+00 
    2.1007168984264473E+00 
    2.0490643256256775E+00 
    2.0514479642972243E+00 
    2.0310960988076978E+00 
    2.0431761916298177E+00 
    2.0640250844889376E+00 
    2.0615977607339042E+00 
    2.0591179160634643E+00 
    2.0627321726632863E+00 
    2.0349766379753698E+00 
    2.0735895737228529E+00 
    2.0731589866140938E+00 
    2.0465281407680269E+00 
    2.0540327769744904E+00 
    2.0911321639769240E+00 
    2.0629998147830100E+00 
    2.0706628809777330E+00 
    2.0943690577014178E+00 
    2.0084117613091359E+00 
    1.9981707843620444E+00 
    2.0450304224427867E+00 
    2.0773509525913174E+00 
    2.1012363689138658E+00 
    2.0734730764930673E+00 
    1.9599895721707747E+00 
    1.9964446608517479E+00 
    2.0434177865858176E+00 
    2.0192942614395899E+00 
    1.9797547193398080E+00 
    2.0638873805220808E+00 
    2.0421096439707287E+00 
    1.9798220617303957E+00 
    2.0555871613599934E+00 
    1.9888225885310973E+00 
    1.9998972836585838E+00 
    1.9962918363157998E+00 
    2.0476823770957377E+00 
    2.0717335410715152E+00 
    2.0885250022240078E+00 
    2.0626329434730573E+00 
    2.0835896372063285E+00 
    1.9870359632558974E+00 
    1.9736451117203366E+00 
    2.0882439021130494E+00 
    2.0585778351971684E+00 
    1.9600192271814307E+00 
    1.9587886076102186E+00 
    2.0978385660185328E+00 
    2.0364419950094548E+00 
    2.0650755306517556E+00 
    2.0427177282021494E+00 
    2.0109299877078501E+00 
    2.0456936761433955E+00 
    2.0570091776188311E+00 
    2.0340156628213211E+00 
    2.0295484619506410E+00 
    2.0293325292452473E+00 
    1.9497569814124485E+00 
    2.0803379443462955E+00 
    2.1138096096078991E+00 
    1.9504684646254447E+00 
    1.9500376284916752E+00 
    1.9514076727763594E+00 
    1.9505221335551632E+00 
    1.9581974126451334E+00 
    2.0659821852125879E+00 
    2.0129246499076747E+00 
    1.9694829133040721E+00 
    2.0552244797412240E+00 
    2.0530762058501910E+00 
    2.0049693640843671E+00 
    2.0210466493209633E+00 
    2.0134476404304076E+00 
    2.0329194173594325E+00 
    2.0855200819731268E+00 
    1.9499227015024823E+00 
    1.9509638290970133E+00 
    1.9897988287511250E+00 
    2.0259275283197309E+00 
    2.0687508735769566E+00 
    1.9704914237661217E+00 
    2.0878995636445659E+00 
    1.9552856527308236E+00 
    2.0071682056357978E+00 
    1.9595122021572045E+00 
    1.9584571928794785E+00 
    1.9677365898833457E+00 
    2.0886284333724849E+00 
    2.0421417010134211E+00 
    2.0173959934469239E+00 
    2.0350689006088585E+00 
    2.0514628030734396E+00 
    1.9576329142555227E+00 
    2.0154898119358644E+00 
    2.0429683239924974E+00 
    2.0876821721672929E+00 
    2.0801301176633551E+00 
    2.0770773484254548E+00 
    2.0883583736705633E+00 
    2.0937848065606559E+00 
    2.0306860431502929E+00 
    1.9725085183976212E+00 
    2.0500817567366041E+00 
    2.0484766384586397E+00 
    2.0101765898686637E+00 
    1.9570300332469048E+00 
    2.0460059582613863E+00 
    2.0594676841861510E+00 
    2.0666064253445962E+00 
    2.0557637225608127E+00 
    1.9582035411144527E+00 
    2.0512836818021292E+00 
    2.0473552596524969E+00 
    1.9677784776319895E+00 
    1.9816650602277863E+00 
    2.0426274047602311E+00 
    2.0541545452504204E+00 
    2.0496104856358905E+00 
    2.0609478160960051E+00 
    2.0600803543529382E+00 
    2.0864819740898390E+00 
    2.0454567101082750E+00 
    2.0713316803140849E+00 
    2.0389389509595843E+00 
    2.0516294178571739E+00 
    1.9542955509789950E+00 
    2.0995372837286546E+00 
    2.0828660490570856E+00 
    2.0928415515371550E+00 
    2.0111227768701547E+00 
    1.9994444529487505E+00 
    1.9858932986646012E+00 
    2.0649601130050401E+00 
    2.0428057142838871E+00 
    2.0681301771909713E+00 
    2.0030503769344317E+00 
    1.9685366195795979E+00 
    1.9805676144121018E+00 
    2.0770189169339108E+00 
    1.9764859343037133E+00 
    2.0314078467231123E+00 
    1.9876424904538745E+00 
    2.0757925100167540E+00 
    2.0405508507623393E+00 
    2.0289421171967823E+00 
    2.0954160342562864E+00 
    2.0900800147916634E+00 
    2.0192330429872229E+00 
    2.0113010219575349E+00 
    1.9939311471932755E+00 
    2.0242260846386362E+00 
    2.0675260841890131E+00 
    1.9521836936402703E+00 
    2.0847634178010068E+00 
    2.0954663514925742E+00 
    2.0175521884771599E+00 
    2.0134022706528891E+00 
    1.9692833757288744E+00 
    1.9567588601142034E+00 
    2.0921004340158782E+00 
    1.9996239560346531E+00 
    2.0432988310799547E+00 
    2.0179725336381846E+00 
    2.0529290054886138E+00 
    1.9817806496621977E+00 
    2.0329899350108156E+00 
    2.0917052698711189E+00 
    1.9905939831401100E+00 
    2.0160816894316058E+00 
    1.9879943315224833E+00 
    2.0243695304930553E+00 
    2.0972524057065129E+00 
    1.9953572823331909E+00 
    2.0417103720122287E+00 
    2.0050345560352278E+00 
    1.9702111885250424E+00 
    2.0607357352080982E+00 
    2.0603606290529726E+00 
    2.0490047885998819E+00 
    2.0038250575081378E+00 
    2.0013763842785783E+00 
    1.9745979065924490E+00 
    2.0445347011539323E+00 
    2.0598739225883946E+00 
    2.0302359552452609E+00 
    1.9716298810835149E+00 
    1.9982220057973217E+00 