# vtk DataFile Version 2.0
Pressure Field Data 
ASCII 
DATASET UNSTRUCTURED_GRID 

POINTS 2213 double 

    0.0000000000000000E+00     0.0000000000000000E+00     0.0000000000000000E+00 
    5.0000000000000000E-01     0.0000000000000000E+00     0.0000000000000000E+00 
    1.0000000000000000E+00     0.0000000000000000E+00     0.0000000000000000E+00 
    1.0000000000000000E+00     5.0000000000000000E-01     0.0000000000000000E+00 
    1.0000000000000000E+00     1.0000000000000000E+00     0.0000000000000000E+00 
    5.0000000000000000E-01     1.0000000000000000E+00     0.0000000000000000E+00 
    0.0000000000000000E+00     1.0000000000000000E+00     0.0000000000000000E+00 
    0.0000000000000000E+00     5.0000000000000000E-01     0.0000000000000000E+00 
    1.5624999999971041E-02     0.0000000000000000E+00     0.0000000000000000E+00 
    3.1249999999936742E-02     0.0000000000000000E+00     0.0000000000000000E+00 
    4.6874999999913257E-02     0.0000000000000000E+00     0.0000000000000000E+00 
    6.2499999999889783E-02     0.0000000000000000E+00     0.0000000000000000E+00 
    7.8124999999844805E-02     0.0000000000000000E+00     0.0000000000000000E+00 
    9.3749999999799827E-02     0.0000000000000000E+00     0.0000000000000000E+00 
    1.0937499999975490E-01     0.0000000000000000E+00     0.0000000000000000E+00 
    1.2499999999970990E-01     0.0000000000000000E+00     0.0000000000000000E+00 
    1.4062499999966460E-01     0.0000000000000000E+00     0.0000000000000000E+00 
    1.5624999999961930E-01     0.0000000000000000E+00     0.0000000000000000E+00 
    1.7187499999957390E-01     0.0000000000000000E+00     0.0000000000000000E+00 
    1.8749999999952860E-01     0.0000000000000000E+00     0.0000000000000000E+00 
    2.0312499999948330E-01     0.0000000000000000E+00     0.0000000000000000E+00 
    2.1874999999943801E-01     0.0000000000000000E+00     0.0000000000000000E+00 
    2.3437499999939271E-01     0.0000000000000000E+00     0.0000000000000000E+00 
    2.4999999999934730E-01     0.0000000000000000E+00     0.0000000000000000E+00 
    2.6562499999938810E-01     0.0000000000000000E+00     0.0000000000000000E+00 
    2.8124999999942890E-01     0.0000000000000000E+00     0.0000000000000000E+00 
    2.9687499999946970E-01     0.0000000000000000E+00     0.0000000000000000E+00 
    3.1249999999951050E-01     0.0000000000000000E+00     0.0000000000000000E+00 
    3.2812499999955130E-01     0.0000000000000000E+00     0.0000000000000000E+00 
    3.4374999999959210E-01     0.0000000000000000E+00     0.0000000000000000E+00 
    3.5937499999963290E-01     0.0000000000000000E+00     0.0000000000000000E+00 
    3.7499999999967371E-01     0.0000000000000000E+00     0.0000000000000000E+00 
    3.9062499999971451E-01     0.0000000000000000E+00     0.0000000000000000E+00 
    4.0624999999975520E-01     0.0000000000000000E+00     0.0000000000000000E+00 
    4.2187499999979600E-01     0.0000000000000000E+00     0.0000000000000000E+00 
    4.3749999999983680E-01     0.0000000000000000E+00     0.0000000000000000E+00 
    4.5312499999987760E-01     0.0000000000000000E+00     0.0000000000000000E+00 
    4.6874999999991840E-01     0.0000000000000000E+00     0.0000000000000000E+00 
    4.8437499999995920E-01     0.0000000000000000E+00     0.0000000000000000E+00 
    5.1562499999992384E-01     0.0000000000000000E+00     0.0000000000000000E+00 
    5.3124999999985478E-01     0.0000000000000000E+00     0.0000000000000000E+00 
    5.4687499999994527E-01     0.0000000000000000E+00     0.0000000000000000E+00 
    5.6249999999998668E-01     0.0000000000000000E+00     0.0000000000000000E+00 
    5.7812499999998068E-01     0.0000000000000000E+00     0.0000000000000000E+00 
    5.9374999999994749E-01     0.0000000000000000E+00     0.0000000000000000E+00 
    6.0937499999997913E-01     0.0000000000000000E+00     0.0000000000000000E+00 
    6.2500000000000000E-01     0.0000000000000000E+00     0.0000000000000000E+00 
    6.4062499999998945E-01     0.0000000000000000E+00     0.0000000000000000E+00 
    6.5624999999996603E-01     0.0000000000000000E+00     0.0000000000000000E+00 
    6.7187499999995337E-01     0.0000000000000000E+00     0.0000000000000000E+00 
    6.8749999999998734E-01     0.0000000000000000E+00     0.0000000000000000E+00 
    7.0312499999998124E-01     0.0000000000000000E+00     0.0000000000000000E+00 
    7.1874999999997025E-01     0.0000000000000000E+00     0.0000000000000000E+00 
    7.3437499999999034E-01     0.0000000000000000E+00     0.0000000000000000E+00 
    7.5000000000000000E-01     0.0000000000000000E+00     0.0000000000000000E+00 
    7.6562499999996902E-01     0.0000000000000000E+00     0.0000000000000000E+00 
    7.8124999999993228E-01     0.0000000000000000E+00     0.0000000000000000E+00 
    7.9687499999989997E-01     0.0000000000000000E+00     0.0000000000000000E+00 
    8.1249999999996247E-01     0.0000000000000000E+00     0.0000000000000000E+00 
    8.2812499999999578E-01     0.0000000000000000E+00     0.0000000000000000E+00 
    8.4374999999999556E-01     0.0000000000000000E+00     0.0000000000000000E+00 
    8.5937500000000111E-01     0.0000000000000000E+00     0.0000000000000000E+00 
    8.7499999999997691E-01     0.0000000000000000E+00     0.0000000000000000E+00 
    8.9062500000000921E-01     0.0000000000000000E+00     0.0000000000000000E+00 
    9.0625000000004452E-01     0.0000000000000000E+00     0.0000000000000000E+00 
    9.2187500000005529E-01     0.0000000000000000E+00     0.0000000000000000E+00 
    9.3750000000012723E-01     0.0000000000000000E+00     0.0000000000000000E+00 
    9.5312500000011835E-01     0.0000000000000000E+00     0.0000000000000000E+00 
    9.6875000000005151E-01     0.0000000000000000E+00     0.0000000000000000E+00 
    9.8437500000003086E-01     0.0000000000000000E+00     0.0000000000000000E+00 
    1.0000000000000000E+00     1.5624999999971041E-02     0.0000000000000000E+00 
    1.0000000000000000E+00     3.1249999999936742E-02     0.0000000000000000E+00 
    1.0000000000000000E+00     4.6874999999913257E-02     0.0000000000000000E+00 
    1.0000000000000000E+00     6.2499999999889783E-02     0.0000000000000000E+00 
    1.0000000000000000E+00     7.8124999999844805E-02     0.0000000000000000E+00 
    1.0000000000000000E+00     9.3749999999799827E-02     0.0000000000000000E+00 
    1.0000000000000000E+00     1.0937499999975490E-01     0.0000000000000000E+00 
    1.0000000000000000E+00     1.2499999999970990E-01     0.0000000000000000E+00 
    1.0000000000000000E+00     1.4062499999966460E-01     0.0000000000000000E+00 
    1.0000000000000000E+00     1.5624999999961930E-01     0.0000000000000000E+00 
    1.0000000000000000E+00     1.7187499999957390E-01     0.0000000000000000E+00 
    1.0000000000000000E+00     1.8749999999952860E-01     0.0000000000000000E+00 
    1.0000000000000000E+00     2.0312499999948330E-01     0.0000000000000000E+00 
    1.0000000000000000E+00     2.1874999999943801E-01     0.0000000000000000E+00 
    1.0000000000000000E+00     2.3437499999939271E-01     0.0000000000000000E+00 
    1.0000000000000000E+00     2.4999999999934730E-01     0.0000000000000000E+00 
    1.0000000000000000E+00     2.6562499999938810E-01     0.0000000000000000E+00 
    1.0000000000000000E+00     2.8124999999942890E-01     0.0000000000000000E+00 
    1.0000000000000000E+00     2.9687499999946970E-01     0.0000000000000000E+00 
    1.0000000000000000E+00     3.1249999999951050E-01     0.0000000000000000E+00 
    1.0000000000000000E+00     3.2812499999955130E-01     0.0000000000000000E+00 
    1.0000000000000000E+00     3.4374999999959210E-01     0.0000000000000000E+00 
    1.0000000000000000E+00     3.5937499999963290E-01     0.0000000000000000E+00 
    1.0000000000000000E+00     3.7499999999967371E-01     0.0000000000000000E+00 
    1.0000000000000000E+00     3.9062499999971451E-01     0.0000000000000000E+00 
    1.0000000000000000E+00     4.0624999999975520E-01     0.0000000000000000E+00 
    1.0000000000000000E+00     4.2187499999979600E-01     0.0000000000000000E+00 
    1.0000000000000000E+00     4.3749999999983680E-01     0.0000000000000000E+00 
    1.0000000000000000E+00     4.5312499999987760E-01     0.0000000000000000E+00 
    1.0000000000000000E+00     4.6874999999991840E-01     0.0000000000000000E+00 
    1.0000000000000000E+00     4.8437499999995920E-01     0.0000000000000000E+00 
    1.0000000000000000E+00     5.1562499999992384E-01     0.0000000000000000E+00 
    1.0000000000000000E+00     5.3124999999985478E-01     0.0000000000000000E+00 
    1.0000000000000000E+00     5.4687499999994527E-01     0.0000000000000000E+00 
    1.0000000000000000E+00     5.6249999999998668E-01     0.0000000000000000E+00 
    1.0000000000000000E+00     5.7812499999998068E-01     0.0000000000000000E+00 
    1.0000000000000000E+00     5.9374999999994749E-01     0.0000000000000000E+00 
    1.0000000000000000E+00     6.0937499999997913E-01     0.0000000000000000E+00 
    1.0000000000000000E+00     6.2500000000000000E-01     0.0000000000000000E+00 
    1.0000000000000000E+00     6.4062499999998945E-01     0.0000000000000000E+00 
    1.0000000000000000E+00     6.5624999999996603E-01     0.0000000000000000E+00 
    1.0000000000000000E+00     6.7187499999995337E-01     0.0000000000000000E+00 
    1.0000000000000000E+00     6.8749999999998734E-01     0.0000000000000000E+00 
    1.0000000000000000E+00     7.0312499999998124E-01     0.0000000000000000E+00 
    1.0000000000000000E+00     7.1874999999997025E-01     0.0000000000000000E+00 
    1.0000000000000000E+00     7.3437499999999034E-01     0.0000000000000000E+00 
    1.0000000000000000E+00     7.5000000000000000E-01     0.0000000000000000E+00 
    1.0000000000000000E+00     7.6562499999996902E-01     0.0000000000000000E+00 
    1.0000000000000000E+00     7.8124999999993228E-01     0.0000000000000000E+00 
    1.0000000000000000E+00     7.9687499999989997E-01     0.0000000000000000E+00 
[...]
CELL_DATA 2084 
SCALARS Pressure double 1 
LOOKUP_TABLE default 

    2.4256572600364126E+00 
    2.4521363411238548E+00 
    2.6364038383683481E+00 
    2.4528551805621435E+00 
    2.5544537149265234E+00 
    2.5119849087243331E+00 
    2.3990803956844844E+00 
    2.4971646001915597E+00 
    2.5069755834857368E+00 
    2.5586167406121745E+00 
    2.6306276613887878E+00 
    2.4126629319523674E+00 
    2.4865377284621042E+00 
    2.4496558600981917E+00 
    2.4210077779826555E+00 
    2.4397014426296728E+00 
    2.5913209219130664E+00 
    2.4690168073295591E+00 
    2.6623929902664543E+00 
    2.4322053785319544E+00 
    2.4356470225919029E+00 
    2.5379155339098238E+00 
    2.4381229555326689E+00 
    2.4826852017447583E+00 
    2.4287818366959502E+00 
    2.4841786818808482E+00 
    2.4451991949347458E+00 
    2.4021141674128810E+00 
    2.4907690632684960E+00 
    2.4586651574818146E+00 
    2.3918501152014722E+00 
    2.4978120922884268E+00 
    2.3804332513324211E+00 
    2.4349718927791608E+00 
    2.4160663091586358E+00 
    2.5484162696373853E+00 
    2.4638792896168518E+00 
    2.4598197781941038E+00 
    2.5378912102022535E+00 
    2.4987520164185963E+00 
    2.4045026587835725E+00 
    2.5631063898380537E+00 
    2.4291568289998007E+00 
    2.5185565627561926E+00 
    2.5110879452070338E+00 
    2.4113505423452168E+00 
    2.5615152085886543E+00 
    2.3960060098517610E+00 
    2.3977996884345685E+00 
    2.4873140140206256E+00 
    2.4848093257173947E+00 
    2.4014534783867130E+00 
    2.4112211521888236E+00 
    2.4720188763210946E+00 
    2.4731215511713907E+00 
    2.4046944178135288E+00 
    2.3854395295979387E+00 
    2.5246511154244282E+00 
    2.5355278546406406E+00 
    2.4797733437062188E+00 
    2.4785393760737517E+00 
    2.4328463364253929E+00 
    2.4148589481861280E+00 
    2.4474798328532916E+00 
    2.5591000676890845E+00 
    2.4758056326088971E+00 
    2.5068123526166777E+00 
    2.4099090192417769E+00 
    2.3966134853475589E+00 
    2.3957378566405678E+00 
    2.4269945131643027E+00 
    2.6922546464488102E+00 
    2.4849221430197317E+00 
    2.6142280526158745E+00 
    2.5320097221773761E+00 
    2.6116933072163855E+00 
    2.4806624783108955E+00 
    2.5513278926159950E+00 
    2.4123845812492721E+00 
    2.5680281392469166E+00 
    2.4387693084822870E+00 
    2.4984045324695563E+00 
    2.5233649238403406E+00 
    2.3908681825810114E+00 
    2.5116794036293695E+00 
    2.4367283624912650E+00 
    2.4664234313664877E+00 
    2.5140834351317962E+00 
    2.5332175456528638E+00 
    2.5246866801680237E+00 
    2.5074816851595769E+00 
    2.5041259432336807E+00 
    2.4405417283940460E+00 
    2.5229161110623117E+00 
    2.4687171947938964E+00 
    2.4012821591814144E+00 
    2.4549415570339774E+00 
    2.4917239785506107E+00 
    2.5451878012107847E+00 
    2.4585838343188744E+00 
    2.5565812869713862E+00 
    2.5207960763517758E+00 
    2.5358016214290302E+00 
    2.5370946102361480E+00 
    2.4691231215330949E+00 
    2.5223959063685895E+00 
    2.4962467046849448E+00 
    2.5458473586536958E+00 
    2.4234975227873812E+00 
    2.7243532348488189E+00 
    2.4433892584235366E+00 
    2.4907884194263095E+00 
    2.5200810785674159E+00 
    2.5724387788269412E+00 
    2.6245605078951662E+00 
    2.4489090856477094E+00 
    2.5230419322248259E+00 
    2.5199217429248764E+00 
    2.4605771462770725E+00 
    2.4299800507506308E+00 
    2.4752071024439544E+00 
    2.5346383045015508E+00 
    2.4301967680567267E+00 
    2.5991833545100627E+00 
    2.4950452651699564E+00 
    2.5351359430113360E+00 
    2.4770884967780913E+00 
    2.4302239546644193E+00 
    2.4643449169649747E+00 
    2.4385239979815116E+00 
    2.6208702978614671E+00 
    2.6332072653955345E+00 
    2.4065583406244557E+00 
    2.5590516014733287E+00 
    2.5454458781318845E+00 
    2.4783023227320053E+00 
    2.5273090512010854E+00 
    2.4290671973976026E+00 
    2.5439331975128838E+00 
    2.6048014364798218E+00 
    2.5101960190709569E+00 
    2.6470728946987956E+00 
    2.6144827040323775E+00 
    2.4949511886082423E+00 
    2.4492860409667658E+00 
    2.4909968514044545E+00 
    2.5211411732708737E+00 
    2.5427284383351938E+00 
    2.4687483775876755E+00 
    2.5091130186406101E+00 
    2.5144251038354368E+00 
    2.6057711832336472E+00 
    2.6792397941499555E+00 
    2.4681193159279635E+00 
    2.4767799897973957E+00 
    2.6622988335360938E+00 
    2.4376873135363062E+00 
    2.5171194986050045E+00 
    2.4723234559597094E+00 
    2.5987851025302930E+00 
    2.8045183220400696E+00 
    2.7437415060287895E+00 
    2.6829175562519074E+00 
    2.7035057807639853E+00 
    2.6546797013028089E+00 
    2.6711978670689414E+00 
    2.5191260628342143E+00 
    2.7176727999152521E+00 
    2.5108239092359366E+00 
    2.6640763493294171E+00 
    2.5111248752415896E+00 
    2.5922599455342894E+00 
    2.6099655827083463E+00 
    2.5486941320019003E+00 
    2.5850259241248921E+00 
    2.4570812997742451E+00 
    2.5879552544769524E+00 
    2.5019983335443596E+00 
    2.5092758114206908E+00 
    2.5082051454447107E+00 
    2.5317249022202732E+00 
    2.4550169788601561E+00 
    2.5929856655717862E+00 
    2.5340130849119293E+00 
    2.5304845536380070E+00 
    2.3837244099833961E+00 
    2.5539800054136448E+00 
    2.6163624065415170E+00 
    2.4623265535016583E+00 
    2.5748937763788455E+00 
    2.6311226944618218E+00 
    2.6533603944645190E+00 
    2.5321413669507384E+00 
    2.4780706360401537E+00 
    2.4473544229970150E+00 
    2.4646492322929414E+00 
    2.5607690704121011E+00 
    2.5248070776131462E+00 
    2.4748312114331132E+00 
    2.5651359432331811E+00 
    2.5018485638430215E+00 
    2.4668501165753525E+00 
    2.5317409840258764E+00 
    2.4137431448968352E+00 
    2.4661389230404080E+00 
    2.6347999213094231E+00 
    2.5600694133094191E+00 
    2.4583629825005326E+00 
    2.5830373772043496E+00 
    2.5754167898771154E+00 
    2.4717150952923355E+00 
    2.4919259681523993E+00 
    2.4974212457167693E+00 
    2.5505397758917079E+00 
    2.5469182254224370E+00 
    2.6095138273382030E+00 
    2.4873303985645672E+00 
    2.5474843556195079E+00 
    2.5614145158107178E+00 
    2.4761081263509643E+00 
    2.4830988153740332E+00 
    2.3759133851853944E+00 
    2.4780275328923183E+00 
    2.6440308650604982E+00 
    2.5243826448395450E+00 
    2.5462979479882630E+00 
    2.5019002137744986E+00 
    2.5464183930640605E+00 
    2.4650219106490212E+00 
    2.4530699754892358E+00 
    2.4284182484458148E+00 
    2.4621688531345969E+00 
    2.4326457340045193E+00 
    2.4876185331346439E+00 
    2.5333884928245234E+00 
    2.4450196724864814E+00 
    2.5774869629815838E+00 
    2.5796592400098191E+00 
    2.4842875060061336E+00 
    2.4532889945116376E+00 
    2.5334382143689922E+00 
    2.4714107717019935E+00 
    2.4198600647146407E+00 
    2.4650285489368478E+00 
    2.4255947318195741E+00 
    2.4263679426091920E+00 
    2.4755943425952638E+00 
    2.5202974644340719E+00 
    2.5963229977561855E+00 
    2.4157811139320562E+00 
    2.4632431333595286E+00 
    2.4419481669171632E+00 
    2.4628381789396254E+00 
    2.6913723171540092E+00 
    2.4306666309902898E+00 
    2.4971978698360648E+00 
    2.4410829952006847E+00 
    2.4776803114566337E+00 
    2.4504897518366597E+00 
    2.4856888252760663E+00 
    2.4408761872371971E+00 
    2.4823195142851220E+00 
    2.4521677405658862E+00 
    2.4856240243939567E+00 
    2.4481544096801588E+00 
    2.4470904792193919E+00 
    2.4252283137768091E+00 
    2.4350858857320468E+00 
    2.5775835900663857E+00 
    2.4067005371695056E+00 
    2.4156341140137254E+00 
    2.4591791366276174E+00 
    2.4447188169639640E+00 
    2.7598744111635414E+00 
    2.4617899367252942E+00 
    2.5490957129083420E+00 
    2.4546272191285810E+00 
    2.4020611198951549E+00 
    2.4741148203640644E+00 
    2.4360011249870417E+00 
    2.4884737152866241E+00 
    2.4486362363549645E+00 
    2.4489932876664340E+00 
    2.4600010740213918E+00 
    2.4275090965596506E+00 
    2.4616044111714714E+00 
    2.4494613333722515E+00 
    2.4072433249164749E+00 
    2.4393177096897989E+00 
    2.4393062561549286E+00 
    2.4567415353558677E+00 
    2.4002331174571716E+00 
    2.4418932358715661E+00 
    2.4565306861512215E+00 
    2.4874247769149482E+00 
    2.4299760386378986E+00 
    2.4189032624605042E+00 
    2.5606177563049961E+00 
    2.4307057795357760E+00 
    2.5086436529070468E+00 
    2.7599149417626250E+00 
    2.5712180471025889E+00 
    2.5093311926439426E+00 
    2.5925134646029941E+00 
    2.4453773359213229E+00 
    2.4394295786479754E+00 
    2.4177865575492925E+00 
    2.4212882804170333E+00 
    2.4223487513503108E+00 
    2.4154618001841648E+00 
    2.5956959210469512E+00 
    2.4195436312457335E+00 
    2.4752342636176796E+00 
    2.5756279198077525E+00 
    2.4870323087818003E+00 
    2.4302266929649718E+00 
    2.5427785077650022E+00 
    2.4134939922466332E+00 
    2.4138895845171184E+00 
    2.4225678050469348E+00 
    2.7276723408778136E+00 
    2.5212872711383350E+00 
    2.5852590011163707E+00 
    2.5908540001745832E+00 
    2.4962391283133378E+00 
    2.5624939255469905E+00 
    2.4332054987149685E+00 
    2.3692220812818712E+00 
    2.9037624062499323E+00 
    2.3910380826043642E+00 
    2.4058891542886722E+00 
    2.4053139704387387E+00 
    2.5104590045075796E+00 
    2.5746572633392728E+00 
    2.3689305234977986E+00 
    2.6269513504541071E+00 
    2.6484255124050748E+00 
    2.4970145938017101E+00 
    2.4493925426439089E+00 
    2.6137097817874007E+00 
    2.4989751540862715E+00 
    2.4237227499242548E+00 
    2.5849089341194857E+00 
    2.3980817423153584E+00 
    2.3971650543349114E+00 
    2.5080292810828291E+00 
    2.4579416380717873E+00 
    2.3768652923346103E+00 
    2.4490450389896585E+00 
    2.3848579268757559E+00 
    2.6039710167682655E+00 
    2.3908252632865428E+00 
    2.4388496772207326E+00 
    2.5727948750159633E+00 
    2.4575766802531573E+00 
    2.4990989047654248E+00 
    2.3893638688451002E+00 
    2.4791844912533945E+00 
    2.4846976588386802E+00 
    2.4247144138837520E+00 
    2.4581336993938407E+00 
    2.5793201036864151E+00 
    2.3845320086166950E+00 
    2.4560417949607083E+00 
    2.4287192896094902E+00 
    2.4295391907726911E+00 
    2.4724965105005627E+00 
    2.4225479593885972E+00 
    2.4639088374157487E+00 
    2.5918757031626916E+00 
    2.6067930489135600E+00 
    2.3820785708305450E+00 
    2.7710924014824694E+00 
    2.4774853947257682E+00 
    2.4421434043364458E+00 
    2.6350435873057863E+00 
    2.5029169021714823E+00 
    2.5183032149666791E+00 
    2.4288833627055006E+00 
    2.4216780114679364E+00 
    2.5368455624158286E+00 
    2.4977416020153012E+00 
    2.3773817552257928E+00 
    2.4286581409677126E+00 
    2.6630630761447831E+00 
    2.4927960025100893E+00 
    2.5664631853553930E+00 
    2.5085352025559824E+00 
    2.5799413764393408E+00 
    2.5367950261681402E+00 
    2.3757762701188470E+00 
    2.4084690303529435E+00 
    2.4509103244671548E+00 
    2.6083173549011422E+00 
    2.5645015730052219E+00 
    2.4472308250085137E+00 
    2.4227605703468793E+00 
    2.4457873848609442E+00 
    2.4338704834373552E+00 
    2.5495375823487105E+00 
    2.4253604660666483E+00 
    2.5171555106722994E+00 
    2.7037953648384017E+00 
    2.4199168457363753E+00 
    2.6682083923492388E+00 
    2.4672741681747090E+00 
    2.6832718769821380E+00 
    2.5747552515651706E+00 
    2.8166745860250320E+00 
    2.4394273132975850E+00 
    2.5624594418642932E+00 
    2.4853735263925620E+00 
    2.4155802751433400E+00 
    2.5892999680720590E+00 
    2.4770980331707277E+00 
    2.5984049348851403E+00 
    2.4191446321868066E+00 
    2.5650550175666416E+00 
    2.4679434018624398E+00 
    2.5007408516042937E+00 
    2.3897522711978190E+00 
    2.4227096892547473E+00 
    2.4109922476620267E+00 
    2.6295309592065212E+00 
    2.4413289126252544E+00 
    2.6947960318165673E+00 
    2.6465166977215340E+00 
    2.4319646600858116E+00 
    2.4661143320985626E+00 
    2.4513346246832795E+00 
    2.3881186269383017E+00 
    2.4712310605529697E+00 
    2.5786374905276941E+00 
    2.4311571406308468E+00 
    2.3964564980797629E+00 
    2.7228159065574009E+00 
    2.5495347065056007E+00 
    2.3694805804535397E+00 
    2.3691278095907595E+00 
    2.4068264063863136E+00 
    2.4130763247774505E+00 
    2.3945107061059092E+00 
    2.3850390801918691E+00 
    2.4470951954747742E+00 
    2.4372263104851104E+00 
    2.3628609563614611E+00 
    2.3628020026991687E+00 
    2.3307093792426250E+00 
    2.2728098105194063E+00 
    2.2667414557284764E+00 
    2.2720061644748193E+00 
    2.2912125751183940E+00 
    2.2882915925625862E+00 
    2.3429605036416485E+00 
    2.2524133877226253E+00 
    2.3299406889447853E+00 
    2.2573973585856071E+00 
    2.3114564271409770E+00 
    2.2855739124447441E+00 
    2.2826856966003688E+00 
    2.2594494392981899E+00 
    2.2519981684608603E+00 
    2.3820705846843984E+00 
    2.3402046622710357E+00 
    2.3635821897043074E+00 
    2.3363943097244841E+00 
    2.2980765132383367E+00 
    2.2514622703950717E+00 
    2.2489347036464098E+00 
    2.3778579018008803E+00 
    2.3083275390445830E+00 
    2.2509338916676445E+00 
    2.2911118382201412E+00 
    2.3560585341988367E+00 
    2.3559339115397204E+00 
    2.2385617722945157E+00 
    2.2498241583954681E+00 
    2.3109130195990213E+00 
    2.3651291298744157E+00 
    2.3426926135960753E+00 
    2.2988887935584006E+00 
    2.2745128745999530E+00 
    2.3899028939670872E+00 
    2.3658515370017024E+00 
    2.3558218129905071E+00 
    2.4049203602244846E+00 
    2.2739000509973222E+00 
    2.2880065189437215E+00 
    2.2834094780045038E+00 
    2.3761769147412766E+00 
    2.2867679278903750E+00 
    2.3602650356859760E+00 
    2.3233044716459488E+00 
    2.3201219844677459E+00 
    2.3060438085424266E+00 
    2.3105714662361918E+00 
    2.3655820444658771E+00 
    2.3616719970832403E+00 
    2.3171568760807513E+00 
    2.2678984011399081E+00 
    2.3084220028884070E+00 
    2.3034121165796666E+00 
    2.2532238728640230E+00 
    2.3456217873266545E+00 
    2.2561080086237633E+00 
    2.3652026310544882E+00 
    2.2593323286588101E+00 
    2.3310139605769393E+00 
    2.2791937667638305E+00 
    2.2365453426658197E+00 
    2.2372102941813439E+00 
    2.2376197167766816E+00 
    2.2291486492556292E+00 
    2.3065512066978044E+00 
    2.2297813638635184E+00 
    2.2502593729220424E+00 
    2.2523939621273872E+00 
    2.3940192075340287E+00 
    2.3105795319465572E+00 
    2.2522189433576627E+00 
    2.3646497582748864E+00 
    2.2929257696941820E+00 
    2.2756101642753364E+00 
    2.3487120660194414E+00 
    2.3913999012289011E+00 
    2.3359052687392370E+00 
    2.3385004331776473E+00 
    2.3161388309653304E+00 
    2.3295387444971225E+00 
    2.3519379621879368E+00 
    2.3492551601995189E+00 
    2.3465162975341634E+00 
    2.3504146735519220E+00 
    2.3205812522834131E+00 
    2.3622328040456977E+00 
    2.3619521457275119E+00 
    2.3331650490433762E+00 
    2.3412930688740419E+00 
    2.3810774251658557E+00 
    2.3507998521107392E+00 
    2.3590116703221473E+00 
    2.3845457541087716E+00 
    2.2913485164126852E+00 
    2.2804731106897296E+00 
    2.3314676897322153E+00 
    2.3662178912513592E+00 
    2.3919402422123142E+00 
    2.3620625361115408E+00 
    2.2377660127431196E+00 
    2.2781701567837422E+00 
    2.3295519477923041E+00 
    2.3032517034408246E+00 
    2.2598999493306553E+00 
    2.3516708504341857E+00 
    2.3280924489873565E+00 
    2.2597472200883812E+00 
    2.3427009224896973E+00 
    2.2698370117967426E+00 
    2.2819913984305975E+00 
    2.2780127122657796E+00 
    2.3341868828084942E+00 
    2.3601626622656795E+00 
    2.3782588521678267E+00 
    2.3503894429832206E+00 
    2.3729516038961638E+00 
    2.2677798768778525E+00 
    2.2531701122281098E+00 
    2.3780433989466876E+00 
    2.3459139241676952E+00 
    2.2375091141078594E+00 
    2.2367838223720597E+00 
    2.3882916094904658E+00 
    2.3222284123427368E+00 
    2.3531011377492779E+00 
    2.3289337922332667E+00 
    2.2940976037676539E+00 
    2.3322095196790693E+00 
    2.3445052055660569E+00 
    2.3193059497255684E+00 
    2.3147318252446967E+00 
    2.3144988865256479E+00 
    2.2270291528429089E+00 
    2.3694395990445778E+00 
    2.4054012879086621E+00 
    2.2277344563352401E+00 
    2.2272835187132247E+00 
    2.2287052241305036E+00 
    2.2279022358022296E+00 
    2.2360687281367286E+00 
    2.3541080242260932E+00 
    2.2962888406253907E+00 
    2.2486173039304629E+00 
    2.3425909048120461E+00 
    2.3401262662176303E+00 
    2.2875457376685135E+00 
    2.3051695098164968E+00 
    2.2968523890168480E+00 
    2.3181263595019206E+00 
    2.3751858169755664E+00 
    2.2271832202060469E+00 
    2.2282471759542912E+00 
    2.2712982057254143E+00 
    2.3107635624337020E+00 
    2.3569253654483950E+00 
    2.2498775892786269E+00 
    2.3777211248027936E+00 
    2.2333081982888165E+00 
    2.2901153783625303E+00 
    2.2359050537572114E+00 
    2.2352201838492554E+00 
    2.2469792023508313E+00 
    2.3784806374236456E+00 
    2.3281162868991356E+00 
    2.3014738797759491E+00 
    2.3206996020305688E+00 
    2.3383490985688029E+00 
    2.2358497507174944E+00 
    2.2994128265329188E+00 
    2.3292872417200310E+00 
    2.3773776121313501E+00 
    2.3692835263801220E+00 
    2.3659683149176551E+00 
    2.3781445306657103E+00 
    2.3839077912910849E+00 
    2.3156695408845853E+00 
    2.2520352036596401E+00 
    2.3368215652718085E+00 
    2.3350501304812719E+00 
    2.2934394561960119E+00 
    2.2352371518848559E+00 
    2.3323439144849818E+00 
    2.3469249459339863E+00 
    2.3546151462586238E+00 
    2.3428936050626530E+00 
    2.2363530543693595E+00 
    2.3380154710412637E+00 
    2.3337450400042936E+00 
    2.2465876252090347E+00 
    2.2622597517679841E+00 
    2.3286656415351112E+00 
    2.3411218404317857E+00 
    2.3361987668877870E+00 
    2.3487777893431692E+00 
    2.3478146267278870E+00 
    2.3761179298671893E+00 
    2.3316978793014349E+00 
    2.3599744353856988E+00 
    2.3249326442510743E+00 
    2.3386719450748217E+00 
    2.2318434005962438E+00 
    2.3901886615671000E+00 
    2.3721596524916304E+00 
    2.3828983586043502E+00 
    2.2943134413093769E+00 
    2.2818672908155655E+00 
    2.2666417387650175E+00 
    2.3530526876334945E+00 
    2.3288272713800824E+00 
    2.3565091264306144E+00 
    2.2857026885329708E+00 
    2.2472655219258657E+00 
    2.2606968230693325E+00 
    2.3658796160179545E+00 
    2.2562650830692328E+00 
    2.3167505871516476E+00 
    2.2685934596834860E+00 
    2.3647161597054955E+00 
    2.3265541325894366E+00 
    2.3137591095689913E+00 
    2.3858143001498502E+00 
    2.3801291912910245E+00 
    2.3034979706244725E+00 
    2.2948383657842779E+00 
    2.2754336113236122E+00 
    2.3089355856548686E+00 
    2.3556662317511265E+00 
    2.2298249131461585E+00 
    2.3744273345262905E+00 
    2.3858986562259714E+00 
    2.3016619894577484E+00 
    2.2971335445454990E+00 
    2.2487381696181958E+00 
    2.2345109733108699E+00 
    2.3821536958164478E+00 
    2.2817034191206003E+00 
    2.3293352936562171E+00 
    2.3018038001872601E+00 
    2.3398785836415761E+00 
    2.2624072663369859E+00 
    2.3184010341852259E+00 
    2.3816912822355052E+00 
    2.2719852376409291E+00 
    2.2996928060872404E+00 
    2.2688999209035079E+00 
    2.3090527655674156E+00 
    2.3876801312505340E+00 
    2.2772498553679670E+00 
    2.3276593515708237E+00 
    2.2879856960728926E+00 
    2.2494070383488842E+00 
    2.3483410500178876E+00 
    2.3481450867946339E+00 
    2.3356177268647618E+00 
    2.2866586672995437E+00 
    2.2836404021285190E+00 
    2.2544082901078641E+00 
    2.3309714482729915E+00 
    2.3473963372713720E+00 
    2.3153831886352294E+00 
    2.2509594496672189E+00 
    2.2805148552732732E+00 