# vtk DataFile Version 2.0
Pressure Field Data 
ASCII 
DATASET UNSTRUCTURED_GRID 

POINTS 2213 double 

    0.0000000000000000E+00     0.0000000000000000E+00     0.0000000000000000E+00 
    5.0000000000000000E-01     0.0000000000000000E+00     0.0000000000000000E+00 
    1.0000000000000000E+00     0.0000000000000000E+00     0.0000000000000000E+00 
    1.0000000000000000E+00     5.0000000000000000E-01     0.0000000000000000E+00 
    1.0000000000000000E+00     1.0000000000000000E+00     0.0000000000000000E+00 
    5.0000000000000000E-01     1.0000000000000000E+00     0.0000000000000000E+00 
    0.0000000000000000E+00     1.0000000000000000E+00     0.0000000000000000E+00 
    0.0000000000000000E+00     5.0000000000000000E-01     0.0000000000000000E+00 
    1.5624999999971041E-02     0.0000000000000000E+00     0.0000000000000000E+00 
    3.1249999999936742E-02     0.0000000000000000E+00     0.0000000000000000E+00 
    4.6874999999913257E-02     0.0000000000000000E+00     0.0000000000000000E+00 
    6.2499999999889783E-02     0.0000000000000000E+00     0.0000000000000000E+00 
    7.8124999999844805E-02     0.0000000000000000E+00     0.0000000000000000E+00 
    9.3749999999799827E-02     0.0000000000000000E+00     0.0000000000000000E+00 
    1.0937499999975490E-01     0.0000000000000000E+00     0.0000000000000000E+00 
    1.2499999999970990E-01     0.0000000000000000E+00     0.0000000000000000E+00 
    1.4062499999966460E-01     0.0000000000000000E+00     0.0000000000000000E+00 
    1.5624999999961930E-01     0.0000000000000000E+00     0.0000000000000000E+00 
    1.7187499999957390E-01     0.0000000000000000E+00     0.0000000000000000E+00 
    1.8749999999952860E-01     0.0000000000000000E+00     0.0000000000000000E+00 
    2.0312499999948330E-01     0.0000000000000000E+00     0.0000000000000000E+00 
    2.1874999999943801E-01     0.0000000000000000E+00     0.0000000000000000E+00 
    2.3437499999939271E-01     0.0000000000000000E+00     0.0000000000000000E+00 
    2.4999999999934730E-01     0.0000000000000000E+00     0.0000000000000000E+00 
    2.6562499999938810E-01     0.0000000000000000E+00     0.0000000000000000E+00 
    2.8124999999942890E-01     0.0000000000000000E+00     0.0000000000000000E+00 
    2.9687499999946970E-01     0.0000000000000000E+00     0.0000000000000000E+00 
    3.1249999999951050E-01     0.0000000000000000E+00     0.0000000000000000E+00 
    3.2812499999955130E-01     0.0000000000000000E+00     0.0000000000000000E+00 
    3.4374999999959210E-01     0.0000000000000000E+00     0.0000000000000000E+00 
    3.5937499999963290E-01     0.0000000000000000E+00     0.0000000000000000E+00 
    3.7499999999967371E-01     0.0000000000000000E+00     0.0000000000000000E+00 
    3.9062499999971451E-01     0.0000000000000000E+00     0.0000000000000000E+00 
    4.0624999999975520E-01     0.0000000000000000E+00     0.0000000000000000E+00 
    4.2187499999979600E-01     0.0000000000000000E+00     0.0000000000000000E+00 
    4.3749999999983680E-01     0.0000000000000000E+00     0.0000000000000000E+00 
    4.5312499999987760E-01     0.0000000000000000E+00     0.0000000000000000E+00 
    4.6874999999991840E-01     0.0000000000000000E+00     0.0000000000000000E+00 
    4.8437499999995920E-01     0.0000000000000000E+00     0.0000000000000000E+00 
    5.1562499999992384E-01     0.0000000000000000E+00     0.0000000000000000E+00 
    5.3124999999985478E-01     0.0000000000000000E+00     0.0000000000000000E+00 
    5.4687499999994527E-01     0.0000000000000000E+00     0.0000000000000000E+00 
    5.6249999999998668E-01     0.0000000000000000E+00     0.0000000000000000E+00 
    5.7812499999998068E-01     0.0000000000000000E+00     0.0000000000000000E+00 
    5.9374999999994749E-01     0.0000000000000000E+00     0.0000000000000000E+00 
    6.0937499999997913E-01     0.0000000000000000E+00     0.0000000000000000E+00 
    6.2500000000000000E-01     0.0000000000000000E+00     0.0000000000000000E+00 
    6.4062499999998945E-01     0.0000000000000000E+00     0.0000000000000000E+00 
    6.5624999999996603E-01     0.0000000000000000E+00     0.0000000000000000E+00 
    6.7187499999995337E-01     0.0000000000000000E+00     0.0000000000000000E+00 
    6.8749999999998734E-01     0.0000000000000000E+00     0.0000000000000000E+00 
    7.0312499999998124E-01     0.0000000000000000E+00     0.0000000000000000E+00 
    7.1874999999997025E-01     0.0000000000000000E+00     0.0000000000000000E+00 
    7.3437499999999034E-01     0.0000000000000000E+00     0.0000000000000000E+00 
    7.5000000000000000E-01     0.0000000000000000E+00     0.0000000000000000E+00 
    7.6562499999996902E-01     0.0000000000000000E+00     0.0000000000000000E+00 
    7.8124999999993228E-01     0.0000000000000000E+00     0.0000000000000000E+00 
    7.9687499999989997E-01     0.0000000000000000E+00     0.0000000000000000E+00 
    8.1249999999996247E-01     0.0000000000000000E+00     0.0000000000000000E+00 
    8.2812499999999578E-01     0.0000000000000000E+00     0.0000000000000000E+00 
    8.4374999999999556E-01     0.0000000000000000E+00     0.0000000000000000E+00 
    8.5937500000000111E-01     0.0000000000000000E+00     0.0000000000000000E+00 
    8.7499999999997691E-01     0.0000000000000000E+00     0.0000000000000000E+00 
    8.9062500000000921E-01     0.0000000000000000E+00     0.0000000000000000E+00 
    9.0625000000004452E-01     0.0000000000000000E+00     0.0000000000000000E+00 
    9.2187500000005529E-01     0.0000000000000000E+00     0.0000000000000000E+00 
    9.3750000000012723E-01     0.0000000000000000E+00     0.0000000000000000E+00 
    9.5312500000011835E-01     0.0000000000000000E+00     0.0000000000000000E+00 
    9.6875000000005151E-01     0.0000000000000000E+00     0.0000000000000000E+00 
    9.8437500000003086E-01     0.0000000000000000E+00     0.0000000000000000E+00 
    1.0000000000000000E+00     1.5624999999971041E-02     0.0000000000000000E+00 
    1.0000000000000000E+00     3.1249999999936742E-02     0.0000000000000000E+00 
    1.0000000000000000E+00     4.6874999999913257E-02     0.0000000000000000E+00 
    1.0000000000000000E+00     6.2499999999889783E-02     0.0000000000000000E+00 
    1.0000000000000000E+00     7.8124999999844805E-02     0.0000000000000000E+00 
    1.0000000000000000E+00     9.3749999999799827E-02     0.0000000000000000E+00 
    1.0000000000000000E+00     1.0937499999975490E-01     0.0000000000000000E+00 
    1.0000000000000000E+00     1.2499999999970990E-01     0.0000000000000000E+00 
    1.0000000000000000E+00     1.4062499999966460E-01     0.0000000000000000E+00 
    1.0000000000000000E+00     1.5624999999961930E-01     0.0000000000000000E+00 
    1.0000000000000000E+00     1.7187499999957390E-01     0.0000000000000000E+00 
    1.0000000000000000E+00     1.8749999999952860E-01     0.0000000000000000E+00 
    1.0000000000000000E+00     2.0312499999948330E-01     0.0000000000000000E+00 
    1.0000000000000000E+00     2.1874999999943801E-01     0.0000000000000000E+00 
    1.0000000000000000E+00     2.3437499999939271E-01     0.0000000000000000E+00 
    1.0000000000000000E+00     2.4999999999934730E-01     0.0000000000000000E+00 
    1.0000000000000000E+00     2.6562499999938810E-01     0.0000000000000000E+00 
    1.0000000000000000E+00     2.8124999999942890E-01     0.0000000000000000E+00 
    1.0000000000000000E+00     2.9687499999946970E-01     0.0000000000000000E+00 
    1.0000000000000000E+00     3.1249999999951050E-01     0.0000000000000000E+00 
    1.0000000000000000E+00     3.2812499999955130E-01     0.0000000000000000E+00 
    1.0000000000000000E+00     3.4374999999959210E-01     0.0000000000000000E+00 
    1.0000000000000000E+00     3.5937499999963290E-01     0.0000000000000000E+00 
    1.0000000000000000E+00     3.7499999999967371E-01     0.0000000000000000E+00 
    1.0000000000000000E+00     3.9062499999971451E-01     0.0000000000000000E+00 
    1.0000000000000000E+00     4.0624999999975520E-01     0.0000000000000000E+00 
    1.0000000000000000E+00     4.2187499999979600E-01     0.0000000000000000E+00 
    1.0000000000000000E+00     4.3749999999983680E-01     0.0000000000000000E+00 
    1.0000000000000000E+00     4.5312499999987760E-01     0.0000000000000000E+00 
    1.0000000000000000E+00     4.6874999999991840E-01     0.0000000000000000E+00 
    1.0000000000000000E+00     4.8437499999995920E-01     0.0000000000000000E+00 
    1.0000000000000000E+00     5.1562499999992384E-01     0.0000000000000000E+00 
    1.0000000000000000E+00     5.3124999999985478E-01     0.0000000000000000E+00 
    1.0000000000000000E+00     5.4687499999994527E-01     0.0000000000000000E+00 
    1.0000000000000000E+00     5.6249999999998668E-01     0.0000000000000000E+00 
    1.0000000000000000E+00     5.7812499999998068E-01     0.0000000000000000E+00 
    1.0000000000000000E+00     5.9374999999994749E-01     0.0000000000000000E+00 
    1.0000000000000000E+00     6.0937499999997913E-01     0.0000000000000000E+00 
    1.0000000000000000E+00     6.2500000000000000E-01     0.0000000000000000E+00 
    1.0000000000000000E+00     6.4062499999998945E-01     0.0000000000000000E+00 
    1.0000000000000000E+00     6.5624999999996603E-01     0.0000000000000000E+00 
    1.0000000000000000E+00     6.7187499999995337E-01     0.0000000000000000E+00 
    1.0000000000000000E+00     6.8749999999998734E-01     0.0000000000000000E+00 
    1.0000000000000000E+00     7.0312499999998124E-01     0.0000000000000000E+00 
    1.0000000000000000E+00     7.1874999999997025E-01     0.0000000000000000E+00 
    1.0000000000000000E+00     7.3437499999999034E-01     0.0000000000000000E+00 
    1.0000000000000000E+00     7.5000000000000000E-01     0.0000000000000000E+00 
    1.0000000000000000E+00     7.6562499999996902E-01     0.0000000000000000E+00 
    1.0000000000000000E+00     7.8124999999993228E-01     0.0000000000000000E+00 
    1.0000000000000000E+00     7.9687499999989997E-01     0.0000000000000000E+00 
[...]
CELL_DATA 2084 
SCALARS Pressure double 1 
LOOKUP_TABLE default 

    2.3410975579750293E+00 
    2.3671451288070102E+00 
    2.5497766029055069E+00 
    2.3678520574076862E+00 
    2.4682737504458583E+00 
    2.4262046083190856E+00 
    2.3149599831046066E+00 
    2.4115551713145251E+00 
    2.4212511932435725E+00 
    2.4724055641064453E+00 
    2.5440219108003488E+00 
    2.3283302025050321E+00 
    2.4010610543644515E+00 
    2.3646986318670908E+00 
    2.3365040285808827E+00 
    2.3549019570262528E+00 
    2.5048937029516822E+00 
    2.3837736099575868E+00 
    2.5756847418868642E+00 
    2.3475210856871818E+00 
    2.3509206971695416E+00 
    2.4518738368659245E+00 
    2.3533493488877109E+00 
    2.3972582121904726E+00 
    2.3441516239583091E+00 
    2.3987311596774972E+00 
    2.3603171120058688E+00 
    2.3179760394934537E+00 
    2.4052375122641791E+00 
    2.3735537037492302E+00 
    2.3078665942096519E+00 
    2.4121838289122159E+00 
    2.2967141376611910E+00 
    2.3502449083106214E+00 
    2.3316733919412238E+00 
    2.4622867185363311E+00 
    2.3787094350232052E+00 
    2.3747086267171906E+00 
    2.4518514365556330E+00 
    2.4131152634248418E+00 
    2.3202855384230769E+00 
    2.4768614859819511E+00 
    2.3445066954536506E+00 
    2.4327000249067536E+00 
    2.4253176150684168E+00 
    2.3270180480955083E+00 
    2.4752827268964306E+00 
    2.3119807943888229E+00 
    2.3137046405447395E+00 
    2.4018163440798959E+00 
    2.3993532727540652E+00 
    2.3173255383160347E+00 
    2.3269122344470095E+00 
    2.3867339627816513E+00 
    2.3878214538412030E+00 
    2.3205051930768459E+00 
    2.3016210877646497E+00 
    2.4387382973348868E+00 
    2.4495107357491515E+00 
    2.3943746348552088E+00 
    2.3931507817267645E+00 
    2.3481594706101214E+00 
    2.3304556536451160E+00 
    2.3625376763585635E+00 
    2.4728838235227837E+00 
    2.3904576484781135E+00 
    2.4210862480833666E+00 
    2.3255961201383673E+00 
    2.3125787411276009E+00 
    2.3116841936083508E+00 
    2.3423811754045607E+00 
    2.6054783013964746E+00 
    2.3994651976302257E+00 
    2.5276884790550422E+00 
    2.4460253111327757E+00 
    2.5251642191538402E+00 
    2.3952609674158789E+00 
    2.4651719177872522E+00 
    2.3280549355668856E+00 
    2.4817481745921222E+00 
    2.3539854016283739E+00 
    2.4127694293731889E+00 
    2.4374651071724283E+00 
    2.3069434886891043E+00 
    2.4259033963628891E+00 
    2.3519558291982841E+00 
    2.3812184962471865E+00 
    2.4282800654955699E+00 
    2.4472205683431434E+00 
    2.4387733239330132E+00 
    2.4217514647852751E+00 
    2.4184288805764460E+00 
    2.3557348662928135E+00 
    2.4370206865635873E+00 
    2.3834620681498797E+00 
    2.3171274903350030E+00 
    2.3699038463881781E+00 
    2.4061736061525933E+00 
    2.4590836494160220E+00 
    2.3734747049282383E+00 
    2.4703852596115126E+00 
    2.4349218571616729E+00 
    2.4497821209569510E+00 
    2.4510608302689967E+00 
    2.3838632878250161E+00 
    2.4365055436500884E+00 
    2.4106477178286090E+00 
    2.4597374822213420E+00 
    2.3389702344749255E+00 
    2.6375252167987684E+00 
    2.3585320610657732E+00 
    2.4052565627578115E+00 
    2.4342137580644394E+00 
    2.4861292872590992E+00 
    2.5379756825152184E+00 
    2.3639636322806910E+00 
    2.4371449965880396E+00 
    2.4340568273867569E+00 
    2.3754401166578978E+00 
    2.3453440341565961E+00 
    2.3898790109766939E+00 
    2.4486292248638950E+00 
    2.3455603350336540E+00 
    2.5127164638423194E+00 
    2.4094612935124755E+00 
    2.4491210046371816E+00 
    2.3917349103110350E+00 
    2.3455856445916923E+00 
    2.3791553975649018E+00 
    2.3537238902212776E+00 
    2.5343005329191715E+00 
    2.5465901370673918E+00 
    2.3223096373514460E+00 
    2.4728374505817423E+00 
    2.4593406009787264E+00 
    2.3929178758587466E+00 
    2.4413667966268902E+00 
    2.3444444776037821E+00 
    2.4578402973688820E+00 
    2.5183058310171109E+00 
    2.4244362347472608E+00 
    2.5604068949114214E+00 
    2.5279414281922135E+00 
    2.4093630843988874E+00 
    2.3643173647717783E+00 
    2.4054629807947805E+00 
    2.4352628409203714E+00 
    2.4566454148246155E+00 
    2.3834922851189644E+00 
    2.4233625941781849E+00 
    2.4286176826743162E+00 
    2.5192691661769122E+00 
    2.5924881207193162E+00 
    2.3828785288676073E+00 
    2.3914281267718924E+00 
    2.5755895706134613E+00 
    2.3528981622024117E+00 
    2.4312788461687638E+00 
    2.3870336013360673E+00 
    2.5123195447680295E+00 
    2.7176235108861433E+00 
    2.6568930435849989E+00 
    2.5961610576008001E+00 
    2.6167097187762045E+00 
    2.5679938189877767E+00 
    2.5844673263569997E+00 
    2.4332674568470760E+00 
    2.6308559262007800E+00 
    2.4250558873331425E+00 
    2.5773612594360364E+00 
    2.4253542394859493E+00 
    2.5058282196568005E+00 
    2.5234459053836220E+00 
    2.4625625140809659E+00 
    2.4986367416031223E+00 
    2.3720124047075619E+00 
    2.5015497885241968E+00 
    2.4163321560086151E+00 
    2.4235259227410904E+00 
    2.4224678309088619E+00 
    2.4457425564907593E+00 
    2.3699828686203643E+00 
    2.5065510812621272E+00 
    2.4480094560962531E+00 
    2.4445128858637908E+00 
    2.2998978864548434E+00 
    2.4678032870254065E+00 
    2.5298115388236102E+00 
    2.3771823198860536E+00 
    2.4885678665836299E+00 
    2.5445120385125621E+00 
    2.5666753437998961E+00 
    2.4461548121837033E+00 
    2.3927039707483777E+00 
    2.3624331724621546E+00 
    2.3794709079477068E+00 
    2.4745400425745903E+00 
    2.4388921217477373E+00 
    2.3895084607119594E+00 
    2.4788749034001492E+00 
    2.4161828001063177E+00 
    2.3816391294128811E+00 
    2.4457569469429763E+00 
    2.3293881552141800E+00 
    2.3809349509756728E+00 
    2.5481755841303784E+00 
    2.4738475053514879E+00 
    2.3732756693541059E+00 
    2.4966606536129992E+00 
    2.4890881186266687E+00 
    2.3864208116938248E+00 
    2.4063694292381501E+00 
    2.4118049573932416E+00 
    2.4643904534218271E+00 
    2.4607977640426020E+00 
    2.5229946955723217E+00 
    2.4018291404207912E+00 
    2.4613625108540731E+00 
    2.4751834156982859E+00 
    2.3907639127860891E+00 
    2.3976588056706212E+00 
    2.2922862763243126E+00 
    2.3926619129777258E+00 
    2.5573753230678311E+00 
    2.4384718318196823E+00 
    2.4601856832834934E+00 
    2.4162338357679531E+00 
    2.4603051582908768E+00 
    2.3798384155240986E+00 
    2.3680455070088997E+00 
    2.3438070894796210E+00 
    2.3770261369888845E+00 
    2.3479645078496816E+00 
    2.4021249039199986E+00 
    2.4473870580361656E+00 
    2.3601378120835834E+00 
    2.4911454575754717E+00 
    2.4933016538643415E+00 
    2.3988376637261890E+00 
    2.3682777576031953E+00 
    2.4474398431062814E+00 
    2.3861263992262254E+00 
    2.3354003040035272E+00 
    2.3798382285722401E+00 
    2.3410381324542220E+00 
    2.3417661692905534E+00 
    2.3902624201399174E+00 
    2.4344229645571103E+00 
    2.5098680879424342E+00 
    2.3313602519205836E+00 
    2.3780853740681227E+00 
    2.3570953837435553E+00 
    2.3776767579529978E+00 
    2.6045960160304449E+00 
    2.3460222053152839E+00 
    2.4115876053079024E+00 
    2.3562665510751204E+00 
    2.3923033538622960E+00 
    2.3655239665014878E+00 
    2.4002171476305287E+00 
    2.3560596770556792E+00 
    2.3968837634630220E+00 
    2.3671646546944785E+00 
    2.4001579313458143E+00 
    2.3632006960240775E+00 
    2.3621768231984919E+00 
    2.3406549689723271E+00 
    2.3503466559057902E+00 
    2.4912397354940530E+00 
    2.3224779845458920E+00 
    2.3312218891064762E+00 
    2.3740593778305064E+00 
    2.3598343815290717E+00 
    2.6730073421286638E+00 
    2.3766496758404161E+00 
    2.4629588845890438E+00 
    2.3695896163142587E+00 
    2.3179213898497184E+00 
    2.3887956031947826E+00 
    2.3512668871649409E+00 
    2.4029583925674869E+00 
    2.3636737365562763E+00 
    2.3640463378678316E+00 
    2.3748783402168350E+00 
    2.3429103599489371E+00 
    2.3764711171545634E+00 
    2.3645117458088931E+00 
    2.3230085059568162E+00 
    2.3545012485209647E+00 
    2.3545130258945366E+00 
    2.3716643808519406E+00 
    2.3160920017575690E+00 
    2.3570633920758408E+00 
    2.3714668129487264E+00 
    2.4019324159087367E+00 
    2.3453120514273875E+00 
    2.3344308475903697E+00 
    2.4743903623564121E+00 
    2.3460543813666841E+00 
    2.4228918627226150E+00 
    2.6730507956026779E+00 
    2.4849163657334277E+00 
    2.4235798374730435E+00 
    2.5060802592136784E+00 
    2.3604731256727818E+00 
    2.3546117379051754E+00 
    2.3333606708087493E+00 
    2.3367710469540857E+00 
    2.3378405833464782E+00 
    2.3310592651430708E+00 
    2.5092461914549551E+00 
    2.3350913787599996E+00 
    2.3899056080096033E+00 
    2.4892961139053122E+00 
    2.4015485000393708E+00 
    2.3455836409416042E+00 
    2.4566951692080110E+00 
    2.3291121794650955E+00 
    2.3295317253324668E+00 
    2.3380588063771364E+00 
    2.6408406098772534E+00 
    2.4354078916483002E+00 
    2.4988676880131591E+00 
    2.5044306391854878E+00 
    2.4106401440800691E+00 
    2.4762549436465835E+00 
    2.3485192805280954E+00 
    2.2856828108223599E+00 
    2.8168371323025569E+00 
    2.3070689505681927E+00 
    2.3216433373921932E+00 
    2.3211130844480143E+00 
    2.4246879360922473E+00 
    2.4883337941581520E+00 
    2.2854473203738039E+00 
    2.5403576599127429E+00 
    2.5617565095749568E+00 
    2.4114077261022202E+00 
    2.3644189897703365E+00 
    2.5271725341700360E+00 
    2.4133417623521991E+00 
    2.3391693231298745E+00 
    2.4985186422662378E+00 
    2.3139797810428164E+00 
    2.3131174253483189E+00 
    2.4222866545568400E+00 
    2.3728395247832141E+00 
    2.2931728224216399E+00 
    2.3640868312636649E+00 
    2.3010506798973762E+00 
    2.5174778045803392E+00 
    2.3068600726749717E+00 
    2.3540526869892249E+00 
    2.4864812140904564E+00 
    2.3725029297240585E+00 
    2.4134649506289714E+00 
    2.3054674155465165E+00 
    2.3938031471804595E+00 
    2.3992434700216112E+00 
    2.3401693767422311E+00 
    2.3730475381814760E+00 
    2.4929647931425603E+00 
    2.3006880532443259E+00 
    2.3709871035773773E+00 
    2.3441090011195667E+00 
    2.3448889510028836E+00 
    2.3872071676498221E+00 
    2.3380283220847953E+00 
    2.3787379251991951E+00 
    2.5054470826802997E+00 
    2.5202858538178825E+00 
    2.2983264989898404E+00 
    2.6842174381568200E+00 
    2.3921267003307700E+00 
    2.3572967963584825E+00 
    2.5484200259636109E+00 
    2.4172392843027208E+00 
    2.4324510519288829E+00 
    2.3442672717567299E+00 
    2.3371820222462580E+00 
    2.4508156107856269E+00 
    2.4121251569130093E+00 
    2.2936784522239280E+00 
    2.3440193051247031E+00 
    2.5763513195421361E+00 
    2.4072399718282536E+00 
    2.4801936861442933E+00 
    2.4227848872913151E+00 
    2.4935814376815419E+00 
    2.4507650990508272E+00 
    2.2921517015593063E+00 
    2.3241777567575999E+00 
    2.3659335522795839E+00 
    2.5218036130780654E+00 
    2.4782452152749501E+00 
    2.3623159213600871E+00 
    2.3382453047425060E+00 
    2.3608964939254844E+00 
    2.3491702439806739E+00 
    2.4633976380694911E+00 
    2.3407955293917602E+00 
    2.4313162926084941E+00 
    2.6169963489335344E+00 
    2.3354234424133478E+00 
    2.5814845424756285E+00 
    2.3820383233268552E+00 
    2.5965112256119314E+00 
    2.4884287158822120E+00 
    2.7297767662229173E+00 
    2.3546324120955502E+00 
    2.4762185697951287E+00 
    2.3998973611539958E+00 
    2.3311975317957900E+00 
    2.5028855766447808E+00 
    2.3917284928382938E+00 
    2.5119404377758867E+00 
    2.3346807965325969E+00 
    2.4787949625413805E+00 
    2.3827180672936961E+00 
    2.4150790010130279E+00 
    2.3058104023261974E+00 
    2.3382026902628130E+00 
    2.3266915254262259E+00 
    2.5429274660109868E+00 
    2.3565067448946846E+00 
    2.6080141153367036E+00 
    2.5598547109197072E+00 
    2.3472728943811023E+00 
    2.3809122218720313E+00 
    2.3663564136813378E+00 
    2.3042465604180644E+00 
    2.3859586097803351E+00 
    2.4922856372071593E+00 
    2.3464981803178415E+00 
    2.3124222776785777E+00 
    2.6359889077341014E+00 
    2.4633952486012860E+00 
    2.2859358621435448E+00 
    2.2856404806387038E+00 
    2.3225640256862317E+00 
    2.3287022660340284E+00 
    2.3105139980938181E+00 
    2.3011854156313674E+00 
    2.3621759434003420E+00 
    2.3524650488550347E+00 
    2.2794521307109346E+00 
    2.2794478170995940E+00 
    2.2480694576926781E+00 
    2.1916489203634510E+00 
    2.1855783416517811E+00 
    2.1907634177212185E+00 
    2.2094412921439819E+00 
    2.2066635618827695E+00 
    2.2600400878059554E+00 
    2.1718122032948304E+00 
    2.2473157400788710E+00 
    2.1764722688468727E+00 
    2.2291908784567940E+00 
    2.2039464589946567E+00 
    2.2012022018931350E+00 
    2.1785140731158208E+00 
    2.1713162637483427E+00 
    2.2982844766992359E+00 
    2.2573457323393638E+00 
    2.2802004351806167E+00 
    2.2535548007613553E+00 
    2.2161458710662743E+00 
    2.1707043775468260E+00 
    2.1682469575334831E+00 
    2.2941825856539797E+00 
    2.2261612772466037E+00 
    2.1702701539159390E+00 
    2.2094486475499266E+00 
    2.2728490947623299E+00 
    2.2726704372133848E+00 
    2.1585325862025053E+00 
    2.1692561919845779E+00 
    2.2286805123304760E+00 
    2.2816775822348307E+00 
    2.2597243911739486E+00 
    2.2170149368330647E+00 
    2.1931754208552157E+00 
    2.3059709956449881E+00 
    2.2824363614533847E+00 
    2.2726176422018431E+00 
    2.3207333069045819E+00 
    2.1925750457235740E+00 
    2.2064217134758777E+00 
    2.2019506600367076E+00 
    2.2925052848972602E+00 
    2.2052062830827253E+00 
    2.2769176050191238E+00 
    2.2408380311242744E+00 
    2.2376547753058773E+00 
    2.2239373146816837E+00 
    2.2284141210481270E+00 
    2.2821421458527626E+00 
    2.2783461172890003E+00 
    2.2348385782916562E+00 
    2.1867383272360748E+00 
    2.2262283872311230E+00 
    2.2213376238890747E+00 
    2.1726953016898234E+00 
    2.2626415290396142E+00 
    2.1754778103707300E+00 
    2.2817760563561005E+00 
    2.1784987248156438E+00 
    2.2482955364462343E+00 
    2.1978267671045741E+00 
    2.1564980158760085E+00 
    2.1574090048014449E+00 
    2.1574006115566751E+00 
    2.1489748881399611E+00 
    2.2244020348719853E+00 
    2.1496474428892158E+00 
    2.1695825907560664E+00 
    2.1716285968319040E+00 
    2.3100323203155093E+00 
    2.2284129991556108E+00 
    2.1715451132881025E+00 
    2.2812402547041581E+00 
    2.2111103691381127E+00 
    2.1942973068314622E+00 
    2.2656037545258521E+00 
    2.3074565687899788E+00 
    2.2530791376063832E+00 
    2.2556145906374359E+00 
    2.2338445167334613E+00 
    2.2468532701551340E+00 
    2.2687906267898619E+00 
    2.2661775618508559E+00 
    2.2635181914333931E+00 
    2.2673286767713456E+00 
    2.2381080003912501E+00 
    2.2788908134711283E+00 
    2.2785629139345427E+00 
    2.2503989280431171E+00 
    2.2583464906818258E+00 
    2.2973442312699452E+00 
    2.2676830487631845E+00 
    2.2757346380234615E+00 
    2.3007462739481714E+00 
    2.2096631313235808E+00 
    2.1989665395595721E+00 
    2.2487515210800040E+00 
    2.2827971250464949E+00 
    2.3079903744975305E+00 
    2.2787172473040078E+00 
    2.1576357241152078E+00 
    2.1968565184039255E+00 
    2.2469381786264253E+00 
    2.2212760769210158E+00 
    2.1789873711367385E+00 
    2.2685603048528336E+00 
    2.2455092406536923E+00 
    2.1789823291968147E+00 
    2.2597868509189052E+00 
    2.1887157217029722E+00 
    2.2005619889602324E+00 
    2.1966977840810893E+00 
    2.2514659298745965E+00 
    2.2768691986143970E+00 
    2.2945901117350069E+00 
    2.2673037680928272E+00 
    2.2893850448033382E+00 
    2.1867612971706949E+00 
    2.1724441150068818E+00 
    2.2943549935440433E+00 
    2.2629280432883196E+00 
    2.1575104780716274E+00 
    2.1565843870133166E+00 
    2.3044205759388183E+00 
    2.2397101825997212E+00 
    2.2699233425508973E+00 
    2.2462790717976855E+00 
    2.2123525340775267E+00 
    2.2494727882598702E+00 
    2.2614896653371153E+00 
    2.2369295497000934E+00 
    2.2323884067478663E+00 
    2.2321609494213335E+00 
    2.1469131583856282E+00 
    2.2859475762542569E+00 
    2.3211971574668402E+00 
    2.1476139682786686E+00 
    2.1471687240311859E+00 
    2.1485847657497446E+00 
    2.1477616728415856E+00 
    2.1558488359765500E+00 
    2.2709033516472346E+00 
    2.2144746939198496E+00 
    2.1680805637827700E+00 
    2.2596145108425381E+00 
    2.2572288595900432E+00 
    2.2059237332042696E+00 
    2.2231439730413234E+00 
    2.2150394146341363E+00 
    2.2357828896981422E+00 
    2.2915400618006561E+00 
    2.1470664121983827E+00 
    2.1481246528905316E+00 
    2.1900230506181853E+00 
    2.2285154199864055E+00 
    2.2737011988774003E+00 
    2.1691647056854362E+00 
    2.2940292051800864E+00 
    2.1530241050934613E+00 
    2.2083884421536837E+00 
    2.1563180021523358E+00 
    2.1554801069298257E+00 
    2.1663728021768507E+00 
    2.2947784674060525E+00 
    2.2455323072530908E+00 
    2.2194461148034534E+00 
    2.2382209489391642E+00 
    2.2554964787878884E+00 
    2.1555353440596643E+00 
    2.2174368218721150E+00 
    2.2466109820800577E+00 
    2.2937161809556716E+00 
    2.2857932273374386E+00 
    2.2825494697835440E+00 
    2.2944588041480380E+00 
    2.3001262463289240E+00 
    2.2333781212464547E+00 
    2.1712739100646714E+00 
    2.2540087537031108E+00 
    2.2522829314639110E+00 
    2.2116261261835533E+00 
    2.1549104957426510E+00 
    2.2496424233039054E+00 
    2.2639033080499775E+00 
    2.2714353430096730E+00 
    2.2599646779209732E+00 
    2.1560802744487861E+00 
    2.2552002444677908E+00 
    2.2510281995556438E+00 
    2.1661607766070152E+00 
    2.1812174304630778E+00 
    2.2460696197383636E+00 
    2.2582429841249030E+00 
    2.2534303982545039E+00 
    2.2656671495084146E+00 
    2.2647292294928563E+00 
    2.2924873142806246E+00 
    2.2490314511921983E+00 
    2.2766280544005935E+00 
    2.2423529990013291E+00 
    2.2557863187757894E+00 
    2.1516709966160743E+00 
    2.3062568957228571E+00 
    2.2886152333361074E+00 
    2.2991332998409693E+00 
    2.2125588291831022E+00 
    2.2003197416023430E+00 
    2.1855506323801022E+00 
    2.2698611289139254E+00 
    2.2462267107608445E+00 
    2.2732378391243468E+00 
    2.2040704083429667E+00 
    2.1668532260152271E+00 
    2.1798468098278225E+00 
    2.2824645067359293E+00 
    2.1754972649525310E+00 
    2.2343599739444739E+00 
    2.1874250811495144E+00 
    2.2812838516972107E+00 
    2.2439581208628505E+00 
    2.2315118637829157E+00 
    2.3019579154328458E+00 
    2.2963758694328598E+00 
    2.2214227559508384E+00 
    2.2129740254446677E+00 
    2.1941773605008996E+00 
    2.2267291940111900E+00 
    2.2724664595500426E+00 
    2.1496344628503641E+00 
    2.2907857698026235E+00 
    2.3020342455506340E+00 
    2.2196304062812455E+00 
    2.2152142855736408E+00 
    2.1680366750156077E+00 
    2.1543094916188399E+00 
    2.2984016492690746E+00 
    2.2002334230101965E+00 
    2.2467207209668376E+00 
    2.2198496445085061E+00 
    2.2570275411125111E+00 
    2.1814046332641008E+00 
    2.2359813616215685E+00 
    2.2979525323108874E+00 
    2.1907050286137775E+00 
    2.2177681294553859E+00 
    2.1878185049881274E+00 
    2.2268465435462170E+00 
    2.3038190411832007E+00 
    2.1958315908023951E+00 
    2.2450678307922063E+00 
    2.2062930713454003E+00 
    2.1688523572839769E+00 
    2.2653005865628453E+00 
    2.2650478113242727E+00 
    2.2528636934113999E+00 
    2.2050018815861758E+00 
    2.2021486275287967E+00 
    2.1736557439523949E+00 
    2.2482594742677375E+00 
    2.2643766936091914E+00 
    2.2330370704390616E+00 
    2.1702744215276550E+00 
    2.1990173499383583E+00 