# vtk DataFile Version 2.0
Pressure Field Data 
ASCII 
DATASET UNSTRUCTURED_GRID 

POINTS 2213 double 

    0.0000000000000000E+00     0.0000000000000000E+00     0.0000000000000000E+00 
    5.0000000000000000E-01     0.0000000000000000E+00     0.0000000000000000E+00 
    1.0000000000000000E+00     0.0000000000000000E+00     0.0000000000000000E+00 
    1.0000000000000000E+00     5.0000000000000000E-01     0.0000000000000000E+00 
    1.0000000000000000E+00     1.0000000000000000E+00     0.0000000000000000E+00 
    5.0000000000000000E-01     1.0000000000000000E+00     0.0000000000000000E+00 
    0.0000000000000000E+00     1.0000000000000000E+00     0.0000000000000000E+00 
    0.0000000000000000E+00     5.0000000000000000E-01     0.0000000000000000E+00 
    1.5624999999971041E-02     0.0000000000000000E+00     0.0000000000000000E+00 
    3.1249999999936742E-02     0.0000000000000000E+00     0.0000000000000000E+00 
    4.6874999999913257E-02     0.0000000000000000E+00     0.0000000000000000E+00 
    6.2499999999889783E-02     0.0000000000000000E+00     0.0000000000000000E+00 
    7.8124999999844805E-02     0.0000000000000000E+00     0.0000000000000000E+00 
    9.3749999999799827E-02     0.0000000000000000E+00     0.0000000000000000E+00 
    1.0937499999975490E-01     0.0000000000000000E+00     0.0000000000000000E+00 
    1.2499999999970990E-01     0.0000000000000000E+00     0.0000000000000000E+00 
    1.4062499999966460E-01     0.0000000000000000E+00     0.0000000000000000E+00 
    1.5624999999961930E-01     0.0000000000000000E+00     0.0000000000000000E+00 
    1.7187499999957390E-01     0.0000000000000000E+00     0.0000000000000000E+00 
    1.8749999999952860E-01     0.0000000000000000E+00     0.0000000000000000E+00 
    2.0312499999948330E-01     0.0000000000000000E+00     0.0000000000000000E+00 
    2.1874999999943801E-01     0.0000000000000000E+00     0.0000000000000000E+00 
    2.3437499999939271E-01     0.0000000000000000E+00     0.0000000000000000E+00 
    2.4999999999934730E-01     0.0000000000000000E+00     0.0000000000000000E+00 
    2.6562499999938810E-01     0.0000000000000000E+00     0.0000000000000000E+00 
    2.8124999999942890E-01     0.0000000000000000E+00     0.0000000000000000E+00 
    2.9687499999946970E-01     0.0000000000000000E+00     0.0000000000000000E+00 
    3.1249999999951050E-01     0.0000000000000000E+00     0.0000000000000000E+00 
    3.2812499999955130E-01     0.0000000000000000E+00     0.0000000000000000E+00 
    3.4374999999959210E-01     0.0000000000000000E+00     0.0000000000000000E+00 
    3.5937499999963290E-01     0.0000000000000000E+00     0.0000000000000000E+00 
    3.7499999999967371E-01     0.0000000000000000E+00     0.0000000000000000E+00 
    3.9062499999971451E-01     0.0000000000000000E+00     0.0000000000000000E+00 
    4.0624999999975520E-01     0.0000000000000000E+00     0.0000000000000000E+00 
    4.2187499999979600E-01     0.0000000000000000E+00     0.0000000000000000E+00 
    4.3749999999983680E-01     0.0000000000000000E+00     0.0000000000000000E+00 
    4.5312499999987760E-01     0.0000000000000000E+00     0.0000000000000000E+00 
    4.6874999999991840E-01     0.0000000000000000E+00     0.0000000000000000E+00 
    4.8437499999995920E-01     0.0000000000000000E+00     0.0000000000000000E+00 
    5.1562499999992384E-01     0.0000000000000000E+00     0.0000000000000000E+00 
    5.3124999999985478E-01     0.0000000000000000E+00     0.0000000000000000E+00 
    5.4687499999994527E-01     0.0000000000000000E+00     0.0000000000000000E+00 
    5.6249999999998668E-01     0.0000000000000000E+00     0.0000000000000000E+00 
    5.7812499999998068E-01     0.0000000000000000E+00     0.0000000000000000E+00 
    5.9374999999994749E-01     0.0000000000000000E+00     0.0000000000000000E+00 
    6.0937499999997913E-01     0.0000000000000000E+00     0.0000000000000000E+00 
    6.2500000000000000E-01     0.0000000000000000E+00     0.0000000000000000E+00 
    6.4062499999998945E-01     0.0000000000000000E+00     0.0000000000000000E+00 
    6.5624999999996603E-01     0.0000000000000000E+00     0.0000000000000000E+00 
    6.7187499999995337E-01     0.0000000000000000E+00     0.0000000000000000E+00 
    6.8749999999998734E-01     0.0000000000000000E+00     0.0000000000000000E+00 
    7.0312499999998124E-01     0.0000000000000000E+00     0.0000000000000000E+00 
    7.1874999999997025E-01     0.0000000000000000E+00     0.0000000000000000E+00 
    7.3437499999999034E-01     0.0000000000000000E+00     0.0000000000000000E+00 
    7.5000000000000000E-01     0.0000000000000000E+00     0.0000000000000000E+00 
    7.6562499999996902E-01     0.0000000000000000E+00     0.0000000000000000E+00 
    7.8124999999993228E-01     0.0000000000000000E+00     0.0000000000000000E+00 
    7.9687499999989997E-01     0.0000000000000000E+00     0.0000000000000000E+00 
    8.1249999999996247E-01     0.0000000000000000E+00     0.0000000000000000E+00 
    8.2812499999999578E-01     0.0000000000000000E+00     0.0000000000000000E+00 
    8.4374999999999556E-01     0.0000000000000000E+00     0.0000000000000000E+00 
    8.5937500000000111E-01     0.0000000000000000E+00     0.0000000000000000E+00 
    8.7499999999997691E-01     0.0000000000000000E+00     0.0000000000000000E+00 
    8.9062500000000921E-01     0.0000000000000000E+00     0.0000000000000000E+00 
    9.0625000000004452E-01     0.0000000000000000E+00     0.0000000000000000E+00 
    9.2187500000005529E-01     0.0000000000000000E+00     0.0000000000000000E+00 
    9.3750000000012723E-01     0.0000000000000000E+00     0.0000000000000000E+00 
    9.5312500000011835E-01     0.0000000000000000E+00     0.0000000000000000E+00 
    9.6875000000005151E-01     0.0000000000000000E+00     0.0000000000000000E+00 
    9.8437500000003086E-01     0.0000000000000000E+00     0.0000000000000000E+00 
    1.0000000000000000E+00     1.5624999999971041E-02     0.0000000000000000E+00 
    1.0000000000000000E+00     3.1249999999936742E-02     0.0000000000000000E+00 
    1.0000000000000000E+00     4.6874999999913257E-02     0.0000000000000000E+00 
    1.0000000000000000E+00     6.2499999999889783E-02     0.0000000000000000E+00 
    1.0000000000000000E+00     7.8124999999844805E-02     0.0000000000000000E+00 
    1.0000000000000000E+00     9.3749999999799827E-02     0.0000000000000000E+00 
    1.0000000000000000E+00     1.0937499999975490E-01     0.0000000000000000E+00 
    1.0000000000000000E+00     1.2499999999970990E-01     0.0000000000000000E+00 
    1.0000000000000000E+00     1.4062499999966460E-01     0.0000000000000000E+00 
    1.0000000000000000E+00     1.5624999999961930E-01     0.0000000000000000E+00 
    1.0000000000000000E+00     1.7187499999957390E-01     0.0000000000000000E+00 
    1.0000000000000000E+00     1.8749999999952860E-01     0.0000000000000000E+00 
    1.0000000000000000E+00     2.0312499999948330E-01     0.0000000000000000E+00 
    1.0000000000000000E+00     2.1874999999943801E-01     0.0000000000000000E+00 
    1.0000000000000000E+00     2.3437499999939271E-01     0.0000000000000000E+00 
    1.0000000000000000E+00     2.4999999999934730E-01     0.0000000000000000E+00 
    1.0000000000000000E+00     2.6562499999938810E-01     0.0000000000000000E+00 
    1.0000000000000000E+00     2.8124999999942890E-01     0.0000000000000000E+00 
    1.0000000000000000E+00     2.9687499999946970E-01     0.0000000000000000E+00 
    1.0000000000000000E+00     3.1249999999951050E-01     0.0000000000000000E+00 
    1.0000000000000000E+00     3.2812499999955130E-01     0.0000000000000000E+00 
    1.0000000000000000E+00     3.4374999999959210E-01     0.0000000000000000E+00 
    1.0000000000000000E+00     3.5937499999963290E-01     0.0000000000000000E+00 
    1.0000000000000000E+00     3.7499999999967371E-01     0.0000000000000000E+00 
    1.0000000000000000E+00     3.9062499999971451E-01     0.0000000000000000E+00 
    1.0000000000000000E+00     4.0624999999975520E-01     0.0000000000000000E+00 
    1.0000000000000000E+00     4.2187499999979600E-01     0.0000000000000000E+00 
    1.0000000000000000E+00     4.3749999999983680E-01     0.0000000000000000E+00 
    1.0000000000000000E+00     4.5312499999987760E-01     0.0000000000000000E+00 
    1.0000000000000000E+00     4.6874999999991840E-01     0.0000000000000000E+00 
    1.0000000000000000E+00     4.8437499999995920E-01     0.0000000000000000E+00 
    1.0000000000000000E+00     5.1562499999992384E-01     0.0000000000000000E+00 
    1.0000000000000000E+00     5.3124999999985478E-01     0.0000000000000000E+00 
    1.0000000000000000E+00     5.4687499999994527E-01     0.0000000000000000E+00 
    1.0000000000000000E+00     5.6249999999998668E-01     0.0000000000000000E+00 
    1.0000000000000000E+00     5.7812499999998068E-01     0.0000000000000000E+00 
    1.0000000000000000E+00     5.9374999999994749E-01     0.0000000000000000E+00 
    1.0000000000000000E+00     6.0937499999997913E-01     0.0000000000000000E+00 
    1.0000000000000000E+00     6.2500000000000000E-01     0.0000000000000000E+00 
    1.0000000000000000E+00     6.4062499999998945E-01     0.0000000000000000E+00 
    1.0000000000000000E+00     6.5624999999996603E-01     0.0000000000000000E+00 
    1.0000000000000000E+00     6.7187499999995337E-01     0.0000000000000000E+00 
    1.0000000000000000E+00     6.8749999999998734E-01     0.0000000000000000E+00 
    1.0000000000000000E+00     7.0312499999998124E-01     0.0000000000000000E+00 
    1.0000000000000000E+00     7.1874999999997025E-01     0.0000000000000000E+00 
    1.0000000000000000E+00     7.3437499999999034E-01     0.0000000000000000E+00 
    1.0000000000000000E+00     7.5000000000000000E-01     0.0000000000000000E+00 
    1.0000000000000000E+00     7.6562499999996902E-01     0.0000000000000000E+00 
    1.0000000000000000E+00     7.8124999999993228E-01     0.0000000000000000E+00 
    1.0000000000000000E+00     7.9687499999989997E-01     0.0000000000000000E+00 
[...]
CELL_DATA 2084 
SCALARS Pressure double 1 
LOOKUP_TABLE default 

    2.5174563915778063E+00 
    2.5444164936238498E+00 
    2.7305096231103270E+00 
    2.5451485421440014E+00 
    2.6480580567412253E+00 
    2.6051424306678266E+00 
    2.4903863553389569E+00 
    2.5901314842757155E+00 
    2.6000708065635578E+00 
    2.6522560192382758E+00 
    2.7247092952666780E+00 
    2.5042082429147583E+00 
    2.5793576127098397E+00 
    2.5418956001118693E+00 
    2.5127431351652811E+00 
    2.5317654143161161E+00 
    2.6852020774968555E+00 
    2.5615753021247887E+00 
    2.7565899072191371E+00 
    2.5241431357225506E+00 
    2.5276325946761822E+00 
    2.6313649117999214E+00 
    2.5301582015460302E+00 
    2.5754497333880018E+00 
    2.5206589316785841E+00 
    2.5769649254856319E+00 
    2.5373573449345210E+00 
    2.4934430302764325E+00 
    2.5836492883272708E+00 
    2.5510761411226381E+00 
    2.4830037050315208E+00 
    2.5907995141123159E+00 
    2.4712929415181635E+00 
    2.5269576047062134E+00 
    2.5076791351436660E+00 
    2.6419642557309122E+00 
    2.5563561629374667E+00 
    2.5522310545958038E+00 
    2.6313388162161235E+00 
    2.5917491856797938E+00 
    2.4959172830400398E+00 
    2.6567832960305728E+00 
    2.5210534409463410E+00 
    2.6117989559853667E+00 
    2.6042343743382999E+00 
    2.5028956613532749E+00 
    2.6551783240195586E+00 
    2.4872075677725021E+00 
    2.4890779236798037E+00 
    2.5801560748535501E+00 
    2.5776055433776195E+00 
    2.4927698537580163E+00 
    2.5027387319938619E+00 
    2.5646240706764805E+00 
    2.5657434119216376E+00 
    2.4960784000097433E+00 
    2.4764106949799363E+00 
    2.6179569646424601E+00 
    2.6289501360742684E+00 
    2.5725052868001548E+00 
    2.5712593526926231E+00 
    2.5247850600185133E+00 
    2.5064808990314003E+00 
    2.5397022638502014E+00 
    2.6527448084965597E+00 
    2.5684808091246114E+00 
    2.5999095351157351E+00 
    2.5014308465218025E+00 
    2.4878266622575591E+00 
    2.4869706603988377E+00 
    2.5188502660484779E+00 
    2.7865282615445723E+00 
    2.5777190271138637E+00 
    2.7082353243760058E+00 
    2.6253955613104192E+00 
    2.7056888654033449E+00 
    2.5733976904854523E+00 
    2.6449051150048883E+00 
    2.5039255534216616E+00 
    2.6617442635989081E+00 
    2.5308162996391448E+00 
    2.5913996217251749E+00 
    2.6166562934784663E+00 
    2.4819582341965063E+00 
    2.6048326126126233E+00 
    2.5287617550827526E+00 
    2.5589397529192413E+00 
    2.6072669667872241E+00 
    2.6266171430899972E+00 
    2.6179929551869918E+00 
    2.6005837339332221E+00 
    2.5971905647923434E+00 
    2.5326170115573365E+00 
    2.6162024982786045E+00 
    2.5612883690496369E+00 
    2.4926280685085773E+00 
    2.5472713434154715E+00 
    2.5846250012638916E+00 
    2.6387072302556946E+00 
    2.5509923723284915E+00 
    2.6502034418439786E+00 
    2.6140589212616425E+00 
    2.6292266193599980E+00 
    2.6305351636760217E+00 
    2.5616996635603893E+00 
    2.6156767647992378E+00 
    2.5892025013931188E+00 
    2.6393730663085755E+00 
    2.5152585546946797E+00 
    2.8186851446471062E+00 
    2.5355180975836480E+00 
    2.5836692556904155E+00 
    2.6133358381363752E+00 
    2.6661880158537983E+00 
    2.7186186499037128E+00 
    2.5411359443423271E+00 
    2.6163300990528850E+00 
    2.6131740467946325E+00 
    2.5530169748073543E+00 
    2.5218658465943125E+00 
    2.5678606839668197E+00 
    2.6280516897361785E+00 
    2.5220830838177748E+00 
    2.6931091144233226E+00 
    2.5879838268198583E+00 
    2.6285556597713038E+00 
    2.5697701020521242E+00 
    2.5221123879273750E+00 
    2.5568434768671011E+00 
    2.5305883871239621E+00 
    2.7149115440823119E+00 
    2.7273017365544892E+00 
    2.4980095825712456E+00 
    2.6526940917252473E+00 
    2.6389665632004635E+00 
    2.5710178190290733E+00 
    2.6206472652124999E+00 
    2.5209380272841040E+00 
    2.6374399750242512E+00 
    2.6987594084198574E+00 
    2.6033311956603615E+00 
    2.7412223016193265E+00 
    2.7084919553753797E+00 
    2.5878944773199213E+00 
    2.5415382547867784E+00 
    2.5838804011848362E+00 
    2.6144083669808511E+00 
    2.6362243054231018E+00 
    2.5613205562046844E+00 
    2.6022374849740313E+00 
    2.6076130660134291E+00 
    2.6997363496170057E+00 
    2.7734856261779584E+00 
    2.5606752647632138E+00 
    2.5694606777875633E+00 
    2.7564968928809845E+00 
    2.5297390246231397E+00 
    2.6103442168870661E+00 
    2.5649353073920742E+00 
    2.6927093460020570E+00 
    2.8989256092449449E+00 
    2.8380964800078163E+00 
    2.7771688157105254E+00 
    2.7978016574848592E+00 
    2.7488514537908149E+00 
    2.7654199388565326E+00 
    2.6123711167198107E+00 
    2.8119921163058987E+00 
    2.6039681504855432E+00 
    2.7582809955177350E+00 
    2.6042721414095555E+00 
    2.6861462430169247E+00 
    2.7039505105928718E+00 
    2.6422443927077324E+00 
    2.6788645371271431E+00 
    2.5494460398136529E+00 
    2.6818121255027023E+00 
    2.5950291281394291E+00 
    2.6024000065199329E+00 
    2.6013153249228478E+00 
    2.6251082956409979E+00 
    2.5473442636286490E+00 
    2.6868751517961531E+00 
    2.6274202168778293E+00 
    2.6238557981811041E+00 
    2.4747030358270155E+00 
    2.6475806302893763E+00 
    2.7103823971248242E+00 
    2.5547767037251261E+00 
    2.6686614253834429E+00 
    2.7252098702096563E+00 
    2.7475312128531124E+00 
    2.6255293360571321E+00 
    2.5707675401292440E+00 
    2.5395541816544371E+00 
    2.5571372797405854E+00 
    2.6544280703484677E+00 
    2.6181149728281250E+00 
    2.5674790285471696E+00 
    2.6588309369684526E+00 
    2.5948784810801810E+00 
    2.5593744025834804E+00 
    2.6251259774409079E+00 
    2.5053118691869307E+00 
    2.5586550174877627E+00 
    2.7289025005649341E+00 
    2.6537205723514590E+00 
    2.5507484815765218E+00 
    2.6768620162145322E+00 
    2.6691875496188633E+00 
    2.5643302074495895E+00 
    2.5848334944113760E+00 
    2.5903961422977972E+00 
    2.6441095760057305E+00 
    2.6404556915394588E+00 
    2.7034981749870406E+00 
    2.5801760594814125E+00 
    2.6410236334819257E+00 
    2.6550760285818655E+00 
    2.5687800855721070E+00 
    2.5758770217935272E+00 
    2.4666705630349917E+00 
    2.5707236681153751E+00 
    2.7381685060487806E+00 
    2.6176859354981619E+00 
    2.6398264079832328E+00 
    2.5949309462378531E+00 
    2.6399481504970939E+00 
    2.5575151701999519E+00 
    2.5453846288100461E+00 
    2.5202729330576998E+00 
    2.5546162680294748E+00 
    2.5245787257020176E+00 
    2.5804570811327010E+00 
    2.6267928248432928E+00 
    2.5371762629404717E+00 
    2.6712721312856238E+00 
    2.6734622908619512E+00 
    2.5770774263359932E+00 
    2.5455912649358501E+00 
    2.6268393163342409E+00 
    2.5640155518507082E+00 
    2.5115476921636204E+00 
    2.5575291996195477E+00 
    2.5173919502736490E+00 
    2.5182110467351535E+00 
    2.5682531777924233E+00 
    2.6135599051418499E+00 
    2.6902352861646235E+00 
    2.5074223238979796E+00 
    2.5557075362417465E+00 
    2.5340715724645149E+00 
    2.5553063392989479E+00 
    2.7856458841009402E+00 
    2.5225603502683813E+00 
    2.5901656130535664E+00 
    2.5331676548847906E+00 
    2.5703873639735897E+00 
    2.5427403416908438E+00 
    2.5785025438704725E+00 
    2.5329622393956361E+00 
    2.5750923551333535E+00 
    2.5444597279710561E+00 
    2.5784309516893900E+00 
    2.5403895500346318E+00 
    2.5392827814290793E+00 
    2.5170416156003794E+00 
    2.5270834514056477E+00 
    2.6713713479571637E+00 
    2.4981239670588313E+00 
    2.5072670887005510E+00 
    2.5515992863895196E+00 
    2.5368793897865833E+00 
    2.8542503773407848E+00 
    2.5542353470775656E+00 
    2.6426517815262600E+00 
    2.5469580072166682E+00 
    2.4933901178394438E+00 
    2.5667586879868254E+00 
    2.5279940333242616E+00 
    2.5813351058131189E+00 
    2.5408810042707843E+00 
    2.5412215259523396E+00 
    2.5524258187968054E+00 
    2.5193529715635066E+00 
    2.5540421289828177E+00 
    2.5416941886874085E+00 
    2.4986791613759118E+00 
    2.5313996682921780E+00 
    2.5313632063833400E+00 
    2.5491151907390552E+00 
    2.4915624044281461E+00 
    2.5339942131404261E+00 
    2.5488909901205039E+00 
    2.5802617421623508E+00 
    2.5218880226769627E+00 
    2.5106026129930634E+00 
    2.6542751255683497E+00 
    2.5226046929124166E+00 
    2.6017690010598451E+00 
    2.8542876018481671E+00 
    2.6649586252582158E+00 
    2.6024563832171084E+00 
    2.6864014046257934E+00 
    2.5375584117753949E+00 
    2.5315131370521269E+00 
    2.5094350296678520E+00 
    2.5130366527837276E+00 
    2.5140880761647999E+00 
    2.5070854576879844E+00 
    2.6896023248855863E+00 
    2.5112240624608173E+00 
    2.5678879393250766E+00 
    2.6694020692137101E+00 
    2.5798599103550317E+00 
    2.5221164585281106E+00 
    2.6362748262100881E+00 
    2.5050913660519374E+00 
    2.5054614251133653E+00 
    2.5143091683630225E+00 
    2.8220084129366283E+00 
    2.6145554151362149E+00 
    2.6790999192341300E+00 
    2.6847308997343258E+00 
    2.5891951461811726E+00 
    2.6561642972842407E+00 
    2.5251460889663706E+00 
    2.4598794354975286E+00 
    2.9982040953622171E+00 
    2.4821752528475178E+00 
    2.4973348731430658E+00 
    2.4967108667014446E+00 
    2.6036059486979037E+00 
    2.6684222487056024E+00 
    2.4595268843755025E+00 
    2.7210194880981478E+00 
    2.7425783195461819E+00 
    2.5899794252760548E+00 
    2.5416496861333866E+00 
    2.7077144572504834E+00 
    2.5919692832899734E+00 
    2.5155127376549666E+00 
    2.6787487538731867E+00 
    2.4893670245597925E+00 
    2.4883910986853586E+00 
    2.6011445643226647E+00 
    2.5503420694772618E+00 
    2.4676939375220859E+00 
    2.5412866543555883E+00 
    2.4758162112046587E+00 
    2.6979262553231567E+00 
    2.4819579587280480E+00 
    2.5309120303279915E+00 
    2.6665488274483673E+00 
    2.5499484351806907E+00 
    2.5920937950906202E+00 
    2.4804213440979006E+00 
    2.5718982703215847E+00 
    2.5774913923690099E+00 
    2.5164962916464568E+00 
    2.5505170622879532E+00 
    2.6731207398706434E+00 
    2.4755294175919462E+00 
    2.5483902521156980E+00 
    2.5205764216235624E+00 
    2.5214373112301947E+00 
    2.5651079537400880E+00 
    2.5143029954208522E+00 
    2.5563866752107778E+00 
    2.6857584213490964E+00 
    2.7007640231511969E+00 
    2.4729749751173751E+00 
    2.8654772730698927E+00 
    2.5701736022944011E+00 
    2.5342614491699540E+00 
    2.7291452427884733E+00 
    2.5959605594759583E+00 
    2.6115408560824718E+00 
    2.5207445873329277E+00 
    2.5134039678399733E+00 
    2.6302819719147390E+00 
    2.5907162664991539E+00 
    2.4682221887428506E+00 
    2.5205428530021563E+00 
    2.7572639868937041E+00 
    2.5857041417162829E+00 
    2.6601677132540380E+00 
    2.6016589283799565E+00 
    2.6737470929075382E+00 
    2.6302314213276539E+00 
    2.4665303735201038E+00 
    2.4999656555468306E+00 
    2.5431741301832873E+00 
    2.7022956795307693E+00 
    2.6581912022982479E+00 
    2.5394261811318235E+00 
    2.5145078651032038E+00 
    2.5379556562264263E+00 
    2.5258249886494597E+00 
    2.6430970229643411E+00 
    2.5171663595942406E+00 
    2.6103787957144764E+00 
    2.7980945578756335E+00 
    2.5116387295314859E+00 
    2.7624229278062429E+00 
    2.5598237309202769E+00 
    2.7775278402554195E+00 
    2.6685236051991628E+00 
    2.9110852762177735E+00 
    2.5314891862993201E+00 
    2.6561318396930296E+00 
    2.5781912887436222E+00 
    2.5071829505151659E+00 
    2.6831667890969673E+00 
    2.5697967256290912E+00 
    2.6923279307824939E+00 
    2.5108370657913288E+00 
    2.6587487743833065E+00 
    2.5604835770407801E+00 
    2.5937658683543114E+00 
    2.4808599776406677E+00 
    2.5144514053679412E+00 
    2.5025032005291878E+00 
    2.7236100705280664E+00 
    2.5334213523366005E+00 
    2.7890759669309690E+00 
    2.7406616232111953E+00 
    2.5239086930935963E+00 
    2.5586269307920699E+00 
    2.5436001145151819E+00 
    2.4791489899797039E+00 
    2.5638234169650649E+00 
    2.6724341238006413E+00 
    2.5230645295947434E+00 
    2.4876676709492727E+00 
    2.8171466450736040E+00 
    2.6430935912874718E+00 
    2.4601439131016254E+00 
    2.4597286903042490E+00 
    2.4982906670173999E+00 
    2.5046651201145274E+00 
    2.4856802183301960E+00 
    2.4760475284059504E+00 
    2.5392948422530921E+00 
    2.5292505271653867E+00 
    2.4533724514686974E+00 
    2.4532541393482759E+00 
    2.4203620803541011E+00 
    2.3607864150191484E+00 
    2.3547405179705567E+00 
    2.3601371880367341E+00 
    2.3798840816734219E+00 
    2.3768308294478868E+00 
    2.4329276637479365E+00 
    2.3397565540924337E+00 
    2.4195831156573266E+00 
    2.3451336237524254E+00 
    2.4006910469006173E+00 
    2.3740818845201037E+00 
    2.3710594093843493E+00 
    2.3472431190845775E+00 
    2.3394753501208343E+00 
    2.4730064750298739E+00 
    2.4301101419974205E+00 
    2.4540769734150345E+00 
    2.4262690044868278E+00 
    2.3869537891682939E+00 
    2.3390438048768738E+00 
    2.3363942827083801E+00 
    2.4686778226948340E+00 
    2.3974709281946796E+00 
    2.3383262823703346E+00 
    2.3796633256352098E+00 
    2.4463489235921951E+00 
    2.4462829766627334E+00 
    2.3251293542447140E+00 
    2.3371447299563837E+00 
    2.4001270060838036E+00 
    2.4556898292638705E+00 
    2.4327173733182845E+00 
    2.3876847856030325E+00 
    2.3626902060829935E+00 
    2.4810029215845422E+00 
    2.4563849580535302E+00 
    2.4461067777978194E+00 
    2.4963080587926187E+00 
    2.3620650557198273E+00 
    2.3764706917318303E+00 
    2.3717288419287930E+00 
    2.4669846509184730E+00 
    2.3752106922369984E+00 
    2.4507109654859351E+00 
    2.4127630283175687E+00 
    2.4095829786707808E+00 
    2.3951237296755976E+00 
    2.3996814063524861E+00 
    2.4561369365996750E+00 
    2.4521060610348608E+00 
    2.4064481567340912E+00 
    2.3558730362085107E+00 
    2.3975708784920524E+00 
    2.3924318553653605E+00 
    2.3404491812400208E+00 
    2.4356563502297006E+00 
    2.3434569112964510E+00 
    2.4557443215688473E+00 
    2.3469551969378792E+00 
    2.4207533860156962E+00 
    2.3674187431941593E+00 
    2.3231452292518249E+00 
    2.3235166214804193E+00 
    2.3245412322600600E+00 
    2.3160829405660599E+00 
    2.3956507815764079E+00 
    2.3166799901055439E+00 
    2.3377589695318264E+00 
    2.3399993638132113E+00 
    2.4851853321916972E+00 
    2.3997086448298726E+00 
    2.3396780787890741E+00 
    2.4551739730596447E+00 
    2.3816481615623597E+00 
    2.3638021371130482E+00 
    2.4388883447618754E+00 
    2.4825166985992579E+00 
    2.4257669747274102E+00 
    2.4284274176184333E+00 
    2.4054037663436412E+00 
    2.4192407650930789E+00 
    2.4421696909976900E+00 
    2.4394129273303533E+00 
    2.4365838224636360E+00 
    2.4405839678171724E+00 
    2.4100530622849314E+00 
    2.4526715832051162E+00 
    2.4524419942504663E+00 
    2.4229586184645462E+00 
    2.4312886212062663E+00 
    2.4719626698760537E+00 
    2.4409994605101426E+00 
    2.4493923061518026E+00 
    2.4755046143664496E+00 
    2.3799341259077607E+00 
    2.3688512400029187E+00 
    2.4212131743782086E+00 
    2.4567551280138464E+00 
    2.4830649217104419E+00 
    2.4525179909959469E+00 
    2.3245529701800050E+00 
    2.3663228957774516E+00 
    2.4191763491353249E+00 
    2.3921571343426700E+00 
    2.3476500905594970E+00 
    2.4418644815831554E+00 
    2.4176931679572609E+00 
    2.3472609663490744E+00 
    2.4326734931072780E+00 
    2.3577861516659890E+00 
    2.3702812427960982E+00 
    2.3661692277529669E+00 
    2.4239309119021213E+00 
    2.4505575012069922E+00 
    2.4690705877155126E+00 
    2.4405424250761647E+00 
    2.4636526435026118E+00 
    2.3555932886366069E+00 
    2.3407058414496422E+00 
    2.4688756749990279E+00 
    2.4359718019675163E+00 
    2.3240974643469197E+00 
    2.3236132516106656E+00 
    2.4793247694257015E+00 
    2.4117427137307255E+00 
    2.4433648753924180E+00 
    2.4186130103257337E+00 
    2.3827440339798245E+00 
    2.4219758838291887E+00 
    2.4345786702146697E+00 
    2.4086708762753730E+00 
    2.4040501587312764E+00 
    2.4038104812778229E+00 
    2.3139114146192310E+00 
    2.4600582602195158E+00 
    2.4968077711387111E+00 
    2.3146289679547634E+00 
    2.3141707397075142E+00 
    2.3155948955574521E+00 
    2.3148064154452941E+00 
    2.3230119454144997E+00 
    2.4443997900501873E+00 
    2.3850222617461485E+00 
    2.3358424970753453E+00 
    2.4326189000306679E+00 
    2.4300782055125483E+00 
    2.3760922536230686E+00 
    2.3941323414993927E+00 
    2.3855740100295630E+00 
    2.4074474917939686E+00 
    2.4659665505568640E+00 
    2.3140701971172075E+00 
    2.3151428394227773E+00 
    2.3594182879221082E+00 
    2.3999807742010337E+00 
    2.4472459941811744E+00 
    2.3374154994046052E+00 
    2.4685545311213284E+00 
    2.3203358982476852E+00 
    2.3787735930407345E+00 
    2.3219649797876829E+00 
    2.3214754326749016E+00 
    2.3343306775498989E+00 
    2.4693268537497359E+00 
    2.4177202674613913E+00 
    2.3904434597489104E+00 
    2.4101752993621526E+00 
    2.4282533982865750E+00 
    2.3228805639800107E+00 
    2.3883169732598346E+00 
    2.4189824692775206E+00 
    2.4681829599453593E+00 
    2.4598883314823397E+00 
    2.4564968747878160E+00 
    2.4689749888711270E+00 
    2.4748454381622986E+00 
    2.4049425993319464E+00 
    2.3396341656947652E+00 
    2.4266837655721205E+00 
    2.4248636901037459E+00 
    2.3821898857280317E+00 
    2.3223003119636645E+00 
    2.4220863305045421E+00 
    2.4370220691119227E+00 
    2.4448884444408865E+00 
    2.4328891099436136E+00 
    2.3233076590268698E+00 
    2.4278856664529451E+00 
    2.4235061304673713E+00 
    2.3336694710935442E+00 
    2.3501489008457845E+00 
    2.4182781657218495E+00 
    2.4310602421546887E+00 
    2.4260134226453287E+00 
    2.4389560958659815E+00 
    2.4379671607819566E+00 
    2.4668798350069649E+00 
    2.4213977777656042E+00 
    2.4504170212472798E+00 
    2.4145171873144324E+00 
    2.4286013899118091E+00 
    2.3187756389325123E+00 
    2.4812900576166812E+00 
    2.4628348758462453E+00 
    2.4738191736535944E+00 
    2.3829728984217891E+00 
    2.3702980990511091E+00 
    2.3545944003863695E+00 
    2.4433264158835497E+00 
    2.4184519932925719E+00 
    2.4468689497602929E+00 
    2.3742466790802084E+00 
    2.3343769836528310E+00 
    2.3483296360879899E+00 
    2.4564077755563090E+00 
    2.3438217981679634E+00 
    2.4061228872565823E+00 
    2.3566446371734378E+00 
    2.4552594177043976E+00 
    2.4161704033908342E+00 
    2.4029859829613369E+00 
    2.4768292945030068E+00 
    2.4710269178629263E+00 
    2.3925134638323988E+00 
    2.3836174563004695E+00 
    2.3635284146902915E+00 
    2.3981006621848127E+00 
    2.4459489602136051E+00 
    2.3167634944013757E+00 
    2.4651997949209523E+00 
    2.4769208436497627E+00 
    2.3906300312011193E+00 
    2.3859727654235385E+00 
    2.3362360427777724E+00 
    2.3214484880822508E+00 
    2.4730516125620179E+00 
    2.3700742422220809E+00 
    2.4189824702724052E+00 
    2.3906973743078281E+00 
    2.4297688306200991E+00 
    2.3501983799644948E+00 
    2.4078152922084461E+00 
    2.4725789836959926E+00 
    2.3601468670246617E+00 
    2.3885787074236480E+00 
    2.3567975427447649E+00 
    2.3982254218433936E+00 
    2.4787002337975088E+00 
    2.3655597734315106E+00 
    2.4172812784178754E+00 
    2.3765702243807687E+00 
    2.3366534030514585E+00 
    2.4384424114158429E+00 
    2.4383082435421413E+00 
    2.4254000415879529E+00 
    2.3752009917043990E+00 
    2.3720106741824520E+00 
    2.3419016444904917E+00 
    2.4207082628325911E+00 
    2.4374769901800351E+00 
    2.4047178906837687E+00 
    2.3384621730914121E+00 
    2.3688756219467355E+00 