# vtk DataFile Version 2.0
Pressure Field Data 
ASCII 
DATASET UNSTRUCTURED_GRID 

POINTS 2213 double 

    0.0000000000000000E+00     0.0000000000000000E+00     0.0000000000000000E+00 
    5.0000000000000000E-01     0.0000000000000000E+00     0.0000000000000000E+00 
    1.0000000000000000E+00     0.0000000000000000E+00     0.0000000000000000E+00 
    1.0000000000000000E+00     5.0000000000000000E-01     0.0000000000000000E+00 
    1.0000000000000000E+00     1.0000000000000000E+00     0.0000000000000000E+00 
    5.0000000000000000E-01     1.0000000000000000E+00     0.0000000000000000E+00 
    0.0000000000000000E+00     1.0000000000000000E+00     0.0000000000000000E+00 
    0.0000000000000000E+00     5.0000000000000000E-01     0.0000000000000000E+00 
    1.5624999999971041E-02     0.0000000000000000E+00     0.0000000000000000E+00 
    3.1249999999936742E-02     0.0000000000000000E+00     0.0000000000000000E+00 
    4.6874999999913257E-02     0.0000000000000000E+00     0.0000000000000000E+00 
    6.2499999999889783E-02     0.0000000000000000E+00     0.0000000000000000E+00 
    7.8124999999844805E-02     0.0000000000000000E+00     0.0000000000000000E+00 
    9.3749999999799827E-02     0.0000000000000000E+00     0.0000000000000000E+00 
    1.0937499999975490E-01     0.0000000000000000E+00     0.0000000000000000E+00 
    1.2499999999970990E-01     0.0000000000000000E+00     0.0000000000000000E+00 
    1.4062499999966460E-01     0.0000000000000000E+00     0.0000000000000000E+00 
    1.5624999999961930E-01     0.0000000000000000E+00     0.0000000000000000E+00 
    1.7187499999957390E-01     0.0000000000000000E+00     0.0000000000000000E+00 
    1.8749999999952860E-01     0.0000000000000000E+00     0.0000000000000000E+00 
    2.0312499999948330E-01     0.0000000000000000E+00     0.0000000000000000E+00 
    2.1874999999943801E-01     0.0000000000000000E+00     0.0000000000000000E+00 
    2.3437499999939271E-01     0.0000000000000000E+00     0.0000000000000000E+00 
    2.4999999999934730E-01     0.0000000000000000E+00     0.0000000000000000E+00 
    2.6562499999938810E-01     0.0000000000000000E+00     0.0000000000000000E+00 
    2.8124999999942890E-01     0.0000000000000000E+00     0.0000000000000000E+00 
    2.9687499999946970E-01     0.0000000000000000E+00     0.0000000000000000E+00 
    3.1249999999951050E-01     0.0000000000000000E+00     0.0000000000000000E+00 
    3.2812499999955130E-01     0.0000000000000000E+00     0.0000000000000000E+00 
    3.4374999999959210E-01     0.0000000000000000E+00     0.0000000000000000E+00 
    3.5937499999963290E-01     0.0000000000000000E+00     0.0000000000000000E+00 
    3.7499999999967371E-01     0.0000000000000000E+00     0.0000000000000000E+00 
    3.9062499999971451E-01     0.0000000000000000E+00     0.0000000000000000E+00 
    4.0624999999975520E-01     0.0000000000000000E+00     0.0000000000000000E+00 
    4.2187499999979600E-01     0.0000000000000000E+00     0.0000000000000000E+00 
    4.3749999999983680E-01     0.0000000000000000E+00     0.0000000000000000E+00 
    4.5312499999987760E-01     0.0000000000000000E+00     0.0000000000000000E+00 
    4.6874999999991840E-01     0.0000000000000000E+00     0.0000000000000000E+00 
    4.8437499999995920E-01     0.0000000000000000E+00     0.0000000000000000E+00 
    5.1562499999992384E-01     0.0000000000000000E+00     0.0000000000000000E+00 
    5.3124999999985478E-01     0.0000000000000000E+00     0.0000000000000000E+00 
    5.4687499999994527E-01     0.0000000000000000E+00     0.0000000000000000E+00 
    5.6249999999998668E-01     0.0000000000000000E+00     0.0000000000000000E+00 
    5.7812499999998068E-01     0.0000000000000000E+00     0.0000000000000000E+00 
    5.9374999999994749E-01     0.0000000000000000E+00     0.0000000000000000E+00 
    6.0937499999997913E-01     0.0000000000000000E+00     0.0000000000000000E+00 
    6.2500000000000000E-01     0.0000000000000000E+00     0.0000000000000000E+00 
    6.4062499999998945E-01     0.0000000000000000E+00     0.0000000000000000E+00 
    6.5624999999996603E-01     0.0000000000000000E+00     0.0000000000000000E+00 
    6.7187499999995337E-01     0.0000000000000000E+00     0.0000000000000000E+00 
    6.8749999999998734E-01     0.0000000000000000E+00     0.0000000000000000E+00 
    7.0312499999998124E-01     0.0000000000000000E+00     0.0000000000000000E+00 
    7.1874999999997025E-01     0.0000000000000000E+00     0.0000000000000000E+00 
    7.3437499999999034E-01     0.0000000000000000E+00     0.0000000000000000E+00 
    7.5000000000000000E-01     0.0000000000000000E+00     0.0000000000000000E+00 
    7.6562499999996902E-01     0.0000000000000000E+00     0.0000000000000000E+00 
    7.8124999999993228E-01     0.0000000000000000E+00     0.0000000000000000E+00 
    7.9687499999989997E-01     0.0000000000000000E+00     0.0000000000000000E+00 
    8.1249999999996247E-01     0.0000000000000000E+00     0.0000000000000000E+00 
    8.2812499999999578E-01     0.0000000000000000E+00     0.0000000000000000E+00 
    8.4374999999999556E-01     0.0000000000000000E+00     0.0000000000000000E+00 
    8.5937500000000111E-01     0.0000000000000000E+00     0.0000000000000000E+00 
    8.7499999999997691E-01     0.0000000000000000E+00     0.0000000000000000E+00 
    8.9062500000000921E-01     0.0000000000000000E+00     0.0000000000000000E+00 
    9.0625000000004452E-01     0.0000000000000000E+00     0.0000000000000000E+00 
    9.2187500000005529E-01     0.0000000000000000E+00     0.0000000000000000E+00 
    9.3750000000012723E-01     0.0000000000000000E+00     0.0000000000000000E+00 
    9.5312500000011835E-01     0.0000000000000000E+00     0.0000000000000000E+00 
    9.6875000000005151E-01     0.0000000000000000E+00     0.0000000000000000E+00 
    9.8437500000003086E-01     0.0000000000000000E+00     0.0000000000000000E+00 
    1.0000000000000000E+00     1.5624999999971041E-02     0.0000000000000000E+00 
    1.0000000000000000E+00     3.1249999999936742E-02     0.0000000000000000E+00 
    1.0000000000000000E+00     4.6874999999913257E-02     0.0000000000000000E+00 
    1.0000000000000000E+00     6.2499999999889783E-02     0.0000000000000000E+00 
    1.0000000000000000E+00     7.8124999999844805E-02     0.0000000000000000E+00 
    1.0000000000000000E+00     9.3749999999799827E-02     0.0000000000000000E+00 
    1.0000000000000000E+00     1.0937499999975490E-01     0.0000000000000000E+00 
    1.0000000000000000E+00     1.2499999999970990E-01     0.0000000000000000E+00 
    1.0000000000000000E+00     1.4062499999966460E-01     0.0000000000000000E+00 
    1.0000000000000000E+00     1.5624999999961930E-01     0.0000000000000000E+00 
    1.0000000000000000E+00     1.7187499999957390E-01     0.0000000000000000E+00 
    1.0000000000000000E+00     1.8749999999952860E-01     0.0000000000000000E+00 
    1.0000000000000000E+00     2.0312499999948330E-01     0.0000000000000000E+00 
    1.0000000000000000E+00     2.1874999999943801E-01     0.0000000000000000E+00 
    1.0000000000000000E+00     2.3437499999939271E-01     0.0000000000000000E+00 
    1.0000000000000000E+00     2.4999999999934730E-01     0.0000000000000000E+00 
    1.0000000000000000E+00     2.6562499999938810E-01     0.0000000000000000E+00 
    1.0000000000000000E+00     2.8124999999942890E-01     0.0000000000000000E+00 
    1.0000000000000000E+00     2.9687499999946970E-01     0.0000000000000000E+00 
    1.0000000000000000E+00     3.1249999999951050E-01     0.0000000000000000E+00 
    1.0000000000000000E+00     3.2812499999955130E-01     0.0000000000000000E+00 
    1.0000000000000000E+00     3.4374999999959210E-01     0.0000000000000000E+00 
    1.0000000000000000E+00     3.5937499999963290E-01     0.0000000000000000E+00 
    1.0000000000000000E+00     3.7499999999967371E-01     0.0000000000000000E+00 
    1.0000000000000000E+00     3.9062499999971451E-01     0.0000000000000000E+00 
    1.0000000000000000E+00     4.0624999999975520E-01     0.0000000000000000E+00 
    1.0000000000000000E+00     4.2187499999979600E-01     0.0000000000000000E+00 
    1.0000000000000000E+00     4.3749999999983680E-01     0.0000000000000000E+00 
    1.0000000000000000E+00     4.5312499999987760E-01     0.0000000000000000E+00 
    1.0000000000000000E+00     4.6874999999991840E-01     0.0000000000000000E+00 
    1.0000000000000000E+00     4.8437499999995920E-01     0.0000000000000000E+00 
    1.0000000000000000E+00     5.1562499999992384E-01     0.0000000000000000E+00 
    1.0000000000000000E+00     5.3124999999985478E-01     0.0000000000000000E+00 
    1.0000000000000000E+00     5.4687499999994527E-01     0.0000000000000000E+00 
    1.0000000000000000E+00     5.6249999999998668E-01     0.0000000000000000E+00 
    1.0000000000000000E+00     5.7812499999998068E-01     0.0000000000000000E+00 
    1.0000000000000000E+00     5.9374999999994749E-01     0.0000000000000000E+00 
    1.0000000000000000E+00     6.0937499999997913E-01     0.0000000000000000E+00 
    1.0000000000000000E+00     6.2500000000000000E-01     0.0000000000000000E+00 
    1.0000000000000000E+00     6.4062499999998945E-01     0.0000000000000000E+00 
    1.0000000000000000E+00     6.5624999999996603E-01     0.0000000000000000E+00 
    1.0000000000000000E+00     6.7187499999995337E-01     0.0000000000000000E+00 
    1.0000000000000000E+00     6.8749999999998734E-01     0.0000000000000000E+00 
    1.0000000000000000E+00     7.0312499999998124E-01     0.0000000000000000E+00 
    1.0000000000000000E+00     7.1874999999997025E-01     0.0000000000000000E+00 
    1.0000000000000000E+00     7.3437499999999034E-01     0.0000000000000000E+00 
    1.0000000000000000E+00     7.5000000000000000E-01     0.0000000000000000E+00 
    1.0000000000000000E+00     7.6562499999996902E-01     0.0000000000000000E+00 
    1.0000000000000000E+00     7.8124999999993228E-01     0.0000000000000000E+00 
    1.0000000000000000E+00     7.9687499999989997E-01     0.0000000000000000E+00 
[...]
CELL_DATA 2084 
SCALARS Pressure double 1 
LOOKUP_TABLE default 

    2.8525522248028379E+00 
    2.8831341257310936E+00 
    3.0829612768242094E+00 
    2.8839609202965053E+00 
    2.9966672182911829E+00 
    2.9503621467056202E+00 
    2.8215172180797699E+00 
    2.9339158419177926E+00 
    2.9448248205333676E+00 
    3.0011306539843980E+00 
    3.0769732676023147E+00 
    2.8373489412417428E+00 
    2.9220742286863826E+00 
    2.8802073234618493E+00 
    2.8472528990357251E+00 
    2.8687542045099725E+00 
    3.0359166973889167E+00 
    2.9022866147935051E+00 
    3.1097510120341845E+00 
    2.8602484262604841E+00 
    2.8641645474872011E+00 
    2.9787736325904319E+00 
    2.8669355592381103E+00 
    2.9177535588799350E+00 
    2.8562844842651707E+00 
    2.9193870869397949E+00 
    2.8751460854443045E+00 
    2.8249657227593437E+00 
    2.9267898781800619E+00 
    2.8906149816182500E+00 
    2.8129837165936440E+00 
    2.9346974916074102E+00 
    2.7991576376346887E+00 
    2.8634456311553951E+00 
    2.8413496177508377E+00 
    2.9901440717704251E+00 
    2.8964592805158547E+00 
    2.8918334164142103E+00 
    2.9787599796115969E+00 
    2.9357350399275450E+00 
    2.8279224205803040E+00 
    3.0059422099563777E+00 
    2.8566886053555365E+00 
    2.9576330289849642E+00 
    2.9493718544807197E+00 
    2.8359936159576207E+00 
    3.0042333205426481E+00 
    2.8176993145279678E+00 
    2.8200267324609820E+00 
    2.9229730613898361E+00 
    2.9201217048766788E+00 
    2.8241466061113876E+00 
    2.8356159534056413E+00 
    2.9056951562688713E+00 
    2.9069285013382107E+00 
    2.8279352701268898E+00 
    2.8051575815744827E+00 
    2.9643088526191765E+00 
    2.9761739082182843E+00 
    2.9145032582475459E+00 
    2.9131324920135602E+00 
    2.8608411085086849E+00 
    2.8400539497224080E+00 
    2.8778231306369690E+00 
    3.0016472530829734E+00 
    2.9100400179906578E+00 
    2.9446663751729112E+00 
    2.8342754711867513E+00 
    2.8184519636417500E+00 
    2.8176100809962863E+00 
    2.8541833557586438E+00 
    3.1402895163881062E+00 
    2.9202268475892348E+00 
    3.0599230861483058E+00 
    2.9723514059566440E+00 
    3.0572912177852372E+00 
    2.9154474888040625E+00 
    2.9932885572122698E+00 
    2.8369929669578200E+00 
    3.0111938827947191E+00 
    2.8676940493967407E+00 
    2.9353574561029347E+00 
    2.9628957761069872E+00 
    2.8116285548531978E+00 
    2.9500368423025889E+00 
    2.8654524221711264E+00 
    2.8993539488883218E+00 
    2.9526925520332234E+00 
    2.9736692532464319E+00 
    2.9643425986415544E+00 
    2.9454008489876373E+00 
    2.9416937696395964E+00 
    2.8698211612943498E+00 
    2.9623994705214063E+00 
    2.9020387139154740E+00 
    2.8241571139727619E+00 
    2.8862762423337762E+00 
    2.9278959258802542E+00 
    2.9866685214989852E+00 
    2.8905200373337823E+00 
    2.9989358143278788E+00 
    2.9600882723356174E+00 
    2.9764745664513477E+00 
    2.9778784280370165E+00 
    2.9024966069297387E+00 
    2.9618402792860872E+00 
    2.9329248738754745E+00 
    2.9873673599261084E+00 
    2.8499799954774869E+00 
    3.1729061683250328E+00 
    2.8730198380666025E+00 
    2.9268248938964856E+00 
    2.9592927678439773E+00 
    3.0158932516756982E+00 
    3.0707033350347595E+00 
    2.8793613770695288E+00 
    2.9625497685765692E+00 
    2.9591203601993419E+00 
    2.8927906578914695E+00 
    2.8576764421366510E+00 
    2.9093058093108493E+00 
    2.9752142393120020E+00 
    2.8579046601500120E+00 
    3.0441745111695688E+00 
    2.9315580597109081E+00 
    2.9757617253576405E+00 
    2.9114094304921756E+00 
    2.8579489615809277E+00 
    2.8970717706935654E+00 
    2.8675272781319419E+00 
    3.0668677356031004E+00 
    3.0796696822065370E+00 
    2.8303680254356083E+00 
    3.0015844241068730E+00 
    2.9869292215832823E+00 
    2.9128645748990447E+00 
    2.9672109745078168E+00 
    2.8566263059976906E+00 
    2.9852932589811081E+00 
    3.0500715309057553E+00 
    2.9484016800112554E+00 
    3.0940158360803922E+00 
    3.0602006465930920E+00 
    2.9314933567799759E+00 
    2.8798957791417932E+00 
    2.9270696597441797E+00 
    2.9604543134109615E+00 
    2.9840087742672390E+00 
    2.9020747618941960E+00 
    2.9472077320694963E+00 
    2.9530687706299350E+00 
    3.0511051530761462E+00 
    3.1270302432551853E+00 
    2.9013487229105182E+00 
    2.9111217751970360E+00 
    3.1096672319016618E+00 
    2.8665581082562128E+00 
    2.9560479939690754E+00 
    2.9060928064116527E+00 
    3.0437608975729513E+00 
    3.2537409686523415E+00 
    3.1924991565788274E+00 
    3.1307549274539026E+00 
    3.1517397832689982E+00 
    3.1018163357547488E+00 
    3.1187809648650400E+00 
    2.9582437118785272E+00 
    3.1661126320742485E+00 
    2.9490949642699134E+00 
    3.1115044441656949E+00 
    2.9494280533973409E+00 
    3.0369082727631844E+00 
    3.0554652442906964E+00 
    2.9904388525495835E+00 
    3.0292607304502353E+00 
    2.8887222250575193E+00 
    3.0323477855556948E+00 
    2.9393166828016857E+00 
    2.9473870890854790E+00 
    2.9461995924877509E+00 
    2.9720425432081394E+00 
    2.8863923121825987E+00 
    3.0376583825461814E+00 
    2.9745248394854404E+00 
    2.9706790305596176E+00 
    2.8033484370958228E+00 
    2.9961595894049968E+00 
    3.0621714067714940E+00 
    2.8947500396938759E+00 
    3.0185138192493639E+00 
    3.0775199996504865E+00 
    3.1004897965260070E+00 
    2.9724841003120810E+00 
    2.9125508868820043E+00 
    2.8775699150031753E+00 
    2.8973894969602401E+00 
    3.0034360806626283E+00 
    2.9644708979264252E+00 
    2.9088884489126854E+00 
    3.0081283643032299E+00 
    2.9391448588335671E+00 
    2.8998899166972296E+00 
    2.9720495875540007E+00 
    2.8385668163219346E+00 
    2.8990877519168832E+00 
    3.0813337850616924E+00 
    3.0026830955835768E+00 
    2.8901904883997176E+00 
    3.0271496493552061E+00 
    3.0190597958845191E+00 
    2.9054264898506954E+00 
    2.9281346974885682E+00 
    2.9342421485784658E+00 
    2.9924377523191641E+00 
    2.9885348496972721E+00 
    3.0550112093472368E+00 
    2.9229997025418797E+00 
    2.9891313242444086E+00 
    3.0041144835481850E+00 
    2.9103646896324920E+00 
    2.9182345583239768E+00 
    2.7937579206804211E+00 
    2.9125156205670484E+00 
    3.0908699310049359E+00 
    2.9640079531767567E+00 
    2.9878548028789638E+00 
    2.9392083467116930E+00 
    2.9879913483083040E+00 
    2.8977895493121730E+00 
    2.8842270672874437E+00 
    2.8557095275675306E+00 
    2.8945305771844931E+00 
    2.8606156936253475E+00 
    2.9232984565230891E+00 
    2.9738573181250745E+00 
    2.8748982884229113E+00 
    3.0212566500486790E+00 
    3.0235752161749834E+00 
    2.9195629908315754E+00 
    2.8844626749675641E+00 
    2.9739008202438417E+00 
    2.9050696821072184E+00 
    2.8457967554703081E+00 
    2.8978336198090644E+00 
    2.8525396050188894E+00 
    2.8534606302133216E+00 
    2.9097722599225828E+00 
    2.9595450299642874E+00 
    3.0411968758502095E+00 
    2.8411249846321605E+00 
    2.8957583532358036E+00 
    2.8714728873108291E+00 
    2.8953513854888508E+00 
    3.1394070404679622E+00 
    2.8583764762074315E+00 
    2.9339534524072124E+00 
    2.8703893060421852E+00 
    2.9121656783423213E+00 
    2.8811895750634116E+00 
    2.9211380661362485E+00 
    2.8702412408360178E+00 
    2.9173786813500771E+00 
    2.8831897822083383E+00 
    2.9210076424706726E+00 
    2.8785978690283329E+00 
    2.8772854395784471E+00 
    2.8521622996772797E+00 
    2.8635687461078643E+00 
    3.0213775971918144E+00 
    2.8303837838160804E+00 
    2.8409797963355059E+00 
    2.8912027621555687E+00 
    2.8746584891083335E+00 
    3.2088182220873476E+00 
    2.8941520815647861E+00 
    2.9908939583147718E+00 
    2.8859981518646811E+00 
    2.8248387117257296E+00 
    2.9081199057690044E+00 
    2.8645188363938097E+00 
    2.9242796978145456E+00 
    2.8791537810642001E+00 
    2.8794445403504061E+00 
    2.8921282960334991E+00 
    2.8548243208489144E+00 
    2.8939150618551297E+00 
    2.8800231776575145E+00 
    2.8309758955650191E+00 
    2.8684380722843601E+00 
    2.8682968556050978E+00 
    2.8884174619786434E+00 
    2.8228845679627597E+00 
    2.8713926996672718E+00 
    2.8881664590274130E+00 
    2.9230820590674935E+00 
    2.8576361724154582E+00 
    2.8447826383694537E+00 
    3.0032868368671508E+00 
    2.8583476931928389E+00 
    2.9467128657089900E+00 
    3.2088288684902104E+00 
    3.0146050653254770E+00 
    2.9474313201936444E+00 
    3.0371759772082911E+00 
    2.8754139775957923E+00 
    2.8685668613782478E+00 
    2.8433260403832192E+00 
    2.8475404179053805E+00 
    2.8486276511110504E+00 
    2.8408049124615804E+00 
    3.0405108329690336E+00 
    2.8454702450539098E+00 
    2.9093112913215950E+00 
    3.0192927207837799E+00 
    2.9226280029495832E+00 
    2.8577973134327785E+00 
    2.9840649646854547E+00 
    2.8384442138496211E+00 
    2.8387362477438982E+00 
    2.8489136881774848E+00 
    3.1762608664566994E+00 
    2.9606102332551911E+00 
    3.0295070116766940E+00 
    3.0354207788472243E+00 
    2.9329220803770260E+00 
    3.0052728121538825E+00 
    2.8613277432591921E+00 
    2.7860073973850521E+00 
    3.3532915039359099E+00 
    2.8120093225403178E+00 
    2.8295296548320996E+00 
    2.8286617608934703E+00 
    2.9487171091668580E+00 
    3.0182545600113437E+00 
    2.7853717039616046E+00 
    3.0731841834921645E+00 
    3.0953994026031504E+00 
    2.9337767810937510E+00 
    2.8800189012260211E+00 
    3.0593831195898811E+00 
    2.9359684618105759E+00 
    2.8503988197424448E+00 
    3.0291539282384501E+00 
    2.8203341349645101E+00 
    2.8190456051908606E+00 
    2.9460208172442193E+00 
    2.8897940593857441E+00 
    2.7951621481423379E+00 
    2.8796180686450223E+00 
    2.8044465978908208E+00 
    3.0492137433085134E+00 
    2.8117533285866023E+00 
    2.8679088842687546E+00 
    3.0162969855482564E+00 
    2.8893406777550905E+00 
    2.9361061658852812E+00 
    2.8097936882873822E+00 
    2.9138223751687309E+00 
    2.9199723100300896E+00 
    2.8514220715273271E+00 
    2.8899066235096487E+00 
    3.0232261721073281E+00 
    2.8042830658303597E+00 
    2.8875246320393533E+00 
    2.8561778012050634E+00 
    2.8571556278549890E+00 
    2.9062755291874365E+00 
    2.8490644950470663E+00 
    2.8964877020818682E+00 
    3.0364841363430974E+00 
    3.0521777266245116E+00 
    2.8011175628221014E+00 
    3.2201151068757330E+00 
    2.9118987436804646E+00 
    2.8716997858453062E+00 
    3.0815652816907475E+00 
    2.9403462356550150E+00 
    2.9573461484685040E+00 
    2.8562760896282220E+00 
    2.8478517508841290E+00 
    2.9776114388905528E+00 
    2.9345572919595750E+00 
    2.7957647534365271E+00 
    2.8561235550886934E+00 
    3.1104592470851702E+00 
    2.9290766622713216E+00 
    3.0095391943707210E+00 
    2.9465918113978797E+00 
    3.0238823364325245E+00 
    2.9775612982363842E+00 
    2.7935829331523849E+00 
    2.8325606543976263E+00 
    2.8817513296873423E+00 
    3.0537661560662630E+00 
    3.0074351804261328E+00 
    2.8775180908633922E+00 
    2.8491103791845180E+00 
    2.8758328317918149E+00 
    2.8620381680799714E+00 
    2.9913615425695728E+00 
    2.8523330615981624E+00 
    2.9560805521013438E+00 
    3.1520579078053870E+00 
    2.8459450377589652E+00 
    3.1157249496324861E+00 
    2.9004049597699928E+00 
    3.1311527225827391E+00 
    3.0183813879533643E+00 
    3.2659275937047703E+00 
    2.8685792264372103E+00 
    3.0052565225862007E+00 
    2.9208090361276335E+00 
    2.8408295496432636E+00 
    3.0337744520261549E+00 
    2.9115072058998392E+00 
    3.0433657573306601E+00 
    2.8451022321616031E+00 
    3.0080233631337010E+00 
    2.9011201912629274E+00 
    2.9379540531110275E+00 
    2.8105189237570083E+00 
    2.8491714646343924E+00 
    2.8354429955191143E+00 
    3.0758561360917964E+00 
    2.8707543544503586E+00 
    3.1428890876365418E+00 
    3.0934219617785552E+00 
    2.8599559474180696E+00 
    2.8989887409893247E+00 
    2.8822034730000170E+00 
    2.8083187925503266E+00 
    2.9048396347154291E+00 
    3.0224984688004799E+00 
    2.8588736571878011E+00 
    2.8182128743980090E+00 
    3.1713574352917759E+00 
    2.9913534747251509E+00 
    2.7863124739541938E+00 
    2.7856041600532779E+00 
    2.8306308426251618E+00 
    2.8379560220585902E+00 
    2.8159164222086126E+00 
    2.8048976330663442E+00 
    2.8773837388786392E+00 
    2.8660462201858983E+00 
    2.7783570547462784E+00 
    2.7779815653476918E+00 
    2.7388334743947365E+00 
    2.6649988271085063E+00 
    2.6595984733360836E+00 
    2.6687982621202391E+00 
    2.6898176607712654E+00 
    2.6874493698631934E+00 
    2.7538876879464920E+00 
    2.6378535645296015E+00 
    2.7382771357130777E+00 
    2.6480287255690134E+00 
    2.7156900356399549E+00 
    2.6825531905290534E+00 
    2.6801632947381857E+00 
    2.6536542379144086E+00 
    2.6413869474593561E+00 
    2.8014498468515456E+00 
    2.7509233022148303E+00 
    2.7796818305945479E+00 
    2.7462350364494785E+00 
    2.7001649245194805E+00 
    2.6430774339007002E+00 
    2.6361594889432536E+00 
    2.7966469076516796E+00 
    2.7129453054248129E+00 
    2.6348420486016422E+00 
    2.6890779681903658E+00 
    2.7698249926712664E+00 
    2.7699980777539146E+00 
    2.6135788030606153E+00 
    2.6357794767688456E+00 
    2.7159426527037627E+00 
    2.7811386003112193E+00 
    2.7542097167826993E+00 
    2.6994327981012978E+00 
    2.6681245741072086E+00 
    2.8107872378476526E+00 
    2.7823644398231528E+00 
    2.7695624628173947E+00 
    2.8284694352675741E+00 
    2.6674733409134457E+00 
    2.6852048795913528E+00 
    2.6791352635195116E+00 
    2.7944188335591256E+00 
    2.6839677420431447E+00 
    2.7753508008433525E+00 
    2.7297108802835282E+00 
    2.7264260684972270E+00 
    2.7103049113112418E+00 
    2.7137629945556161E+00 
    2.7819388812320169E+00 
    2.7773406746787135E+00 
    2.7220130787234620E+00 
    2.6593718906583055E+00 
    2.7115943378552942E+00 
    2.7056522006421608E+00 
    2.6358219207573765E+00 
    2.7571637648147709E+00 
    2.6406482280828336E+00 
    2.7815374695281778E+00 
    2.6486366327895063E+00 
    2.7396591239448203E+00 
    2.6744175059163871E+00 
    2.6113549973720254E+00 
    2.6107517459945839E+00 
    2.6188202496550188E+00 
    2.6154579120018315E+00 
    2.7093041643161659E+00 
    2.6159773092260004E+00 
    2.6414952613501494E+00 
    2.6451062742708662E+00 
    2.8157330873035478E+00 
    2.7143511189348608E+00 
    2.6408705864862592E+00 
    2.7809201752412394E+00 
    2.6920741677731499E+00 
    2.6719559486778826E+00 
    2.7612854212477158E+00 
    2.8126456656204062E+00 
    2.7457402479367898E+00 
    2.7488323610423970E+00 
    2.7207838899724353E+00 
    2.7378200214105406E+00 
    2.7656676702957785E+00 
    2.7625590935404181E+00 
    2.7589719040643681E+00 
    2.7639382295327524E+00 
    2.7272152352177579E+00 
    2.7773083243969396E+00 
    2.7772712288900832E+00 
    2.7423368035331399E+00 
    2.7522701271418915E+00 
    2.8004745667541853E+00 
    2.7643605092713859E+00 
    2.7742689724954275E+00 
    2.8045635796213815E+00 
    2.6900334265506305E+00 
    2.6765448500135309E+00 
    2.7406554317421845E+00 
    2.7826467617643305E+00 
    2.8132865596169965E+00 
    2.7778955603790050E+00 
    2.6157156258417875E+00 
    2.6722039398949615E+00 
    2.7374705695423351E+00 
    2.7045724137761291E+00 
    2.6526226347055148E+00 
    2.7652512636365678E+00 
    2.7363030140626301E+00 
    2.6465784123876004E+00 
    2.7542740949089479E+00 
    2.6624784712809393E+00 
    2.6775917472797350E+00 
    2.6721761890946105E+00 
    2.7431481139069969E+00 
    2.7753426024009329E+00 
    2.7969543799526750E+00 
    2.7629963109230578E+00 
    2.7908450219023635E+00 
    2.6582601562957349E+00 
    2.6436381534741051E+00 
    2.7968164879911455E+00 
    2.7584876350441179E+00 
    2.6126306884341961E+00 
    2.6135766619084722E+00 
    2.8086980637612582E+00 
    2.7287987447287692E+00 
    2.7669970243847075E+00 
    2.7376771200340029E+00 
    2.6930610895713136E+00 
    2.7414598823179994E+00 
    2.7562180518747956E+00 
    2.7252167826407798E+00 
    2.7195263477760045E+00 
    2.7191995874167549E+00 
    2.6136398599560953E+00 
    2.7866625300315482E+00 
    2.8290871407695151E+00 
    2.6147060998090548E+00 
    2.6142077330390148E+00 
    2.6152122342985571E+00 
    2.6143922261191923E+00 
    2.6192757201842984E+00 
    2.7681366518770800E+00 
    2.6964710252216877E+00 
    2.6292523907591585E+00 
    2.7538060659710828E+00 
    2.7513653418967103E+00 
    2.6875265834267288E+00 
    2.7070706568325953E+00 
    2.6964532907016001E+00 
    2.7233239644271712E+00 
    2.7932944472624563E+00 
    2.6140174014575837E+00 
    2.6150856081098319E+00 
    2.6650220060010037E+00 
    2.7149586359428119E+00 
    2.7716160045200176E+00 
    2.6415397499427753E+00 
    2.7963514242654370E+00 
    2.6180542500724786E+00 
    2.6908140709089867E+00 
    2.6087796257835687E+00 
    2.6091863035782130E+00 
    2.6319697425380579E+00 
    2.7972972373061604E+00 
    2.7364744846621623E+00 
    2.7033823384391420E+00 
    2.7272434227301607E+00 
    2.7493087906316709E+00 
    2.6182030858788692E+00 
    2.7003149462899905E+00 
    2.7377042209069451E+00 
    2.7960906341618155E+00 
    2.7858223820648593E+00 
    2.7820101271061008E+00 
    2.7969659370893756E+00 
    2.8036918491408307E+00 
    2.7209229235017713E+00 
    2.6446118877841198E+00 
    2.7475491061824924E+00 
    2.7454837820468847E+00 
    2.6946771568835191E+00 
    2.6193027289849597E+00 
    2.7422814357591245E+00 
    2.7598017047092323E+00 
    2.7690042336753757E+00 
    2.7549881177949316E+00 
    2.6160773636963937E+00 
    2.7491063570093748E+00 
    2.7439243823533745E+00 
    2.6250779183629498E+00 
    2.6558822858723370E+00 
    2.7368566639014680E+00 
    2.7526568303364436E+00 
    2.7466365494437710E+00 
    2.7613370780745243E+00 
    2.7602816842436844E+00 
    2.7940412655083562E+00 
    2.7410877781330893E+00 
    2.7749112514033683E+00 
    2.7322158223118893E+00 
    2.7491764264337002E+00 
    2.6177873319913916E+00 
    2.8111664668797665E+00 
    2.7897814650719299E+00 
    2.8026075460214179E+00 
    2.6934966094638324E+00 
    2.6788084662179288E+00 
    2.6613335436096386E+00 
    2.7667315799798962E+00 
    2.7374785240333468E+00 
    2.7707801795203433E+00 
    2.6848418029029455E+00 
    2.6290488366508238E+00 
    2.6496887609184023E+00 
    2.7820967863272612E+00 
    2.6453573269697492E+00 
    2.7220931391818310E+00 
    2.6649179816367070E+00 
    2.7807955057831304E+00 
    2.7348995200504249E+00 
    2.7187641571714973E+00 
    2.8059183391284050E+00 
    2.7990912690876995E+00 
    2.7054217937175831E+00 
    2.6946049642580978E+00 
    2.6691845381440173E+00 
    2.7123584091500663E+00 
    2.7695125915580876E+00 
    2.6151168245104439E+00 
    2.7922681702536374E+00 
    2.8059705959399368E+00 
    2.7032333325490954E+00 
    2.6973718270028249E+00 
    2.6380505244722339E+00 
    2.6188306868010311E+00 
    2.8012772543027786E+00 
    2.6798103028301332E+00 
    2.7385352178392992E+00 
    2.7035828106435833E+00 
    2.7501604888898235E+00 
    2.6517100384066548E+00 
    2.7246619877847498E+00 
    2.8009414503329242E+00 
    2.6684751616908442E+00 
    2.7027442591421291E+00 
    2.6607396638511123E+00 
    2.7129850062288519E+00 
    2.8078833100879526E+00 
    2.6746511673267239E+00 
    2.7366730764166967E+00 
    2.6858560490734513E+00 
    2.6302852044297027E+00 
    2.7604451781539563E+00 
    2.7605586475870796E+00 
    2.7449756689766649E+00 
    2.6840325088848140E+00 
    2.6804503657381886E+00 
    2.6396377581153745E+00 
    2.7398519295220507E+00 
    2.7594386822998249E+00 
    2.7210980838268797E+00 
    2.6418692964954227E+00 
    2.6760505519521867E+00 