# vtk DataFile Version 2.0
Pressure Field Data 
ASCII 
DATASET UNSTRUCTURED_GRID 

POINTS 2213 double 

    0.0000000000000000E+00     0.0000000000000000E+00     0.0000000000000000E+00 
    5.0000000000000000E-01     0.0000000000000000E+00     0.0000000000000000E+00 
    1.0000000000000000E+00     0.0000000000000000E+00     0.0000000000000000E+00 
    1.0000000000000000E+00     5.0000000000000000E-01     0.0000000000000000E+00 
    1.0000000000000000E+00     1.0000000000000000E+00     0.0000000000000000E+00 
    5.0000000000000000E-01     1.0000000000000000E+00     0.0000000000000000E+00 
    0.0000000000000000E+00     1.0000000000000000E+00     0.0000000000000000E+00 
    0.0000000000000000E+00     5.0000000000000000E-01     0.0000000000000000E+00 
    1.5624999999971041E-02     0.0000000000000000E+00     0.0000000000000000E+00 
    3.1249999999936742E-02     0.0000000000000000E+00     0.0000000000000000E+00 
    4.6874999999913257E-02     0.0000000000000000E+00     0.0000000000000000E+00 
    6.2499999999889783E-02     0.0000000000000000E+00     0.0000000000000000E+00 
    7.8124999999844805E-02     0.0000000000000000E+00     0.0000000000000000E+00 
    9.3749999999799827E-02     0.0000000000000000E+00     0.0000000000000000E+00 
    1.0937499999975490E-01     0.0000000000000000E+00     0.0000000000000000E+00 
    1.2499999999970990E-01     0.0000000000000000E+00     0.0000000000000000E+00 
    1.4062499999966460E-01     0.0000000000000000E+00     0.0000000000000000E+00 
    1.5624999999961930E-01     0.0000000000000000E+00     0.0000000000000000E+00 
    1.7187499999957390E-01     0.0000000000000000E+00     0.0000000000000000E+00 
    1.8749999999952860E-01     0.0000000000000000E+00     0.0000000000000000E+00 
    2.0312499999948330E-01     0.0000000000000000E+00     0.0000000000000000E+00 
    2.1874999999943801E-01     0.0000000000000000E+00     0.0000000000000000E+00 
    2.3437499999939271E-01     0.0000000000000000E+00     0.0000000000000000E+00 
    2.4999999999934730E-01     0.0000000000000000E+00     0.0000000000000000E+00 
    2.6562499999938810E-01     0.0000000000000000E+00     0.0000000000000000E+00 
    2.8124999999942890E-01     0.0000000000000000E+00     0.0000000000000000E+00 
    2.9687499999946970E-01     0.0000000000000000E+00     0.0000000000000000E+00 
    3.1249999999951050E-01     0.0000000000000000E+00     0.0000000000000000E+00 
    3.2812499999955130E-01     0.0000000000000000E+00     0.0000000000000000E+00 
    3.4374999999959210E-01     0.0000000000000000E+00     0.0000000000000000E+00 
    3.5937499999963290E-01     0.0000000000000000E+00     0.0000000000000000E+00 
    3.7499999999967371E-01     0.0000000000000000E+00     0.0000000000000000E+00 
    3.9062499999971451E-01     0.0000000000000000E+00     0.0000000000000000E+00 
    4.0624999999975520E-01     0.0000000000000000E+00     0.0000000000000000E+00 
    4.2187499999979600E-01     0.0000000000000000E+00     0.0000000000000000E+00 
    4.3749999999983680E-01     0.0000000000000000E+00     0.0000000000000000E+00 
    4.5312499999987760E-01     0.0000000000000000E+00     0.0000000000000000E+00 
    4.6874999999991840E-01     0.0000000000000000E+00     0.0000000000000000E+00 
    4.8437499999995920E-01     0.0000000000000000E+00     0.0000000000000000E+00 
    5.1562499999992384E-01     0.0000000000000000E+00     0.0000000000000000E+00 
    5.3124999999985478E-01     0.0000000000000000E+00     0.0000000000000000E+00 
    5.4687499999994527E-01     0.0000000000000000E+00     0.0000000000000000E+00 
    5.6249999999998668E-01     0.0000000000000000E+00     0.0000000000000000E+00 
    5.7812499999998068E-01     0.0000000000000000E+00     0.0000000000000000E+00 
    5.9374999999994749E-01     0.0000000000000000E+00     0.0000000000000000E+00 
    6.0937499999997913E-01     0.0000000000000000E+00     0.0000000000000000E+00 
    6.2500000000000000E-01     0.0000000000000000E+00     0.0000000000000000E+00 
    6.4062499999998945E-01     0.0000000000000000E+00     0.0000000000000000E+00 
    6.5624999999996603E-01     0.0000000000000000E+00     0.0000000000000000E+00 
    6.7187499999995337E-01     0.0000000000000000E+00     0.0000000000000000E+00 
    6.8749999999998734E-01     0.0000000000000000E+00     0.0000000000000000E+00 
    7.0312499999998124E-01     0.0000000000000000E+00     0.0000000000000000E+00 
    7.1874999999997025E-01     0.0000000000000000E+00     0.0000000000000000E+00 
    7.3437499999999034E-01     0.0000000000000000E+00     0.0000000000000000E+00 
    7.5000000000000000E-01     0.0000000000000000E+00     0.0000000000000000E+00 
    7.6562499999996902E-01     0.0000000000000000E+00     0.0000000000000000E+00 
    7.8124999999993228E-01     0.0000000000000000E+00     0.0000000000000000E+00 
    7.9687499999989997E-01     0.0000000000000000E+00     0.0000000000000000E+00 
    8.1249999999996247E-01     0.0000000000000000E+00     0.0000000000000000E+00 
    8.2812499999999578E-01     0.0000000000000000E+00     0.0000000000000000E+00 
    8.4374999999999556E-01     0.0000000000000000E+00     0.0000000000000000E+00 
    8.5937500000000111E-01     0.0000000000000000E+00     0.0000000000000000E+00 
    8.7499999999997691E-01     0.0000000000000000E+00     0.0000000000000000E+00 
    8.9062500000000921E-01     0.0000000000000000E+00     0.0000000000000000E+00 
    9.0625000000004452E-01     0.0000000000000000E+00     0.0000000000000000E+00 
    9.2187500000005529E-01     0.0000000000000000E+00     0.0000000000000000E+00 
    9.3750000000012723E-01     0.0000000000000000E+00     0.0000000000000000E+00 
    9.5312500000011835E-01     0.0000000000000000E+00     0.0000000000000000E+00 
    9.6875000000005151E-01     0.0000000000000000E+00     0.0000000000000000E+00 
    9.8437500000003086E-01     0.0000000000000000E+00     0.0000000000000000E+00 
    1.0000000000000000E+00     1.5624999999971041E-02     0.0000000000000000E+00 
    1.0000000000000000E+00     3.1249999999936742E-02     0.0000000000000000E+00 
    1.0000000000000000E+00     4.6874999999913257E-02     0.0000000000000000E+00 
    1.0000000000000000E+00     6.2499999999889783E-02     0.0000000000000000E+00 
    1.0000000000000000E+00     7.8124999999844805E-02     0.0000000000000000E+00 
    1.0000000000000000E+00     9.3749999999799827E-02     0.0000000000000000E+00 
    1.0000000000000000E+00     1.0937499999975490E-01     0.0000000000000000E+00 
    1.0000000000000000E+00     1.2499999999970990E-01     0.0000000000000000E+00 
    1.0000000000000000E+00     1.4062499999966460E-01     0.0000000000000000E+00 
    1.0000000000000000E+00     1.5624999999961930E-01     0.0000000000000000E+00 
    1.0000000000000000E+00     1.7187499999957390E-01     0.0000000000000000E+00 
    1.0000000000000000E+00     1.8749999999952860E-01     0.0000000000000000E+00 
    1.0000000000000000E+00     2.0312499999948330E-01     0.0000000000000000E+00 
    1.0000000000000000E+00     2.1874999999943801E-01     0.0000000000000000E+00 
    1.0000000000000000E+00     2.3437499999939271E-01     0.0000000000000000E+00 
    1.0000000000000000E+00     2.4999999999934730E-01     0.0000000000000000E+00 
    1.0000000000000000E+00     2.6562499999938810E-01     0.0000000000000000E+00 
    1.0000000000000000E+00     2.8124999999942890E-01     0.0000000000000000E+00 
    1.0000000000000000E+00     2.9687499999946970E-01     0.0000000000000000E+00 
    1.0000000000000000E+00     3.1249999999951050E-01     0.0000000000000000E+00 
    1.0000000000000000E+00     3.2812499999955130E-01     0.0000000000000000E+00 
    1.0000000000000000E+00     3.4374999999959210E-01     0.0000000000000000E+00 
    1.0000000000000000E+00     3.5937499999963290E-01     0.0000000000000000E+00 
    1.0000000000000000E+00     3.7499999999967371E-01     0.0000000000000000E+00 
    1.0000000000000000E+00     3.9062499999971451E-01     0.0000000000000000E+00 
    1.0000000000000000E+00     4.0624999999975520E-01     0.0000000000000000E+00 
    1.0000000000000000E+00     4.2187499999979600E-01     0.0000000000000000E+00 
    1.0000000000000000E+00     4.3749999999983680E-01     0.0000000000000000E+00 
    1.0000000000000000E+00     4.5312499999987760E-01     0.0000000000000000E+00 
    1.0000000000000000E+00     4.6874999999991840E-01     0.0000000000000000E+00 
    1.0000000000000000E+00     4.8437499999995920E-01     0.0000000000000000E+00 
    1.0000000000000000E+00     5.1562499999992384E-01     0.0000000000000000E+00 
    1.0000000000000000E+00     5.3124999999985478E-01     0.0000000000000000E+00 
    1.0000000000000000E+00     5.4687499999994527E-01     0.0000000000000000E+00 
    1.0000000000000000E+00     5.6249999999998668E-01     0.0000000000000000E+00 
    1.0000000000000000E+00     5.7812499999998068E-01     0.0000000000000000E+00 
    1.0000000000000000E+00     5.9374999999994749E-01     0.0000000000000000E+00 
    1.0000000000000000E+00     6.0937499999997913E-01     0.0000000000000000E+00 
    1.0000000000000000E+00     6.2500000000000000E-01     0.0000000000000000E+00 
    1.0000000000000000E+00     6.4062499999998945E-01     0.0000000000000000E+00 
    1.0000000000000000E+00     6.5624999999996603E-01     0.0000000000000000E+00 
    1.0000000000000000E+00     6.7187499999995337E-01     0.0000000000000000E+00 
    1.0000000000000000E+00     6.8749999999998734E-01     0.0000000000000000E+00 
    1.0000000000000000E+00     7.0312499999998124E-01     0.0000000000000000E+00 
    1.0000000000000000E+00     7.1874999999997025E-01     0.0000000000000000E+00 
    1.0000000000000000E+00     7.3437499999999034E-01     0.0000000000000000E+00 
    1.0000000000000000E+00     7.5000000000000000E-01     0.0000000000000000E+00 
    1.0000000000000000E+00     7.6562499999996902E-01     0.0000000000000000E+00 
    1.0000000000000000E+00     7.8124999999993228E-01     0.0000000000000000E+00 
    1.0000000000000000E+00     7.9687499999989997E-01     0.0000000000000000E+00 
[...]
CELL_DATA 2084 
SCALARS Pressure double 1 
LOOKUP_TABLE default 

    2.9067100103518295E+00 
    2.9395285078869970E+00 
    3.1476666800260626E+00 
    2.9404127023258861E+00 
    3.0589910595317287E+00 
    3.0106027426855282E+00 
    2.8731181975917646E+00 
    2.9932835924947532E+00 
    3.0047865063184722E+00 
    3.0636186325273029E+00 
    3.1415611711327545E+00 
    2.8902604201912707E+00 
    2.9808420593098099E+00 
    2.9362353942450672E+00 
    2.9010327891278802E+00 
    2.9239722444111065E+00 
    3.0995382436314882E+00 
    2.9597819590243941E+00 
    3.1749028439769553E+00 
    2.9150509930953930E+00 
    2.9192416048852947E+00 
    3.0403583221557895E+00 
    2.9220288441605611E+00 
    2.9762710522905054E+00 
    2.9107793062514000E+00 
    2.9779225070582291E+00 
    2.9309483696649377E+00 
    2.8768927101844257E+00 
    2.9857753460748082E+00 
    2.9474003376572870E+00 
    2.8638797588794569E+00 
    2.9941364534192365E+00 
    2.8487051028943537E+00 
    2.9184951571690658E+00 
    2.8946082137047475E+00 
    3.0522085381836650E+00 
    2.9535895806133992E+00 
    2.9486504110047669E+00 
    3.0403571567968704E+00 
    2.9952369977829796E+00 
    2.8801046471843410E+00 
    3.0685973371307793E+00 
    2.9110799013131929E+00 
    3.0182544295929046E+00 
    3.0095640680032592E+00 
    2.8889327514581722E+00 
    3.0668327281219834E+00 
    2.8689201556581621E+00 
    2.8715401305745250E+00 
    2.9817672799586741E+00 
    2.9787353348012062E+00 
    2.8759328511740994E+00 
    2.8883115140591640E+00 
    2.9634190169566539E+00 
    2.9647096764985075E+00 
    2.8799886089673401E+00 
    2.8552919613442471E+00 
    3.0252567528422500E+00 
    3.0376555858033956E+00 
    2.9728089573069991E+00 
    2.9713379139488389E+00 
    2.9154975062968513E+00 
    2.8931963413275623E+00 
    2.9337499311848592E+00 
    3.0641500426369745E+00 
    2.9680723092044095E+00 
    3.0046459252787270E+00 
    2.8869960141164444E+00 
    2.8698000978489366E+00 
    2.8689631632625896E+00 
    2.9083957021349751E+00 
    3.2058215684891573E+00 
    2.9788205829075856E+00 
    3.1241503548838314E+00 
    3.0336697511884632E+00 
    3.1214642566171604E+00 
    2.9737687187760682E+00 
    3.0554709910613158E+00 
    2.8898194090210092E+00 
    3.0740340001655655E+00 
    2.9228609359405553E+00 
    2.9948341079790985E+00 
    3.0237815310561404E+00 
    2.8623605105839722E+00 
    3.0102897893238181E+00 
    2.9205058236825208E+00 
    2.9566890109902202E+00 
    3.0130704990418828E+00 
    3.0350322462836226E+00 
    3.0252808131029880E+00 
    3.0054153359641815E+00 
    3.0015147582568527E+00 
    2.9253110590574392E+00 
    3.0232579684961820E+00 
    2.9595623357868885E+00 
    2.8760845547670950E+00 
    2.9427442108438244E+00 
    2.9869714187335097E+00 
    3.0485889623009590E+00 
    2.9473041660541286E+00 
    3.0613351921062373E+00 
    3.0208456450846262E+00 
    3.0379717313180339E+00 
    3.0394239402209871E+00 
    2.9600530855708262E+00 
    3.0226801297050683E+00 
    2.9922803987327526E+00 
    3.0493128617150242E+00 
    2.9038203364572719E+00 
    3.2387315293307020E+00 
    2.9285769425434958E+00 
    2.9858315533588842E+00 
    3.0199870266871751E+00 
    3.0788915848421912E+00 
    3.1351779461977651E+00 
    2.9353475181916902E+00 
    3.0234201640653642E+00 
    3.0198183857636556E+00 
    2.9497318125528600E+00 
    2.9123629660047365E+00 
    2.9672685230297327E+00 
    3.0366592698325574E+00 
    2.9125925910597252E+00 
    3.1080130524047607E+00 
    2.9908014311372781E+00 
    3.0372209995456663E+00 
    2.9694726646718514E+00 
    2.9126510195091684E+00 
    2.9542975436934138E+00 
    2.9227432365718662E+00 
    3.1312608168473504E+00 
    3.1443212741034121E+00 
    2.8828306688509096E+00 
    3.0640818593087262E+00 
    3.0488584773414682E+00 
    2.9710594082314827E+00 
    3.0282790973401079E+00 
    2.9112354621335026E+00 
    3.0471539776784020E+00 
    3.1140642944478270E+00 
    3.0085769894091929E+00 
    3.1589349180072217E+00 
    3.1244397207452064E+00 
    2.9907733670811134E+00 
    2.9359758222755001E+00 
    2.9861214037360773E+00 
    3.0212184548762351E+00 
    3.0458239609399511E+00 
    2.9595979314157326E+00 
    3.0073208328341861E+00 
    3.0134610436922773E+00 
    3.1151314653751485E+00 
    3.1924244358030296E+00 
    2.9588534666244439E+00 
    2.9692549782805364E+00 
    3.1748245846007013E+00 
    2.9216818180001853E+00 
    3.0165922794662179E+00 
    2.9639300409717793E+00 
    3.1075919410345949E+00 
    3.3199477123204582E+00 
    3.2584407676901548E+00 
    3.1961760998946627E+00 
    3.2173842594447928E+00 
    3.1668447232233867E+00 
    3.1840588525539668E+00 
    3.0188994486412972E+00 
    3.2318739342860732E+00 
    3.0093065513783341E+00 
    3.1766951303435906E+00 
    3.0096596193631022E+00 
    3.1005573802349677E+00 
    3.1195846778139740E+00 
    3.0525121002780899E+00 
    3.0926845820540834E+00 
    2.9453645293192894E+00 
    3.0958587455810425E+00 
    2.9990180550646830E+00 
    3.0075175760981976E+00 
    3.0062657305830456E+00 
    3.0333400858342925E+00 
    2.9429526721216481E+00 
    3.1013231226376563E+00 
    3.0359323315216971E+00 
    3.0319104839046651E+00 
    2.8534145929169790E+00 
    3.0584602816916870E+00 
    3.1264614912868640E+00 
    2.9518857610163316E+00 
    3.0815972479714984E+00 
    3.1421355625413234E+00 
    3.1655133399089403E+00 
    3.0337981710739039E+00 
    2.9707337108904013E+00 
    2.9334218637806395E+00 
    2.9546928941881969E+00 
    3.0660024290311307E+00 
    3.0254053290051153E+00 
    2.9668377086991353E+00 
    3.0708703523848420E+00 
    2.9988147451469276E+00 
    2.9573489185399811E+00 
    3.0333400814006035E+00 
    2.8914874185746213E+00 
    2.9564865684535175E+00 
    3.1460248416863665E+00 
    3.0652169156618339E+00 
    2.9469441170609296E+00 
    3.0905074825979257E+00 
    3.0821615671240354E+00 
    2.9631708437508113E+00 
    2.9872158667098141E+00 
    2.9936770006996127E+00 
    3.0545868823348603E+00 
    3.0505300316491479E+00 
    3.1191294019922853E+00 
    2.9817835646803417E+00 
    3.0511506629701324E+00 
    3.0667037349900683E+00 
    2.9684455379416903E+00 
    2.9767652395985897E+00 
    2.8428196448943557E+00 
    2.9707218748454247E+00 
    3.1557315771920038E+00 
    3.0249229187869071E+00 
    3.0498138229003682E+00 
    2.9988907054247829E+00 
    3.0499717518827700E+00 
    2.9550760707665882E+00 
    2.9406124212680735E+00 
    2.9099989294033999E+00 
    2.9515798587579960E+00 
    2.9152842368868566E+00 
    2.9821387222952871E+00 
    3.0352305226145599E+00 
    2.9306018138613004E+00 
    3.0844278173161146E+00 
    3.0868237045497984E+00 
    2.9781933439766783E+00 
    2.9409475818714230E+00 
    3.0352665916697781E+00 
    2.9628138471572463E+00 
    2.8994266245015528E+00 
    2.9551475403425216E+00 
    2.9068012457262888E+00 
    2.9076319412342215E+00 
    2.9678273101193726E+00 
    3.0202579380885819E+00 
    3.1049689322516927E+00 
    2.8943332132991006E+00 
    2.9529006262874020E+00 
    2.9269836065277115E+00 
    2.9524987593916325E+00 
    3.2049387638945563E+00 
    2.9129856274037320E+00 
    2.9933199836464324E+00 
    2.9258282270114191E+00 
    2.9703155150131351E+00 
    2.9373589070135568E+00 
    2.9798435133847718E+00 
    2.9257883321708760E+00 
    2.9758451925192460E+00 
    2.9395498612638278E+00 
    2.9796359560178631E+00 
    2.9345712459059654E+00 
    2.9331729703139686E+00 
    2.9063320731229223E+00 
    2.9185483872798308E+00 
    3.0845564481149887E+00 
    2.8827894888564711E+00 
    2.8942541484320579E+00 
    2.9480239324104138E+00 
    2.9304704533092036E+00 
    3.2748658927866425E+00 
    2.9512491505694332E+00 
    3.0529912873032585E+00 
    2.9425580652766863E+00 
    2.8766463057709486E+00 
    2.9660583171058787E+00 
    2.9195237068528757E+00 
    2.9831385735865390E+00 
    2.9351599372544710E+00 
    2.9354161274230655E+00 
    2.9490574656411908E+00 
    2.9092947518260721E+00 
    2.9509754672049837E+00 
    2.9361329695416156E+00 
    2.8833487051259472E+00 
    2.9236881343327159E+00 
    2.9234788225701225E+00 
    2.9450930683448977E+00 
    2.8746159234592779E+00 
    2.9270095162459056E+00 
    2.9448768384726822E+00 
    2.9819048662647658E+00 
    2.9120938241006260E+00 
    2.8983143653592718E+00 
    3.0658550823766570E+00 
    2.9127987170346641E+00 
    3.0067897468762022E+00 
    3.2748596345835019E+00 
    3.0775664749240508E+00 
    3.0075216703396888E+00 
    3.1008314555116123E+00 
    2.9312155451227295E+00 
    2.9238288782638486E+00 
    2.8966729072609771E+00 
    2.9012310567280308E+00 
    2.9023379895804187E+00 
    2.8941456667775349E+00 
    3.1042527099917150E+00 
    2.8991510168588803E+00 
    2.9672365409426136E+00 
    3.0824036916267339E+00 
    2.9814142724244417E+00 
    2.9122169319046161E+00 
    3.0458892934423059E+00 
    2.8914227346056469E+00 
    2.8916655215433891E+00 
    2.9027129581427391E+00 
    3.2421062355008403E+00 
    3.0213599979574939E+00 
    3.0929384574183594E+00 
    3.0990234910375949E+00 
    2.9922956653110031E+00 
    3.0679053853171898E+00 
    2.9161754173421373E+00 
    2.8344451890004185E+00 
    3.4196735324250449E+00 
    2.8627964831042370E+00 
    2.8817890716309287E+00 
    2.8807698074534387E+00 
    3.0088983065282595E+00 
    3.0813313553369865E+00 
    2.8336336925377812E+00 
    3.1377078758907877E+00 
    3.1603359240344582E+00 
    2.9931900686996129E+00 
    2.9360861343255755E+00 
    3.1235985967706985E+00 
    2.9955003786255601E+00 
    2.9043789734246470E+00 
    3.0925808200594385E+00 
    2.8718281002905490E+00 
    2.8703453591000789E+00 
    3.0060621387393525E+00 
    2.9465210598732750E+00 
    2.8444659257869755E+00 
    2.9357228850779395E+00 
    2.8544899046012659E+00 
    3.1131915417813425E+00 
    2.8625123151838392E+00 
    2.9232166929505308E+00 
    3.0793181655111042E+00 
    2.9461273481392674E+00 
    2.9956494260686259E+00 
    2.8602900252546752E+00 
    2.9721192262787381E+00 
    2.9785461431121170E+00 
    2.9054348036283129E+00 
    2.9465906880570150E+00 
    3.0864691419282768E+00 
    2.8543853887242348E+00 
    2.9440604805686066E+00 
    2.9107248904408465E+00 
    2.9116556609518365E+00 
    2.9641181685215456E+00 
    2.9030774553436154E+00 
    2.9536069955874740E+00 
    3.1001125033459842E+00 
    3.1162314136323066E+00 
    2.8508380562461761E+00 
    3.2862077572411499E+00 
    2.9700545521421478E+00 
    2.9272912327035372E+00 
    3.1462505607558766E+00 
    3.0001141603553125E+00 
    3.0179544209351663E+00 
    2.9106692655061162E+00 
    2.9015145130478204E+00 
    3.0391418241444890E+00 
    2.9939573831112631E+00 
    2.8451006968362393E+00 
    2.9105106375436596E+00 
    3.1756320676610335E+00 
    2.9882310656087765E+00 
    3.0723301576820563E+00 
    3.0066628528901624E+00 
    3.0871451468883988E+00 
    3.0390928113856437E+00 
    2.8426116034945901E+00 
    2.8850784149694508E+00 
    2.9380575194107519E+00 
    3.1178551437388413E+00 
    3.0701474339934851E+00 
    2.9335391872180265E+00 
    2.9028623147659425E+00 
    2.9317037213931960E+00 
    2.9168289978713404E+00 
    3.0534667918468461E+00 
    2.9066071304767491E+00 
    3.0166289368921428E+00 
    3.2177185109775630E+00 
    2.8995172662220599E+00 
    3.1809654724072609E+00 
    2.9578212883387427E+00 
    3.1965978228200247E+00 
    3.0814688531401924E+00 
    3.3321521216256746E+00 
    2.9240098352867414E+00 
    3.0678911103878748E+00 
    2.9794712682537838E+00 
    2.8941264065284309E+00 
    3.0973303643948977E+00 
    2.9696123429480288E+00 
    3.1071881993902886E+00 
    2.8987956935161270E+00 
    3.0707541399026188E+00 
    2.9586416369452380E+00 
    2.9975735221572801E+00 
    2.8612406029729165E+00 
    2.9031577672468507E+00 
    2.8882883332436187E+00 
    3.1404322953957724E+00 
    2.9263348562768914E+00 
    3.2084540434944904E+00 
    3.1583202665432943E+00 
    2.9146423239672994E+00 
    2.9562663751901717E+00 
    2.9385160331320135E+00 
    2.8586917832498480E+00 
    2.9625765465346987E+00 
    3.0857170623828400E+00 
    2.9133675829244718E+00 
    2.8694479706878724E+00 
    3.2371760286019389E+00 
    3.0534550800179363E+00 
    2.8347709895963997E+00 
    2.8338817354967767E+00 
    2.8829838236083449E+00 
    2.8908990783804960E+00 
    2.8669656997857746E+00 
    2.8550710850986989E+00 
    2.9333929048199781E+00 
    2.9212932888246534E+00 
    2.8260528596944541E+00 
    2.8255205590063652E+00 
    2.7822467583544079E+00 
    2.6973490198932795E+00 
    2.6930386719109722E+00 
    2.7076980101459562E+00 
    2.7269760006563590E+00 
    2.7263905719553740E+00 
    2.7989729255607410E+00 
    2.6629922208606844E+00 
    2.7821197454645397E+00 
    2.6799724964815552E+00 
    2.7568591031779333E+00 
    2.7185245223901875E+00 
    2.7178318824130154E+00 
    2.6914824454268333E+00 
    2.6735920880784754E+00 
    2.8514979083909462E+00 
    2.7962266116790713E+00 
    2.8284083518746876E+00 
    2.7906351573354162E+00 
    2.7411145762687599E+00 
    2.6789043375682411E+00 
    2.6641276262151372E+00 
    2.8467379963883750E+00 
    2.7555497416766217E+00 
    2.6584350723579084E+00 
    2.7259787655578376E+00 
    2.8165550386840454E+00 
    2.8168719428897346E+00 
    2.6361540245362458E+00 
    2.6620245461087424E+00 
    2.7585723684906500E+00 
    2.8292047470321062E+00 
    2.7999216888834946E+00 
    2.7383168070010018E+00 
    2.7014297698155163E+00 
    2.8617429508397989E+00 
    2.8313402179091192E+00 
    2.8162999545376186E+00 
    2.8809960793105458E+00 
    2.7007901636193985E+00 
    2.7216350505765217E+00 
    2.7144363847093760E+00 
    2.8438120121200727E+00 
    2.7205678760775034E+00 
    2.8229717898841402E+00 
    2.7721087365621115E+00 
    2.7688813448738241E+00 
    2.7529014028816552E+00 
    2.7541174492746370E+00 
    2.8305751348178410E+00 
    2.8258495033631159E+00 
    2.7634203142545832E+00 
    2.6906844708865543E+00 
    2.7518399783430900E+00 
    2.7455446559745518E+00 
    2.6588432651859257E+00 
    2.8026289192980172E+00 
    2.6643673685722149E+00 
    2.8302458369212200E+00 
    2.6787092770306207E+00 
    2.7833646671628918E+00 
    2.7096794348732853E+00 
    2.6336183330608947E+00 
    2.6327293897723418E+00 
    2.6413753401649744E+00 
    2.6485783871453510E+00 
    2.7493199720203965E+00 
    2.6485355375279012E+00 
    2.6769832143447125E+00 
    2.6823295376273841E+00 
    2.8673545254110646E+00 
    2.7554535246090532E+00 
    2.6716378792804134E+00 
    2.8296698001435843E+00 
    2.7296596601561638E+00 
    2.7094632069761131E+00 
    2.8073342448581342E+00 
    2.8639852684097256E+00 
    2.7902439737289937E+00 
    2.7935463289866234E+00 
    2.7620876202309765E+00 
    2.7812805738963569E+00 
    2.8130137672470124E+00 
    2.8098612490340762E+00 
    2.8056113411326540E+00 
    2.8114082841657781E+00 
    2.7700937674303980E+00 
    2.8248008626525696E+00 
    2.8248788814069257E+00 
    2.7863958916002538E+00 
    2.7973963664652040E+00 
    2.8509237301410102E+00 
    2.8117124528247204E+00 
    2.8226422037789414E+00 
    2.8553323361556222E+00 
    2.7277744706815472E+00 
    2.7121206825486563E+00 
    2.7851556061574563E+00 
    2.8314291966158800E+00 
    2.8647048043412733E+00 
    2.8265332924309754E+00 
    2.6369438402787901E+00 
    2.7061703319842301E+00 
    2.7808078148544899E+00 
    2.7437432926017675E+00 
    2.6882030985641330E+00 
    2.8125639605402006E+00 
    2.7803198515860372E+00 
    2.6724751823048423E+00 
    2.8003491769549709E+00 
    2.6957842064921338E+00 
    2.7129397765710150E+00 
    2.7063199168660939E+00 
    2.7870847212176342E+00 
    2.8234018805257843E+00 
    2.8468930520871583E+00 
    2.8091036585547244E+00 
    2.8405428740616654E+00 
    2.6889004263860912E+00 
    2.6773357617878379E+00 
    2.8467955583403275E+00 
    2.8054265610141815E+00 
    2.6343812237776207E+00 
    2.6354186640829860E+00 
    2.8593759808865418E+00 
    2.7712096886814765E+00 
    2.8143309804496894E+00 
    2.7820597096764215E+00 
    2.7307360268599155E+00 
    2.7858761758252610E+00 
    2.8018161026337332E+00 
    2.7676513057858556E+00 
    2.7608536206641197E+00 
    2.7604367568023318E+00 
    2.6476506747102868E+00 
    2.8360182636939908E+00 
    2.8817010190039425E+00 
    2.6489452994258862E+00 
    2.6485293479673966E+00 
    2.6484826904661314E+00 
    2.6480672080696266E+00 
    2.6449224854196665E+00 
    2.8154392358052438E+00 
    2.7353136266805200E+00 
    2.6525659089725915E+00 
    2.7990223712593441E+00 
    2.7972700938167172E+00 
    2.7278011827412509E+00 
    2.7466636328357024E+00 
    2.7344887671390619E+00 
    2.7650113894653781E+00 
    2.8427083530445367E+00 
    2.6482759012523558E+00 
    2.6489738756153334E+00 
    2.6988796561962518E+00 
    2.7562157969088332E+00 
    2.8195712695965502E+00 
    2.6778334766403415E+00 
    2.8461143332002030E+00 
    2.6465906212856720E+00 
    2.7315203844704561E+00 
    2.6306219530659685E+00 
    2.6313958756411888E+00 
    2.6568505577126937E+00 
    2.8472314984646006E+00 
    2.7807013854757030E+00 
    2.7431798886432648E+00 
    2.7699460655137091E+00 
    2.7951874038602984E+00 
    2.6418732741910724E+00 
    2.7391055309223504E+00 
    2.7814353566644363E+00 
    2.8461780152617457E+00 
    2.8341647769234388E+00 
    2.8302419570664821E+00 
    2.8470266072470536E+00 
    2.8542434960498264E+00 
    2.7631240339306222E+00 
    2.6817331470268901E+00 
    2.7934238166550531E+00 
    2.7913107122291070E+00 
    2.7354145941018566E+00 
    2.6457537459744565E+00 
    2.7879366683642526E+00 
    2.8069484036871017E+00 
    2.8169380269537538E+00 
    2.8017788170169715E+00 
    2.6378884688180300E+00 
    2.7953888601666139E+00 
    2.7897115640075203E+00 
    2.6485767953602646E+00 
    2.6920875542518341E+00 
    2.7807347251862349E+00 
    2.7989958833825628E+00 
    2.7923214296743719E+00 
    2.8073463917855630E+00 
    2.8063691983514643E+00 
    2.8431865101761931E+00 
    2.7861173416240899E+00 
    2.8223327898357398E+00 
    2.7751346031629955E+00 
    2.7941372128155781E+00 
    2.6495110838603195E+00 
    2.8622464755543513E+00 
    2.8392377061937504E+00 
    2.8532163833809934E+00 
    2.7314040071042998E+00 
    2.7153258869934915E+00 
    2.6983388119587928E+00 
    2.8136526538262485E+00 
    2.7819933058074424E+00 
    2.8178812330847003E+00 
    2.7240439617748837E+00 
    2.6516473929672268E+00 
    2.6790753613021021E+00 
    2.8306146664243572E+00 
    2.6757136412227336E+00 
    2.7638126512351295E+00 
    2.7038835908262753E+00 
    2.8291123088078680E+00 
    2.7792089062191989E+00 
    2.7609828486039292E+00 
    2.8564035966637791E+00 
    2.8488273334787082E+00 
    2.7448583188917568E+00 
    2.7326817592484374E+00 
    2.7031348786392524E+00 
    2.7528605368514243E+00 
    2.8164386885828199E+00 
    2.6463098900975779E+00 
    2.8413482827785970E+00 
    2.8563508530166715E+00 
    2.7425275670967757E+00 
    2.7356722245589178E+00 
    2.6703363573356067E+00 
    2.6471175547570578E+00 
    2.8511194203115835E+00 
    2.7185945163759002E+00 
    2.7837620338844005E+00 
    2.7435762961134409E+00 
    2.7949018190447177E+00 
    2.6804813526678708E+00 
    2.7674583730468836E+00 
    2.8510795282610961E+00 
    2.7069130656550926E+00 
    2.7449763192361085E+00 
    2.6931118844535020E+00 
    2.7542163343832158E+00 
    2.8583532839230901E+00 
    2.7131921129459315E+00 
    2.7819164447359888E+00 
    2.7225946088412041E+00 
    2.6536721280209217E+00 
    2.8062109462491662E+00 
    2.8064720182295928E+00 
    2.7892039083998617E+00 
    2.7203415101630313E+00 
    2.7170427590403752E+00 
    2.6637184426881517E+00 
    2.7839464283280790E+00 
    2.8052908592456145E+00 
    2.7637355538992106E+00 
    2.6767387007443930E+00 
    2.7109541561789143E+00 