# vtk DataFile Version 2.0
Pressure Field Data 
ASCII 
DATASET UNSTRUCTURED_GRID 

POINTS 289 double 

    0.0000000000000000E+00     0.0000000000000000E+00     0.0000000000000000E+00 
    1.0000000000000000E+00     0.0000000000000000E+00     0.0000000000000000E+00 
    1.0000000000000000E+00     1.0000000000000000E+00     0.0000000000000000E+00 
    0.0000000000000000E+00     1.0000000000000000E+00     0.0000000000000000E+00 
    6.2499999999872928E-02     0.0000000000000000E+00     0.0000000000000000E+00 
    1.2499999999977310E-01     0.0000000000000000E+00     0.0000000000000000E+00 
    1.8749999999959341E-01     0.0000000000000000E+00     0.0000000000000000E+00 
    2.4999999999941089E-01     0.0000000000000000E+00     0.0000000000000000E+00 
    3.1249999999922851E-01     0.0000000000000000E+00     0.0000000000000000E+00 
    3.7499999999904610E-01     0.0000000000000000E+00     0.0000000000000000E+00 
    4.3749999999886358E-01     0.0000000000000000E+00     0.0000000000000000E+00 
    4.9999999999869210E-01     0.0000000000000000E+00     0.0000000000000000E+00 
    5.6249999999884603E-01     0.0000000000000000E+00     0.0000000000000000E+00 
    6.2499999999901090E-01     0.0000000000000000E+00     0.0000000000000000E+00 
    6.8749999999917577E-01     0.0000000000000000E+00     0.0000000000000000E+00 
    7.4999999999934064E-01     0.0000000000000000E+00     0.0000000000000000E+00 
    8.1249999999950551E-01     0.0000000000000000E+00     0.0000000000000000E+00 
    8.7499999999967026E-01     0.0000000000000000E+00     0.0000000000000000E+00 
    9.3749999999983513E-01     0.0000000000000000E+00     0.0000000000000000E+00 
    1.0000000000000000E+00     6.2499999999872928E-02     0.0000000000000000E+00 
    1.0000000000000000E+00     1.2499999999977310E-01     0.0000000000000000E+00 
    1.0000000000000000E+00     1.8749999999959341E-01     0.0000000000000000E+00 
    1.0000000000000000E+00     2.4999999999941089E-01     0.0000000000000000E+00 
    1.0000000000000000E+00     3.1249999999922851E-01     0.0000000000000000E+00 
    1.0000000000000000E+00     3.7499999999904610E-01     0.0000000000000000E+00 
    1.0000000000000000E+00     4.3749999999886358E-01     0.0000000000000000E+00 
    1.0000000000000000E+00     4.9999999999869210E-01     0.0000000000000000E+00 
    1.0000000000000000E+00     5.6249999999884603E-01     0.0000000000000000E+00 
    1.0000000000000000E+00     6.2499999999901090E-01     0.0000000000000000E+00 
    1.0000000000000000E+00     6.8749999999917577E-01     0.0000000000000000E+00 
    1.0000000000000000E+00     7.4999999999934064E-01     0.0000000000000000E+00 
    1.0000000000000000E+00     8.1249999999950551E-01     0.0000000000000000E+00 
    1.0000000000000000E+00     8.7499999999967026E-01     0.0000000000000000E+00 
    1.0000000000000000E+00     9.3749999999983513E-01     0.0000000000000000E+00 
    9.3749999999973976E-01     1.0000000000000000E+00     0.0000000000000000E+00 
    8.7499999999950118E-01     1.0000000000000000E+00     0.0000000000000000E+00 
    8.1249999999991318E-01     1.0000000000000000E+00     0.0000000000000000E+00 
    7.5000000000034706E-01     1.0000000000000000E+00     0.0000000000000000E+00 
    6.8750000000078049E-01     1.0000000000000000E+00     0.0000000000000000E+00 
    6.2500000000121403E-01     1.0000000000000000E+00     0.0000000000000000E+00 
    5.6250000000164757E-01     1.0000000000000000E+00     0.0000000000000000E+00 
    5.0000000000205946E-01     1.0000000000000000E+00     0.0000000000000000E+00 
    4.3750000000182099E-01     1.0000000000000000E+00     0.0000000000000000E+00 
    3.7500000000156092E-01     1.0000000000000000E+00     0.0000000000000000E+00 
    3.1250000000130068E-01     1.0000000000000000E+00     0.0000000000000000E+00 
    2.5000000000104050E-01     1.0000000000000000E+00     0.0000000000000000E+00 
    1.8750000000078040E-01     1.0000000000000000E+00     0.0000000000000000E+00 
    1.2500000000052031E-01     1.0000000000000000E+00     0.0000000000000000E+00 
    6.2500000000260125E-02     1.0000000000000000E+00     0.0000000000000000E+00 
    0.0000000000000000E+00     9.3749999999973976E-01     0.0000000000000000E+00 
    0.0000000000000000E+00     8.7499999999950118E-01     0.0000000000000000E+00 
    0.0000000000000000E+00     8.1249999999991318E-01     0.0000000000000000E+00 
    0.0000000000000000E+00     7.5000000000034706E-01     0.0000000000000000E+00 
    0.0000000000000000E+00     6.8750000000078049E-01     0.0000000000000000E+00 
    0.0000000000000000E+00     6.2500000000121403E-01     0.0000000000000000E+00 
    0.0000000000000000E+00     5.6250000000164757E-01     0.0000000000000000E+00 
    0.0000000000000000E+00     5.0000000000205946E-01     0.0000000000000000E+00 
    0.0000000000000000E+00     4.3750000000182099E-01     0.0000000000000000E+00 
    0.0000000000000000E+00     3.7500000000156092E-01     0.0000000000000000E+00 
    0.0000000000000000E+00     3.1250000000130068E-01     0.0000000000000000E+00 
    0.0000000000000000E+00     2.5000000000104050E-01     0.0000000000000000E+00 
    0.0000000000000000E+00     1.8750000000078040E-01     0.0000000000000000E+00 
    0.0000000000000000E+00     1.2500000000052031E-01     0.0000000000000000E+00 
    0.0000000000000000E+00     6.2500000000260125E-02     0.0000000000000000E+00 
    6.2499999999897131E-02     6.2500000000235922E-02     0.0000000000000000E+00 
    6.2499999999921327E-02     1.2500000000047351E-01     0.0000000000000000E+00 
    6.2499999999945530E-02     1.8750000000070621E-01     0.0000000000000000E+00 
    6.2499999999969733E-02     2.5000000000093858E-01     0.0000000000000000E+00 
    6.2499999999993928E-02     3.1250000000117117E-01     0.0000000000000000E+00 
    6.2500000000018124E-02     3.7500000000140382E-01     0.0000000000000000E+00 
    6.2500000000042327E-02     4.3750000000163619E-01     0.0000000000000000E+00 
    6.2500000000066530E-02     5.0000000000184897E-01     0.0000000000000000E+00 
    6.2500000000090733E-02     5.6250000000147260E-01     0.0000000000000000E+00 
    6.2500000000114922E-02     6.2500000000107636E-01     0.0000000000000000E+00 
    6.2500000000139125E-02     6.8750000000068034E-01     0.0000000000000000E+00 
    6.2500000000163328E-02     7.5000000000028411E-01     0.0000000000000000E+00 
    6.2500000000187531E-02     8.1249999999988787E-01     0.0000000000000000E+00 
    6.2500000000211720E-02     8.7499999999951172E-01     0.0000000000000000E+00 
    6.2500000000235922E-02     9.3749999999974565E-01     0.0000000000000000E+00 
    1.2499999999981980E-01     6.2500000000211733E-02     0.0000000000000000E+00 
    1.2499999999986650E-01     1.2500000000042691E-01     0.0000000000000000E+00 
    1.2499999999991319E-01     1.8750000000063199E-01     0.0000000000000000E+00 
    1.2499999999995989E-01     2.5000000000083678E-01     0.0000000000000000E+00 
    1.2500000000000661E-01     3.1250000000104172E-01     0.0000000000000000E+00 
    1.2500000000005329E-01     3.7500000000124661E-01     0.0000000000000000E+00 
    1.2500000000010000E-01     4.3750000000145117E-01     0.0000000000000000E+00 
    1.2500000000014669E-01     5.0000000000163858E-01     0.0000000000000000E+00 
    1.2500000000019340E-01     5.6250000000129741E-01     0.0000000000000000E+00 
    1.2500000000024011E-01     6.2500000000093847E-01     0.0000000000000000E+00 
    1.2500000000028680E-01     6.8750000000057998E-01     0.0000000000000000E+00 
    1.2500000000033351E-01     7.5000000000022127E-01     0.0000000000000000E+00 
    1.2500000000038020E-01     8.1249999999986211E-01     0.0000000000000000E+00 
    1.2500000000042691E-01     8.7499999999952238E-01     0.0000000000000000E+00 
    1.2500000000047359E-01     9.3749999999975164E-01     0.0000000000000000E+00 
    1.8749999999966760E-01     6.2500000000187531E-02     0.0000000000000000E+00 
    1.8749999999974179E-01     1.2500000000038020E-01     0.0000000000000000E+00 
    1.8749999999981601E-01     1.8750000000055780E-01     0.0000000000000000E+00 
    1.8749999999989009E-01     2.5000000000073502E-01     0.0000000000000000E+00 
    1.8749999999996431E-01     3.1250000000091221E-01     0.0000000000000000E+00 
    1.8750000000003850E-01     3.7500000000108941E-01     0.0000000000000000E+00 
    1.8750000000011269E-01     4.3750000000126649E-01     0.0000000000000000E+00 
    1.8750000000018691E-01     5.0000000000142808E-01     0.0000000000000000E+00 
    1.8750000000026110E-01     5.6250000000112244E-01     0.0000000000000000E+00 
    1.8750000000033529E-01     6.2500000000080080E-01     0.0000000000000000E+00 
    1.8750000000040951E-01     6.8750000000047962E-01     0.0000000000000000E+00 
    1.8750000000048361E-01     7.5000000000015843E-01     0.0000000000000000E+00 
    1.8750000000055780E-01     8.1249999999983680E-01     0.0000000000000000E+00 
    1.8750000000063199E-01     8.7499999999953304E-01     0.0000000000000000E+00 
    1.8750000000070621E-01     9.3749999999975764E-01     0.0000000000000000E+00 
    2.4999999999951281E-01     6.2500000000163314E-02     0.0000000000000000E+00 
    2.4999999999961461E-01     1.2500000000033351E-01     0.0000000000000000E+00 
    2.4999999999971650E-01     1.8750000000048361E-01     0.0000000000000000E+00 
    2.4999999999981831E-01     2.5000000000063310E-01     0.0000000000000000E+00 
    2.4999999999992020E-01     3.1250000000078260E-01     0.0000000000000000E+00 
    2.5000000000002198E-01     3.7500000000093209E-01     0.0000000000000000E+00 
    2.5000000000012390E-01     4.3750000000108180E-01     0.0000000000000000E+00 
    2.5000000000022571E-01     5.0000000000121769E-01     0.0000000000000000E+00 
    2.5000000000032763E-01     5.6250000000094724E-01     0.0000000000000000E+00 
    2.5000000000042938E-01     6.2500000000066314E-01     0.0000000000000000E+00 
    2.5000000000053119E-01     6.8750000000037925E-01     0.0000000000000000E+00 
[...]
CELL_DATA 256 
SCALARS Pressure double 1 
LOOKUP_TABLE default 

    2.5607850077487964E+00 
    2.4512578960485336E+00 
    2.3737519363104909E+00 
    2.3068148349623208E+00 
    2.2449036135228457E+00 
    2.1865014619903178E+00 
    2.1304492327706464E+00 
    2.0764672094958327E+00 
    2.0211093166218594E+00 
    1.9619588882756811E+00 
    1.9089505228809407E+00 
    1.8665984772004984E+00 
    1.8328175337236583E+00 
    1.8075010995906946E+00 
    1.7906201187072901E+00 
    1.7821817666304052E+00 
    2.4512756271958156E+00 
    2.4026882848679056E+00 
    2.3462279511955209E+00 
    2.2881936831522554E+00 
    2.2310834671851243E+00 
    2.1752127260087661E+00 
    2.1206242521276235E+00 
    2.0675663313869745E+00 
    2.0118500670266530E+00 
    1.9523772562977679E+00 
    1.9001722671634498E+00 
    1.8580427933301136E+00 
    1.8243663130933814E+00 
    1.7990784406771632E+00 
    1.7821914060686106E+00 
    1.7737463610857611E+00 
    2.3737956856017490E+00 
    2.3462527269494555E+00 
    2.3046656175392335E+00 
    2.2566870963315999E+00 
    2.2058881370509131E+00 
    2.1538538107513121E+00 
    2.1016529806993587E+00 
    2.0499124498360670E+00 
    1.9933972545194893E+00 
    1.9335568526159732E+00 
    1.8827649009925429E+00 
    1.8410637320458363E+00 
    1.8075565766845261E+00 
    1.7822865945575472E+00 
    1.7653573047474589E+00 
    1.7568775760862589E+00 
    2.3068832096336509E+00 
    2.2882390482629908E+00 
    2.2567077341577844E+00 
    2.2169679976227514E+00 
    2.1720709260724127E+00 
    2.1241169449498813E+00 
    2.0745077757089336E+00 
    2.0234622276189365E+00 
    1.9655886754030960E+00 
    1.9061805935133671E+00 
    1.8570916056451603E+00 
    1.8159176295604951E+00 
    1.7825375913714756E+00 
    1.7571857706390390E+00 
    1.7401143184136476E+00 
    1.7315381519254660E+00 
    2.2449831260730160E+00 
    2.2311388992726595E+00 
    2.2059230999782118E+00 
    2.1720869701094525E+00 
    2.1320539054589966E+00 
    2.0876869235989126E+00 
    2.0402505981391386E+00 
    1.9882338045587047E+00 
    1.9287032761187515E+00 
    1.8714547596418647E+00 
    1.8237978117645794E+00 
    1.7829985449447274E+00 
    1.7495156080566225E+00 
    1.7238378864178885E+00 
    1.7064225760422829E+00 
    1.6976340745048237E+00 
    2.1865741996655297E+00 
    2.1752704321808269E+00 
    2.1538835882178913E+00 
    2.1241178824636848E+00 
    2.0876854714059827E+00 
    2.0459032989173926E+00 
    1.9989164201812066E+00 
    1.9440949694175214E+00 
    1.8845850461536717E+00 
    1.8306454535013512E+00 
    1.7836776696392582E+00 
    1.7427781015625801E+00 
    1.7087095641610768E+00 
    1.6822584304094879E+00 
    1.6641503682075725E+00 
    1.6549563402645000E+00 
    2.1305399127708289E+00 
    2.1207149094535578E+00 
    2.1017091678204616E+00 
    2.0745174369531907E+00 
    2.0402822846273487E+00 
    1.9989705172182020E+00 
    1.9493100974636399E+00 
    1.8923580091525087E+00 
    1.8358938844548154E+00 
    1.7845053189896574E+00 
    1.7375067880210393E+00 
    1.6957364031230040E+00 
    1.6603024359238172E+00 
    1.6323571116429576E+00 
    1.6129899692799394E+00 
    1.6030763786243412E+00 
    2.0766607763636595E+00 
    2.0677611208798568E+00 
    2.0500822188758789E+00 
    2.0235961384088483E+00 
    1.9884221305017851E+00 
    1.9442816753688821E+00 
    1.8924184570827689E+00 
    1.8380411656243798E+00 
    1.7849730786875475E+00 
    1.7341425013993024E+00 
    1.6861384579657999E+00 
    1.6423968722272495E+00 
    1.6044443315747159E+00 
    1.5739154045678130E+00 
    1.5524157370528400E+00 
    1.5412877230062472E+00 
    2.0213142474048111E+00 
    2.0119920776659930E+00 
    1.9934963054710126E+00 
    1.9657344087199338E+00 
    1.9289396036761122E+00 
    1.8847630414498491E+00 
    1.8359407257717566E+00 
    1.7849889899365785E+00 
    1.7329823547581393E+00 
    1.6810013707980505E+00 
    1.6305442703930750E+00 
    1.5832835994966876E+00 
    1.5411738323696060E+00 
    1.5064572540481416E+00 
    1.4814916535418474E+00 
    1.4683742210062520E+00 
    1.9620990366260389E+00 
    1.9524761588215436E+00 
    1.9336534906287888E+00 
    1.9063286813953628E+00 
    1.8716174057903399E+00 
    1.8307597099030468E+00 
    1.7845589770018966E+00 
    1.7341837849954156E+00 
    1.6810261081406090E+00 
    1.6263904856567521E+00 
    1.5717739788052689E+00 
    1.5190191147935033E+00 
    1.4705061267888133E+00 
    1.4292473250363411E+00 
    1.3987292635601385E+00 
    1.3823484824188841E+00 
    1.9091709688324592E+00 
    1.9004118833701782E+00 
    1.8830314273796434E+00 
    1.8573433534156663E+00 
    1.8239927576452444E+00 
    1.7838268607945833E+00 
    1.7376142199193259E+00 
    1.6862192565638401E+00 
    1.6306008076232121E+00 
    1.5718038958612996E+00 
    1.5111439904529180E+00 
    1.4504924999175002E+00 
    1.3925671580985091E+00 
    1.3412790397582837E+00 
    1.3018092688996770E+00 
    1.2799283881027910E+00 
    1.8668592444670526E+00 
    1.8583071425907938E+00 
    1.8413296439426003E+00 
    1.8161669589822194E+00 
    1.7832134551071650E+00 
    1.7429565080211615E+00 
    1.6958797243284318E+00 
    1.6425112071994694E+00 
    1.5833703245039246E+00 
    1.5190772150625367E+00 
    1.4505203176879444E+00 
    1.3792718907377044E+00 
    1.3080336825683820E+00 
    1.2415375557551265E+00 
    1.1873459633529238E+00 
    1.1556517672587017E+00 
    1.8331017740386835E+00 
    1.8246475243893219E+00 
    1.8078305064611466E+00 
    1.7827945394236397E+00 
    1.7497462608762613E+00 
    1.7089100526043453E+00 
    1.6604721811028746E+00 
    1.6045854423809125E+00 
    1.5412863379023389E+00 
    1.4705892483508176E+00 
    1.3926197581352757E+00 
    1.3080584185254136E+00 
    1.2187786759664205E+00 
    1.1295091792656464E+00 
    1.0504108866922022E+00 
    9.9969307423299703E-01 
    1.8077983344725950E+00 
    1.7993703085999067E+00 
    1.7825683126420155E+00 
    1.7574508394135890E+00 
    1.7240804082694254E+00 
    1.6824747710642378E+00 
    1.6325453871892701E+00 
    1.5740756990325238E+00 
    1.5065888725746790E+00 
    1.4293495670924852E+00 
    1.3413509844934237E+00 
    1.2415818449693847E+00 
    1.1295289367690611E+00 
    1.0073203330955960E+00 
    8.8511559334326850E-01 
    7.9302522402076026E-01 
    1.7909213566461559E+00 
    1.7824867975639573E+00 
    1.7656420216954678E+00 
    1.7403831404814987E+00 
    1.7066709387587804E+00 
    1.6643749430495902E+00 
    1.6131879850897430E+00 
    1.5525862356725111E+00 
    1.4816337798923149E+00 
    1.3988425605604871E+00 
    1.3018929609368752E+00 
    1.1874026001384297E+00 
    1.0504435995623107E+00 
    8.8512898939917273E-01 
    6.8970393345557846E-01 
    4.9425679372796694E-01 
    1.7824777171679789E+00 
    1.7740369056862388E+00 
    1.7571578577896025E+00 
    1.7318032970569661E+00 
    1.6978798136856255E+00 
    1.6551794746762583E+00 
    1.6032737963721930E+00 
    1.5414580469698909E+00 
    1.4685166128838680E+00 
    1.3824626591976850E+00 
    1.2800141774560732E+00 
    1.1557116593027563E+00 
    9.9973026804143850E-01 
    7.9304422742579317E-01 
    4.9426316590202068E-01 
    0.0000000000000000E+00 

SCALARS Saturarion double 1 
LOOKUP_TABLE default 

    1.0000000384042733E+00 
    9.3415183000597335E-01 
    8.3454051650134409E-01 
    7.3893348975184081E-01 
    6.6124611129933830E-01 
    6.0086937314285904E-01 
    5.4450978128159044E-01 
    4.9443080833617320E-01 
    4.1874382901040907E-01 
    8.6784795139719609E-02 
    1.0000133360058018E-06 
    1.0000000000079932E-06 
    9.9999999999999995E-07 
    9.9999999999999995E-07 
    9.9999999999999995E-07 
    9.9999999999999995E-07 
    9.3414422431728683E-01 
    8.9215659160019156E-01 
    8.0576471789738857E-01 
    7.2085507336293075E-01 
    6.5108082670927858E-01 
    5.9369133069964675E-01 
    5.3927769400118064E-01 
    4.9098459318996035E-01 
    4.0131365987890055E-01 
    6.4274421754235755E-02 
    8.5828846893172106E-05 
    1.0001543574434634E-06 
    9.9999999998642583E-07 
    9.9999999999999995E-07 
    9.9999999999999995E-07 
    9.9999999999999995E-07 
    8.3452856246941642E-01 
    8.0575477181384603E-01 
    7.4577455805534743E-01 
    6.8632844891174871E-01 
    6.2981855184446811E-01 
    5.7625122547310159E-01 
    5.2657266794800828E-01 
    4.8081612469522678E-01 
    3.6760239829239194E-01 
    3.4887705862036877E-02 
    4.5912020022223954E-05 
    1.0003355857456607E-06 
    1.0000000000510682E-06 
    9.9999999999999974E-07 
    9.9999999999999995E-07 
    9.9999999999999995E-07 
    7.3892653006051756E-01 
    7.2083998811294059E-01 
    6.8630371921314637E-01 
    6.4471165802471719E-01 
    5.9811950931741198E-01 
    5.5237234827458237E-01 
    5.0796270061241278E-01 
    4.6260879265588772E-01 
    2.8416129243300237E-01 
    2.8301201263664149E-03 
    1.1782198408732909E-06 
    1.0000000325162105E-06 
    1.0000000000000002E-06 
    9.9999999999999995E-07 
    9.9999999999999995E-07 
    9.9999999999999995E-07 
    6.6121946989536462E-01 
    6.5104175098822781E-01 
    6.2979119688773133E-01 
    5.9808392017269163E-01 
    5.6057414031281361E-01 
    5.2271859641289709E-01 
    4.8331491638997337E-01 
    4.2988973151620657E-01 
    1.4285141048674213E-01 
    2.8656244881135757E-04 
    1.0260359340563858E-06 
    1.0000000009992534E-06 
    9.9999999999999974E-07 
    9.9999999999999995E-07 
    9.9999999999999995E-07 
    9.9999999999999995E-07 
    6.0079281576803534E-01 
    5.9359372962130319E-01 
    5.7616233262765326E-01 
    5.5198111961537399E-01 
    5.2227367712807260E-01 
    4.8934750994556170E-01 
    4.5005717931056266E-01 
    3.2576956896885162E-01 
    2.0472824759625786E-02 
    2.6158483004738774E-05 
    1.0005349961815030E-06 
    1.0000000000604266E-06 
    9.9999999999999995E-07 
    9.9999999999999995E-07 
    9.9999999999999995E-07 
    9.9999999999999995E-07 
    5.4457391476133299E-01 
    5.3951904899987979E-01 
    5.2681486857924498E-01 
    5.0899876868596761E-01 
    4.8418557033820531E-01 
    4.5011572273145461E-01 
    3.7551880525481618E-01 
    1.0016056872070936E-01 
    8.0951173704607343E-04 
    1.0400718868392768E-06 
    1.0000000002792521E-06 
    1.0000000000000004E-06 
    9.9999999999999995E-07 
    9.9999999999999995E-07 
    9.9999999999999995E-07 
    9.9999999999999995E-07 
    4.9598131371369997E-01 
    4.9167896745722467E-01 
    4.8061535008790379E-01 
    4.6352182952968152E-01 
    4.3220632596197250E-01 
    3.2446062140473103E-01 
    1.0038581014208676E-01 
    1.7956668796796863E-03 
    1.5694318398967457E-06 
    1.0000001888314757E-06 
    1.0000000000000878E-06 
    9.9999999999999995E-07 
    9.9999999999999995E-07 
    9.9999999999999995E-07 
    9.9999999999999995E-07 
    9.9999999999999995E-07 
    4.1785850645990080E-01 
    4.0043625893151635E-01 
    3.6205069950418967E-01 
    2.7964983119263159E-01 
    1.4237699469289489E-01 
    2.7026218062451392E-02 
    1.6940806858390285E-03 
    2.0626007853966919E-06 
    1.0000005544245001E-06 
    1.0000000000001721E-06 
    9.9999999999999995E-07 
    9.9999999999999995E-07 
    9.9999999999999995E-07 
    9.9999999999999995E-07 
    9.9999999999999995E-07 
    9.9999999999999995E-07 
    8.6716319286411506E-02 
    6.1752268720398372E-02 
    2.5278146759462133E-02 
    2.2392842024377365E-03 
    3.5761616853373818E-04 
    1.1000584505615883E-04 
    4.0268733707121634E-06 
    1.0000009381999554E-06 
    1.0000000000002437E-06 
    9.9999999999999995E-07 
    9.9999999999999995E-07 
    9.9999999999999995E-07 
    9.9999999999999995E-07 
    9.9999999999999995E-07 
    9.9999999999999995E-07 
    9.9999999999999995E-07 
    1.0000114815284120E-06 
    5.4522327581784992E-06 
    5.8497533960487419E-06 
    1.1295443500179142E-06 
    1.0417817818248036E-06 
    1.0056932503780188E-06 
    1.0000058836134922E-06 
    1.0000000000005558E-06 
    9.9999999999999995E-07 
    9.9999999999999995E-07 
    9.9999999999999995E-07 
    9.9999999999999995E-07 
    9.9999999999999995E-07 
    9.9999999999999995E-07 
    9.9999999999999995E-07 
    9.9999999999999995E-07 
    1.0000000000068649E-06 
    1.0000041603764274E-06 
    1.0000026063713836E-06 
    1.0000000229288483E-06 
    1.0000000016159633E-06 
    1.0000000006651207E-06 
    1.0000000000016072E-06 
    9.9999999999999995E-07 
    9.9999999999999995E-07 
    9.9999999999999995E-07 
    9.9999999999999995E-07 
    9.9999999999999995E-07 
    9.9999999999999995E-07 
    9.9999999999999995E-07 
    9.9999999999999995E-07 
    9.9999999999999995E-07 
    9.9999999999999995E-07 
    1.0000000000000021E-06 
    1.0000000000000002E-06 
    1.0000000000000027E-06 
    9.9999999999999953E-07 
    1.0000000000000002E-06 
    9.9999999999999995E-07 
    9.9999999999999995E-07 
    9.9999999999999995E-07 
    9.9999999999999995E-07 
    9.9999999999999995E-07 
    9.9999999999999995E-07 
    9.9999999999999995E-07 
    9.9999999999999995E-07 
    9.9999999999999995E-07 
    9.9999999999999995E-07 
    9.9999999999999995E-07 
    9.9999999999999995E-07 
    9.9999999999999995E-07 
    9.9999999999999995E-07 
    9.9999999999999995E-07 
    9.9999999999999995E-07 
    9.9999999999999995E-07 
    9.9999999999999995E-07 
    9.9999999999999995E-07 
    9.9999999999999995E-07 
    9.9999999999999995E-07 
    9.9999999999999995E-07 
    9.9999999999999995E-07 
    9.9999999999999995E-07 
    9.9999999999999995E-07 
    9.9999999999999995E-07 
    9.9999999999999995E-07 
    9.9999999999999995E-07 
    9.9999999999999995E-07 
    9.9999999999999995E-07 
    9.9999999999999995E-07 
    9.9999999999999995E-07 
    9.9999999999999995E-07 
    9.9999999999999995E-07 
    9.9999999999999995E-07 
    9.9999999999999995E-07 
    9.9999999999999995E-07 
    9.9999999999999995E-07 
    9.9999999999999995E-07 
    9.9999999999999995E-07 
    9.9999999999999995E-07 
    9.9999999999999995E-07 
    9.9999999999999995E-07 
    9.9999999999999995E-07 
    9.9999999999999995E-07 
    9.9999999999999995E-07 
    9.9999999999999995E-07 
    9.9999999999999995E-07 
    9.9999999999999995E-07 
    9.9999999999999995E-07 
    9.9999999999999995E-07 
    9.9999999999999995E-07 
    9.9999999999999995E-07 
    9.9999999999999995E-07 
    9.9999999999999995E-07 
    9.9999999999999995E-07 
    9.9999999999999995E-07 
    1.0000000845489960E-06 
