# vtk DataFile Version 2.0
Pressure Field Data 
ASCII 
DATASET UNSTRUCTURED_GRID 

POINTS 289 double 

    0.0000000000000000E+00     0.0000000000000000E+00     0.0000000000000000E+00 
    1.0000000000000000E+00     0.0000000000000000E+00     0.0000000000000000E+00 
    1.0000000000000000E+00     1.0000000000000000E+00     0.0000000000000000E+00 
    0.0000000000000000E+00     1.0000000000000000E+00     0.0000000000000000E+00 
    6.2499999999872928E-02     0.0000000000000000E+00     0.0000000000000000E+00 
    1.2499999999977310E-01     0.0000000000000000E+00     0.0000000000000000E+00 
    1.8749999999959341E-01     0.0000000000000000E+00     0.0000000000000000E+00 
    2.4999999999941089E-01     0.0000000000000000E+00     0.0000000000000000E+00 
    3.1249999999922851E-01     0.0000000000000000E+00     0.0000000000000000E+00 
    3.7499999999904610E-01     0.0000000000000000E+00     0.0000000000000000E+00 
    4.3749999999886358E-01     0.0000000000000000E+00     0.0000000000000000E+00 
    4.9999999999869210E-01     0.0000000000000000E+00     0.0000000000000000E+00 
    5.6249999999884603E-01     0.0000000000000000E+00     0.0000000000000000E+00 
    6.2499999999901090E-01     0.0000000000000000E+00     0.0000000000000000E+00 
    6.8749999999917577E-01     0.0000000000000000E+00     0.0000000000000000E+00 
    7.4999999999934064E-01     0.0000000000000000E+00     0.0000000000000000E+00 
    8.1249999999950551E-01     0.0000000000000000E+00     0.0000000000000000E+00 
    8.7499999999967026E-01     0.0000000000000000E+00     0.0000000000000000E+00 
    9.3749999999983513E-01     0.0000000000000000E+00     0.0000000000000000E+00 
    1.0000000000000000E+00     6.2499999999872928E-02     0.0000000000000000E+00 
    1.0000000000000000E+00     1.2499999999977310E-01     0.0000000000000000E+00 
    1.0000000000000000E+00     1.8749999999959341E-01     0.0000000000000000E+00 
    1.0000000000000000E+00     2.4999999999941089E-01     0.0000000000000000E+00 
    1.0000000000000000E+00     3.1249999999922851E-01     0.0000000000000000E+00 
    1.0000000000000000E+00     3.7499999999904610E-01     0.0000000000000000E+00 
    1.0000000000000000E+00     4.3749999999886358E-01     0.0000000000000000E+00 
    1.0000000000000000E+00     4.9999999999869210E-01     0.0000000000000000E+00 
    1.0000000000000000E+00     5.6249999999884603E-01     0.0000000000000000E+00 
    1.0000000000000000E+00     6.2499999999901090E-01     0.0000000000000000E+00 
    1.0000000000000000E+00     6.8749999999917577E-01     0.0000000000000000E+00 
    1.0000000000000000E+00     7.4999999999934064E-01     0.0000000000000000E+00 
    1.0000000000000000E+00     8.1249999999950551E-01     0.0000000000000000E+00 
    1.0000000000000000E+00     8.7499999999967026E-01     0.0000000000000000E+00 
    1.0000000000000000E+00     9.3749999999983513E-01     0.0000000000000000E+00 
    9.3749999999973976E-01     1.0000000000000000E+00     0.0000000000000000E+00 
    8.7499999999950118E-01     1.0000000000000000E+00     0.0000000000000000E+00 
    8.1249999999991318E-01     1.0000000000000000E+00     0.0000000000000000E+00 
    7.5000000000034706E-01     1.0000000000000000E+00     0.0000000000000000E+00 
    6.8750000000078049E-01     1.0000000000000000E+00     0.0000000000000000E+00 
    6.2500000000121403E-01     1.0000000000000000E+00     0.0000000000000000E+00 
    5.6250000000164757E-01     1.0000000000000000E+00     0.0000000000000000E+00 
    5.0000000000205946E-01     1.0000000000000000E+00     0.0000000000000000E+00 
    4.3750000000182099E-01     1.0000000000000000E+00     0.0000000000000000E+00 
    3.7500000000156092E-01     1.0000000000000000E+00     0.0000000000000000E+00 
    3.1250000000130068E-01     1.0000000000000000E+00     0.0000000000000000E+00 
    2.5000000000104050E-01     1.0000000000000000E+00     0.0000000000000000E+00 
    1.8750000000078040E-01     1.0000000000000000E+00     0.0000000000000000E+00 
    1.2500000000052031E-01     1.0000000000000000E+00     0.0000000000000000E+00 
    6.2500000000260125E-02     1.0000000000000000E+00     0.0000000000000000E+00 
    0.0000000000000000E+00     9.3749999999973976E-01     0.0000000000000000E+00 
    0.0000000000000000E+00     8.7499999999950118E-01     0.0000000000000000E+00 
    0.0000000000000000E+00     8.1249999999991318E-01     0.0000000000000000E+00 
    0.0000000000000000E+00     7.5000000000034706E-01     0.0000000000000000E+00 
    0.0000000000000000E+00     6.8750000000078049E-01     0.0000000000000000E+00 
    0.0000000000000000E+00     6.2500000000121403E-01     0.0000000000000000E+00 
    0.0000000000000000E+00     5.6250000000164757E-01     0.0000000000000000E+00 
    0.0000000000000000E+00     5.0000000000205946E-01     0.0000000000000000E+00 
    0.0000000000000000E+00     4.3750000000182099E-01     0.0000000000000000E+00 
    0.0000000000000000E+00     3.7500000000156092E-01     0.0000000000000000E+00 
    0.0000000000000000E+00     3.1250000000130068E-01     0.0000000000000000E+00 
    0.0000000000000000E+00     2.5000000000104050E-01     0.0000000000000000E+00 
    0.0000000000000000E+00     1.8750000000078040E-01     0.0000000000000000E+00 
    0.0000000000000000E+00     1.2500000000052031E-01     0.0000000000000000E+00 
    0.0000000000000000E+00     6.2500000000260125E-02     0.0000000000000000E+00 
    6.2499999999897131E-02     6.2500000000235922E-02     0.0000000000000000E+00 
    6.2499999999921327E-02     1.2500000000047351E-01     0.0000000000000000E+00 
    6.2499999999945530E-02     1.8750000000070621E-01     0.0000000000000000E+00 
    6.2499999999969733E-02     2.5000000000093858E-01     0.0000000000000000E+00 
    6.2499999999993928E-02     3.1250000000117117E-01     0.0000000000000000E+00 
    6.2500000000018124E-02     3.7500000000140382E-01     0.0000000000000000E+00 
    6.2500000000042327E-02     4.3750000000163619E-01     0.0000000000000000E+00 
    6.2500000000066530E-02     5.0000000000184897E-01     0.0000000000000000E+00 
    6.2500000000090733E-02     5.6250000000147260E-01     0.0000000000000000E+00 
    6.2500000000114922E-02     6.2500000000107636E-01     0.0000000000000000E+00 
    6.2500000000139125E-02     6.8750000000068034E-01     0.0000000000000000E+00 
    6.2500000000163328E-02     7.5000000000028411E-01     0.0000000000000000E+00 
    6.2500000000187531E-02     8.1249999999988787E-01     0.0000000000000000E+00 
    6.2500000000211720E-02     8.7499999999951172E-01     0.0000000000000000E+00 
    6.2500000000235922E-02     9.3749999999974565E-01     0.0000000000000000E+00 
    1.2499999999981980E-01     6.2500000000211733E-02     0.0000000000000000E+00 
    1.2499999999986650E-01     1.2500000000042691E-01     0.0000000000000000E+00 
    1.2499999999991319E-01     1.8750000000063199E-01     0.0000000000000000E+00 
    1.2499999999995989E-01     2.5000000000083678E-01     0.0000000000000000E+00 
    1.2500000000000661E-01     3.1250000000104172E-01     0.0000000000000000E+00 
    1.2500000000005329E-01     3.7500000000124661E-01     0.0000000000000000E+00 
    1.2500000000010000E-01     4.3750000000145117E-01     0.0000000000000000E+00 
    1.2500000000014669E-01     5.0000000000163858E-01     0.0000000000000000E+00 
    1.2500000000019340E-01     5.6250000000129741E-01     0.0000000000000000E+00 
    1.2500000000024011E-01     6.2500000000093847E-01     0.0000000000000000E+00 
    1.2500000000028680E-01     6.8750000000057998E-01     0.0000000000000000E+00 
    1.2500000000033351E-01     7.5000000000022127E-01     0.0000000000000000E+00 
    1.2500000000038020E-01     8.1249999999986211E-01     0.0000000000000000E+00 
    1.2500000000042691E-01     8.7499999999952238E-01     0.0000000000000000E+00 
    1.2500000000047359E-01     9.3749999999975164E-01     0.0000000000000000E+00 
    1.8749999999966760E-01     6.2500000000187531E-02     0.0000000000000000E+00 
    1.8749999999974179E-01     1.2500000000038020E-01     0.0000000000000000E+00 
    1.8749999999981601E-01     1.8750000000055780E-01     0.0000000000000000E+00 
    1.8749999999989009E-01     2.5000000000073502E-01     0.0000000000000000E+00 
    1.8749999999996431E-01     3.1250000000091221E-01     0.0000000000000000E+00 
    1.8750000000003850E-01     3.7500000000108941E-01     0.0000000000000000E+00 
    1.8750000000011269E-01     4.3750000000126649E-01     0.0000000000000000E+00 
    1.8750000000018691E-01     5.0000000000142808E-01     0.0000000000000000E+00 
    1.8750000000026110E-01     5.6250000000112244E-01     0.0000000000000000E+00 
    1.8750000000033529E-01     6.2500000000080080E-01     0.0000000000000000E+00 
    1.8750000000040951E-01     6.8750000000047962E-01     0.0000000000000000E+00 
    1.8750000000048361E-01     7.5000000000015843E-01     0.0000000000000000E+00 
    1.8750000000055780E-01     8.1249999999983680E-01     0.0000000000000000E+00 
    1.8750000000063199E-01     8.7499999999953304E-01     0.0000000000000000E+00 
    1.8750000000070621E-01     9.3749999999975764E-01     0.0000000000000000E+00 
    2.4999999999951281E-01     6.2500000000163314E-02     0.0000000000000000E+00 
    2.4999999999961461E-01     1.2500000000033351E-01     0.0000000000000000E+00 
    2.4999999999971650E-01     1.8750000000048361E-01     0.0000000000000000E+00 
    2.4999999999981831E-01     2.5000000000063310E-01     0.0000000000000000E+00 
    2.4999999999992020E-01     3.1250000000078260E-01     0.0000000000000000E+00 
    2.5000000000002198E-01     3.7500000000093209E-01     0.0000000000000000E+00 
    2.5000000000012390E-01     4.3750000000108180E-01     0.0000000000000000E+00 
    2.5000000000022571E-01     5.0000000000121769E-01     0.0000000000000000E+00 
    2.5000000000032763E-01     5.6250000000094724E-01     0.0000000000000000E+00 
    2.5000000000042938E-01     6.2500000000066314E-01     0.0000000000000000E+00 
    2.5000000000053119E-01     6.8750000000037925E-01     0.0000000000000000E+00 
[...]
CELL_DATA 256 
SCALARS Pressure double 1 
LOOKUP_TABLE default 

    2.2718078514238771E+00 
    2.1676370748095981E+00 
    2.1002570037967554E+00 
    2.0475108853455604E+00 
    2.0017619652462484E+00 
    1.9608789029869773E+00 
    1.9231022464314813E+00 
    1.8878480777365521E+00 
    1.8552720645765204E+00 
    1.8253715616500497E+00 
    1.7983131961850096E+00 
    1.7744437269768636E+00 
    1.7522588582031859E+00 
    1.7323227144244138E+00 
    1.7186091174423594E+00 
    1.7118181453571746E+00 
    2.1676552160243876E+00 
    2.1244256795180796E+00 
    2.0780186692022218E+00 
    2.0332415475341969E+00 
    1.9915023521748545E+00 
    1.9527812581638853E+00 
    1.9160595720710580E+00 
    1.8814531937467462E+00 
    1.8492121798699626E+00 
    1.8193876255787431E+00 
    1.7922883046804661E+00 
    1.7683013870821407E+00 
    1.7459216958627457E+00 
    1.7257721992723731E+00 
    1.7119020047164504E+00 
    1.7050298509495809E+00 
    2.1003077184814871E+00 
    2.0780509057713377E+00 
    2.0455327340325691E+00 
    2.0094858990393285E+00 
    1.9732581190156055E+00 
    1.9375635383224723E+00 
    1.9025993597880915E+00 
    1.8690767849737280E+00 
    1.8373060966868111E+00 
    1.8075741155899574E+00 
    1.7803349156599153E+00 
    1.7560513872840200E+00 
    1.7332514220610380E+00 
    1.7126489164619934E+00 
    1.6984383399174381E+00 
    1.6913826087532422E+00 
    2.0476079208127511E+00 
    2.0333160039959282E+00 
    2.0095251853835840E+00 
    1.9807028686193251E+00 
    1.9493363023447619E+00 
    1.9166369257365072E+00 
    1.8836618392605426E+00 
    1.8512799008343122E+00 
    1.8199475374170129E+00 
    1.7901762429615249E+00 
    1.7625629083511172E+00 
    1.7377103330345005E+00 
    1.7142095607885366E+00 
    1.6928648501882630E+00 
    1.6780666481762292E+00 
    1.6706900615403804E+00 
    2.0019007174194670E+00 
    1.9916116962242316E+00 
    1.9733325341368215E+00 
    1.9493736850413224E+00 
    1.9215904106267852E+00 
    1.8914836300849385E+00 
    1.8602914385112346E+00 
    1.8288108425638081E+00 
    1.7976453777548038E+00 
    1.7675052859635330E+00 
    1.7391655015412359E+00 
    1.7133530978921503E+00 
    1.6887567791332294E+00 
    1.6662510853506081E+00 
    1.6505119027110815E+00 
    1.6426336538456721E+00 
    1.9610377497891962E+00 
    1.9529180190476716E+00 
    1.9376711304306431E+00 
    1.9167107848775071E+00 
    1.8915219860579544E+00 
    1.8634360105252175E+00 
    1.8334857839037777E+00 
    1.8023879184146372E+00 
    1.7709123711989525E+00 
    1.7399410429205704E+00 
    1.7103756939945982E+00 
    1.6830559332071011E+00 
    1.6567965554465109E+00 
    1.6325265644818183E+00 
    1.6153503151700410E+00 
    1.6067147819033680E+00 
    1.9232880700920627E+00 
    1.9162284555392957E+00 
    1.9027411627166413E+00 
    1.8837695000519761E+00 
    1.8603617867731503E+00 
    1.8335191922270035E+00 
    1.8040507533932395E+00 
    1.7726844128778729E+00 
    1.7403205918305202E+00 
    1.7078889730455757E+00 
    1.6763777933188664E+00 
    1.6467629038541678E+00 
    1.6180752988810354E+00 
    1.5912496085790042E+00 
    1.5719353313675872E+00 
    1.5621518959604668E+00 
    1.8880613293153463E+00 
    1.8816497354659072E+00 
    1.8692468504032478E+00 
    1.8514181711779292E+00 
    1.8289150878644980E+00 
    1.8024569014298684E+00 
    1.7727186822728080E+00 
    1.7404569487301011E+00 
    1.7065259403302495E+00 
    1.6718226490994628E+00 
    1.6373961444176415E+00 
    1.6044428611448762E+00 
    1.5723239359365808E+00 
    1.5418340563894226E+00 
    1.5193225684796747E+00 
    1.5078104988351613E+00 
    1.8555058789451246E+00 
    1.8494307326664696E+00 
    1.8375022230642204E+00 
    1.8201159824752597E+00 
    1.7977802391953657E+00 
    1.7710085291274251E+00 
    1.7403821298855933E+00 
    1.7065551914081076E+00 
    1.6702371857674558E+00 
    1.6322646705237880E+00 
    1.5937816827527254E+00 
    1.5561811220390931E+00 
    1.5192656283285813E+00 
    1.4833735689028347E+00 
    1.4560177974702710E+00 
    1.4419573520846387E+00 
    1.8256203542915845E+00 
    1.8196253512829605E+00 
    1.8077966954546096E+00 
    1.7903765575484207E+00 
    1.7676700243683821E+00 
    1.7400590897680368E+00 
    1.7079701918688761E+00 
    1.6718779866239351E+00 
    1.6322953991645630E+00 
    1.5899879119036466E+00 
    1.5461168033604069E+00 
    1.5022138828547527E+00 
    1.4584802817047282E+00 
    1.4144963949544767E+00 
    1.3798587107920417E+00 
    1.3620467671510563E+00 
    1.7985937631948450E+00 
    1.7925636059482921E+00 
    1.7806024943358403E+00 
    1.7628138101587059E+00 
    1.7393805782460696E+00 
    1.7105423036895053E+00 
    1.6765067119587340E+00 
    1.6375031614728093E+00 
    1.5938547573496378E+00 
    1.5461438713253928E+00 
    1.4953500318170829E+00 
    1.4429464012638089E+00 
    1.3893571496931996E+00 
    1.3333821083590385E+00 
    1.2878932417761684E+00 
    1.2643160738512229E+00 
    1.7747700069231926E+00 
    1.7686260034982559E+00 
    1.7563698223734807E+00 
    1.7380124438574642E+00 
    1.7136209324544762E+00 
    1.6832833722901546E+00 
    1.6469596977169070E+00 
    1.6046171815399772E+00 
    1.5562950461606677E+00 
    1.5022412385957111E+00 
    1.4429420955337366E+00 
    1.3793031970437890E+00 
    1.3113518682798440E+00 
    1.2377307518205920E+00 
    1.1760904743343239E+00 
    1.1430399714882133E+00 
    1.7526128470711517E+00 
    1.7462656209271401E+00 
    1.7335726593059229E+00 
    1.7144975414079791E+00 
    1.6889961652091003E+00 
    1.6569874063239567E+00 
    1.6182352803257614E+00 
    1.5724727328335297E+00 
    1.5193504734118579E+00 
    1.4584886264962942E+00 
    1.3894089190217780E+00 
    1.3114507350026456E+00 
    1.2230458309978940E+00 
    1.1249206030420242E+00 
    1.0393770148202734E+00 
    9.8872653843556069E-01 
    1.7326776615662340E+00 
    1.7261101032729560E+00 
    1.7129567527847125E+00 
    1.6931351030760526E+00 
    1.6664731934451116E+00 
    1.6327031114244883E+00 
    1.5914041400246250E+00 
    1.5419825786024217E+00 
    1.4834543554623776E+00 
    1.4145375182235900E+00 
    1.3335176680029868E+00 
    1.2378967971778552E+00 
    1.1249635354882044E+00 
    9.9795946544440839E-01 
    8.7430424632915871E-01 
    7.8378787788198379E-01 
    1.7189594525421059E+00 
    1.7122392859657201E+00 
    1.6987534689800787E+00 
    1.6783541351969402E+00 
    1.6507671014915106E+00 
    1.6155765624004550E+00 
    1.5721465544005275E+00 
    1.5195189005612457E+00 
    1.4561593433423359E+00 
    1.3799674053564084E+00 
    1.2880245758255697E+00 
    1.1761967095166390E+00 
    1.0393842788474044E+00 
    8.7426990359275814E-01 
    6.8120101529930854E-01 
    4.8834570239558678E-01 
    1.7121584663589640E+00 
    1.7053593556872715E+00 
    1.6916930278175704E+00 
    1.6709757001756400E+00 
    1.6428915402304749E+00 
    1.6069465371150347E+00 
    1.5623608407874354E+00 
    1.5079945571424924E+00 
    1.4421077132989135E+00 
    1.3621740446372177E+00 
    1.2644327928248904E+00 
    1.1431300697014453E+00 
    9.8875865296534393E-01 
    7.8378023873690061E-01 
    4.8834320343116894E-01 
    0.0000000000000000E+00 

SCALARS Saturarion double 1 
LOOKUP_TABLE default 

    1.0000000018178175E+00 
    9.6818644897851491E-01 
    9.1353892462754560E-01 
    8.5378803328928954E-01 
    7.9464284823561315E-01 
    7.3869344307528406E-01 
    6.8795909366269503E-01 
    6.4272885998060325E-01 
    6.0059879748127576E-01 
    5.5850749420259260E-01 
    5.1707954163243985E-01 
    4.7371651338448700E-01 
    3.6215955774093717E-01 
    2.6423743701836921E-02 
    1.0093041813739344E-06 
    1.0000000002508142E-06 
    9.6818375606627882E-01 
    9.4532215032454592E-01 
    8.9678284670119923E-01 
    8.4080855709831892E-01 
    7.8519858598774916E-01 
    7.3218201913487635E-01 
    6.8357490921171937E-01 
    6.3984846711944787E-01 
    5.9873203630432226E-01 
    5.5748838417926516E-01 
    5.1663857647639877E-01 
    4.7355016157593471E-01 
    3.6154649133888167E-01 
    2.5690859510175575E-02 
    1.0167579544679271E-06 
    1.0000000026482127E-06 
    9.1352620477018354E-01 
    8.9677201020828601E-01 
    8.5749780644434825E-01 
    8.1127785530630225E-01 
    7.6352860298173264E-01 
    7.1658161596460723E-01 
    6.7266223444266560E-01 
    6.3233258917162416E-01 
    5.9338717663331331E-01 
    5.5382974604980151E-01 
    5.1468296388206947E-01 
    4.7235799227949193E-01 
    3.5950094596649995E-01 
    2.4466636554421262E-02 
    1.6181865205529674E-05 
    1.0000016214934856E-06 
    8.5376000233943072E-01 
    8.4078544260826082E-01 
    8.1126266076240083E-01 
    7.7391551218200449E-01 
    7.3548511709116438E-01 
    6.9651002870489387E-01 
    6.5841673462308714E-01 
    6.2173877273906819E-01 
    5.8536477740747628E-01 
    5.4841951664403943E-01 
    5.1167424578451748E-01 
    4.7049387905884393E-01 
    3.5686153510993696E-01 
    2.3464525984858275E-02 
    1.6304538033060038E-05 
    1.0000007965028825E-06 
    7.9461582555418098E-01 
    7.8518254628138462E-01 
    7.6351278639136844E-01 
    7.3547200541975299E-01 
    7.0507358580295687E-01 
    6.7395916758182195E-01 
    6.4159803378551117E-01 
    6.0874350116288622E-01 
    5.7564013633233735E-01 
    5.4210541843636484E-01 
    5.0818624321944172E-01 
    4.6938104864048341E-01 
    3.6120945186042502E-01 
    2.9049595248865721E-02 
    4.8563547283304947E-05 
    1.0000002317824482E-06 
    7.3872091036714549E-01 
    7.3219050043488287E-01 
    7.1657362655627876E-01 
    6.9648969973809749E-01 
    6.7394385546364666E-01 
    6.4884154890674706E-01 
    6.2145661569087118E-01 
    5.9317713879313094E-01 
    5.6442003966391674E-01 
    5.3453785795154318E-01 
    5.0320408001728445E-01 
    4.6733828541750827E-01 
    3.6425430475439974E-01 
    3.1538625619421341E-02 
    5.1509149846257870E-05 
    1.0000000452751582E-06 
    6.8799095081622252E-01 
    6.8358348185820039E-01 
    6.7264742812499612E-01 
    6.5838463522304569E-01 
    6.4157353704590792E-01 
    6.2144403867408826E-01 
    5.9903473232470750E-01 
    5.7570094984042397E-01 
    5.5147766134787257E-01 
    5.2560740915258863E-01 
    4.9743599753976542E-01 
    4.6389226899283259E-01 
    3.6613723576231777E-01 
    3.6105180286105064E-02 
    8.5529876208694346E-05 
    1.0000002562932699E-06 
    6.4274644760737865E-01 
    6.3985094412506827E-01 
    6.3231439501348230E-01 
    6.2171653921392855E-01 
    6.0873618926891215E-01 
    5.9315626326289173E-01 
    5.7565683787916089E-01 
    5.5688203896887201E-01 
    5.3701573067053343E-01 
    5.1527552794175469E-01 
    4.9125070873438303E-01 
    4.6109095352727492E-01 
    3.7056301042338829E-01 
    4.3189241996723061E-02 
    1.4564109291550855E-04 
    1.0002203960796379E-06 
    6.0058758391160827E-01 
    5.9869745354733817E-01 
    5.9331415039539159E-01 
    5.8530091231231685E-01 
    5.7557424580504168E-01 
    5.6427305014602791E-01 
    5.5126830021046025E-01 
    5.3681741564548191E-01 
    5.2108367787578769E-01 
    5.0367643908831872E-01 
    4.8412891365204297E-01 
    4.5894055033838932E-01 
    3.8328130956087109E-01 
    6.5464109490263309E-02 
    4.6413858149130439E-04 
    1.0011312413514693E-06 
    5.5850243323607107E-01 
    5.5743307125403208E-01 
    5.5378445203176663E-01 
    5.4838254541330822E-01 
    5.4203059785385199E-01 
    5.3445581624828953E-01 
    5.2552495181398728E-01 
    5.1514390126521592E-01 
    5.0351375669433740E-01 
    4.9053713909382402E-01 
    4.7568817733202073E-01 
    4.5617383577469306E-01 
    3.9582352952065525E-01 
    9.3330725151440461E-02 
    3.2301105215996943E-04 
    1.0001279968366795E-06 
    5.1761896499269100E-01 
    5.1715860071657671E-01 
    5.1516111263658193E-01 
    5.1191836279957703E-01 
    5.0825295842457463E-01 
    5.0360276989194053E-01 
    4.9841961346852237E-01 
    4.9205771920160163E-01 
    4.8430705958708153E-01 
    4.7554079837564051E-01 
    4.6614272860113259E-01 
    4.5224084512876500E-01 
    4.0299950830142528E-01 
    1.2303439197631411E-01 
    2.0954309917683661E-04 
    1.0001921234007149E-06 
    4.7436993321589116E-01 
    4.7417915133578026E-01 
    4.7270727718877581E-01 
    4.7037414037873082E-01 
    4.6892679731146436E-01 
    4.6707459281066738E-01 
    4.6429622701747991E-01 
    4.6197153756486892E-01 
    4.5935848207133284E-01 
    4.5633482560123861E-01 
    4.5193335055252148E-01 
    4.4341772122676776E-01 
    4.0437168982515032E-01 
    1.5292118923455886E-01 
    2.9773437430288867E-04 
    1.0045233111966561E-06 
    3.6258006052583630E-01 
    3.6094709414698178E-01 
    3.5848346520500041E-01 
    3.5518007441581062E-01 
    3.5826398074085181E-01 
    3.6153389587725399E-01 
    3.6245256322206870E-01 
    3.6788735072475043E-01 
    3.8095660613192567E-01 
    3.9526166176763572E-01 
    4.0506159415788573E-01 
    4.0543893955642141E-01 
    3.8206168309625321E-01 
    1.4375065476286183E-01 
    1.0343412481044955E-03 
    1.0282770127185014E-06 
    2.6609339448596312E-02 
    2.6020776235798036E-02 
    2.3761329516075302E-02 
    2.2057988545332131E-02 
    2.7495421567490453E-02 
    2.8794787515943335E-02 
    3.1838326455168126E-02 
    4.0957713928704460E-02 
    6.7664578827593178E-02 
    9.3049633527964651E-02 
    1.2188559531852584E-01 
    1.5513236329706218E-01 
    1.4860023404710676E-01 
    2.4373207345139151E-02 
    1.0602352310910063E-04 
    1.0018384439803031E-06 
    3.3555673654461281E-05 
    1.1140891982650972E-06 
    1.0739233480573575E-06 
    1.0358336018450601E-06 
    1.0801278931326904E-06 
    1.0404333534296604E-06 
    2.7661580339768115E-05 
    1.3547091314640073E-06 
    7.9054346664711459E-06 
    8.8762999945794517E-06 
    5.9953605364004350E-06 
    2.3626222892029487E-05 
    1.0023241068124100E-03 
    1.3541756434819880E-04 
    1.0041883224000239E-06 
    1.0000000025165996E-06 
    1.0000073236340354E-06 
    1.0000000029690630E-06 
    1.0000000106216847E-06 
    1.0000000052102250E-06 
    1.0000000053504282E-06 
    1.0000000061539933E-06 
    1.0000055789936716E-06 
    1.0000000727422268E-06 
    1.0000047654095777E-06 
    1.0000152602643395E-06 
    1.0000063139810400E-06 
    1.0000541409785603E-06 
    1.0367552611723998E-06 
    1.0216888143068936E-06 
    1.0000000134899062E-06 
    1.0000002106235718E-06 
