# vtk DataFile Version 2.0
Pressure Field Data 
ASCII 
DATASET UNSTRUCTURED_GRID 

POINTS 289 double 

    0.0000000000000000E+00     0.0000000000000000E+00     0.0000000000000000E+00 
    1.0000000000000000E+00     0.0000000000000000E+00     0.0000000000000000E+00 
    1.0000000000000000E+00     1.0000000000000000E+00     0.0000000000000000E+00 
    0.0000000000000000E+00     1.0000000000000000E+00     0.0000000000000000E+00 
    6.2499999999872928E-02     0.0000000000000000E+00     0.0000000000000000E+00 
    1.2499999999977310E-01     0.0000000000000000E+00     0.0000000000000000E+00 
    1.8749999999959341E-01     0.0000000000000000E+00     0.0000000000000000E+00 
    2.4999999999941089E-01     0.0000000000000000E+00     0.0000000000000000E+00 
    3.1249999999922851E-01     0.0000000000000000E+00     0.0000000000000000E+00 
    3.7499999999904610E-01     0.0000000000000000E+00     0.0000000000000000E+00 
    4.3749999999886358E-01     0.0000000000000000E+00     0.0000000000000000E+00 
    4.9999999999869210E-01     0.0000000000000000E+00     0.0000000000000000E+00 
    5.6249999999884603E-01     0.0000000000000000E+00     0.0000000000000000E+00 
    6.2499999999901090E-01     0.0000000000000000E+00     0.0000000000000000E+00 
    6.8749999999917577E-01     0.0000000000000000E+00     0.0000000000000000E+00 
    7.4999999999934064E-01     0.0000000000000000E+00     0.0000000000000000E+00 
    8.1249999999950551E-01     0.0000000000000000E+00     0.0000000000000000E+00 
    8.7499999999967026E-01     0.0000000000000000E+00     0.0000000000000000E+00 
    9.3749999999983513E-01     0.0000000000000000E+00     0.0000000000000000E+00 
    1.0000000000000000E+00     6.2499999999872928E-02     0.0000000000000000E+00 
    1.0000000000000000E+00     1.2499999999977310E-01     0.0000000000000000E+00 
    1.0000000000000000E+00     1.8749999999959341E-01     0.0000000000000000E+00 
    1.0000000000000000E+00     2.4999999999941089E-01     0.0000000000000000E+00 
    1.0000000000000000E+00     3.1249999999922851E-01     0.0000000000000000E+00 
    1.0000000000000000E+00     3.7499999999904610E-01     0.0000000000000000E+00 
    1.0000000000000000E+00     4.3749999999886358E-01     0.0000000000000000E+00 
    1.0000000000000000E+00     4.9999999999869210E-01     0.0000000000000000E+00 
    1.0000000000000000E+00     5.6249999999884603E-01     0.0000000000000000E+00 
    1.0000000000000000E+00     6.2499999999901090E-01     0.0000000000000000E+00 
    1.0000000000000000E+00     6.8749999999917577E-01     0.0000000000000000E+00 
    1.0000000000000000E+00     7.4999999999934064E-01     0.0000000000000000E+00 
    1.0000000000000000E+00     8.1249999999950551E-01     0.0000000000000000E+00 
    1.0000000000000000E+00     8.7499999999967026E-01     0.0000000000000000E+00 
    1.0000000000000000E+00     9.3749999999983513E-01     0.0000000000000000E+00 
    9.3749999999973976E-01     1.0000000000000000E+00     0.0000000000000000E+00 
    8.7499999999950118E-01     1.0000000000000000E+00     0.0000000000000000E+00 
    8.1249999999991318E-01     1.0000000000000000E+00     0.0000000000000000E+00 
    7.5000000000034706E-01     1.0000000000000000E+00     0.0000000000000000E+00 
    6.8750000000078049E-01     1.0000000000000000E+00     0.0000000000000000E+00 
    6.2500000000121403E-01     1.0000000000000000E+00     0.0000000000000000E+00 
    5.6250000000164757E-01     1.0000000000000000E+00     0.0000000000000000E+00 
    5.0000000000205946E-01     1.0000000000000000E+00     0.0000000000000000E+00 
    4.3750000000182099E-01     1.0000000000000000E+00     0.0000000000000000E+00 
    3.7500000000156092E-01     1.0000000000000000E+00     0.0000000000000000E+00 
    3.1250000000130068E-01     1.0000000000000000E+00     0.0000000000000000E+00 
    2.5000000000104050E-01     1.0000000000000000E+00     0.0000000000000000E+00 
    1.8750000000078040E-01     1.0000000000000000E+00     0.0000000000000000E+00 
    1.2500000000052031E-01     1.0000000000000000E+00     0.0000000000000000E+00 
    6.2500000000260125E-02     1.0000000000000000E+00     0.0000000000000000E+00 
    0.0000000000000000E+00     9.3749999999973976E-01     0.0000000000000000E+00 
    0.0000000000000000E+00     8.7499999999950118E-01     0.0000000000000000E+00 
    0.0000000000000000E+00     8.1249999999991318E-01     0.0000000000000000E+00 
    0.0000000000000000E+00     7.5000000000034706E-01     0.0000000000000000E+00 
    0.0000000000000000E+00     6.8750000000078049E-01     0.0000000000000000E+00 
    0.0000000000000000E+00     6.2500000000121403E-01     0.0000000000000000E+00 
    0.0000000000000000E+00     5.6250000000164757E-01     0.0000000000000000E+00 
    0.0000000000000000E+00     5.0000000000205946E-01     0.0000000000000000E+00 
    0.0000000000000000E+00     4.3750000000182099E-01     0.0000000000000000E+00 
    0.0000000000000000E+00     3.7500000000156092E-01     0.0000000000000000E+00 
    0.0000000000000000E+00     3.1250000000130068E-01     0.0000000000000000E+00 
    0.0000000000000000E+00     2.5000000000104050E-01     0.0000000000000000E+00 
    0.0000000000000000E+00     1.8750000000078040E-01     0.0000000000000000E+00 
    0.0000000000000000E+00     1.2500000000052031E-01     0.0000000000000000E+00 
    0.0000000000000000E+00     6.2500000000260125E-02     0.0000000000000000E+00 
    6.2499999999897131E-02     6.2500000000235922E-02     0.0000000000000000E+00 
    6.2499999999921327E-02     1.2500000000047351E-01     0.0000000000000000E+00 
    6.2499999999945530E-02     1.8750000000070621E-01     0.0000000000000000E+00 
    6.2499999999969733E-02     2.5000000000093858E-01     0.0000000000000000E+00 
    6.2499999999993928E-02     3.1250000000117117E-01     0.0000000000000000E+00 
    6.2500000000018124E-02     3.7500000000140382E-01     0.0000000000000000E+00 
    6.2500000000042327E-02     4.3750000000163619E-01     0.0000000000000000E+00 
    6.2500000000066530E-02     5.0000000000184897E-01     0.0000000000000000E+00 
    6.2500000000090733E-02     5.6250000000147260E-01     0.0000000000000000E+00 
    6.2500000000114922E-02     6.2500000000107636E-01     0.0000000000000000E+00 
    6.2500000000139125E-02     6.8750000000068034E-01     0.0000000000000000E+00 
    6.2500000000163328E-02     7.5000000000028411E-01     0.0000000000000000E+00 
    6.2500000000187531E-02     8.1249999999988787E-01     0.0000000000000000E+00 
    6.2500000000211720E-02     8.7499999999951172E-01     0.0000000000000000E+00 
    6.2500000000235922E-02     9.3749999999974565E-01     0.0000000000000000E+00 
    1.2499999999981980E-01     6.2500000000211733E-02     0.0000000000000000E+00 
    1.2499999999986650E-01     1.2500000000042691E-01     0.0000000000000000E+00 
    1.2499999999991319E-01     1.8750000000063199E-01     0.0000000000000000E+00 
    1.2499999999995989E-01     2.5000000000083678E-01     0.0000000000000000E+00 
    1.2500000000000661E-01     3.1250000000104172E-01     0.0000000000000000E+00 
    1.2500000000005329E-01     3.7500000000124661E-01     0.0000000000000000E+00 
    1.2500000000010000E-01     4.3750000000145117E-01     0.0000000000000000E+00 
    1.2500000000014669E-01     5.0000000000163858E-01     0.0000000000000000E+00 
    1.2500000000019340E-01     5.6250000000129741E-01     0.0000000000000000E+00 
    1.2500000000024011E-01     6.2500000000093847E-01     0.0000000000000000E+00 
    1.2500000000028680E-01     6.8750000000057998E-01     0.0000000000000000E+00 
    1.2500000000033351E-01     7.5000000000022127E-01     0.0000000000000000E+00 
    1.2500000000038020E-01     8.1249999999986211E-01     0.0000000000000000E+00 
    1.2500000000042691E-01     8.7499999999952238E-01     0.0000000000000000E+00 
    1.2500000000047359E-01     9.3749999999975164E-01     0.0000000000000000E+00 
    1.8749999999966760E-01     6.2500000000187531E-02     0.0000000000000000E+00 
    1.8749999999974179E-01     1.2500000000038020E-01     0.0000000000000000E+00 
    1.8749999999981601E-01     1.8750000000055780E-01     0.0000000000000000E+00 
    1.8749999999989009E-01     2.5000000000073502E-01     0.0000000000000000E+00 
    1.8749999999996431E-01     3.1250000000091221E-01     0.0000000000000000E+00 
    1.8750000000003850E-01     3.7500000000108941E-01     0.0000000000000000E+00 
    1.8750000000011269E-01     4.3750000000126649E-01     0.0000000000000000E+00 
    1.8750000000018691E-01     5.0000000000142808E-01     0.0000000000000000E+00 
    1.8750000000026110E-01     5.6250000000112244E-01     0.0000000000000000E+00 
    1.8750000000033529E-01     6.2500000000080080E-01     0.0000000000000000E+00 
    1.8750000000040951E-01     6.8750000000047962E-01     0.0000000000000000E+00 
    1.8750000000048361E-01     7.5000000000015843E-01     0.0000000000000000E+00 
    1.8750000000055780E-01     8.1249999999983680E-01     0.0000000000000000E+00 
    1.8750000000063199E-01     8.7499999999953304E-01     0.0000000000000000E+00 
    1.8750000000070621E-01     9.3749999999975764E-01     0.0000000000000000E+00 
    2.4999999999951281E-01     6.2500000000163314E-02     0.0000000000000000E+00 
    2.4999999999961461E-01     1.2500000000033351E-01     0.0000000000000000E+00 
    2.4999999999971650E-01     1.8750000000048361E-01     0.0000000000000000E+00 
    2.4999999999981831E-01     2.5000000000063310E-01     0.0000000000000000E+00 
    2.4999999999992020E-01     3.1250000000078260E-01     0.0000000000000000E+00 
    2.5000000000002198E-01     3.7500000000093209E-01     0.0000000000000000E+00 
    2.5000000000012390E-01     4.3750000000108180E-01     0.0000000000000000E+00 
    2.5000000000022571E-01     5.0000000000121769E-01     0.0000000000000000E+00 
    2.5000000000032763E-01     5.6250000000094724E-01     0.0000000000000000E+00 
    2.5000000000042938E-01     6.2500000000066314E-01     0.0000000000000000E+00 
    2.5000000000053119E-01     6.8750000000037925E-01     0.0000000000000000E+00 
[...]
CELL_DATA 256 
SCALARS Pressure double 1 
LOOKUP_TABLE default 

    2.7118874750645041E+00 
    2.5965817628265353E+00 
    2.5077718364400274E+00 
    2.4254352484983555E+00 
    2.3469899801395298E+00 
    2.2714360649760597E+00 
    2.1901475511656354E+00 
    2.1040005163932896E+00 
    2.0300693164059704E+00 
    1.9679713724450998E+00 
    1.9157453385915992E+00 
    1.8727173213537973E+00 
    1.8384986015473013E+00 
    1.8129021733452313E+00 
    1.7958546359944108E+00 
    1.7873381263474433E+00 
    2.5965946488017968E+00 
    2.5421380490272094E+00 
    2.4748930777253801E+00 
    2.4027005963873949E+00 
    2.3296560195503808E+00 
    2.2568022371790355E+00 
    2.1760047221557315E+00 
    2.0908084831485305E+00 
    2.0190857264410971E+00 
    1.9581196244138892E+00 
    1.9065745411045179E+00 
    1.8639262050795602E+00 
    1.8298923460199770E+00 
    1.8043672390971406E+00 
    1.7873360633944182E+00 
    1.7788230359275907E+00 
    2.5077982648260080E+00 
    2.4749093632796608E+00 
    2.4240429072022973E+00 
    2.3633983825631235E+00 
    2.2975563317455778E+00 
    2.2277720677291142E+00 
    2.1475798073749006E+00 
    2.0658044569475722E+00 
    1.9977862039930530E+00 
    1.9388864930147585E+00 
    1.8885524562309381E+00 
    1.8465535188361744E+00 
    1.8128113165981825E+00 
    1.7873728543343836E+00 
    1.7703367107253030E+00 
    1.7618057743380262E+00 
    2.4254534983458105E+00 
    2.4027249663286545E+00 
    2.3634244747240349E+00 
    2.3124800706925277E+00 
    2.2532449741625666E+00 
    2.1848008344852787E+00 
    2.1061763804011604E+00 
    2.0313297625106355E+00 
    1.9674992495342409E+00 
    1.9111286549376829E+00 
    1.8622417777363132E+00 
    1.8209546922556139E+00 
    1.7874585584615026E+00 
    1.7620110533156923E+00 
    1.7448740942483674E+00 
    1.7362655529157642E+00 
    2.3469296711175138E+00 
    2.3296487560616517E+00 
    2.2975987024064222E+00 
    2.2532800236017305E+00 
    2.1972042487911914E+00 
    2.1286782254357992E+00 
    2.0559377311000238E+00 
    1.9895665938097986E+00 
    1.9298050910643934E+00 
    1.8759289610641048E+00 
    1.8283713547238933E+00 
    1.7875904273134990E+00 
    1.7540865412746285E+00 
    1.7283753929533197E+00 
    1.7109313153122583E+00 
    1.7021273226052691E+00 
    2.2714435469406746E+00 
    2.2569320080443931E+00 
    2.2279149707378330E+00 
    2.1848914966638930E+00 
    2.1287016595099568E+00 
    2.0646637503494838E+00 
    2.0017778874568246E+00 
    1.9423580395644160E+00 
    1.8862707423850962E+00 
    1.8344544945478447E+00 
    1.7877479338602307E+00 
    1.7469687563958474E+00 
    1.7129467576512354E+00 
    1.6865064710995930E+00 
    1.6683963152004353E+00 
    1.6591991139166882E+00 
    2.1902993346106183E+00 
    2.1762359426467737E+00 
    2.1477487784926410E+00 
    2.1062672024821634E+00 
    2.0559491736589250E+00 
    2.0017795376142393E+00 
    1.9468035781123449E+00 
    1.8918966783163107E+00 
    1.8385098896120811E+00 
    1.7878957411327911E+00 
    1.7412155001329352E+00 
    1.6996039213318490E+00 
    1.6642448655540454E+00 
    1.6363306945042155E+00 
    1.6169741730051719E+00 
    1.6070634281956524E+00 
    2.1043457250385877E+00 
    2.0910250024981520E+00 
    2.0659017287823063E+00 
    2.0313883732860192E+00 
    1.9895891854244150E+00 
    1.9423798837641324E+00 
    1.8919146522457957E+00 
    1.8399582585323693E+00 
    1.7880119929246341E+00 
    1.7374543352391485E+00 
    1.6896503544412649E+00 
    1.6460287114921481E+00 
    1.6081388657522639E+00 
    1.5776375035848662E+00 
    1.5561472105805121E+00 
    1.5450213281979497E+00 
    2.0305614157076670E+00 
    2.0194389205645975E+00 
    1.9979885323354598E+00 
    1.9676219915562208E+00 
    1.9298909862810620E+00 
    1.8863380411871746E+00 
    1.8385610281530074E+00 
    1.7880406817284560E+00 
    1.7361599773526060E+00 
    1.6843003297920012E+00 
    1.6339400444665517E+00 
    1.5867388877648871E+00 
    1.5446568427408667E+00 
    1.5099467478915154E+00 
    1.4849776839380584E+00 
    1.4718557728478778E+00 
    1.9683737866692477E+00 
    1.9584563351350344E+00 
    1.9391397538502271E+00 
    1.9113173777538321E+00 
    1.8760736981503201E+00 
    1.8345684301554883E+00 
    1.7879860993382326E+00 
    1.7375175602189423E+00 
    1.6843331962009960E+00 
    1.6297019064531253E+00 
    1.5750909975790850E+00 
    1.5223304981981429E+00 
    1.4737988306127319E+00 
    1.4325135808159610E+00 
    1.4019700296763382E+00 
    1.3855732508691396E+00 
    1.9161136380227690E+00 
    1.9069073868521500E+00 
    1.8888345792531926E+00 
    1.8624750951294582E+00 
    1.8285636302401556E+00 
    1.7879062620957060E+00 
    1.7413439628543521E+00 
    1.6897490153674917E+00 
    1.6340075550755124E+00 
    1.5751256125010127E+00 
    1.5143940324834604E+00 
    1.4536732287559477E+00 
    1.3956766745064486E+00 
    1.3443195858307349E+00 
    1.3047927957328453E+00 
    1.2828792755594176E+00 
    1.8730757638774687E+00 
    1.8642627986556957E+00 
    1.8468560894988952E+00 
    1.8212194889579987E+00 
    1.7878185884310074E+00 
    1.7471629357737257E+00 
    1.6997663749750489E+00 
    1.6461601573648990E+00 
    1.5868382620773307E+00 
    1.5223963838454619E+00 
    1.4537048019208203E+00 
    1.3823273950588009E+00 
    1.3109617549385881E+00 
    1.2443446220333330E+00 
    1.1900518852096462E+00 
    1.1582977518191833E+00 
    1.8388567314351216E+00 
    1.8302352345927200E+00 
    1.8131289871616072E+00 
    1.7877455126405788E+00 
    1.7543409234075424E+00 
    1.7131687297205269E+00 
    1.6644353600014723E+00 
    1.6082980031187215E+00 
    1.5447835546671462E+00 
    1.4738919586221688E+00 
    1.3957355779736869E+00 
    1.3109891502290916E+00 
    1.2215211728556119E+00 
    1.1320649864309129E+00 
    1.0527999797846279E+00 
    1.0019741761953835E+00 
    1.8132614958390456E+00 
    1.8047147656426124E+00 
    1.7877000445182987E+00 
    1.7623121006000042E+00 
    1.7286472451032970E+00 
    1.6867479394450793E+00 
    1.6365414956381048E+00 
    1.5778169895085130E+00 
    1.5100937786732291E+00 
    1.4326271634584955E+00 
    1.3443992842279355E+00 
    1.2443931844386835E+00 
    1.1320864345284611E+00 
    1.0096061694144840E+00 
    8.8712989323029923E-01 
    7.9483314339159594E-01 
    1.7962118170239521E+00 
    1.7876834063964857E+00 
    1.7706666079967472E+00 
    1.7451808560062376E+00 
    1.7112113720148436E+00 
    1.6686477181657993E+00 
    1.6171956455798939E+00 
    1.5563375638033208E+00 
    1.4851358366679415E+00 
    1.4020951463716205E+00 
    1.3048847639417929E+00 
    1.1901135324899348E+00 
    1.0528352483286754E+00 
    8.8714420448389042E-01 
    6.9127634716009301E-01 
    4.9538413666793435E-01 
    1.7876869055765034E+00 
    1.7791632331973490E+00 
    1.7621302539308719E+00 
    1.7365687022288996E+00 
    1.7024052641445580E+00 
    1.6594495244343512E+00 
    1.6072843808477457E+00 
    1.5452114680237712E+00 
    1.4720141376260074E+00 
    1.3856991081299594E+00 
    1.2829733552451883E+00 
    1.1583629345965287E+00 
    1.0020143523368987E+00 
    7.9485353326922770E-01 
    4.9539094737687794E-01 
    0.0000000000000000E+00 

SCALARS Saturarion double 1 
LOOKUP_TABLE default 

    1.0000000057806484E+00 
    9.0012778268531635E-01 
    7.5646060455788111E-01 
    6.4722184601394173E-01 
    5.7173645818582464E-01 
    5.0599923614259734E-01 
    3.9704243653517002E-01 
    4.2897550905140781E-02 
    1.0000138945722906E-06 
    1.0000000000046929E-06 
    9.9999999999999995E-07 
    9.9999999999999995E-07 
    9.9999999999999995E-07 
    9.9999999999999995E-07 
    9.9999999999999995E-07 
    9.9999999999999995E-07 
    9.0011523219272160E-01 
    8.3634947372915458E-01 
    7.2146420985801574E-01 
    6.3232082934442235E-01 
    5.6030337904207039E-01 
    4.9760576965927006E-01 
    3.6790520241021729E-01 
    1.5764313149116818E-02 
    1.9909091570778136E-05 
    1.0000005986460958E-06 
    1.0000000000000423E-06 
    9.9999999999999995E-07 
    9.9999999999999995E-07 
    9.9999999999999995E-07 
    9.9999999999999995E-07 
    9.9999999999999995E-07 
    7.5646058595417365E-01 
    7.2144353173268427E-01 
    6.6243941378880844E-01 
    5.9662332810752883E-01 
    5.3411959750673865E-01 
    4.7443275867314838E-01 
    2.5425568779402852E-01 
    9.9788653697961910E-04 
    1.1343077416056818E-06 
    1.0000000122883139E-06 
    9.9999999999999868E-07 
    9.9999999999999995E-07 
    9.9999999999999995E-07 
    9.9999999999999995E-07 
    9.9999999999999995E-07 
    9.9999999999999995E-07 
    6.4715170542084155E-01 
    6.3224791283849369E-01 
    5.9652449084508186E-01 
    5.4610264704732736E-01 
    4.9408361957062147E-01 
    4.1532802678373415E-01 
    9.1127935822737580E-02 
    2.9395383128777544E-04 
    1.0152261073137141E-06 
    1.0000000006429547E-06 
    9.9999999999999995E-07 
    9.9999999999999995E-07 
    9.9999999999999995E-07 
    9.9999999999999995E-07 
    9.9999999999999995E-07 
    9.9999999999999995E-07 
    5.7146172411557195E-01 
    5.6001737642519978E-01 
    5.3344629633446661E-01 
    4.9337706125351860E-01 
    4.3449231937114413E-01 
    2.2519262874027232E-01 
    3.3150026574097860E-03 
    1.9154351139888111E-06 
    1.0000005500259356E-06 
    1.0000000000001454E-06 
    9.9999999999999995E-07 
    9.9999999999999995E-07 
    9.9999999999999995E-07 
    9.9999999999999995E-07 
    9.9999999999999995E-07 
    9.9999999999999995E-07 
    5.0783524574013073E-01 
    4.9972796521869856E-01 
    4.7431032252794036E-01 
    4.1352422456616211E-01 
    2.2501697667296333E-01 
    1.3943156963500077E-02 
    6.1107358605812928E-05 
    1.0007520287611324E-06 
    1.0000000000011568E-06 
    9.9999999999999995E-07 
    9.9999999999999995E-07 
    9.9999999999999995E-07 
    9.9999999999999995E-07 
    9.9999999999999995E-07 
    9.9999999999999995E-07 
    9.9999999999999995E-07 
    3.9948717958934848E-01 
    3.5667539728185005E-01 
    2.5378942829642265E-01 
    9.4819326696538975E-02 
    4.9052906841810639E-03 
    5.8343216728072534E-05 
    1.0002197267048679E-06 
    1.0000000000214993E-06 
    9.9999999999999995E-07 
    9.9999999999999995E-07 
    9.9999999999999995E-07 
    9.9999999999999995E-07 
    9.9999999999999995E-07 
    9.9999999999999995E-07 
    9.9999999999999995E-07 
    9.9999999999999995E-07 
    3.8782005962406267E-02 
    1.6645903822345043E-02 
    2.3761520373467597E-03 
    9.2526775771941544E-04 
    3.5203687683857011E-06 
    1.0007545229450165E-06 
    1.0000000000143902E-06 
    1.0000000000000002E-06 
    9.9999999999999995E-07 
    9.9999999999999995E-07 
    9.9999999999999995E-07 
    9.9999999999999995E-07 
    9.9999999999999995E-07 
    9.9999999999999995E-07 
    9.9999999999999995E-07 
    9.9999999999999995E-07 
    1.0012389349919940E-06 
    9.9943902680745417E-06 
    1.6556403002313683E-06 
    1.0630681517009304E-06 
    1.0000003958940316E-06 
    1.0000000000013565E-06 
    9.9999999999999995E-07 
    9.9999999999999995E-07 
    9.9999999999999995E-07 
    9.9999999999999995E-07 
    9.9999999999999995E-07 
    9.9999999999999995E-07 
    9.9999999999999995E-07 
    9.9999999999999995E-07 
    9.9999999999999995E-07 
    9.9999999999999995E-07 
    1.0000000012761167E-06 
    1.0000174495197592E-06 
    1.0000001856795232E-06 
    1.0000000101671918E-06 
    1.0000000000001941E-06 
    9.9999999999999995E-07 
    9.9999999999999995E-07 
    9.9999999999999995E-07 
    9.9999999999999995E-07 
    9.9999999999999995E-07 
    9.9999999999999995E-07 
    9.9999999999999995E-07 
    9.9999999999999995E-07 
    9.9999999999999995E-07 
    9.9999999999999995E-07 
    9.9999999999999995E-07 
    1.0000000000000002E-06 
    1.0000000000010708E-06 
    1.0000000000000144E-06 
    1.0000000000000021E-06 
    9.9999999999999995E-07 
    9.9999999999999995E-07 
    9.9999999999999995E-07 
    9.9999999999999995E-07 
    9.9999999999999995E-07 
    9.9999999999999995E-07 
    9.9999999999999995E-07 
    9.9999999999999995E-07 
    9.9999999999999995E-07 
    9.9999999999999995E-07 
    9.9999999999999995E-07 
    9.9999999999999995E-07 
    9.9999999999999995E-07 
    9.9999999999999995E-07 
    9.9999999999999995E-07 
    9.9999999999999995E-07 
    9.9999999999999995E-07 
    9.9999999999999995E-07 
    9.9999999999999995E-07 
    9.9999999999999995E-07 
    9.9999999999999995E-07 
    9.9999999999999995E-07 
    9.9999999999999995E-07 
    9.9999999999999995E-07 
    9.9999999999999995E-07 
    9.9999999999999995E-07 
    9.9999999999999995E-07 
    9.9999999999999995E-07 
    9.9999999999999995E-07 
    9.9999999999999995E-07 
    9.9999999999999995E-07 
    9.9999999999999995E-07 
    9.9999999999999995E-07 
    9.9999999999999995E-07 
    9.9999999999999995E-07 
    9.9999999999999995E-07 
    9.9999999999999995E-07 
    9.9999999999999995E-07 
    9.9999999999999995E-07 
    9.9999999999999995E-07 
    9.9999999999999995E-07 
    9.9999999999999995E-07 
    9.9999999999999995E-07 
    9.9999999999999995E-07 
    9.9999999999999995E-07 
    9.9999999999999995E-07 
    9.9999999999999995E-07 
    9.9999999999999995E-07 
    9.9999999999999995E-07 
    9.9999999999999995E-07 
    9.9999999999999995E-07 
    9.9999999999999995E-07 
    9.9999999999999995E-07 
    9.9999999999999995E-07 
    9.9999999999999995E-07 
    9.9999999999999995E-07 
    9.9999999999999995E-07 
    9.9999999999999995E-07 
    9.9999999999999995E-07 
    9.9999999999999995E-07 
    9.9999999999999995E-07 
    9.9999999999999995E-07 
    9.9999999999999995E-07 
    9.9999999999999995E-07 
    9.9999999999999995E-07 
    9.9999999999999995E-07 
    9.9999999999999995E-07 
    9.9999999999999995E-07 
    9.9999999999999995E-07 
    9.9999999999999995E-07 
    9.9999999999999995E-07 
    9.9999999999999995E-07 
    9.9999999999999995E-07 
    9.9999999999999995E-07 
    9.9999999999999995E-07 
    9.9999999999999995E-07 
    9.9999999999999995E-07 
    9.9999999999999995E-07 
    9.9999999999999995E-07 
    9.9999999999999995E-07 
    9.9999999999999995E-07 
    9.9999999999999995E-07 
    9.9999999999999995E-07 
    9.9999999999999995E-07 
    9.9999999999999995E-07 
    9.9999999999999995E-07 
    9.9999999999999995E-07 
    9.9999999999999995E-07 
    9.9999999999999995E-07 
    9.9999999999999995E-07 
    9.9999999999999995E-07 
    1.0000000472174243E-06 
