# vtk DataFile Version 2.0
Pressure Field Data 
ASCII 
DATASET UNSTRUCTURED_GRID 

POINTS 289 double 

    0.0000000000000000E+00     0.0000000000000000E+00     0.0000000000000000E+00 
    1.0000000000000000E+00     0.0000000000000000E+00     0.0000000000000000E+00 
    1.0000000000000000E+00     1.0000000000000000E+00     0.0000000000000000E+00 
    0.0000000000000000E+00     1.0000000000000000E+00     0.0000000000000000E+00 
    6.2499999999872928E-02     0.0000000000000000E+00     0.0000000000000000E+00 
    1.2499999999977310E-01     0.0000000000000000E+00     0.0000000000000000E+00 
    1.8749999999959341E-01     0.0000000000000000E+00     0.0000000000000000E+00 
    2.4999999999941089E-01     0.0000000000000000E+00     0.0000000000000000E+00 
    3.1249999999922851E-01     0.0000000000000000E+00     0.0000000000000000E+00 
    3.7499999999904610E-01     0.0000000000000000E+00     0.0000000000000000E+00 
    4.3749999999886358E-01     0.0000000000000000E+00     0.0000000000000000E+00 
    4.9999999999869210E-01     0.0000000000000000E+00     0.0000000000000000E+00 
    5.6249999999884603E-01     0.0000000000000000E+00     0.0000000000000000E+00 
    6.2499999999901090E-01     0.0000000000000000E+00     0.0000000000000000E+00 
    6.8749999999917577E-01     0.0000000000000000E+00     0.0000000000000000E+00 
    7.4999999999934064E-01     0.0000000000000000E+00     0.0000000000000000E+00 
    8.1249999999950551E-01     0.0000000000000000E+00     0.0000000000000000E+00 
    8.7499999999967026E-01     0.0000000000000000E+00     0.0000000000000000E+00 
    9.3749999999983513E-01     0.0000000000000000E+00     0.0000000000000000E+00 
    1.0000000000000000E+00     6.2499999999872928E-02     0.0000000000000000E+00 
    1.0000000000000000E+00     1.2499999999977310E-01     0.0000000000000000E+00 
    1.0000000000000000E+00     1.8749999999959341E-01     0.0000000000000000E+00 
    1.0000000000000000E+00     2.4999999999941089E-01     0.0000000000000000E+00 
    1.0000000000000000E+00     3.1249999999922851E-01     0.0000000000000000E+00 
    1.0000000000000000E+00     3.7499999999904610E-01     0.0000000000000000E+00 
    1.0000000000000000E+00     4.3749999999886358E-01     0.0000000000000000E+00 
    1.0000000000000000E+00     4.9999999999869210E-01     0.0000000000000000E+00 
    1.0000000000000000E+00     5.6249999999884603E-01     0.0000000000000000E+00 
    1.0000000000000000E+00     6.2499999999901090E-01     0.0000000000000000E+00 
    1.0000000000000000E+00     6.8749999999917577E-01     0.0000000000000000E+00 
    1.0000000000000000E+00     7.4999999999934064E-01     0.0000000000000000E+00 
    1.0000000000000000E+00     8.1249999999950551E-01     0.0000000000000000E+00 
    1.0000000000000000E+00     8.7499999999967026E-01     0.0000000000000000E+00 
    1.0000000000000000E+00     9.3749999999983513E-01     0.0000000000000000E+00 
    9.3749999999973976E-01     1.0000000000000000E+00     0.0000000000000000E+00 
    8.7499999999950118E-01     1.0000000000000000E+00     0.0000000000000000E+00 
    8.1249999999991318E-01     1.0000000000000000E+00     0.0000000000000000E+00 
    7.5000000000034706E-01     1.0000000000000000E+00     0.0000000000000000E+00 
    6.8750000000078049E-01     1.0000000000000000E+00     0.0000000000000000E+00 
    6.2500000000121403E-01     1.0000000000000000E+00     0.0000000000000000E+00 
    5.6250000000164757E-01     1.0000000000000000E+00     0.0000000000000000E+00 
    5.0000000000205946E-01     1.0000000000000000E+00     0.0000000000000000E+00 
    4.3750000000182099E-01     1.0000000000000000E+00     0.0000000000000000E+00 
    3.7500000000156092E-01     1.0000000000000000E+00     0.0000000000000000E+00 
    3.1250000000130068E-01     1.0000000000000000E+00     0.0000000000000000E+00 
    2.5000000000104050E-01     1.0000000000000000E+00     0.0000000000000000E+00 
    1.8750000000078040E-01     1.0000000000000000E+00     0.0000000000000000E+00 
    1.2500000000052031E-01     1.0000000000000000E+00     0.0000000000000000E+00 
    6.2500000000260125E-02     1.0000000000000000E+00     0.0000000000000000E+00 
    0.0000000000000000E+00     9.3749999999973976E-01     0.0000000000000000E+00 
    0.0000000000000000E+00     8.7499999999950118E-01     0.0000000000000000E+00 
    0.0000000000000000E+00     8.1249999999991318E-01     0.0000000000000000E+00 
    0.0000000000000000E+00     7.5000000000034706E-01     0.0000000000000000E+00 
    0.0000000000000000E+00     6.8750000000078049E-01     0.0000000000000000E+00 
    0.0000000000000000E+00     6.2500000000121403E-01     0.0000000000000000E+00 
    0.0000000000000000E+00     5.6250000000164757E-01     0.0000000000000000E+00 
    0.0000000000000000E+00     5.0000000000205946E-01     0.0000000000000000E+00 
    0.0000000000000000E+00     4.3750000000182099E-01     0.0000000000000000E+00 
    0.0000000000000000E+00     3.7500000000156092E-01     0.0000000000000000E+00 
    0.0000000000000000E+00     3.1250000000130068E-01     0.0000000000000000E+00 
    0.0000000000000000E+00     2.5000000000104050E-01     0.0000000000000000E+00 
    0.0000000000000000E+00     1.8750000000078040E-01     0.0000000000000000E+00 
    0.0000000000000000E+00     1.2500000000052031E-01     0.0000000000000000E+00 
    0.0000000000000000E+00     6.2500000000260125E-02     0.0000000000000000E+00 
    6.2499999999897131E-02     6.2500000000235922E-02     0.0000000000000000E+00 
    6.2499999999921327E-02     1.2500000000047351E-01     0.0000000000000000E+00 
    6.2499999999945530E-02     1.8750000000070621E-01     0.0000000000000000E+00 
    6.2499999999969733E-02     2.5000000000093858E-01     0.0000000000000000E+00 
    6.2499999999993928E-02     3.1250000000117117E-01     0.0000000000000000E+00 
    6.2500000000018124E-02     3.7500000000140382E-01     0.0000000000000000E+00 
    6.2500000000042327E-02     4.3750000000163619E-01     0.0000000000000000E+00 
    6.2500000000066530E-02     5.0000000000184897E-01     0.0000000000000000E+00 
    6.2500000000090733E-02     5.6250000000147260E-01     0.0000000000000000E+00 
    6.2500000000114922E-02     6.2500000000107636E-01     0.0000000000000000E+00 
    6.2500000000139125E-02     6.8750000000068034E-01     0.0000000000000000E+00 
    6.2500000000163328E-02     7.5000000000028411E-01     0.0000000000000000E+00 
    6.2500000000187531E-02     8.1249999999988787E-01     0.0000000000000000E+00 
    6.2500000000211720E-02     8.7499999999951172E-01     0.0000000000000000E+00 
    6.2500000000235922E-02     9.3749999999974565E-01     0.0000000000000000E+00 
    1.2499999999981980E-01     6.2500000000211733E-02     0.0000000000000000E+00 
    1.2499999999986650E-01     1.2500000000042691E-01     0.0000000000000000E+00 
    1.2499999999991319E-01     1.8750000000063199E-01     0.0000000000000000E+00 
    1.2499999999995989E-01     2.5000000000083678E-01     0.0000000000000000E+00 
    1.2500000000000661E-01     3.1250000000104172E-01     0.0000000000000000E+00 
    1.2500000000005329E-01     3.7500000000124661E-01     0.0000000000000000E+00 
    1.2500000000010000E-01     4.3750000000145117E-01     0.0000000000000000E+00 
    1.2500000000014669E-01     5.0000000000163858E-01     0.0000000000000000E+00 
    1.2500000000019340E-01     5.6250000000129741E-01     0.0000000000000000E+00 
    1.2500000000024011E-01     6.2500000000093847E-01     0.0000000000000000E+00 
    1.2500000000028680E-01     6.8750000000057998E-01     0.0000000000000000E+00 
    1.2500000000033351E-01     7.5000000000022127E-01     0.0000000000000000E+00 
    1.2500000000038020E-01     8.1249999999986211E-01     0.0000000000000000E+00 
    1.2500000000042691E-01     8.7499999999952238E-01     0.0000000000000000E+00 
    1.2500000000047359E-01     9.3749999999975164E-01     0.0000000000000000E+00 
    1.8749999999966760E-01     6.2500000000187531E-02     0.0000000000000000E+00 
    1.8749999999974179E-01     1.2500000000038020E-01     0.0000000000000000E+00 
    1.8749999999981601E-01     1.8750000000055780E-01     0.0000000000000000E+00 
    1.8749999999989009E-01     2.5000000000073502E-01     0.0000000000000000E+00 
    1.8749999999996431E-01     3.1250000000091221E-01     0.0000000000000000E+00 
    1.8750000000003850E-01     3.7500000000108941E-01     0.0000000000000000E+00 
    1.8750000000011269E-01     4.3750000000126649E-01     0.0000000000000000E+00 
    1.8750000000018691E-01     5.0000000000142808E-01     0.0000000000000000E+00 
    1.8750000000026110E-01     5.6250000000112244E-01     0.0000000000000000E+00 
    1.8750000000033529E-01     6.2500000000080080E-01     0.0000000000000000E+00 
    1.8750000000040951E-01     6.8750000000047962E-01     0.0000000000000000E+00 
    1.8750000000048361E-01     7.5000000000015843E-01     0.0000000000000000E+00 
    1.8750000000055780E-01     8.1249999999983680E-01     0.0000000000000000E+00 
    1.8750000000063199E-01     8.7499999999953304E-01     0.0000000000000000E+00 
    1.8750000000070621E-01     9.3749999999975764E-01     0.0000000000000000E+00 
    2.4999999999951281E-01     6.2500000000163314E-02     0.0000000000000000E+00 
    2.4999999999961461E-01     1.2500000000033351E-01     0.0000000000000000E+00 
    2.4999999999971650E-01     1.8750000000048361E-01     0.0000000000000000E+00 
    2.4999999999981831E-01     2.5000000000063310E-01     0.0000000000000000E+00 
    2.4999999999992020E-01     3.1250000000078260E-01     0.0000000000000000E+00 
    2.5000000000002198E-01     3.7500000000093209E-01     0.0000000000000000E+00 
    2.5000000000012390E-01     4.3750000000108180E-01     0.0000000000000000E+00 
    2.5000000000022571E-01     5.0000000000121769E-01     0.0000000000000000E+00 
    2.5000000000032763E-01     5.6250000000094724E-01     0.0000000000000000E+00 
    2.5000000000042938E-01     6.2500000000066314E-01     0.0000000000000000E+00 
    2.5000000000053119E-01     6.8750000000037925E-01     0.0000000000000000E+00 
[...]
CELL_DATA 256 
SCALARS Pressure double 1 
LOOKUP_TABLE default 

    2.3678809064012043E+00 
    2.2625433164688111E+00 
    2.1929748758866667E+00 
    2.1371446407398693E+00 
    2.0879082149857435E+00 
    2.0431049262517096E+00 
    2.0011184724046087E+00 
    1.9617104424976777E+00 
    1.9248617409851674E+00 
    1.8906038624305403E+00 
    1.8591271307003976E+00 
    1.8278284851740034E+00 
    1.7976933556374770E+00 
    1.7747374213216092E+00 
    1.7594850535373578E+00 
    1.7518250867891740E+00 
    2.2625610189045631E+00 
    2.2181718608794796E+00 
    2.1695504422252694E+00 
    2.1218611050875897E+00 
    2.0768199989796203E+00 
    2.0342295661376251E+00 
    1.9934126576765376E+00 
    1.9547164763220677E+00 
    1.9182091623421682E+00 
    1.8840391264699818E+00 
    1.8525319644182419E+00 
    1.8209425364435354E+00 
    1.7904583738120481E+00 
    1.7673172149405156E+00 
    1.7519071916258586E+00 
    1.7441681127735658E+00 
    2.1930238032620659E+00 
    2.1695809567716942E+00 
    2.1350187497776205E+00 
    2.0963693479919994E+00 
    2.0569626844181164E+00 
    2.0175366016583980E+00 
    1.9786712240204716E+00 
    1.9411154223078753E+00 
    1.9051024684424167E+00 
    1.8710612371231063E+00 
    1.8394189215658472E+00 
    1.8072026587216161E+00 
    1.7759932373145555E+00 
    1.7524413320744332E+00 
    1.7366962368996137E+00 
    1.7287843304161714E+00 
    2.1372351402541678E+00 
    2.1219286557935328E+00 
    2.0964040569748881E+00 
    2.0651581908104091E+00 
    2.0307221844958039E+00 
    1.9945473085756880E+00 
    1.9578616798224604E+00 
    1.9215011685620931E+00 
    1.8859615563939096E+00 
    1.8519189241970975E+00 
    1.8199104063270042E+00 
    1.7866374369722962E+00 
    1.7542358498302171E+00 
    1.7299837997839722E+00 
    1.7136943562372697E+00 
    1.7054983844174927E+00 
    2.0880325365518075E+00 
    2.0769159278798530E+00 
    2.0570278474033672E+00 
    2.0307551756571369E+00 
    2.0001447886360957E+00 
    1.9668421310802378E+00 
    1.9320603568868469E+00 
    1.8966269660477733E+00 
    1.8612906262280815E+00 
    1.8269079566715427E+00 
    1.7941151467872778E+00 
    1.7591797839780876E+00 
    1.7250257919484639E+00 
    1.6997337870053564E+00 
    1.6826473449092192E+00 
    1.6740286889225435E+00 
    2.0432450216422926E+00 
    2.0343503220359382E+00 
    2.0176321818372944E+00 
    1.9946134436715262E+00 
    1.9668771084678804E+00 
    1.9357487508693063E+00 
    1.9022466198085670E+00 
    1.8672426540445888E+00 
    1.8316436195153663E+00 
    1.7963938736658347E+00 
    1.7621067347258921E+00 
    1.7246711608440617E+00 
    1.6881482864546031E+00 
    1.6613931397575969E+00 
    1.6431805582691232E+00 
    1.6339559045290060E+00 
    2.0012843809663718E+00 
    1.9935638068163830E+00 
    1.9787987135413354E+00 
    1.9579593409731872E+00 
    1.9321249021068176E+00 
    1.9022769753621811E+00 
    1.8693185417885012E+00 
    1.8341330276358678E+00 
    1.7976526795837509E+00 
    1.7607881909590886E+00 
    1.7239167897378334E+00 
    1.6828680553603408E+00 
    1.6433530295890069E+00 
    1.6145621628167071E+00 
    1.5947530530840797E+00 
    1.5846511148088480E+00 
    1.9618965199938363E+00 
    1.9548884466793330E+00 
    1.9412658436915764E+00 
    1.9216223022179917E+00 
    1.8967116259039269E+00 
    1.8672921842695205E+00 
    1.8341561772697277E+00 
    1.7981108751901249E+00 
    1.7599930422637302E+00 
    1.7206536939401931E+00 
    1.6796238088082278E+00 
    1.6335057678115339E+00 
    1.5904469400792756E+00 
    1.5587925935526732E+00 
    1.5366604015007626E+00 
    1.5252508064684869E+00 
    1.9250565814198639E+00 
    1.9183967730491509E+00 
    1.9052791546391408E+00 
    1.8861094026323606E+00 
    1.8613901717475074E+00 
    1.8317066511301434E+00 
    1.7977036338602277E+00 
    1.7600255638047613E+00 
    1.7194189872235481E+00 
    1.6765208709953405E+00 
    1.6292102510393358E+00 
    1.5765463996451927E+00 
    1.5294363855342961E+00 
    1.4935171751088290E+00 
    1.4678691191941298E+00 
    1.4544454293988218E+00 
    1.8908338306946129E+00 
    1.8842751869014149E+00 
    1.8712999886806361E+00 
    1.8521323780519876E+00 
    1.8270724754860197E+00 
    1.7965216893010640E+00 
    1.7608997440881498E+00 
    1.7207314382616943E+00 
    1.6765512020959386E+00 
    1.6276672584173668E+00 
    1.5712559840014269E+00 
    1.5120809757317162E+00 
    1.4603013994653409E+00 
    1.4179732235218314E+00 
    1.3868646531526119E+00 
    1.3702227383044707E+00 
    1.8594158489649575E+00 
    1.8528330743793378E+00 
    1.8397269093886555E+00 
    1.8201955173015800E+00 
    1.7943540601912809E+00 
    1.7622976712282545E+00 
    1.7240782657932421E+00 
    1.6797518400430473E+00 
    1.6292861430198580E+00 
    1.5712963690724435E+00 
    1.5064562199384997E+00 
    1.4421841768122206E+00 
    1.3831153717816853E+00 
    1.3311919183408962E+00 
    1.2913729683938364E+00 
    1.2693452032897932E+00 
    1.8281490494868260E+00 
    1.8212548762753036E+00 
    1.8074912263131686E+00 
    1.7868792107726821E+00 
    1.7593673761940978E+00 
    1.7248131026575848E+00 
    1.6830011790816546E+00 
    1.6336413775997678E+00 
    1.5766443687766927E+00 
    1.5121409707554192E+00 
    1.4422108416206094E+00 
    1.3703436742983413E+00 
    1.2989614628574009E+00 
    1.2323536668589392E+00 
    1.1781396024344479E+00 
    1.1464665952728732E+00 
    1.7980256669961712E+00 
    1.7907654369751187E+00 
    1.7762538872133702E+00 
    1.7544381713406285E+00 
    1.7251782808550151E+00 
    1.6882671561475286E+00 
    1.6434665284836871E+00 
    1.5905629269253492E+00 
    1.5295248068073348E+00 
    1.4603610199895425E+00 
    1.3831557521164017E+00 
    1.2989813891689366E+00 
    1.2100561583919147E+00 
    1.1211406321922990E+00 
    1.0423935774858060E+00 
    9.9192847947080365E-01 
    1.7750694530390789E+00 
    1.7676306608931394E+00 
    1.7527219640408769E+00 
    1.7302245870326847E+00 
    1.6999371952779703E+00 
    1.6615636853088884E+00 
    1.6147100419524563E+00 
    1.5589238733550532E+00 
    1.4936251138848695E+00 
    1.4180560319743480E+00 
    1.3312509015808465E+00 
    1.2323908032535114E+00 
    1.1211575295911820E+00 
    9.9977097640044610E-01 
    8.7838788482593733E-01 
    7.8693467137599182E-01 
    1.7598081800309084E+00 
    1.7522152776046145E+00 
    1.7369787731096911E+00 
    1.7139453901792818E+00 
    1.6828665032307419E+00 
    1.6433707574941683E+00 
    1.5949180237929550E+00 
    1.5368031527712835E+00 
    1.4679884300441077E+00 
    1.3869598733161228E+00 
    1.2914436485668266E+00 
    1.1781880097670681E+00 
    1.0424218866653403E+00 
    8.7839960420205587E-01 
    6.8445032368936676E-01 
    4.9047657015704005E-01 
    1.7521361284604053E+00 
    1.7444665897503515E+00 
    1.7290611172103045E+00 
    1.7057477443514655E+00 
    1.6742491142937830E+00 
    1.6341492577665120E+00 
    1.5848186846477483E+00 
    1.5253944847750960E+00 
    1.4545654311879277E+00 
    1.3703191242113288E+00 
    1.2694178503526132E+00 
    1.1465176910208486E+00 
    9.9196048629076727E-01 
    7.8695115310046515E-01 
    4.9048211921393631E-01 
    0.0000000000000000E+00 

SCALARS Saturarion double 1 
LOOKUP_TABLE default 

    1.0000000053684153E+00 
    9.6042621516103566E-01 
    8.9517426917885856E-01 
    8.2618252421018878E-01 
    7.6022854588067867E-01 
    7.0041336084184169E-01 
    6.4884373116019856E-01 
    6.0301259602113633E-01 
    5.5826860367801245E-01 
    5.1533519594389232E-01 
    4.7181871282508209E-01 
    3.5775634224028474E-01 
    2.6104463574030696E-02 
    1.1258738095398235E-06 
    1.0000000063020200E-06 
    1.0000000000000012E-06 
    9.6042263490033419E-01 
    9.3324829404893717E-01 
    8.7553259139194572E-01 
    8.1160020276023526E-01 
    7.4993427385958322E-01 
    6.9354412413321098E-01 
    6.4438520382317266E-01 
    5.9992553045631891E-01 
    5.5617369301414332E-01 
    5.1424286167965372E-01 
    4.7102047515904022E-01 
    3.5261207211132628E-01 
    2.2474110541500170E-02 
    1.0550724305042618E-06 
    1.0000000100576842E-06 
    9.9999999999999953E-07 
    8.9516160738090522E-01 
    8.7552148220421955E-01 
    8.3005767355037985E-01 
    7.7881940332950939E-01 
    7.2698166180838464E-01 
    6.7785632323160216E-01 
    6.3359359953112104E-01 
    5.9172760843415062E-01 
    5.5025396478514121E-01 
    5.1082998162601312E-01 
    4.6831702586414142E-01 
    3.4313860880475289E-01 
    1.7228728581807802E-02 
    2.4150658860321238E-06 
    9.9999997483428644E-07 
    9.9999999999999911E-07 
    8.2615944094721905E-01 
    8.1158206773515396E-01 
    7.7880599150007879E-01 
    7.3888016230783349E-01 
    6.9866945754450227E-01 
    6.5832424497714082E-01 
    6.1871968012321199E-01 
    5.7981958508251763E-01 
    5.4170148234002335E-01 
    5.0520253847150820E-01 
    4.6408924498213444E-01 
    3.3103780438511649E-01 
    1.2060513071198759E-02 
    1.2039772866686010E-06 
    1.0000000309105774E-06 
    1.0000000000000019E-06 
    7.6021178656250987E-01 
    7.4992469932231776E-01 
    7.2696489094230166E-01 
    6.9865260208442204E-01 
    6.6770057001410543E-01 
    6.3447659450563476E-01 
    5.9984579298257923E-01 
    5.6554244254549213E-01 
    5.3118775572420274E-01 
    4.9715273571735213E-01 
    4.5744547435442540E-01 
    3.0739714201677060E-01 
    6.0364519917447809E-03 
    1.1286774436420958E-06 
    1.0000000193635153E-06 
    1.0000000000000004E-06 
    7.0043235797394399E-01 
    6.9354507746275140E-01 
    6.7783360994251229E-01 
    6.5829545006259960E-01 
    6.3446624296029486E-01 
    6.0681527671996027E-01 
    5.7787400803364319E-01 
    5.4872152630750815E-01 
    5.1879573518895750E-01 
    4.8781058279517892E-01 
    4.5064314779847420E-01 
    2.7756512600215122E-01 
    1.6026569949183435E-03 
    1.2127797916732977E-06 
    1.0000000171894962E-06 
    1.0000000000000008E-06 
    6.4886754203994124E-01 
    6.4438871312292478E-01 
    6.3357553999615224E-01 
    6.1871173681322478E-01 
    5.9983610603068427E-01 
    5.7782435521820263E-01 
    5.5421066815895337E-01 
    5.2966824877184504E-01 
    5.0395181887246876E-01 
    4.7746540425366146E-01 
    4.3999678622090466E-01 
    2.3776457183804711E-01 
    3.4684141667046362E-04 
    1.0083867846622331E-06 
    1.0000000005952776E-06 
    9.9999999999999995E-07 
    6.0300035802424168E-01 
    5.9988286407016478E-01 
    5.9166175715297908E-01 
    5.7977130068413385E-01 
    5.6538468895719396E-01 
    5.4844663833267926E-01 
    5.2939886859051755E-01 
    5.0889913785492302E-01 
    4.8742805994522143E-01 
    4.6419115000653366E-01 
    4.2806539822633460E-01 
    1.7644806599158416E-01 
    1.2231082638029453E-04 
    1.0063691239599739E-06 
    1.0000000002746235E-06 
    9.9999999999999974E-07 
    5.5820207196442617E-01 
    5.5610050442770953E-01 
    5.5024494395265255E-01 
    5.4166281113667536E-01 
    5.3118581142884091E-01 
    5.1889127419227610E-01 
    5.0396350039748017E-01 
    4.8729120917909763E-01 
    4.7037046572591173E-01 
    4.4950775965388773E-01 
    3.9511688566211317E-01 
    9.5052093870977281E-02 
    1.2555819817706935E-04 
    1.0022193332764803E-06 
    1.0000000000366646E-06 
    9.9999999999999995E-07 
    5.1605296984984705E-01 
    5.1494946762893712E-01 
    5.1130832340628862E-01 
    5.0533065551544143E-01 
    4.9784021028422148E-01 
    4.8953632874043601E-01 
    4.7820757187586183E-01 
    4.6429112440214032E-01 
    4.4909320073024894E-01 
    4.2561275899239559E-01 
    3.0538086358908761E-01 
    1.7109583069196341E-02 
    1.0011296673136774E-05 
    1.0000064809914264E-06 
    9.9999999999999530E-07 
    9.9999999999999995E-07 
    4.7265702061961135E-01 
    4.7157853521848947E-01 
    4.6814877267046606E-01 
    4.6347614666372672E-01 
    4.5701897722291301E-01 
    4.5064383129016078E-01 
    4.4095852361183224E-01 
    4.2798397589327208E-01 
    3.9570180527537657E-01 
    3.0607243952339913E-01 
    7.1286606683003961E-02 
    2.7980184606389363E-04 
    1.0099711321337859E-06 
    1.0000000000037333E-06 
    9.9999999999999995E-07 
    9.9999999999999995E-07 
    3.5894935743177403E-01 
    3.5260348659190988E-01 
    3.4119671227358028E-01 
    3.2677115197177231E-01 
    3.0183064480393007E-01 
    2.7080835878725373E-01 
    2.3458359171314852E-01 
    1.7811746463184286E-01 
    9.7273740442363282E-02 
    1.7623533963596283E-02 
    2.8210363079936675E-04 
    1.0242540104409316E-06 
    1.0000000060473097E-06 
    1.0000000000000019E-06 
    9.9999999999999995E-07 
    9.9999999999999995E-07 
    2.5741452160800586E-02 
    2.1388872908934466E-02 
    1.6235540904067574E-02 
    1.0294711659713327E-02 
    4.6403055323432762E-03 
    7.0917412977726762E-04 
    2.0064989480967084E-04 
    1.1717322757061034E-04 
    1.2914655764890284E-04 
    1.0661356657024704E-05 
    1.0100935369526640E-06 
    1.0000000061080221E-06 
    1.0000000000000048E-06 
    9.9999999999999995E-07 
    9.9999999999999995E-07 
    9.9999999999999995E-07 
    1.0022361712126384E-06 
    1.4473595931756553E-06 
    1.2151087809334706E-06 
    1.1554132313544304E-06 
    1.0871324699055319E-06 
    1.0293359197961771E-06 
    1.0030265035778142E-06 
    1.0055874787250886E-06 
    1.0024243798903074E-06 
    1.0000073152789897E-06 
    1.0000000000041549E-06 
    1.0000000000000019E-06 
    9.9999999999999995E-07 
    9.9999999999999995E-07 
    9.9999999999999995E-07 
    9.9999999999999995E-07 
    1.0000000010711089E-06 
    1.0000000330974043E-06 
    1.0000000325861962E-06 
    1.0000000197651144E-06 
    1.0000000087238919E-06 
    1.0000000024730048E-06 
    1.0000000006280569E-06 
    1.0000000003730504E-06 
    1.0000000000416181E-06 
    9.9999999999999614E-07 
    9.9999999999999995E-07 
    9.9999999999999995E-07 
    9.9999999999999995E-07 
    9.9999999999999995E-07 
    9.9999999999999995E-07 
    9.9999999999999995E-07 
    9.9999999999999995E-07 
    9.9999999999999847E-07 
    1.0000000000000004E-06 
    1.0000000000000002E-06 
    9.9999999999999995E-07 
    9.9999999999999995E-07 
    9.9999999999999995E-07 
    9.9999999999999974E-07 
    9.9999999999999995E-07 
    9.9999999999999995E-07 
    9.9999999999999995E-07 
    9.9999999999999995E-07 
    9.9999999999999995E-07 
    9.9999999999999995E-07 
    9.9999999999999995E-07 
    1.0000001626519319E-06 
