# vtk DataFile Version 2.0
Pressure Field Data 
ASCII 
DATASET UNSTRUCTURED_GRID 

POINTS 289 double 

    0.0000000000000000E+00     0.0000000000000000E+00     0.0000000000000000E+00 
    1.0000000000000000E+00     0.0000000000000000E+00     0.0000000000000000E+00 
    1.0000000000000000E+00     1.0000000000000000E+00     0.0000000000000000E+00 
    0.0000000000000000E+00     1.0000000000000000E+00     0.0000000000000000E+00 
    6.2499999999872928E-02     0.0000000000000000E+00     0.0000000000000000E+00 
    1.2499999999977310E-01     0.0000000000000000E+00     0.0000000000000000E+00 
    1.8749999999959341E-01     0.0000000000000000E+00     0.0000000000000000E+00 
    2.4999999999941089E-01     0.0000000000000000E+00     0.0000000000000000E+00 
    3.1249999999922851E-01     0.0000000000000000E+00     0.0000000000000000E+00 
    3.7499999999904610E-01     0.0000000000000000E+00     0.0000000000000000E+00 
    4.3749999999886358E-01     0.0000000000000000E+00     0.0000000000000000E+00 
    4.9999999999869210E-01     0.0000000000000000E+00     0.0000000000000000E+00 
    5.6249999999884603E-01     0.0000000000000000E+00     0.0000000000000000E+00 
    6.2499999999901090E-01     0.0000000000000000E+00     0.0000000000000000E+00 
    6.8749999999917577E-01     0.0000000000000000E+00     0.0000000000000000E+00 
    7.4999999999934064E-01     0.0000000000000000E+00     0.0000000000000000E+00 
    8.1249999999950551E-01     0.0000000000000000E+00     0.0000000000000000E+00 
    8.7499999999967026E-01     0.0000000000000000E+00     0.0000000000000000E+00 
    9.3749999999983513E-01     0.0000000000000000E+00     0.0000000000000000E+00 
    1.0000000000000000E+00     6.2499999999872928E-02     0.0000000000000000E+00 
    1.0000000000000000E+00     1.2499999999977310E-01     0.0000000000000000E+00 
    1.0000000000000000E+00     1.8749999999959341E-01     0.0000000000000000E+00 
    1.0000000000000000E+00     2.4999999999941089E-01     0.0000000000000000E+00 
    1.0000000000000000E+00     3.1249999999922851E-01     0.0000000000000000E+00 
    1.0000000000000000E+00     3.7499999999904610E-01     0.0000000000000000E+00 
    1.0000000000000000E+00     4.3749999999886358E-01     0.0000000000000000E+00 
    1.0000000000000000E+00     4.9999999999869210E-01     0.0000000000000000E+00 
    1.0000000000000000E+00     5.6249999999884603E-01     0.0000000000000000E+00 
    1.0000000000000000E+00     6.2499999999901090E-01     0.0000000000000000E+00 
    1.0000000000000000E+00     6.8749999999917577E-01     0.0000000000000000E+00 
    1.0000000000000000E+00     7.4999999999934064E-01     0.0000000000000000E+00 
    1.0000000000000000E+00     8.1249999999950551E-01     0.0000000000000000E+00 
    1.0000000000000000E+00     8.7499999999967026E-01     0.0000000000000000E+00 
    1.0000000000000000E+00     9.3749999999983513E-01     0.0000000000000000E+00 
    9.3749999999973976E-01     1.0000000000000000E+00     0.0000000000000000E+00 
    8.7499999999950118E-01     1.0000000000000000E+00     0.0000000000000000E+00 
    8.1249999999991318E-01     1.0000000000000000E+00     0.0000000000000000E+00 
    7.5000000000034706E-01     1.0000000000000000E+00     0.0000000000000000E+00 
    6.8750000000078049E-01     1.0000000000000000E+00     0.0000000000000000E+00 
    6.2500000000121403E-01     1.0000000000000000E+00     0.0000000000000000E+00 
    5.6250000000164757E-01     1.0000000000000000E+00     0.0000000000000000E+00 
    5.0000000000205946E-01     1.0000000000000000E+00     0.0000000000000000E+00 
    4.3750000000182099E-01     1.0000000000000000E+00     0.0000000000000000E+00 
    3.7500000000156092E-01     1.0000000000000000E+00     0.0000000000000000E+00 
    3.1250000000130068E-01     1.0000000000000000E+00     0.0000000000000000E+00 
    2.5000000000104050E-01     1.0000000000000000E+00     0.0000000000000000E+00 
    1.8750000000078040E-01     1.0000000000000000E+00     0.0000000000000000E+00 
    1.2500000000052031E-01     1.0000000000000000E+00     0.0000000000000000E+00 
    6.2500000000260125E-02     1.0000000000000000E+00     0.0000000000000000E+00 
    0.0000000000000000E+00     9.3749999999973976E-01     0.0000000000000000E+00 
    0.0000000000000000E+00     8.7499999999950118E-01     0.0000000000000000E+00 
    0.0000000000000000E+00     8.1249999999991318E-01     0.0000000000000000E+00 
    0.0000000000000000E+00     7.5000000000034706E-01     0.0000000000000000E+00 
    0.0000000000000000E+00     6.8750000000078049E-01     0.0000000000000000E+00 
    0.0000000000000000E+00     6.2500000000121403E-01     0.0000000000000000E+00 
    0.0000000000000000E+00     5.6250000000164757E-01     0.0000000000000000E+00 
    0.0000000000000000E+00     5.0000000000205946E-01     0.0000000000000000E+00 
    0.0000000000000000E+00     4.3750000000182099E-01     0.0000000000000000E+00 
    0.0000000000000000E+00     3.7500000000156092E-01     0.0000000000000000E+00 
    0.0000000000000000E+00     3.1250000000130068E-01     0.0000000000000000E+00 
    0.0000000000000000E+00     2.5000000000104050E-01     0.0000000000000000E+00 
    0.0000000000000000E+00     1.8750000000078040E-01     0.0000000000000000E+00 
    0.0000000000000000E+00     1.2500000000052031E-01     0.0000000000000000E+00 
    0.0000000000000000E+00     6.2500000000260125E-02     0.0000000000000000E+00 
    6.2499999999897131E-02     6.2500000000235922E-02     0.0000000000000000E+00 
    6.2499999999921327E-02     1.2500000000047351E-01     0.0000000000000000E+00 
    6.2499999999945530E-02     1.8750000000070621E-01     0.0000000000000000E+00 
    6.2499999999969733E-02     2.5000000000093858E-01     0.0000000000000000E+00 
    6.2499999999993928E-02     3.1250000000117117E-01     0.0000000000000000E+00 
    6.2500000000018124E-02     3.7500000000140382E-01     0.0000000000000000E+00 
    6.2500000000042327E-02     4.3750000000163619E-01     0.0000000000000000E+00 
    6.2500000000066530E-02     5.0000000000184897E-01     0.0000000000000000E+00 
    6.2500000000090733E-02     5.6250000000147260E-01     0.0000000000000000E+00 
    6.2500000000114922E-02     6.2500000000107636E-01     0.0000000000000000E+00 
    6.2500000000139125E-02     6.8750000000068034E-01     0.0000000000000000E+00 
    6.2500000000163328E-02     7.5000000000028411E-01     0.0000000000000000E+00 
    6.2500000000187531E-02     8.1249999999988787E-01     0.0000000000000000E+00 
    6.2500000000211720E-02     8.7499999999951172E-01     0.0000000000000000E+00 
    6.2500000000235922E-02     9.3749999999974565E-01     0.0000000000000000E+00 
    1.2499999999981980E-01     6.2500000000211733E-02     0.0000000000000000E+00 
    1.2499999999986650E-01     1.2500000000042691E-01     0.0000000000000000E+00 
    1.2499999999991319E-01     1.8750000000063199E-01     0.0000000000000000E+00 
    1.2499999999995989E-01     2.5000000000083678E-01     0.0000000000000000E+00 
    1.2500000000000661E-01     3.1250000000104172E-01     0.0000000000000000E+00 
    1.2500000000005329E-01     3.7500000000124661E-01     0.0000000000000000E+00 
    1.2500000000010000E-01     4.3750000000145117E-01     0.0000000000000000E+00 
    1.2500000000014669E-01     5.0000000000163858E-01     0.0000000000000000E+00 
    1.2500000000019340E-01     5.6250000000129741E-01     0.0000000000000000E+00 
    1.2500000000024011E-01     6.2500000000093847E-01     0.0000000000000000E+00 
    1.2500000000028680E-01     6.8750000000057998E-01     0.0000000000000000E+00 
    1.2500000000033351E-01     7.5000000000022127E-01     0.0000000000000000E+00 
    1.2500000000038020E-01     8.1249999999986211E-01     0.0000000000000000E+00 
    1.2500000000042691E-01     8.7499999999952238E-01     0.0000000000000000E+00 
    1.2500000000047359E-01     9.3749999999975164E-01     0.0000000000000000E+00 
    1.8749999999966760E-01     6.2500000000187531E-02     0.0000000000000000E+00 
    1.8749999999974179E-01     1.2500000000038020E-01     0.0000000000000000E+00 
    1.8749999999981601E-01     1.8750000000055780E-01     0.0000000000000000E+00 
    1.8749999999989009E-01     2.5000000000073502E-01     0.0000000000000000E+00 
    1.8749999999996431E-01     3.1250000000091221E-01     0.0000000000000000E+00 
    1.8750000000003850E-01     3.7500000000108941E-01     0.0000000000000000E+00 
    1.8750000000011269E-01     4.3750000000126649E-01     0.0000000000000000E+00 
    1.8750000000018691E-01     5.0000000000142808E-01     0.0000000000000000E+00 
    1.8750000000026110E-01     5.6250000000112244E-01     0.0000000000000000E+00 
    1.8750000000033529E-01     6.2500000000080080E-01     0.0000000000000000E+00 
    1.8750000000040951E-01     6.8750000000047962E-01     0.0000000000000000E+00 
    1.8750000000048361E-01     7.5000000000015843E-01     0.0000000000000000E+00 
    1.8750000000055780E-01     8.1249999999983680E-01     0.0000000000000000E+00 
    1.8750000000063199E-01     8.7499999999953304E-01     0.0000000000000000E+00 
    1.8750000000070621E-01     9.3749999999975764E-01     0.0000000000000000E+00 
    2.4999999999951281E-01     6.2500000000163314E-02     0.0000000000000000E+00 
    2.4999999999961461E-01     1.2500000000033351E-01     0.0000000000000000E+00 
    2.4999999999971650E-01     1.8750000000048361E-01     0.0000000000000000E+00 
    2.4999999999981831E-01     2.5000000000063310E-01     0.0000000000000000E+00 
    2.4999999999992020E-01     3.1250000000078260E-01     0.0000000000000000E+00 
    2.5000000000002198E-01     3.7500000000093209E-01     0.0000000000000000E+00 
    2.5000000000012390E-01     4.3750000000108180E-01     0.0000000000000000E+00 
    2.5000000000022571E-01     5.0000000000121769E-01     0.0000000000000000E+00 
    2.5000000000032763E-01     5.6250000000094724E-01     0.0000000000000000E+00 
    2.5000000000042938E-01     6.2500000000066314E-01     0.0000000000000000E+00 
    2.5000000000053119E-01     6.8750000000037925E-01     0.0000000000000000E+00 
[...]
CELL_DATA 256 
SCALARS Pressure double 1 
LOOKUP_TABLE default 

    2.9334866751542052E+00 
    2.7995197700336925E+00 
    2.6777710708014562E+00 
    2.5541208082413993E+00 
    2.4180241284916555E+00 
    2.2861616693621114E+00 
    2.1839774168018531E+00 
    2.0977660688582569E+00 
    2.0245202738704839E+00 
    1.9623655474027908E+00 
    1.9101190764741662E+00 
    1.8670904543355042E+00 
    1.8328843580602034E+00 
    1.8073061516749418E+00 
    1.7902765492655164E+00 
    1.7817726927168704E+00 
    2.7995255901098894E+00 
    2.7287183956889933E+00 
    2.6316355711589932E+00 
    2.5171052448548026E+00 
    2.3868609420190841E+00 
    2.2655857991231905E+00 
    2.1681109554884341E+00 
    2.0848794730264371E+00 
    2.0135073105706489E+00 
    1.9525035065336640E+00 
    1.9009457546497426E+00 
    1.8583019087055097E+00 
    1.8242836970445915E+00 
    1.7987782805479886E+00 
    1.7817664053509616E+00 
    1.7732701612310360E+00 
    2.6777463161761692E+00 
    2.6315809779291226E+00 
    2.5535020234408776E+00 
    2.4481278668235751E+00 
    2.3313314329247441E+00 
    2.2272157112382405E+00 
    2.1381241965877984E+00 
    2.0602003303989189E+00 
    1.9921839436030380E+00 
    1.9332589419560464E+00 
    1.8829271034725603E+00 
    1.8409447782800021E+00 
    1.8072261850722890E+00 
    1.7818122232125149E+00 
    1.7647986505123086E+00 
    1.7562885639429600E+00 
    2.5541663004122870E+00 
    2.5171268453871392E+00 
    2.4481780099837351E+00 
    2.3563646479067657E+00 
    2.2624305851402955E+00 
    2.1760570780484669E+00 
    2.0970744747754986E+00 
    2.0256777391172545E+00 
    1.9618358497101704E+00 
    1.9054850889600827E+00 
    1.8566293690461626E+00 
    1.8153786464067547E+00 
    1.7819187388001050E+00 
    1.7565034408633569E+00 
    1.7393934168261669E+00 
    1.7308089431500584E+00 
    2.4182000868906659E+00 
    2.3870696761531565E+00 
    2.3315258463595812E+00 
    2.2625447462217863E+00 
    2.1898915768789085E+00 
    2.1177768885779513E+00 
    2.0485148717053585E+00 
    1.9836632717697293E+00 
    1.9240625241354705E+00 
    1.8702789242433036E+00 
    1.8227903469185032E+00 
    1.7820700548433366E+00 
    1.7486182793765630E+00 
    1.7229497778503233E+00 
    1.7055385901165174E+00 
    1.6967612777023300E+00 
    2.2863222039200366E+00 
    2.2657454787282463E+00 
    2.2273872484716706E+00 
    2.1761991991190772E+00 
    2.1178388983682357E+00 
    2.0567064782548026E+00 
    1.9956110017209889E+00 
    1.9364580998894860E+00 
    1.8805352865099958E+00 
    1.8288403883415485E+00 
    1.7822280436805440E+00 
    1.7415312983939895E+00 
    1.7075779268074200E+00 
    1.6811930572517115E+00 
    1.6631251639027465E+00 
    1.6539590081122040E+00 
    2.1841899233262851E+00 
    2.1683166343135425E+00 
    2.1383154497000900E+00 
    2.0972298841685122E+00 
    2.0486152579085775E+00 
    1.9956585291905531E+00 
    1.9408596162022416E+00 
    1.8860964559627982E+00 
    1.8328483330044352E+00 
    1.7823563763035830E+00 
    1.7357882656144541E+00 
    1.6942757094884882E+00 
    1.6590013521229965E+00 
    1.6311555523923167E+00 
    1.6118498894997200E+00 
    1.6019737779817644E+00 
    2.0980226730933875E+00 
    2.0851239854526735E+00 
    2.0604218039193856E+00 
    2.0258627657227861E+00 
    1.9838018852516546E+00 
    1.9365494658533531E+00 
    1.8861423291242632E+00 
    1.8342902029605086E+00 
    1.7824656528060334E+00 
    1.7320327673175213E+00 
    1.6843532478717629E+00 
    1.6408484255434814E+00 
    1.6030602486990124E+00 
    1.5726409493146485E+00 
    1.5512094955032631E+00 
    1.5401193439575953E+00 
    2.0248197980158853E+00 
    2.0137925314612160E+00 
    1.9924430130893886E+00 
    1.9620584104919774E+00 
    1.9242417526579760E+00 
    1.8806702350380875E+00 
    1.8329414826886476E+00 
    1.7825137602672179E+00 
    1.7307500325803462E+00 
    1.6790205277836807E+00 
    1.6287989805920435E+00 
    1.5817322098372935E+00 
    1.5397704919083974E+00 
    1.5051595949280392E+00 
    1.4802612984651942E+00 
    1.4671783201366342E+00 
    1.9627084915061355E+00 
    1.9528308330304958E+00 
    1.9335598462192758E+00 
    1.9057505240931480E+00 
    1.8705030113709566E+00 
    1.8290220018271304E+00 
    1.7824997716887885E+00 
    1.7321313792567816E+00 
    1.6790708311342253E+00 
    1.6245811822817522E+00 
    1.5701221071368314E+00 
    1.5175148242610199E+00 
    1.4691252193228841E+00 
    1.4279624862313627E+00 
    1.3975100797532389E+00 
    1.3811620989078628E+00 
    1.9105036178499768E+00 
    1.9013155358505320E+00 
    1.8832720301696970E+00 
    1.8569413371018806E+00 
    1.8230641772426235E+00 
    1.7824616102762887E+00 
    1.7359814182374482E+00 
    1.6845023178388656E+00 
    1.6289011439356706E+00 
    1.5701744608963257E+00 
    1.5096031597033557E+00 
    1.4490531940532803E+00 
    1.3912258812425864E+00 
    1.3400224718904707E+00 
    1.3006165342916538E+00 
    1.2787755044551845E+00 
    1.8675120392527742E+00 
    1.8587100989337180E+00 
    1.8413300035741220E+00 
    1.8157330214135208E+00 
    1.7823881477268104E+00 
    1.7418103204023065E+00 
    1.6945145019004932E+00 
    1.6410438367004938E+00 
    1.5818808023895443E+00 
    1.5176136136888043E+00 
    1.4491008489202344E+00 
    1.3779297201818221E+00 
    1.3067769486895695E+00 
    1.2403636049920428E+00 
    1.1862396909329342E+00 
    1.1545904116818055E+00 
    1.8333351588489257E+00 
    1.8247223840231088E+00 
    1.8076435591403155E+00 
    1.7823070867798769E+00 
    1.7489721055632126E+00 
    1.7078940579169786E+00 
    1.6592783469602048E+00 
    1.6032945497653108E+00 
    1.5399584966007080E+00 
    1.4692639643544954E+00 
    1.3913139198836415E+00 
    1.3068175800938917E+00 
    1.2176231046648285E+00 
    1.1284479703756098E+00 
    1.0494350015734537E+00 
    9.9877484549199658E-01 
    1.8077754270444792E+00 
    1.7992365845704763E+00 
    1.7822507200994206E+00 
    1.7569147107329952E+00 
    1.7233284068895081E+00 
    1.6815356415523444E+00 
    1.6314601834593359E+00 
    1.5729035435212624E+00 
    1.5053764389556690E+00 
    1.4281305623895522E+00 
    1.3401405844131045E+00 
    1.2404351710515955E+00 
    1.1284794447726596E+00 
    1.0063925468567481E+00 
    8.8431204661553586E-01 
    7.9231084000891050E-01 
    1.7907512650963862E+00 
    1.7822311706707725E+00 
    1.7652450470385777E+00 
    1.7398143680656772E+00 
    1.7059287156083836E+00 
    1.6634807721170353E+00 
    1.6121684439775652E+00 
    1.5514866271238810E+00 
    1.4804933973541929E+00 
    1.3976940373232400E+00 
    1.3007518701938590E+00 
    1.1863301185293884E+00 
    1.0494866100951361E+00 
    8.8433294908628413E-01 
    6.8910051067870914E-01 
    4.9382650540693629E-01 
    1.7822383155105397E+00 
    1.7737267518830320E+00 
    1.7567280978426643E+00 
    1.7312245869524594E+00 
    1.6971475992683993E+00 
    1.6543120387546217E+00 
    1.6022900088403476E+00 
    1.5403946468352543E+00 
    1.4674094222274847E+00 
    1.3813459919470885E+00 
    1.2789132382455359E+00 
    1.1546858302327603E+00 
    9.9883363702572725E-01 
    7.9234066223470045E-01 
    4.9383646149717941E-01 
    0.0000000000000000E+00 

SCALARS Saturarion double 1 
LOOKUP_TABLE default 

    9.9699024824517068E-01 
    7.9807321579793533E-01 
    6.0467583939070058E-01 
    5.0331764936151013E-01 
    2.0017803490554159E-01 
    3.8302149079868188E-05 
    1.0000000116491846E-06 
    9.9999999999999974E-07 
    9.9999999999999995E-07 
    9.9999999999999995E-07 
    9.9999999999999995E-07 
    9.9999999999999995E-07 
    9.9999999999999995E-07 
    9.9999999999999995E-07 
    9.9999999999999995E-07 
    9.9999999999999995E-07 
    7.9800884471482370E-01 
    6.9872919201810191E-01 
    5.7562225973125425E-01 
    4.6622504704534534E-01 
    1.1218828618709996E-01 
    1.3252124868525889E-03 
    1.0598437123328682E-06 
    9.9999999549846220E-07 
    9.9999999999999974E-07 
    9.9999999999999995E-07 
    9.9999999999999995E-07 
    9.9999999999999995E-07 
    9.9999999999999995E-07 
    9.9999999999999995E-07 
    9.9999999999999995E-07 
    9.9999999999999995E-07 
    6.0461414424347493E-01 
    5.7518074758396975E-01 
    4.9523119447538144E-01 
    3.1958741561268755E-01 
    1.8369241258879600E-02 
    1.0848332563639115E-04 
    1.0048866121323449E-06 
    1.0000000035407618E-06 
    1.0000000000000002E-06 
    9.9999999999999995E-07 
    9.9999999999999995E-07 
    9.9999999999999995E-07 
    9.9999999999999995E-07 
    9.9999999999999995E-07 
    9.9999999999999995E-07 
    9.9999999999999995E-07 
    5.0344942908160195E-01 
    4.6883062721524860E-01 
    3.1945663488128057E-01 
    5.7575334729467527E-02 
    5.2437041988267086E-04 
    1.1172749033651563E-06 
    1.0000001161990036E-06 
    1.0000000000001200E-06 
    9.9999999999999995E-07 
    9.9999999999999995E-07 
    9.9999999999999995E-07 
    9.9999999999999995E-07 
    9.9999999999999995E-07 
    9.9999999999999995E-07 
    9.9999999999999995E-07 
    9.9999999999999995E-07 
    1.9995720095557173E-01 
    1.1823526446032247E-01 
    1.7314279090772218E-02 
    4.5841692442094356E-04 
    1.0642840176313528E-06 
    1.0000000136547769E-06 
    1.0000000000000042E-06 
    9.9999999999999995E-07 
    9.9999999999999995E-07 
    9.9999999999999995E-07 
    9.9999999999999995E-07 
    9.9999999999999995E-07 
    9.9999999999999995E-07 
    9.9999999999999995E-07 
    9.9999999999999995E-07 
    9.9999999999999995E-07 
    1.4070180180270488E-05 
    8.2846956533710176E-04 
    2.6128479717621256E-05 
    1.0365549519478836E-06 
    1.0000000084661345E-06 
    1.0000000000000006E-06 
    9.9999999999999995E-07 
    9.9999999999999995E-07 
    9.9999999999999995E-07 
    9.9999999999999995E-07 
    9.9999999999999995E-07 
    9.9999999999999995E-07 
    9.9999999999999995E-07 
    9.9999999999999995E-07 
    9.9999999999999995E-07 
    9.9999999999999995E-07 
    1.0001810690353399E-06 
    1.0658325034663775E-06 
    1.0000108913995973E-06 
    1.0000000039751186E-06 
    1.0000000000000021E-06 
    9.9999999999999995E-07 
    9.9999999999999995E-07 
    9.9999999999999995E-07 
    9.9999999999999995E-07 
    9.9999999999999995E-07 
    9.9999999999999995E-07 
    9.9999999999999995E-07 
    9.9999999999999995E-07 
    9.9999999999999995E-07 
    9.9999999999999995E-07 
    9.9999999999999995E-07 
    1.0000000000111431E-06 
    1.0000000084498916E-06 
    1.0000000000005910E-06 
    1.0000000000000021E-06 
    9.9999999999999995E-07 
    9.9999999999999995E-07 
    9.9999999999999995E-07 
    9.9999999999999995E-07 
    9.9999999999999995E-07 
    9.9999999999999995E-07 
    9.9999999999999995E-07 
    9.9999999999999995E-07 
    9.9999999999999995E-07 
    9.9999999999999995E-07 
    9.9999999999999995E-07 
    9.9999999999999995E-07 
    9.9999999999999995E-07 
    1.0000000000000004E-06 
    9.9999999999999995E-07 
    9.9999999999999995E-07 
    9.9999999999999995E-07 
    9.9999999999999995E-07 
    9.9999999999999995E-07 
    9.9999999999999995E-07 
    9.9999999999999995E-07 
    9.9999999999999995E-07 
    9.9999999999999995E-07 
    9.9999999999999995E-07 
    9.9999999999999995E-07 
    9.9999999999999995E-07 
    9.9999999999999995E-07 
    9.9999999999999995E-07 
    9.9999999999999995E-07 
    9.9999999999999995E-07 
    9.9999999999999995E-07 
    9.9999999999999995E-07 
    9.9999999999999995E-07 
    9.9999999999999995E-07 
    9.9999999999999995E-07 
    9.9999999999999995E-07 
    9.9999999999999995E-07 
    9.9999999999999995E-07 
    9.9999999999999995E-07 
    9.9999999999999995E-07 
    9.9999999999999995E-07 
    9.9999999999999995E-07 
    9.9999999999999995E-07 
    9.9999999999999995E-07 
    9.9999999999999995E-07 
    9.9999999999999995E-07 
    9.9999999999999995E-07 
    9.9999999999999995E-07 
    9.9999999999999995E-07 
    9.9999999999999995E-07 
    9.9999999999999995E-07 
    9.9999999999999995E-07 
    9.9999999999999995E-07 
    9.9999999999999995E-07 
    9.9999999999999995E-07 
    9.9999999999999995E-07 
    9.9999999999999995E-07 
    9.9999999999999995E-07 
    9.9999999999999995E-07 
    9.9999999999999995E-07 
    9.9999999999999995E-07 
    9.9999999999999995E-07 
    9.9999999999999995E-07 
    9.9999999999999995E-07 
    9.9999999999999995E-07 
    9.9999999999999995E-07 
    9.9999999999999995E-07 
    9.9999999999999995E-07 
    9.9999999999999995E-07 
    9.9999999999999995E-07 
    9.9999999999999995E-07 
    9.9999999999999995E-07 
    9.9999999999999995E-07 
    9.9999999999999995E-07 
    9.9999999999999995E-07 
    9.9999999999999995E-07 
    9.9999999999999995E-07 
    9.9999999999999995E-07 
    9.9999999999999995E-07 
    9.9999999999999995E-07 
    9.9999999999999995E-07 
    9.9999999999999995E-07 
    9.9999999999999995E-07 
    9.9999999999999995E-07 
    9.9999999999999995E-07 
    9.9999999999999995E-07 
    9.9999999999999995E-07 
    9.9999999999999995E-07 
    9.9999999999999995E-07 
    9.9999999999999995E-07 
    9.9999999999999995E-07 
    9.9999999999999995E-07 
    9.9999999999999995E-07 
    9.9999999999999995E-07 
    9.9999999999999995E-07 
    9.9999999999999995E-07 
    9.9999999999999995E-07 
    9.9999999999999995E-07 
    9.9999999999999995E-07 
    9.9999999999999995E-07 
    9.9999999999999995E-07 
    9.9999999999999995E-07 
    9.9999999999999995E-07 
    9.9999999999999995E-07 
    9.9999999999999995E-07 
    9.9999999999999995E-07 
    9.9999999999999995E-07 
    9.9999999999999995E-07 
    9.9999999999999995E-07 
    9.9999999999999995E-07 
    9.9999999999999995E-07 
    9.9999999999999995E-07 
    9.9999999999999995E-07 
    9.9999999999999995E-07 
    9.9999999999999995E-07 
    9.9999999999999995E-07 
    9.9999999999999995E-07 
    9.9999999999999995E-07 
    9.9999999999999995E-07 
    9.9999999999999995E-07 
    9.9999999999999995E-07 
    9.9999999999999995E-07 
    9.9999999999999995E-07 
    9.9999999999999995E-07 
    9.9999999999999995E-07 
    9.9999999999999995E-07 
    9.9999999999999995E-07 
    9.9999999999999995E-07 
    9.9999999999999995E-07 
    9.9999999999999995E-07 
    9.9999999999999995E-07 
    9.9999999999999995E-07 
    9.9999999999999995E-07 
    9.9999999999999995E-07 
    9.9999999999999995E-07 
    9.9999999999999995E-07 
    9.9999999999999995E-07 
    9.9999999999999995E-07 
    9.9999999999999995E-07 
    1.0000000183802361E-06 
