# vtk DataFile Version 2.0
Pressure Field Data 
ASCII 
DATASET UNSTRUCTURED_GRID 

POINTS 289 double 

    0.0000000000000000E+00     0.0000000000000000E+00     0.0000000000000000E+00 
    1.0000000000000000E+00     0.0000000000000000E+00     0.0000000000000000E+00 
    1.0000000000000000E+00     1.0000000000000000E+00     0.0000000000000000E+00 
    0.0000000000000000E+00     1.0000000000000000E+00     0.0000000000000000E+00 
    6.2499999999872928E-02     0.0000000000000000E+00     0.0000000000000000E+00 
    1.2499999999977310E-01     0.0000000000000000E+00     0.0000000000000000E+00 
    1.8749999999959341E-01     0.0000000000000000E+00     0.0000000000000000E+00 
    2.4999999999941089E-01     0.0000000000000000E+00     0.0000000000000000E+00 
    3.1249999999922851E-01     0.0000000000000000E+00     0.0000000000000000E+00 
    3.7499999999904610E-01     0.0000000000000000E+00     0.0000000000000000E+00 
    4.3749999999886358E-01     0.0000000000000000E+00     0.0000000000000000E+00 
    4.9999999999869210E-01     0.0000000000000000E+00     0.0000000000000000E+00 
    5.6249999999884603E-01     0.0000000000000000E+00     0.0000000000000000E+00 
    6.2499999999901090E-01     0.0000000000000000E+00     0.0000000000000000E+00 
    6.8749999999917577E-01     0.0000000000000000E+00     0.0000000000000000E+00 
    7.4999999999934064E-01     0.0000000000000000E+00     0.0000000000000000E+00 
    8.1249999999950551E-01     0.0000000000000000E+00     0.0000000000000000E+00 
    8.7499999999967026E-01     0.0000000000000000E+00     0.0000000000000000E+00 
    9.3749999999983513E-01     0.0000000000000000E+00     0.0000000000000000E+00 
    1.0000000000000000E+00     6.2499999999872928E-02     0.0000000000000000E+00 
    1.0000000000000000E+00     1.2499999999977310E-01     0.0000000000000000E+00 
    1.0000000000000000E+00     1.8749999999959341E-01     0.0000000000000000E+00 
    1.0000000000000000E+00     2.4999999999941089E-01     0.0000000000000000E+00 
    1.0000000000000000E+00     3.1249999999922851E-01     0.0000000000000000E+00 
    1.0000000000000000E+00     3.7499999999904610E-01     0.0000000000000000E+00 
    1.0000000000000000E+00     4.3749999999886358E-01     0.0000000000000000E+00 
    1.0000000000000000E+00     4.9999999999869210E-01     0.0000000000000000E+00 
    1.0000000000000000E+00     5.6249999999884603E-01     0.0000000000000000E+00 
    1.0000000000000000E+00     6.2499999999901090E-01     0.0000000000000000E+00 
    1.0000000000000000E+00     6.8749999999917577E-01     0.0000000000000000E+00 
    1.0000000000000000E+00     7.4999999999934064E-01     0.0000000000000000E+00 
    1.0000000000000000E+00     8.1249999999950551E-01     0.0000000000000000E+00 
    1.0000000000000000E+00     8.7499999999967026E-01     0.0000000000000000E+00 
    1.0000000000000000E+00     9.3749999999983513E-01     0.0000000000000000E+00 
    9.3749999999973976E-01     1.0000000000000000E+00     0.0000000000000000E+00 
    8.7499999999950118E-01     1.0000000000000000E+00     0.0000000000000000E+00 
    8.1249999999991318E-01     1.0000000000000000E+00     0.0000000000000000E+00 
    7.5000000000034706E-01     1.0000000000000000E+00     0.0000000000000000E+00 
    6.8750000000078049E-01     1.0000000000000000E+00     0.0000000000000000E+00 
    6.2500000000121403E-01     1.0000000000000000E+00     0.0000000000000000E+00 
    5.6250000000164757E-01     1.0000000000000000E+00     0.0000000000000000E+00 
    5.0000000000205946E-01     1.0000000000000000E+00     0.0000000000000000E+00 
    4.3750000000182099E-01     1.0000000000000000E+00     0.0000000000000000E+00 
    3.7500000000156092E-01     1.0000000000000000E+00     0.0000000000000000E+00 
    3.1250000000130068E-01     1.0000000000000000E+00     0.0000000000000000E+00 
    2.5000000000104050E-01     1.0000000000000000E+00     0.0000000000000000E+00 
    1.8750000000078040E-01     1.0000000000000000E+00     0.0000000000000000E+00 
    1.2500000000052031E-01     1.0000000000000000E+00     0.0000000000000000E+00 
    6.2500000000260125E-02     1.0000000000000000E+00     0.0000000000000000E+00 
    0.0000000000000000E+00     9.3749999999973976E-01     0.0000000000000000E+00 
    0.0000000000000000E+00     8.7499999999950118E-01     0.0000000000000000E+00 
    0.0000000000000000E+00     8.1249999999991318E-01     0.0000000000000000E+00 
    0.0000000000000000E+00     7.5000000000034706E-01     0.0000000000000000E+00 
    0.0000000000000000E+00     6.8750000000078049E-01     0.0000000000000000E+00 
    0.0000000000000000E+00     6.2500000000121403E-01     0.0000000000000000E+00 
    0.0000000000000000E+00     5.6250000000164757E-01     0.0000000000000000E+00 
    0.0000000000000000E+00     5.0000000000205946E-01     0.0000000000000000E+00 
    0.0000000000000000E+00     4.3750000000182099E-01     0.0000000000000000E+00 
    0.0000000000000000E+00     3.7500000000156092E-01     0.0000000000000000E+00 
    0.0000000000000000E+00     3.1250000000130068E-01     0.0000000000000000E+00 
    0.0000000000000000E+00     2.5000000000104050E-01     0.0000000000000000E+00 
    0.0000000000000000E+00     1.8750000000078040E-01     0.0000000000000000E+00 
    0.0000000000000000E+00     1.2500000000052031E-01     0.0000000000000000E+00 
    0.0000000000000000E+00     6.2500000000260125E-02     0.0000000000000000E+00 
    6.2499999999897131E-02     6.2500000000235922E-02     0.0000000000000000E+00 
    6.2499999999921327E-02     1.2500000000047351E-01     0.0000000000000000E+00 
    6.2499999999945530E-02     1.8750000000070621E-01     0.0000000000000000E+00 
    6.2499999999969733E-02     2.5000000000093858E-01     0.0000000000000000E+00 
    6.2499999999993928E-02     3.1250000000117117E-01     0.0000000000000000E+00 
    6.2500000000018124E-02     3.7500000000140382E-01     0.0000000000000000E+00 
    6.2500000000042327E-02     4.3750000000163619E-01     0.0000000000000000E+00 
    6.2500000000066530E-02     5.0000000000184897E-01     0.0000000000000000E+00 
    6.2500000000090733E-02     5.6250000000147260E-01     0.0000000000000000E+00 
    6.2500000000114922E-02     6.2500000000107636E-01     0.0000000000000000E+00 
    6.2500000000139125E-02     6.8750000000068034E-01     0.0000000000000000E+00 
    6.2500000000163328E-02     7.5000000000028411E-01     0.0000000000000000E+00 
    6.2500000000187531E-02     8.1249999999988787E-01     0.0000000000000000E+00 
    6.2500000000211720E-02     8.7499999999951172E-01     0.0000000000000000E+00 
    6.2500000000235922E-02     9.3749999999974565E-01     0.0000000000000000E+00 
    1.2499999999981980E-01     6.2500000000211733E-02     0.0000000000000000E+00 
    1.2499999999986650E-01     1.2500000000042691E-01     0.0000000000000000E+00 
    1.2499999999991319E-01     1.8750000000063199E-01     0.0000000000000000E+00 
    1.2499999999995989E-01     2.5000000000083678E-01     0.0000000000000000E+00 
    1.2500000000000661E-01     3.1250000000104172E-01     0.0000000000000000E+00 
    1.2500000000005329E-01     3.7500000000124661E-01     0.0000000000000000E+00 
    1.2500000000010000E-01     4.3750000000145117E-01     0.0000000000000000E+00 
    1.2500000000014669E-01     5.0000000000163858E-01     0.0000000000000000E+00 
    1.2500000000019340E-01     5.6250000000129741E-01     0.0000000000000000E+00 
    1.2500000000024011E-01     6.2500000000093847E-01     0.0000000000000000E+00 
    1.2500000000028680E-01     6.8750000000057998E-01     0.0000000000000000E+00 
    1.2500000000033351E-01     7.5000000000022127E-01     0.0000000000000000E+00 
    1.2500000000038020E-01     8.1249999999986211E-01     0.0000000000000000E+00 
    1.2500000000042691E-01     8.7499999999952238E-01     0.0000000000000000E+00 
    1.2500000000047359E-01     9.3749999999975164E-01     0.0000000000000000E+00 
    1.8749999999966760E-01     6.2500000000187531E-02     0.0000000000000000E+00 
    1.8749999999974179E-01     1.2500000000038020E-01     0.0000000000000000E+00 
    1.8749999999981601E-01     1.8750000000055780E-01     0.0000000000000000E+00 
    1.8749999999989009E-01     2.5000000000073502E-01     0.0000000000000000E+00 
    1.8749999999996431E-01     3.1250000000091221E-01     0.0000000000000000E+00 
    1.8750000000003850E-01     3.7500000000108941E-01     0.0000000000000000E+00 
    1.8750000000011269E-01     4.3750000000126649E-01     0.0000000000000000E+00 
    1.8750000000018691E-01     5.0000000000142808E-01     0.0000000000000000E+00 
    1.8750000000026110E-01     5.6250000000112244E-01     0.0000000000000000E+00 
    1.8750000000033529E-01     6.2500000000080080E-01     0.0000000000000000E+00 
    1.8750000000040951E-01     6.8750000000047962E-01     0.0000000000000000E+00 
    1.8750000000048361E-01     7.5000000000015843E-01     0.0000000000000000E+00 
    1.8750000000055780E-01     8.1249999999983680E-01     0.0000000000000000E+00 
    1.8750000000063199E-01     8.7499999999953304E-01     0.0000000000000000E+00 
    1.8750000000070621E-01     9.3749999999975764E-01     0.0000000000000000E+00 
    2.4999999999951281E-01     6.2500000000163314E-02     0.0000000000000000E+00 
    2.4999999999961461E-01     1.2500000000033351E-01     0.0000000000000000E+00 
    2.4999999999971650E-01     1.8750000000048361E-01     0.0000000000000000E+00 
    2.4999999999981831E-01     2.5000000000063310E-01     0.0000000000000000E+00 
    2.4999999999992020E-01     3.1250000000078260E-01     0.0000000000000000E+00 
    2.5000000000002198E-01     3.7500000000093209E-01     0.0000000000000000E+00 
    2.5000000000012390E-01     4.3750000000108180E-01     0.0000000000000000E+00 
    2.5000000000022571E-01     5.0000000000121769E-01     0.0000000000000000E+00 
    2.5000000000032763E-01     5.6250000000094724E-01     0.0000000000000000E+00 
    2.5000000000042938E-01     6.2500000000066314E-01     0.0000000000000000E+00 
    2.5000000000053119E-01     6.8750000000037925E-01     0.0000000000000000E+00 
[...]
CELL_DATA 256 
SCALARS Pressure double 1 
LOOKUP_TABLE default 

    2.2281308786299281E+00 
    2.1246212197055825E+00 
    2.0584597217457334E+00 
    2.0074469928598524E+00 
    1.9636525012516370E+00 
    1.9249644086968609E+00 
    1.8896528990792323E+00 
    1.8568391280257281E+00 
    1.8266905825376829E+00 
    1.7992289233068439E+00 
    1.7745851178104675E+00 
    1.7530978766260408E+00 
    1.7349923467163368E+00 
    1.7180841502442636E+00 
    1.7047938016875361E+00 
    1.6985280414559756E+00 
    2.1246453372156244E+00 
    2.0820656851642618E+00 
    2.0369001100993995E+00 
    1.9937775322055098E+00 
    1.9538882869275733E+00 
    1.9173517705808025E+00 
    1.8830344692515308E+00 
    1.8508142435811055E+00 
    1.8209960567952224E+00 
    1.7936245157138375E+00 
    1.7689490530453156E+00 
    1.7473585387270709E+00 
    1.7291083417224209E+00 
    1.7120370516997614E+00 
    1.6985994615992193E+00 
    1.6922671765333304E+00 
    2.0585241967884320E+00 
    2.0369402886905275E+00 
    2.0055951944527437E+00 
    1.9710358333048477E+00 
    1.9365953346876239E+00 
    1.9030471235720805E+00 
    1.8703793265417268E+00 
    1.8392034649378084E+00 
    1.8098500739122791E+00 
    1.7825803628964352E+00 
    1.7577951623189774E+00 
    1.7359295685490117E+00 
    1.7173489118950236E+00 
    1.6999201767849550E+00 
    1.6861731270134033E+00 
    1.6796931015256777E+00 
    2.0075681129001604E+00 
    1.9938705300896642E+00 
    1.9710856734178959E+00 
    1.9436484742639426E+00 
    1.9140536294223529E+00 
    1.8834049186778092E+00 
    1.8526124781270783E+00 
    1.8225387734298344E+00 
    1.7936257615994513E+00 
    1.7663570014611085E+00 
    1.7412309758280731E+00 
    1.7188326632233468E+00 
    1.6996698675582069E+00 
    1.6816298908280369E+00 
    1.6673809280014855E+00 
    1.6606546832000331E+00 
    1.9638278433546084E+00 
    1.9540281863835363E+00 
    1.9366915817408965E+00 
    1.9141019999146249E+00 
    1.8880244196478042E+00 
    1.8598255926008407E+00 
    1.8307239222469129E+00 
    1.8015524108488772E+00 
    1.7728444198545812E+00 
    1.7452434293721928E+00 
    1.7194085870482521E+00 
    1.6961147930528804E+00 
    1.6760003594496802E+00 
    1.6570141497654767E+00 
    1.6420169822888500E+00 
    1.6349101454708699E+00 
    1.9251691064507468E+00 
    1.9175285047317989E+00 
    1.9031856854320457E+00 
    1.8834992029761057E+00 
    1.8598738725403143E+00 
    1.8335883225874805E+00 
    1.8057266524693600E+00 
    1.7769806302356177E+00 
    1.7479916905444508E+00 
    1.7195702732138527E+00 
    1.6925526606014307E+00 
    1.6678587395399829E+00 
    1.6462698366370119E+00 
    1.6258805423789620E+00 
    1.6097731258562460E+00 
    1.6020829335323099E+00 
    1.8898908480654388E+00 
    1.8832501619404969E+00 
    1.8705595483901918E+00 
    1.8527482704186029E+00 
    1.8308117599978675E+00 
    1.8057681203357026E+00 
    1.7784403497992651E+00 
    1.7494416780422870E+00 
    1.7195650893983667E+00 
    1.6897289158236286E+00 
    1.6609033570569425E+00 
    1.6340834337294743E+00 
    1.6102949235056501E+00 
    1.5878699734103321E+00 
    1.5701329464897948E+00 
    1.5615520317658147E+00 
    1.8571116574454245E+00 
    1.8510652487579886E+00 
    1.8394194941878761E+00 
    1.8227127815202242E+00 
    1.8016823669493884E+00 
    1.7770668098961613E+00 
    1.7494852936815348E+00 
    1.7195795607329663E+00 
    1.6881861807853062E+00 
    1.6562315190248826E+00 
    1.6246991079161164E+00 
    1.5947480003292509E+00 
    1.5677240265663195E+00 
    1.5424257664931005E+00 
    1.5223746057574352E+00 
    1.5124222584450562E+00 
    1.8269926276589834E+00 
    1.8212781669549551E+00 
    1.8101011918772767E+00 
    1.7938398975578109E+00 
    1.7730178186565666E+00 
    1.7481216869502039E+00 
    1.7196536583616089E+00 
    1.6882296381113606E+00 
    1.6546042450268987E+00 
    1.6195979270215222E+00 
    1.5842209721690581E+00 
    1.5498343257252571E+00 
    1.5181621746834111E+00 
    1.4888547092117252E+00 
    1.4653848380446934E+00 
    1.4532039599228876E+00 
    1.7995568138046087E+00 
    1.7939354703129149E+00 
    1.7828666604201358E+00 
    1.7666116980717674E+00 
    1.7454602746989818E+00 
    1.7197418810973284E+00 
    1.6898551638762713E+00 
    1.6563090206545144E+00 
    1.6196334129100014E+00 
    1.5805154719773506E+00 
    1.5399800185609569E+00 
    1.4995506399678002E+00 
    1.4613153094936453E+00 
    1.4261886829126647E+00 
    1.3971804854768868E+00 
    1.3812565880229655E+00 
    1.7749385981857222E+00 
    1.7692907460345491E+00 
    1.7581182534805597E+00 
    1.7415291398561095E+00 
    1.7196737574767449E+00 
    1.6927697909095933E+00 
    1.6610590399221381E+00 
    1.6247991551879375E+00 
    1.5842824573653247E+00 
    1.5400107124822930E+00 
    1.4928721237042151E+00 
    1.4443827499548461E+00 
    1.3969370516182849E+00 
    1.3528783483652860E+00 
    1.3145865545234887E+00 
    1.2924763274934066E+00 
    1.7534800617180326E+00 
    1.7477350031945897E+00 
    1.7362939005401763E+00 
    1.7191774737932317E+00 
    1.6964369443465854E+00 
    1.6681362555822996E+00 
    1.6342840720014016E+00 
    1.5948854338820762E+00 
    1.5499371131680784E+00 
    1.4996183192968835E+00 
    1.4444016484610422E+00 
    1.3855015519631633E+00 
    1.3252719194076001E+00 
    1.2671974261997301E+00 
    1.2137640932694043E+00 
    1.1813640904156766E+00 
    1.7354173359318690E+00 
    1.7295277604390280E+00 
    1.7177572006923880E+00 
    1.7000632162201477E+00 
    1.6763759168454926E+00 
    1.6465867762271647E+00 
    1.6105171609522819E+00 
    1.5678897692242255E+00 
    1.5183088034436436E+00 
    1.4614263590997270E+00 
    1.3969543373237372E+00 
    1.3252559514952977E+00 
    1.2477335668123006E+00 
    1.1678803001016058E+00 
    1.0899822563362687E+00 
    1.0381311348143214E+00 
    1.7185479133912964E+00 
    1.7124903551912851E+00 
    1.7003577052179546E+00 
    1.6820496279940989E+00 
    1.6573949717063385E+00 
    1.6261703500196110E+00 
    1.5880587371986110E+00 
    1.5425548466677510E+00 
    1.4889567023176260E+00 
    1.4262535152376556E+00 
    1.3528616108215503E+00 
    1.2672457678120639E+00 
    1.1679990199421826E+00 
    1.0560593559130735E+00 
    9.3637293768552021E-01 
    8.3843780873894869E-01 
    1.7052695666093201E+00 
    1.6990647515460426E+00 
    1.6866195411917684E+00 
    1.6677980674444306E+00 
    1.6423738736561129E+00 
    1.6100393584104853E+00 
    1.5703148364754704E+00 
    1.5224910257567867E+00 
    1.4654684632316655E+00 
    1.3972467337437744E+00 
    1.3146519533531837E+00 
    1.2139252025244831E+00 
    1.0900736423520558E+00 
    9.3620976571668368E-01 
    7.4578107486578304E-01 
    5.3457884332090144E-01 
    1.6989966069931446E+00 
    1.6927251475892144E+00 
    1.6801300049374281E+00 
    1.6610568875199037E+00 
    1.6352525414201782E+00 
    1.6023469074758081E+00 
    1.5617393127111865E+00 
    1.5125478834762824E+00 
    1.4533012121200315E+00 
    1.3813647533115931E+00 
    1.2926280711196092E+00 
    1.1815206198800852E+00 
    1.0380515957230259E+00 
    8.3800015863656596E-01 
    5.3443699426625502E-01 
    0.0000000000000000E+00 

SCALARS Saturarion double 1 
LOOKUP_TABLE default 

    1.0000000002026233E+00 
    9.7244161670866525E-01 
    9.2380161977263608E-01 
    8.6955971220149308E-01 
    8.1462610460637852E-01 
    7.6156821286932419E-01 
    7.1239419728289521E-01 
    6.6748609282213556E-01 
    6.2604612845143714E-01 
    5.8534322725897892E-01 
    5.4409914482774380E-01 
    5.0266896398357419E-01 
    4.5220503554732250E-01 
    2.0163887622579263E-01 
    6.6606585399685996E-04 
    1.0276551417505228E-06 
    9.7243922305341746E-01 
    9.5204274688246771E-01 
    9.0868165066399209E-01 
    8.5756115410559919E-01 
    8.0575751879306112E-01 
    7.5541577561272677E-01 
    7.0816765344717147E-01 
    6.6466533680134121E-01 
    6.2429096059113365E-01 
    5.8447048896052323E-01 
    5.4377123921931059E-01 
    5.0262866226405201E-01 
    4.5314832629473478E-01 
    2.0147856593416175E-01 
    6.9534558225168804E-04 
    1.0000692308213587E-06 
    9.2378831006436413E-01 
    9.0867050786739767E-01 
    8.7313296182037925E-01 
    8.3019845950749649E-01 
    7.8523046806310592E-01 
    7.4035056713629077E-01 
    6.9735701242249759E-01 
    6.5719778800338591E-01 
    6.1927550109083995E-01 
    5.8112625190334566E-01 
    5.4185547939066636E-01 
    5.0186849958158930E-01 
    4.5309189304291181E-01 
    2.0198339706293694E-01 
    8.1706924386226200E-04 
    1.0226801352278457E-06 
    8.6952832331338759E-01 
    8.5753496072075497E-01 
    8.3018154630840124E-01 
    7.9487255532254752E-01 
    7.5807868380667121E-01 
    7.2036256983082314E-01 
    6.8294054298364992E-01 
    6.4691705814135603E-01 
    6.1187079902699315E-01 
    5.7601467716137211E-01 
    5.3888302950613731E-01 
    5.0057735735083331E-01 
    4.5279223691683068E-01 
    2.0485933778170884E-01 
    7.0047000994435634E-04 
    1.0061870385614905E-06 
    8.1459275137675791E-01 
    8.0573633434909087E-01 
    7.8521217548308675E-01 
    7.5806610476787784E-01 
    7.2823896713099434E-01 
    6.9782642037696596E-01 
    6.6650801719561015E-01 
    6.3482813985260056E-01 
    6.0276692403287901E-01 
    5.6991087567183518E-01 
    5.3553034503569674E-01 
    4.9943462658954618E-01 
    4.5243964692688760E-01 
    2.1994096330376320E-01 
    7.2377264763866234E-04 
    1.0244151393251491E-06 
    7.6159921940601105E-01 
    7.5542455945636378E-01 
    7.4034496970686592E-01 
    7.2034705929566778E-01 
    6.9781175182992994E-01 
    6.7366253656075681E-01 
    6.4765075582684040E-01 
    6.2035631585110762E-01 
    5.9216913854018305E-01 
    5.6294548594221838E-01 
    5.3171940998626543E-01 
    4.9861010732563565E-01 
    4.5526766000293906E-01 
    2.4131943847300530E-01 
    8.1998535926853242E-04 
    1.0134696493169936E-06 
    7.1243461751439940E-01 
    7.0818119802028412E-01 
    6.9734916807172587E-01 
    6.8291529860875422E-01 
    6.6647861410386811E-01 
    6.4763518842438916E-01 
    6.2635708096950948E-01 
    6.0368266471321297E-01 
    5.7995365264882992E-01 
    5.5476455496754129E-01 
    5.2698948065271223E-01 
    4.9648283074867566E-01 
    4.5692092368797477E-01 
    2.6235283713885377E-01 
    1.7093270195147662E-03 
    1.1147927403432940E-06 
    6.6750110960696862E-01 
    6.6466459119950361E-01 
    6.5717681691526075E-01 
    6.4687931303272284E-01 
    6.3479290947627198E-01 
    6.2033374666858032E-01 
    6.0366480023234315E-01 
    5.8557942869438284E-01 
    5.6640777468550463E-01 
    5.4548133899699969E-01 
    5.2176190874306838E-01 
    4.9425657907639314E-01 
    4.5754737340204954E-01 
    2.8672719076083464E-01 
    3.9425762596409838E-03 
    1.3398354967858927E-06 
    6.2605906573871095E-01 
    6.2428601555221908E-01 
    6.1924510397702981E-01 
    6.1183300691421849E-01 
    6.0274152369209988E-01 
    5.9214294007278667E-01 
    5.7990368085580701E-01 
    5.6634556413114301E-01 
    5.5151208188364320E-01 
    5.3502765542756114E-01 
    5.1575983697314998E-01 
    4.9241383975645120E-01 
    4.5983424153735447E-01 
    3.2022613202096878E-01 
    1.5352640022331492E-02 
    3.4839460428120058E-06 
    5.8537164249548479E-01 
    5.8443723894783195E-01 
    5.8104023970903640E-01 
    5.7591473544802263E-01 
    5.6981773892721799E-01 
    5.6281984247224093E-01 
    5.5457613613755585E-01 
    5.4526526906949213E-01 
    5.3484007704197434E-01 
    5.2288641615055076E-01 
    5.0841581509072586E-01 
    4.9018333262449471E-01 
    4.6359961155339435E-01 
    3.6072787895354791E-01 
    5.0426130041751387E-02 
    5.9589923439586296E-04 
    5.4423136188665655E-01 
    5.4384483346927603E-01 
    5.4191263167000248E-01 
    5.3894493759392670E-01 
    5.3553365357961513E-01 
    5.3170014143501798E-01 
    5.2701573737388463E-01 
    5.2177571000948175E-01 
    5.1566685746930463E-01 
    5.0825738983888868E-01 
    4.9891235871381057E-01 
    4.8620277672001488E-01 
    4.6728895520256436E-01 
    3.9757294860154807E-01 
    1.1149996630879942E-01 
    2.3580716441947135E-04 
    5.0316644716792447E-01 
    5.0313348980567818E-01 
    5.0235982154206238E-01 
    5.0086378394890374E-01 
    4.9945945372750844E-01 
    4.9857317785745375E-01 
    4.9678396706252947E-01 
    4.9511333604237351E-01 
    4.9327852013213014E-01 
    4.9050226201819319E-01 
    4.8615807693800045E-01 
    4.7959773288744334E-01 
    4.6857961218731708E-01 
    4.2652660063622228E-01 
    1.8435910409208120E-01 
    4.2967430736852170E-04 
    4.5378306303093990E-01 
    4.5394741732399074E-01 
    4.5354346011871921E-01 
    4.5318387079221456E-01 
    4.5333586754456179E-01 
    4.5374271586054493E-01 
    4.5540426965322578E-01 
    4.5728500253210624E-01 
    4.6040101275979761E-01 
    4.6409840988883155E-01 
    4.6776623217862190E-01 
    4.6864903691948279E-01 
    4.6616148772583532E-01 
    4.4170233138413795E-01 
    2.8472426552100227E-01 
    2.1243211280488429E-02 
    2.0275580865031986E-01 
    2.0307975713081530E-01 
    2.0313564009360113E-01 
    2.0341889083764503E-01 
    2.1313981752340977E-01 
    2.3557025825540912E-01 
    2.6062456162329817E-01 
    2.8352877973995277E-01 
    3.1730284004807580E-01 
    3.5790035608885773E-01 
    3.9502561731757818E-01 
    4.2951245670032601E-01 
    4.4262280635742396E-01 
    4.4445719346836765E-01 
    3.6996727215981967E-01 
    1.1947201234117634E-01 
    3.5317357055481997E-05 
    3.0114525873062616E-06 
    5.5350172582831378E-05 
    5.1913750658987981E-05 
    1.2379538677287352E-03 
    4.8976017975628343E-04 
    1.4348387136486969E-03 
    2.3753815353337675E-03 
    1.2413982450150109E-02 
    4.7603661715773446E-02 
    1.0453280857890827E-01 
    1.7608463039833433E-01 
    2.8084916028429974E-01 
    3.6898625550932718E-01 
    3.9435499995353007E-01 
    2.4265377680796593E-01 
    1.0000138126063503E-06 
    1.0000004076468526E-06 
    1.0000371371158401E-06 
    1.0000353124907693E-06 
    1.1013677704623770E-06 
    1.0079776704215539E-06 
    1.0940275633423791E-06 
    1.0926451752402160E-06 
    2.1640327882401223E-06 
    1.9928184259258218E-05 
    8.3536258412480170E-05 
    3.3077558374499115E-04 
    2.1558260346254465E-02 
    1.1903730915386201E-01 
    2.4742519721657175E-01 
    2.4596821693745013E-01 
