# vtk DataFile Version 2.0
Pressure Field Data 
ASCII 
DATASET UNSTRUCTURED_GRID 

POINTS 289 double 

    0.0000000000000000E+00     0.0000000000000000E+00     0.0000000000000000E+00 
    1.0000000000000000E+00     0.0000000000000000E+00     0.0000000000000000E+00 
    1.0000000000000000E+00     1.0000000000000000E+00     0.0000000000000000E+00 
    0.0000000000000000E+00     1.0000000000000000E+00     0.0000000000000000E+00 
    6.2499999999872928E-02     0.0000000000000000E+00     0.0000000000000000E+00 
    1.2499999999977310E-01     0.0000000000000000E+00     0.0000000000000000E+00 
    1.8749999999959341E-01     0.0000000000000000E+00     0.0000000000000000E+00 
    2.4999999999941089E-01     0.0000000000000000E+00     0.0000000000000000E+00 
    3.1249999999922851E-01     0.0000000000000000E+00     0.0000000000000000E+00 
    3.7499999999904610E-01     0.0000000000000000E+00     0.0000000000000000E+00 
    4.3749999999886358E-01     0.0000000000000000E+00     0.0000000000000000E+00 
    4.9999999999869210E-01     0.0000000000000000E+00     0.0000000000000000E+00 
    5.6249999999884603E-01     0.0000000000000000E+00     0.0000000000000000E+00 
    6.2499999999901090E-01     0.0000000000000000E+00     0.0000000000000000E+00 
    6.8749999999917577E-01     0.0000000000000000E+00     0.0000000000000000E+00 
    7.4999999999934064E-01     0.0000000000000000E+00     0.0000000000000000E+00 
    8.1249999999950551E-01     0.0000000000000000E+00     0.0000000000000000E+00 
    8.7499999999967026E-01     0.0000000000000000E+00     0.0000000000000000E+00 
    9.3749999999983513E-01     0.0000000000000000E+00     0.0000000000000000E+00 
    1.0000000000000000E+00     6.2499999999872928E-02     0.0000000000000000E+00 
    1.0000000000000000E+00     1.2499999999977310E-01     0.0000000000000000E+00 
    1.0000000000000000E+00     1.8749999999959341E-01     0.0000000000000000E+00 
    1.0000000000000000E+00     2.4999999999941089E-01     0.0000000000000000E+00 
    1.0000000000000000E+00     3.1249999999922851E-01     0.0000000000000000E+00 
    1.0000000000000000E+00     3.7499999999904610E-01     0.0000000000000000E+00 
    1.0000000000000000E+00     4.3749999999886358E-01     0.0000000000000000E+00 
    1.0000000000000000E+00     4.9999999999869210E-01     0.0000000000000000E+00 
    1.0000000000000000E+00     5.6249999999884603E-01     0.0000000000000000E+00 
    1.0000000000000000E+00     6.2499999999901090E-01     0.0000000000000000E+00 
    1.0000000000000000E+00     6.8749999999917577E-01     0.0000000000000000E+00 
    1.0000000000000000E+00     7.4999999999934064E-01     0.0000000000000000E+00 
    1.0000000000000000E+00     8.1249999999950551E-01     0.0000000000000000E+00 
    1.0000000000000000E+00     8.7499999999967026E-01     0.0000000000000000E+00 
    1.0000000000000000E+00     9.3749999999983513E-01     0.0000000000000000E+00 
    9.3749999999973976E-01     1.0000000000000000E+00     0.0000000000000000E+00 
    8.7499999999950118E-01     1.0000000000000000E+00     0.0000000000000000E+00 
    8.1249999999991318E-01     1.0000000000000000E+00     0.0000000000000000E+00 
    7.5000000000034706E-01     1.0000000000000000E+00     0.0000000000000000E+00 
    6.8750000000078049E-01     1.0000000000000000E+00     0.0000000000000000E+00 
    6.2500000000121403E-01     1.0000000000000000E+00     0.0000000000000000E+00 
    5.6250000000164757E-01     1.0000000000000000E+00     0.0000000000000000E+00 
    5.0000000000205946E-01     1.0000000000000000E+00     0.0000000000000000E+00 
    4.3750000000182099E-01     1.0000000000000000E+00     0.0000000000000000E+00 
    3.7500000000156092E-01     1.0000000000000000E+00     0.0000000000000000E+00 
    3.1250000000130068E-01     1.0000000000000000E+00     0.0000000000000000E+00 
    2.5000000000104050E-01     1.0000000000000000E+00     0.0000000000000000E+00 
    1.8750000000078040E-01     1.0000000000000000E+00     0.0000000000000000E+00 
    1.2500000000052031E-01     1.0000000000000000E+00     0.0000000000000000E+00 
    6.2500000000260125E-02     1.0000000000000000E+00     0.0000000000000000E+00 
    0.0000000000000000E+00     9.3749999999973976E-01     0.0000000000000000E+00 
    0.0000000000000000E+00     8.7499999999950118E-01     0.0000000000000000E+00 
    0.0000000000000000E+00     8.1249999999991318E-01     0.0000000000000000E+00 
    0.0000000000000000E+00     7.5000000000034706E-01     0.0000000000000000E+00 
    0.0000000000000000E+00     6.8750000000078049E-01     0.0000000000000000E+00 
    0.0000000000000000E+00     6.2500000000121403E-01     0.0000000000000000E+00 
    0.0000000000000000E+00     5.6250000000164757E-01     0.0000000000000000E+00 
    0.0000000000000000E+00     5.0000000000205946E-01     0.0000000000000000E+00 
    0.0000000000000000E+00     4.3750000000182099E-01     0.0000000000000000E+00 
    0.0000000000000000E+00     3.7500000000156092E-01     0.0000000000000000E+00 
    0.0000000000000000E+00     3.1250000000130068E-01     0.0000000000000000E+00 
    0.0000000000000000E+00     2.5000000000104050E-01     0.0000000000000000E+00 
    0.0000000000000000E+00     1.8750000000078040E-01     0.0000000000000000E+00 
    0.0000000000000000E+00     1.2500000000052031E-01     0.0000000000000000E+00 
    0.0000000000000000E+00     6.2500000000260125E-02     0.0000000000000000E+00 
    6.2499999999897131E-02     6.2500000000235922E-02     0.0000000000000000E+00 
    6.2499999999921327E-02     1.2500000000047351E-01     0.0000000000000000E+00 
    6.2499999999945530E-02     1.8750000000070621E-01     0.0000000000000000E+00 
    6.2499999999969733E-02     2.5000000000093858E-01     0.0000000000000000E+00 
    6.2499999999993928E-02     3.1250000000117117E-01     0.0000000000000000E+00 
    6.2500000000018124E-02     3.7500000000140382E-01     0.0000000000000000E+00 
    6.2500000000042327E-02     4.3750000000163619E-01     0.0000000000000000E+00 
    6.2500000000066530E-02     5.0000000000184897E-01     0.0000000000000000E+00 
    6.2500000000090733E-02     5.6250000000147260E-01     0.0000000000000000E+00 
    6.2500000000114922E-02     6.2500000000107636E-01     0.0000000000000000E+00 
    6.2500000000139125E-02     6.8750000000068034E-01     0.0000000000000000E+00 
    6.2500000000163328E-02     7.5000000000028411E-01     0.0000000000000000E+00 
    6.2500000000187531E-02     8.1249999999988787E-01     0.0000000000000000E+00 
    6.2500000000211720E-02     8.7499999999951172E-01     0.0000000000000000E+00 
    6.2500000000235922E-02     9.3749999999974565E-01     0.0000000000000000E+00 
    1.2499999999981980E-01     6.2500000000211733E-02     0.0000000000000000E+00 
    1.2499999999986650E-01     1.2500000000042691E-01     0.0000000000000000E+00 
    1.2499999999991319E-01     1.8750000000063199E-01     0.0000000000000000E+00 
    1.2499999999995989E-01     2.5000000000083678E-01     0.0000000000000000E+00 
    1.2500000000000661E-01     3.1250000000104172E-01     0.0000000000000000E+00 
    1.2500000000005329E-01     3.7500000000124661E-01     0.0000000000000000E+00 
    1.2500000000010000E-01     4.3750000000145117E-01     0.0000000000000000E+00 
    1.2500000000014669E-01     5.0000000000163858E-01     0.0000000000000000E+00 
    1.2500000000019340E-01     5.6250000000129741E-01     0.0000000000000000E+00 
    1.2500000000024011E-01     6.2500000000093847E-01     0.0000000000000000E+00 
    1.2500000000028680E-01     6.8750000000057998E-01     0.0000000000000000E+00 
    1.2500000000033351E-01     7.5000000000022127E-01     0.0000000000000000E+00 
    1.2500000000038020E-01     8.1249999999986211E-01     0.0000000000000000E+00 
    1.2500000000042691E-01     8.7499999999952238E-01     0.0000000000000000E+00 
    1.2500000000047359E-01     9.3749999999975164E-01     0.0000000000000000E+00 
    1.8749999999966760E-01     6.2500000000187531E-02     0.0000000000000000E+00 
    1.8749999999974179E-01     1.2500000000038020E-01     0.0000000000000000E+00 
    1.8749999999981601E-01     1.8750000000055780E-01     0.0000000000000000E+00 
    1.8749999999989009E-01     2.5000000000073502E-01     0.0000000000000000E+00 
    1.8749999999996431E-01     3.1250000000091221E-01     0.0000000000000000E+00 
    1.8750000000003850E-01     3.7500000000108941E-01     0.0000000000000000E+00 
    1.8750000000011269E-01     4.3750000000126649E-01     0.0000000000000000E+00 
    1.8750000000018691E-01     5.0000000000142808E-01     0.0000000000000000E+00 
    1.8750000000026110E-01     5.6250000000112244E-01     0.0000000000000000E+00 
    1.8750000000033529E-01     6.2500000000080080E-01     0.0000000000000000E+00 
    1.8750000000040951E-01     6.8750000000047962E-01     0.0000000000000000E+00 
    1.8750000000048361E-01     7.5000000000015843E-01     0.0000000000000000E+00 
    1.8750000000055780E-01     8.1249999999983680E-01     0.0000000000000000E+00 
    1.8750000000063199E-01     8.7499999999953304E-01     0.0000000000000000E+00 
    1.8750000000070621E-01     9.3749999999975764E-01     0.0000000000000000E+00 
    2.4999999999951281E-01     6.2500000000163314E-02     0.0000000000000000E+00 
    2.4999999999961461E-01     1.2500000000033351E-01     0.0000000000000000E+00 
    2.4999999999971650E-01     1.8750000000048361E-01     0.0000000000000000E+00 
    2.4999999999981831E-01     2.5000000000063310E-01     0.0000000000000000E+00 
    2.4999999999992020E-01     3.1250000000078260E-01     0.0000000000000000E+00 
    2.5000000000002198E-01     3.7500000000093209E-01     0.0000000000000000E+00 
    2.5000000000012390E-01     4.3750000000108180E-01     0.0000000000000000E+00 
    2.5000000000022571E-01     5.0000000000121769E-01     0.0000000000000000E+00 
    2.5000000000032763E-01     5.6250000000094724E-01     0.0000000000000000E+00 
    2.5000000000042938E-01     6.2500000000066314E-01     0.0000000000000000E+00 
    2.5000000000053119E-01     6.8750000000037925E-01     0.0000000000000000E+00 
[...]
CELL_DATA 256 
SCALARS Pressure double 1 
LOOKUP_TABLE default 

    2.3049024842105759E+00 
    2.2004106897611728E+00 
    2.1324283958742254E+00 
    2.0788306251879134E+00 
    2.0321247012134935E+00 
    1.9901682293453118E+00 
    1.9512217336719235E+00 
    1.9148316075812453E+00 
    1.8811187633833337E+00 
    1.8500723817279514E+00 
    1.8219097084745792E+00 
    1.7969262775528116E+00 
    1.7719530051310466E+00 
    1.7496845452461680E+00 
    1.7355304330835983E+00 
    1.7284165396320272E+00 
    2.2004288675420902E+00 
    2.1568782274320526E+00 
    2.1098557769343613E+00 
    2.0642686683664260E+00 
    2.0216247531775275E+00 
    1.9818428324213162E+00 
    1.9439839673670616E+00 
    1.9082614446243968E+00 
    1.8748790852732893E+00 
    1.8438987498115440E+00 
    1.8156855311766231E+00 
    1.7905681797011308E+00 
    1.7653594268776378E+00 
    1.7428326248297863E+00 
    1.7285070406843690E+00 
    1.7213053579865689E+00 
    2.1324787835751793E+00 
    2.1098875178358028E+00 
    2.0767929780643066E+00 
    2.0400220006923249E+00 
    2.0029235752477028E+00 
    1.9661979497376487E+00 
    1.9301493206953313E+00 
    1.8955209969236322E+00 
    1.8626020877753555E+00 
    1.8317053417507341E+00 
    1.8033337611990232E+00 
    1.7778866126720201E+00 
    1.7521646879042130E+00 
    1.7290924366543499E+00 
    1.7144003080703474E+00 
    1.7070049381338315E+00 
    2.0789257540347896E+00 
    2.0643409051282156E+00 
    2.0400597895676236E+00 
    2.0105646272959561E+00 
    1.9783459128213023E+00 
    1.9446739190285771E+00 
    1.9106637843537950E+00 
    1.8771815321727698E+00 
    1.8446919589156305E+00 
    1.8137407665182139E+00 
    1.7849767428169174E+00 
    1.7589155210244722E+00 
    1.7323210538712717E+00 
    1.7083467057237967E+00 
    1.6930413035874825E+00 
    1.6853190088893040E+00 
    2.0322587336588378E+00 
    2.0217295955654451E+00 
    2.0029949432962639E+00 
    1.9783819203165685E+00 
    1.9497950272900686E+00 
    1.9187851180514695E+00 
    1.8865861891260045E+00 
    1.8539953734214762E+00 
    1.8216603609644915E+00 
    1.7903295210153642E+00 
    1.7608169925294395E+00 
    1.7337264109557611E+00 
    1.7057573124365537E+00 
    1.6803986229145502E+00 
    1.6641491516072100E+00 
    1.6559229855769881E+00 
    1.9903208039287432E+00 
    1.9819743345932328E+00 
    1.9663018289142067E+00 
    1.9447455750493157E+00 
    1.9188225541495754E+00 
    1.8898698546820387E+00 
    1.8589054734071384E+00 
    1.8266875924338692E+00 
    1.7940396779403380E+00 
    1.7618600778226017E+00 
    1.7310666425100081E+00 
    1.7023501691874310E+00 
    1.6723212811157702E+00 
    1.6449288018904531E+00 
    1.6272863459406803E+00 
    1.6183161073556118E+00 
    1.9514013503494441E+00 
    1.9441474698324694E+00 
    1.9302869693948790E+00 
    1.9107687120541244E+00 
    1.8866552088369721E+00 
    1.8589384205014738E+00 
    1.8284484683086513E+00 
    1.7959706520755545E+00 
    1.7624264070593125E+00 
    1.7287379095955340E+00 
    1.6959139827392677E+00 
    1.6647608534123808E+00 
    1.6317560456401101E+00 
    1.6014465947702445E+00 
    1.5817863834042187E+00 
    1.5717309042114422E+00 
    1.9150373757138794E+00 
    1.9084511501564509E+00 
    1.8956857028885412E+00 
    1.8773160825536270E+00 
    1.8540968719275364E+00 
    1.8267538884850916E+00 
    1.7960028585900842E+00 
    1.7626293513426983E+00 
    1.7274720158943506E+00 
    1.6914362147798589E+00 
    1.6556274847305887E+00 
    1.6209964776683481E+00 
    1.5837543936382728E+00 
    1.5492888188740552E+00 
    1.5267253973589650E+00 
    1.5150957170897363E+00 
    1.8813414232127346E+00 
    1.8750874246258642E+00 
    1.8627901919939349E+00 
    1.8448536975746908E+00 
    1.8217867835767214E+00 
    1.7941252578774747E+00 
    1.7624803231628596E+00 
    1.7274997812518555E+00 
    1.6898742267155977E+00 
    1.6504868864727831E+00 
    1.6105523611805155E+00 
    1.5710582689459947E+00 
    1.5278312950348363E+00 
    1.4874825357257260E+00 
    1.4607524441082023E+00 
    1.4468347712877874E+00 
    1.8503093017855992E+00 
    1.8441270611653622E+00 
    1.8319226062486873E+00 
    1.8139371789804914E+00 
    1.7904859362105829E+00 
    1.7619676910846929E+00 
    1.7288181633696644E+00 
    1.6915022604439724E+00 
    1.6505300353547347E+00 
    1.6067139122117660E+00 
    1.5612284347162131E+00 
    1.5149009603341907E+00 
    1.4631897539207599E+00 
    1.4146583299614470E+00 
    1.3819743637277404E+00 
    1.3646615672032403E+00 
    1.8221834118585152E+00 
    1.8159585590457903E+00 
    1.8036048858413718E+00 
    1.7852316180761172E+00 
    1.7610322005545755E+00 
    1.7312364617599953E+00 
    1.6960587165054966E+00 
    1.6557580956887068E+00 
    1.6106491338381084E+00 
    1.5612733936528991E+00 
    1.5084293373930737E+00 
    1.4522304614472885E+00 
    1.3885305722980545E+00 
    1.3290951605869392E+00 
    1.2877932780455805E+00 
    1.2651637260396260E+00 
    1.7972552573904965E+00 
    1.7908974083140170E+00 
    1.7782109691336945E+00 
    1.7592176978112302E+00 
    1.7339913362003641E+00 
    1.7025771385565356E+00 
    1.6649562952302761E+00 
    1.6211686584593503E+00 
    1.5711862768455276E+00 
    1.5149738093415905E+00 
    1.4522838138859047E+00 
    1.3819281403216761E+00 
    1.3028914421581810E+00 
    1.2297897821156414E+00 
    1.1749985648351389E+00 
    1.1430655206328193E+00 
    1.7723197179699426E+00 
    1.7657170260280566E+00 
    1.7525008928629329E+00 
    1.7326196158468588E+00 
    1.7060138197560302E+00 
    1.6725355901986994E+00 
    1.6319271348366453E+00 
    1.5839020903948500E+00 
    1.5279505015147754E+00 
    1.4632767278610770E+00 
    1.3886174043289861E+00 
    1.3029064532793027E+00 
    1.2092270695496721E+00 
    1.1179366649639724E+00 
    1.0394382599517389E+00 
    9.8904907385647445E-01 
    1.7500524778632196E+00 
    1.7431862146999026E+00 
    1.7294191221357542E+00 
    1.7086356785533738E+00 
    1.6806480570199480E+00 
    1.6451358335726241E+00 
    1.6016080082278967E+00 
    1.5494221931775021E+00 
    1.4875915775861548E+00 
    1.4147421469844674E+00 
    1.3291545746716873E+00 
    1.2297787416068193E+00 
    1.1178991826536380E+00 
    9.9681354865883853E-01 
    8.7584302743225939E-01 
    7.8465318400390027E-01 
    1.7358948307681479E+00 
    1.7288583333112981E+00 
    1.7147281280388154E+00 
    1.6933376622692851E+00 
    1.6644110665590686E+00 
    1.6275115766523194E+00 
    1.5819717744144284E+00 
    1.5268775386868312E+00 
    1.4608723813437932E+00 
    1.3820612433816493E+00 
    1.2878447816901188E+00 
    1.1750182297890617E+00 
    1.0394455519370589E+00 
    8.7584713707507167E-01 
    6.8246537328904355E-01 
    4.8905524662946109E-01 
    1.7287700996963700E+00 
    1.7216473760494693E+00 
    1.7073259893173689E+00 
    1.6856116944569794E+00 
    1.6561829899935465E+00 
    1.6185411278398081E+00 
    1.5719188880808006E+00 
    1.5152492705793723E+00 
    1.4469553277524021E+00 
    1.3647502072751048E+00 
    1.2652205325863177E+00 
    1.1430960879567065E+00 
    9.8906414562876965E-01 
    7.8466045214775948E-01 
    4.8905772064120917E-01 
    0.0000000000000000E+00 

SCALARS Saturarion double 1 
LOOKUP_TABLE default 

    1.0000000027486866E+00 
    9.6604511552465511E-01 
    9.0843306282649039E-01 
    8.4604014615558576E-01 
    7.8490789655298532E-01 
    7.2769131988437064E-01 
    6.7648479915757354E-01 
    6.3121451157046515E-01 
    5.8844888067800949E-01 
    5.4582778951168764E-01 
    5.0461119615407291E-01 
    4.5850053273678859E-01 
    2.6250485274678614E-01 
    6.2931990856176785E-04 
    1.0041494891973471E-06 
    1.0000000002863488E-06 
    9.6604221135658952E-01 
    9.4197347719427771E-01 
    8.9086922597641161E-01 
    8.3259737517671040E-01 
    7.7520168568724124E-01 
    7.2104385617151845E-01 
    6.7205917937575033E-01 
    6.2829852673477815E-01 
    5.8651680242200732E-01 
    5.4476415109031495E-01 
    5.0408326115899682E-01 
    4.5838452791312478E-01 
    2.6001495572646094E-01 
    3.6241437787459243E-04 
    1.0002072965683858E-06 
    1.0000000000069602E-06 
    9.0842045475291255E-01 
    8.9085838313351784E-01 
    8.4979598724468297E-01 
    8.0207716517151240E-01 
    7.5306624641597164E-01 
    7.0530027984422006E-01 
    6.6118691084792158E-01 
    6.2068245883284878E-01 
    5.8096442607543186E-01 
    5.4106129502801370E-01 
    5.0207572696961689E-01 
    4.5683838538347343E-01 
    2.5490007509062451E-01 
    2.3930987692876262E-04 
    1.0001592630669324E-06 
    1.0000000000105978E-06 
    8.4601347092215762E-01 
    8.3257559384479907E-01 
    8.0206258349796633E-01 
    7.6385380663624247E-01 
    7.2477555362468127E-01 
    6.8535485932744256E-01 
    6.4696112383873650E-01 
    6.0973738064296534E-01 
    5.7269233208890313E-01 
    5.3562351529118479E-01 
    4.9892593166223065E-01 
    4.5477204750546474E-01 
    2.4996462303388756E-01 
    1.5423455177182016E-04 
    1.0004556359522057E-06 
    1.0000000000117045E-06 
    7.8488438237407765E-01 
    7.7518833761468808E-01 
    7.5305124837145099E-01 
    7.2476187152238092E-01 
    6.9422297088276497E-01 
    6.6267853636530516E-01 
    6.2966170345843142E-01 
    5.9625515466149503E-01 
    5.6279103832959954E-01 
    5.2901073924350694E-01 
    4.9514164408373451E-01 
    4.5313901682398983E-01 
    2.4859420142118235E-01 
    5.3373988565234192E-04 
    1.0073015770166605E-06 
    1.0000000006833379E-06 
    7.2771801676360626E-01 
    7.2105174156845253E-01 
    7.0528985421751755E-01 
    6.8533165971743337E-01 
    6.6266398122599968E-01 
    6.3686000484274052E-01 
    6.0886931198095784E-01 
    5.8028763542665041E-01 
    5.5130318560086822E-01 
    5.2098924856524553E-01 
    4.8951526674714751E-01 
    4.4980119837181637E-01 
    2.4626977968853112E-01 
    2.4257664495437505E-04 
    1.0111028174739572E-06 
    1.0000000013111671E-06 
    6.7651378216517233E-01 
    6.7206617482896114E-01 
    6.6116936560482042E-01 
    6.4692991902357200E-01 
    6.2964338972947598E-01 
    6.0885559615335905E-01 
    5.8606424681899227E-01 
    5.6246471261279041E-01 
    5.3792360673217010E-01 
    5.1168769664416303E-01 
    4.8322278425240722E-01 
    4.4611418505777695E-01 
    2.4264521136063896E-01 
    1.3085450496500350E-04 
    1.0012644133794691E-06 
    1.0000000001649827E-06 
    6.3123311818977601E-01 
    6.2830043917048073E-01 
    6.2066303852998894E-01 
    6.0972567416631862E-01 
    5.9625110151591898E-01 
    5.8023814720654454E-01 
    5.6237792227858652E-01 
    5.4319296649624671E-01 
    5.2287082469595914E-01 
    5.0073201674472301E-01 
    4.7680172931633757E-01 
    4.4230593177893313E-01 
    2.4461156059186875E-01 
    1.0666821770310045E-04 
    1.0003156545463047E-06 
    1.0000000000174484E-06 
    5.8840942829570542E-01 
    5.8644935834320466E-01 
    5.8086264425711098E-01 
    5.7260598859466316E-01 
    5.6266718107179514E-01 
    5.5106780714529813E-01 
    5.3764187694208321E-01 
    5.2262546751549599E-01 
    5.0636063396999065E-01 
    4.8860272663576265E-01 
    4.6890556840011588E-01 
    4.3725546231307444E-01 
    2.5123519490208807E-01 
    6.6324110667009926E-04 
    1.0048494225551770E-06 
    1.0000000002845418E-06 
    5.4590308068983517E-01 
    5.4480174864171838E-01 
    5.4114969329064222E-01 
    5.3567876737857589E-01 
    5.2903203504467444E-01 
    5.2116375702995876E-01 
    5.1192475364788137E-01 
    5.0080011943131586E-01 
    4.8848975642482262E-01 
    4.7545852096902619E-01 
    4.6047399542574274E-01 
    4.3167389088174890E-01 
    2.4873539864800506E-01 
    7.6965747346805413E-04 
    1.0116924253135355E-06 
    1.0000000014571761E-06 
    5.0526586940958174E-01 
    5.0478659649922730E-01 
    5.0264245524819062E-01 
    4.9908936690704064E-01 
    4.9516098078814608E-01 
    4.9024071525870272E-01 
    4.8470236366443864E-01 
    4.7752838602769565E-01 
    4.6897516733610034E-01 
    4.5997571450616903E-01 
    4.4932934338802938E-01 
    4.2127622858898395E-01 
    2.2497569240189086E-01 
    1.1641969080200493E-03 
    1.0310939659083810E-06 
    1.0000000082381355E-06 
    4.5962070949158645E-01 
    4.5926109806132115E-01 
    4.5724424084275583E-01 
    4.5448561723331743E-01 
    4.5247929697141009E-01 
    4.4903309780907741E-01 
    4.4608782705065037E-01 
    4.4283534020047460E-01 
    4.3754347874798483E-01 
    4.3181222835278077E-01 
    4.2108527536955420E-01 
    3.9042078982760214E-01 
    1.4646927225934583E-01 
    1.4025646747374764E-03 
    1.0676752056517850E-06 
    1.0000000176128350E-06 
    2.6289254050025135E-01 
    2.5903626796628393E-01 
    2.5268284219477355E-01 
    2.4602278413558390E-01 
    2.4464825869379248E-01 
    2.3920632385570706E-01 
    2.3562794694406247E-01 
    2.4029435166591590E-01 
    2.4976810769005406E-01 
    2.4874361103464881E-01 
    2.3185226823797916E-01 
    1.5733716843131623E-01 
    1.7399126208910303E-02 
    8.9712513985198137E-05 
    1.0109602614830890E-06 
    1.0000000015118716E-06 
    4.4677138473034241E-04 
    3.6270322442560335E-04 
    1.9111811783374661E-04 
    1.1930808853446928E-04 
    1.2608188307662883E-04 
    8.3590789703259875E-05 
    5.3656684592266620E-05 
    7.6242899192939420E-05 
    9.4456623468231675E-04 
    9.7142519794291417E-04 
    1.5994647972684540E-03 
    7.4602225035451288E-04 
    8.6390796536652871E-05 
    1.0034477159316509E-06 
    1.0000000036737227E-06 
    9.9999999999999995E-07 
    1.0008327937507491E-06 
    1.0012660358612277E-06 
    1.0002367892218025E-06 
    1.0002904871602941E-06 
    1.0000981079520542E-06 
    1.0000595531127317E-06 
    1.0002061331578294E-06 
    1.0000969179916669E-06 
    1.0577686709616947E-06 
    1.0132354892054154E-06 
    1.2809311764131669E-06 
    1.1835993408938003E-06 
    1.0015195090334239E-06 
    1.0000000009244062E-06 
    1.0000000000000002E-06 
    9.9999999999999995E-07 
    1.0000000000359133E-06 
    1.0000000001100261E-06 
    1.0000000000366134E-06 
    1.0000000000294418E-06 
    1.0000000000199347E-06 
    1.0000000000080391E-06 
    1.0000000000626145E-06 
    1.0000000000044789E-06 
    1.0000000028817920E-06 
    1.0000000063582678E-06 
    1.0000000651179327E-06 
    1.0000000115258788E-06 
    1.0000000012648120E-06 
    1.0000000000000008E-06 
    9.9999999999999995E-07 
    1.0000001952319944E-06 
