# vtk DataFile Version 2.0
Pressure Field Data 
ASCII 
DATASET UNSTRUCTURED_GRID 

POINTS 289 double 

    0.0000000000000000E+00     0.0000000000000000E+00     0.0000000000000000E+00 
    1.0000000000000000E+00     0.0000000000000000E+00     0.0000000000000000E+00 
    1.0000000000000000E+00     1.0000000000000000E+00     0.0000000000000000E+00 
    0.0000000000000000E+00     1.0000000000000000E+00     0.0000000000000000E+00 
    6.2499999999872928E-02     0.0000000000000000E+00     0.0000000000000000E+00 
    1.2499999999977310E-01     0.0000000000000000E+00     0.0000000000000000E+00 
    1.8749999999959341E-01     0.0000000000000000E+00     0.0000000000000000E+00 
    2.4999999999941089E-01     0.0000000000000000E+00     0.0000000000000000E+00 
    3.1249999999922851E-01     0.0000000000000000E+00     0.0000000000000000E+00 
    3.7499999999904610E-01     0.0000000000000000E+00     0.0000000000000000E+00 
    4.3749999999886358E-01     0.0000000000000000E+00     0.0000000000000000E+00 
    4.9999999999869210E-01     0.0000000000000000E+00     0.0000000000000000E+00 
    5.6249999999884603E-01     0.0000000000000000E+00     0.0000000000000000E+00 
    6.2499999999901090E-01     0.0000000000000000E+00     0.0000000000000000E+00 
    6.8749999999917577E-01     0.0000000000000000E+00     0.0000000000000000E+00 
    7.4999999999934064E-01     0.0000000000000000E+00     0.0000000000000000E+00 
    8.1249999999950551E-01     0.0000000000000000E+00     0.0000000000000000E+00 
    8.7499999999967026E-01     0.0000000000000000E+00     0.0000000000000000E+00 
    9.3749999999983513E-01     0.0000000000000000E+00     0.0000000000000000E+00 
    1.0000000000000000E+00     6.2499999999872928E-02     0.0000000000000000E+00 
    1.0000000000000000E+00     1.2499999999977310E-01     0.0000000000000000E+00 
    1.0000000000000000E+00     1.8749999999959341E-01     0.0000000000000000E+00 
    1.0000000000000000E+00     2.4999999999941089E-01     0.0000000000000000E+00 
    1.0000000000000000E+00     3.1249999999922851E-01     0.0000000000000000E+00 
    1.0000000000000000E+00     3.7499999999904610E-01     0.0000000000000000E+00 
    1.0000000000000000E+00     4.3749999999886358E-01     0.0000000000000000E+00 
    1.0000000000000000E+00     4.9999999999869210E-01     0.0000000000000000E+00 
    1.0000000000000000E+00     5.6249999999884603E-01     0.0000000000000000E+00 
    1.0000000000000000E+00     6.2499999999901090E-01     0.0000000000000000E+00 
    1.0000000000000000E+00     6.8749999999917577E-01     0.0000000000000000E+00 
    1.0000000000000000E+00     7.4999999999934064E-01     0.0000000000000000E+00 
    1.0000000000000000E+00     8.1249999999950551E-01     0.0000000000000000E+00 
    1.0000000000000000E+00     8.7499999999967026E-01     0.0000000000000000E+00 
    1.0000000000000000E+00     9.3749999999983513E-01     0.0000000000000000E+00 
    9.3749999999973976E-01     1.0000000000000000E+00     0.0000000000000000E+00 
    8.7499999999950118E-01     1.0000000000000000E+00     0.0000000000000000E+00 
    8.1249999999991318E-01     1.0000000000000000E+00     0.0000000000000000E+00 
    7.5000000000034706E-01     1.0000000000000000E+00     0.0000000000000000E+00 
    6.8750000000078049E-01     1.0000000000000000E+00     0.0000000000000000E+00 
    6.2500000000121403E-01     1.0000000000000000E+00     0.0000000000000000E+00 
    5.6250000000164757E-01     1.0000000000000000E+00     0.0000000000000000E+00 
    5.0000000000205946E-01     1.0000000000000000E+00     0.0000000000000000E+00 
    4.3750000000182099E-01     1.0000000000000000E+00     0.0000000000000000E+00 
    3.7500000000156092E-01     1.0000000000000000E+00     0.0000000000000000E+00 
    3.1250000000130068E-01     1.0000000000000000E+00     0.0000000000000000E+00 
    2.5000000000104050E-01     1.0000000000000000E+00     0.0000000000000000E+00 
    1.8750000000078040E-01     1.0000000000000000E+00     0.0000000000000000E+00 
    1.2500000000052031E-01     1.0000000000000000E+00     0.0000000000000000E+00 
    6.2500000000260125E-02     1.0000000000000000E+00     0.0000000000000000E+00 
    0.0000000000000000E+00     9.3749999999973976E-01     0.0000000000000000E+00 
    0.0000000000000000E+00     8.7499999999950118E-01     0.0000000000000000E+00 
    0.0000000000000000E+00     8.1249999999991318E-01     0.0000000000000000E+00 
    0.0000000000000000E+00     7.5000000000034706E-01     0.0000000000000000E+00 
    0.0000000000000000E+00     6.8750000000078049E-01     0.0000000000000000E+00 
    0.0000000000000000E+00     6.2500000000121403E-01     0.0000000000000000E+00 
    0.0000000000000000E+00     5.6250000000164757E-01     0.0000000000000000E+00 
    0.0000000000000000E+00     5.0000000000205946E-01     0.0000000000000000E+00 
    0.0000000000000000E+00     4.3750000000182099E-01     0.0000000000000000E+00 
    0.0000000000000000E+00     3.7500000000156092E-01     0.0000000000000000E+00 
    0.0000000000000000E+00     3.1250000000130068E-01     0.0000000000000000E+00 
    0.0000000000000000E+00     2.5000000000104050E-01     0.0000000000000000E+00 
    0.0000000000000000E+00     1.8750000000078040E-01     0.0000000000000000E+00 
    0.0000000000000000E+00     1.2500000000052031E-01     0.0000000000000000E+00 
    0.0000000000000000E+00     6.2500000000260125E-02     0.0000000000000000E+00 
    6.2499999999897131E-02     6.2500000000235922E-02     0.0000000000000000E+00 
    6.2499999999921327E-02     1.2500000000047351E-01     0.0000000000000000E+00 
    6.2499999999945530E-02     1.8750000000070621E-01     0.0000000000000000E+00 
    6.2499999999969733E-02     2.5000000000093858E-01     0.0000000000000000E+00 
    6.2499999999993928E-02     3.1250000000117117E-01     0.0000000000000000E+00 
    6.2500000000018124E-02     3.7500000000140382E-01     0.0000000000000000E+00 
    6.2500000000042327E-02     4.3750000000163619E-01     0.0000000000000000E+00 
    6.2500000000066530E-02     5.0000000000184897E-01     0.0000000000000000E+00 
    6.2500000000090733E-02     5.6250000000147260E-01     0.0000000000000000E+00 
    6.2500000000114922E-02     6.2500000000107636E-01     0.0000000000000000E+00 
    6.2500000000139125E-02     6.8750000000068034E-01     0.0000000000000000E+00 
    6.2500000000163328E-02     7.5000000000028411E-01     0.0000000000000000E+00 
    6.2500000000187531E-02     8.1249999999988787E-01     0.0000000000000000E+00 
    6.2500000000211720E-02     8.7499999999951172E-01     0.0000000000000000E+00 
    6.2500000000235922E-02     9.3749999999974565E-01     0.0000000000000000E+00 
    1.2499999999981980E-01     6.2500000000211733E-02     0.0000000000000000E+00 
    1.2499999999986650E-01     1.2500000000042691E-01     0.0000000000000000E+00 
    1.2499999999991319E-01     1.8750000000063199E-01     0.0000000000000000E+00 
    1.2499999999995989E-01     2.5000000000083678E-01     0.0000000000000000E+00 
    1.2500000000000661E-01     3.1250000000104172E-01     0.0000000000000000E+00 
    1.2500000000005329E-01     3.7500000000124661E-01     0.0000000000000000E+00 
    1.2500000000010000E-01     4.3750000000145117E-01     0.0000000000000000E+00 
    1.2500000000014669E-01     5.0000000000163858E-01     0.0000000000000000E+00 
    1.2500000000019340E-01     5.6250000000129741E-01     0.0000000000000000E+00 
    1.2500000000024011E-01     6.2500000000093847E-01     0.0000000000000000E+00 
    1.2500000000028680E-01     6.8750000000057998E-01     0.0000000000000000E+00 
    1.2500000000033351E-01     7.5000000000022127E-01     0.0000000000000000E+00 
    1.2500000000038020E-01     8.1249999999986211E-01     0.0000000000000000E+00 
    1.2500000000042691E-01     8.7499999999952238E-01     0.0000000000000000E+00 
    1.2500000000047359E-01     9.3749999999975164E-01     0.0000000000000000E+00 
    1.8749999999966760E-01     6.2500000000187531E-02     0.0000000000000000E+00 
    1.8749999999974179E-01     1.2500000000038020E-01     0.0000000000000000E+00 
    1.8749999999981601E-01     1.8750000000055780E-01     0.0000000000000000E+00 
    1.8749999999989009E-01     2.5000000000073502E-01     0.0000000000000000E+00 
    1.8749999999996431E-01     3.1250000000091221E-01     0.0000000000000000E+00 
    1.8750000000003850E-01     3.7500000000108941E-01     0.0000000000000000E+00 
    1.8750000000011269E-01     4.3750000000126649E-01     0.0000000000000000E+00 
    1.8750000000018691E-01     5.0000000000142808E-01     0.0000000000000000E+00 
    1.8750000000026110E-01     5.6250000000112244E-01     0.0000000000000000E+00 
    1.8750000000033529E-01     6.2500000000080080E-01     0.0000000000000000E+00 
    1.8750000000040951E-01     6.8750000000047962E-01     0.0000000000000000E+00 
    1.8750000000048361E-01     7.5000000000015843E-01     0.0000000000000000E+00 
    1.8750000000055780E-01     8.1249999999983680E-01     0.0000000000000000E+00 
    1.8750000000063199E-01     8.7499999999953304E-01     0.0000000000000000E+00 
    1.8750000000070621E-01     9.3749999999975764E-01     0.0000000000000000E+00 
    2.4999999999951281E-01     6.2500000000163314E-02     0.0000000000000000E+00 
    2.4999999999961461E-01     1.2500000000033351E-01     0.0000000000000000E+00 
    2.4999999999971650E-01     1.8750000000048361E-01     0.0000000000000000E+00 
    2.4999999999981831E-01     2.5000000000063310E-01     0.0000000000000000E+00 
    2.4999999999992020E-01     3.1250000000078260E-01     0.0000000000000000E+00 
    2.5000000000002198E-01     3.7500000000093209E-01     0.0000000000000000E+00 
    2.5000000000012390E-01     4.3750000000108180E-01     0.0000000000000000E+00 
    2.5000000000022571E-01     5.0000000000121769E-01     0.0000000000000000E+00 
    2.5000000000032763E-01     5.6250000000094724E-01     0.0000000000000000E+00 
    2.5000000000042938E-01     6.2500000000066314E-01     0.0000000000000000E+00 
    2.5000000000053119E-01     6.8750000000037925E-01     0.0000000000000000E+00 
[...]
CELL_DATA 256 
SCALARS Pressure double 1 
LOOKUP_TABLE default 

    2.7764704018868329E+00 
    2.6573096602988979E+00 
    2.5609166877913982E+00 
    2.4686532608381375E+00 
    2.3801523701696716E+00 
    2.2872863815831508E+00 
    2.1875574055436808E+00 
    2.0991234365694238E+00 
    2.0259055580640255E+00 
    1.9637771919266580E+00 
    1.9115518733479386E+00 
    1.8685394049645256E+00 
    1.8343429147517953E+00 
    1.8087692085920075E+00 
    1.7917405492758582E+00 
    1.7832356710567212E+00 
    2.6573028994352961E+00 
    2.5990273024128800E+00 
    2.5247774311562767E+00 
    2.4434872376477732E+00 
    2.3605048209516930E+00 
    2.2689105094734572E+00 
    2.1708333826288517E+00 
    2.0862321954831149E+00 
    2.0148817018193670E+00 
    1.9539074091933808E+00 
    1.9023749399504080E+00 
    1.8597493340839371E+00 
    1.8257419068669494E+00 
    1.8002418042813912E+00 
    1.7832310147182369E+00 
    1.7747320439988501E+00 
    2.5608659892637364E+00 
    2.5247360600708655E+00 
    2.4679909456106364E+00 
    2.3992289709175805E+00 
    2.3223383927358929E+00 
    2.2324155878794145E+00 
    2.1397211153215725E+00 
    2.0614744962078198E+00 
    1.9935262789796178E+00 
    1.9346480338385619E+00 
    1.8843480290999211E+00 
    1.8423858960243196E+00 
    1.8086787326024667E+00 
    1.7832703147264841E+00 
    1.7662576080632455E+00 
    1.7577433818710477E+00 
    2.4684800130120985E+00 
    2.4433185193303411E+00 
    2.3990571004535948E+00 
    2.3399161179995365E+00 
    2.2663371095267615E+00 
    2.1803631507614241E+00 
    2.0981193577977959E+00 
    2.0268924460821114E+00 
    1.9631566780971632E+00 
    1.9068630943838589E+00 
    1.8580414234082598E+00 
    1.8168099845963042E+00 
    1.7833603112046916E+00 
    1.7579496479138268E+00 
    1.7408399333240603E+00 
    1.7322504387478148E+00 
    2.3800087307000730E+00 
    2.3604034953281432E+00 
    2.3221921915952874E+00 
    2.2663219015088365E+00 
    2.1955781894678754E+00 
    2.1201069444035392E+00 
    2.0496949784925143E+00 
    1.9849327141695847E+00 
    1.9253997966666185E+00 
    1.8716587442033206E+00 
    1.8241960886585484E+00 
    1.7834891203401984E+00 
    1.7500434800961697E+00 
    1.7243768067050502E+00 
    1.7069643943061790E+00 
    1.6981814282719134E+00 
    2.2873803126519920E+00 
    2.2690706399601832E+00 
    2.2326603808166920E+00 
    2.1808054151945795E+00 
    2.1204669223287818E+00 
    2.0581026767714068E+00 
    1.9969333878915398E+00 
    1.9378005254580664E+00 
    1.8819045009306488E+00 
    1.8302291017828487E+00 
    1.7836290744236736E+00 
    1.7429359003074059E+00 
    1.7089819722792094E+00 
    1.6825939673476762E+00 
    1.6645212148258046E+00 
    1.6553477650155157E+00 
    2.1880727766058685E+00 
    2.1713112054729846E+00 
    2.1402165213177233E+00 
    2.0986472920566817E+00 
    2.0500862757079603E+00 
    1.9970788854265835E+00 
    1.9422596842460198E+00 
    1.8874916309680128E+00 
    1.8342453396068059E+00 
    1.7837551807987506E+00 
    1.7371833564933556E+00 
    1.6956637958463949E+00 
    1.6603806410203172E+00 
    1.6325258261650053E+00 
    1.6132117220370308E+00 
    1.6033269851862493E+00 
    2.0998945956755142E+00 
    2.0869518075619573E+00 
    2.0621001568767841E+00 
    2.0274073437301134E+00 
    1.9853130954105604E+00 
    1.9380244580739054E+00 
    1.8875897211753632E+00 
    1.8357180730956790E+00 
    1.7838782681027299E+00 
    1.7334308079172263E+00 
    1.6857338179638721E+00 
    1.6422099054240977E+00 
    1.6044036969019373E+00 
    1.5739689962920786E+00 
    1.5525258826411130E+00 
    1.5414270715697886E+00 
    2.0266087225110470E+00 
    2.0155457630802713E+00 
    1.9941181969320960E+00 
    1.9636551773683943E+00 
    1.9257889773217467E+00 
    1.8821774870449739E+00 
    1.8344148817316119E+00 
    1.7839571268673335E+00 
    1.7321660504193166E+00 
    1.6804093280999839E+00 
    1.6301576485464409E+00 
    1.5830607699237844E+00 
    1.5410717328542594E+00 
    1.5064380940762230E+00 
    1.4815236264945939E+00 
    1.4684312921459988E+00 
    1.9644410924403777E+00 
    1.9545389284184487E+00 
    1.9352217478590814E+00 
    1.9073599771174725E+00 
    1.8720661735797355E+00 
    1.8305429617818634E+00 
    1.7839831660307091E+00 
    1.7335761559854284E+00 
    1.6804785933317643E+00 
    1.6259510773284207E+00 
    1.5714528080735259E+00 
    1.5188059504791287E+00 
    1.4703800270871450E+00 
    1.4291858244235780E+00 
    1.3987099892482209E+00 
    1.3823495260391800E+00 
    1.9121950345064789E+00 
    1.9029916538793001E+00 
    1.8849176349894985E+00 
    1.8585478014810131E+00 
    1.8246286386646322E+00 
    1.7839833705081118E+00 
    1.7374606659620535E+00 
    1.6859361603598939E+00 
    1.6302887639170762E+00 
    1.5715165855287441E+00 
    1.5109024019569921E+00 
    1.4503067185904983E+00 
    1.3924340250704879E+00 
    1.3411892089278732E+00 
    1.3017504411540688E+00 
    1.2798886133710383E+00 
    1.8691732052865260E+00 
    1.8603612663229452E+00 
    1.8429585681397904E+00 
    1.8173292590219063E+00 
    1.7839451912775350E+00 
    1.7433237482955075E+00 
    1.6959825889921230E+00 
    1.6424600735454788E+00 
    1.5832434805370013E+00 
    1.5189232088059126E+00 
    1.4503617561757618E+00 
    1.3791328625979746E+00 
    1.3079208437881584E+00 
    1.2414507750276382E+00 
    1.1872798532151156E+00 
    1.1556002905650031E+00 
    1.8349725529096814E+00 
    1.8263529804631045E+00 
    1.8092560625788450E+00 
    1.7838912268036156E+00 
    1.7505188629710671E+00 
    1.7093965620502345E+00 
    1.6607326644947540E+00 
    1.6046920219677276E+00 
    1.5412960573841754E+00 
    1.4705412034207168E+00 
    1.3925343127443395E+00 
    1.3079666369111445E+00 
    1.2186944897187224E+00 
    1.1294395527006644E+00 
    1.0503553361579225E+00 
    9.9964788604947663E-01 
    1.8093949605176844E+00 
    1.8008513551265133E+00 
    1.7838500298401339E+00 
    1.7584880225576349E+00 
    1.7248653439159845E+00 
    1.6830273108167169E+00 
    1.6329013742020777E+00 
    1.5742844545358186E+00 
    1.5066922957072146E+00 
    1.4293788774143328E+00 
    1.3413229055432543E+00 
    1.2415310776730077E+00 
    1.1294746446821953E+00 
    1.0072749722066210E+00 
    8.8508200274011573E-01 
    7.9299803756124376E-01 
    1.7923589726625218E+00 
    1.7838349383477183E+00 
    1.7668344854703510E+00 
    1.7413791075494929E+00 
    1.7074577395451496E+00 
    1.6649632333052156E+00 
    1.6135990469496284E+00 
    1.5528555550569956E+00 
    1.4817941451927317E+00 
    1.3989210383162662E+00 
    1.3019039026267425E+00 
    1.1873815534292635E+00 
    1.0504130283389819E+00 
    8.8510530012231547E-01 
    6.8969298225669851E-01 
    4.9424892120008246E-01 
    1.7838408757580995E+00 
    1.7753239789018471E+00 
    1.7583101278331059E+00 
    1.7327817717638900E+00 
    1.6986693095909253E+00 
    1.6557865501323823E+00 
    1.6037125481131029E+00 
    1.5417563634183129E+00 
    1.4687028464929386E+00 
    1.3825629127512125E+00 
    1.2800467107745161E+00 
    1.1557088658889938E+00 
    9.9971437063376445E-01 
    7.9303164632170164E-01 
    4.9426013782361666E-01 
    0.0000000000000000E+00 

SCALARS Saturarion double 1 
LOOKUP_TABLE default 

    9.9999299791008867E-01 
    8.7822127321792287E-01 
    7.0907138281758242E-01 
    6.0576510625067415E-01 
    5.2609105808209811E-01 
    4.3036864020701410E-01 
    7.5432750027628989E-02 
    1.0000537936284073E-06 
    1.0000000000354678E-06 
    9.9999999999999995E-07 
    9.9999999999999995E-07 
    9.9999999999999995E-07 
    9.9999999999999995E-07 
    9.9999999999999995E-07 
    9.9999999999999995E-07 
    9.9999999999999995E-07 
    8.7820523006309703E-01 
    8.0025261613563126E-01 
    6.7799024122260199E-01 
    5.8905495071966130E-01 
    5.1449706393328010E-01 
    3.9767430230668244E-01 
    4.1203550738179051E-02 
    5.2342829951739509E-04 
    1.0027357243553758E-06 
    1.0000000002283012E-06 
    1.0000000000000002E-06 
    9.9999999999999995E-07 
    9.9999999999999995E-07 
    9.9999999999999995E-07 
    9.9999999999999995E-07 
    9.9999999999999995E-07 
    7.0904152872653659E-01 
    6.7793859297812631E-01 
    6.1814018710664032E-01 
    5.4844626932329887E-01 
    4.8012159495463669E-01 
    2.7015036930079117E-01 
    3.9406925177750832E-03 
    3.7971603037062916E-06 
    1.0000022749108253E-06 
    1.0000000000002909E-06 
    9.9999999999999995E-07 
    9.9999999999999995E-07 
    9.9999999999999995E-07 
    9.9999999999999995E-07 
    9.9999999999999995E-07 
    9.9999999999999995E-07 
    6.0558993398396765E-01 
    5.8894918788354722E-01 
    5.4786623587157779E-01 
    4.9124418228540045E-01 
    3.8933952426255708E-01 
    8.6317317851994563E-02 
    6.0791370407918088E-04 
    1.0309632373259928E-06 
    1.0000000197815695E-06 
    1.0000000000000063E-06 
    9.9999999999999995E-07 
    9.9999999999999995E-07 
    9.9999999999999995E-07 
    9.9999999999999995E-07 
    9.9999999999999995E-07 
    9.9999999999999995E-07 
    5.2719904342621104E-01 
    5.1548759554000068E-01 
    4.8161954529925727E-01 
    3.9782140861040466E-01 
    1.4512682945526037E-01 
    2.6782574337421215E-03 
    1.7588148025447418E-06 
    1.0000001187844681E-06 
    1.0000000000000442E-06 
    9.9999999999999995E-07 
    9.9999999999999995E-07 
    9.9999999999999995E-07 
    9.9999999999999995E-07 
    9.9999999999999995E-07 
    9.9999999999999995E-07 
    9.9999999999999995E-07 
    4.2940524486989912E-01 
    3.9427125393425677E-01 
    2.7117145491991262E-01 
    7.9879212896439719E-02 
    3.5559407890650000E-03 
    4.7488939131529299E-06 
    1.0000035420453765E-06 
    1.0000000000006363E-06 
    9.9999999999999995E-07 
    9.9999999999999995E-07 
    9.9999999999999995E-07 
    9.9999999999999995E-07 
    9.9999999999999995E-07 
    9.9999999999999995E-07 
    9.9999999999999995E-07 
    9.9999999999999995E-07 
    7.5312843006873118E-02 
    3.0656420857909122E-02 
    2.9046148253591723E-03 
    3.8023821959860322E-04 
    6.6290032690930655E-06 
    1.0000091936364645E-06 
    1.0000000000024784E-06 
    9.9999999999999995E-07 
    9.9999999999999995E-07 
    9.9999999999999995E-07 
    9.9999999999999995E-07 
    9.9999999999999995E-07 
    9.9999999999999995E-07 
    9.9999999999999995E-07 
    9.9999999999999995E-07 
    9.9999999999999995E-07 
    4.0722748628137116E-05 
    9.7171902637591446E-06 
    2.5699491230672499E-06 
    1.0245824420622329E-06 
    1.0000240680714390E-06 
    1.0000000000039840E-06 
    9.9999999999999995E-07 
    9.9999999999999995E-07 
    9.9999999999999995E-07 
    9.9999999999999995E-07 
    9.9999999999999995E-07 
    9.9999999999999995E-07 
    9.9999999999999995E-07 
    9.9999999999999995E-07 
    9.9999999999999995E-07 
    9.9999999999999995E-07 
    9.9999993164623894E-07 
    1.0000076395405553E-06 
    1.0000001090515181E-06 
    1.0000000004003007E-06 
    1.0000000000089497E-06 
    9.9999999999999995E-07 
    9.9999999999999995E-07 
    9.9999999999999995E-07 
    9.9999999999999995E-07 
    9.9999999999999995E-07 
    9.9999999999999995E-07 
    9.9999999999999995E-07 
    9.9999999999999995E-07 
    9.9999999999999995E-07 
    9.9999999999999995E-07 
    9.9999999999999995E-07 
    9.9999999999993600E-07 
    9.9999999999998280E-07 
    9.9999999999998068E-07 
    9.9999999999999974E-07 
    9.9999999999999995E-07 
    9.9999999999999995E-07 
    9.9999999999999995E-07 
    9.9999999999999995E-07 
    9.9999999999999995E-07 
    9.9999999999999995E-07 
    9.9999999999999995E-07 
    9.9999999999999995E-07 
    9.9999999999999995E-07 
    9.9999999999999995E-07 
    9.9999999999999995E-07 
    9.9999999999999995E-07 
    9.9999999999999995E-07 
    9.9999999999999995E-07 
    9.9999999999999995E-07 
    9.9999999999999995E-07 
    9.9999999999999995E-07 
    9.9999999999999995E-07 
    9.9999999999999995E-07 
    9.9999999999999995E-07 
    9.9999999999999995E-07 
    9.9999999999999995E-07 
    9.9999999999999995E-07 
    9.9999999999999995E-07 
    9.9999999999999995E-07 
    9.9999999999999995E-07 
    9.9999999999999995E-07 
    9.9999999999999995E-07 
    9.9999999999999995E-07 
    9.9999999999999995E-07 
    9.9999999999999995E-07 
    9.9999999999999995E-07 
    9.9999999999999995E-07 
    9.9999999999999995E-07 
    9.9999999999999995E-07 
    9.9999999999999995E-07 
    9.9999999999999995E-07 
    9.9999999999999995E-07 
    9.9999999999999995E-07 
    9.9999999999999995E-07 
    9.9999999999999995E-07 
    9.9999999999999995E-07 
    9.9999999999999995E-07 
    9.9999999999999995E-07 
    9.9999999999999995E-07 
    9.9999999999999995E-07 
    9.9999999999999995E-07 
    9.9999999999999995E-07 
    9.9999999999999995E-07 
    9.9999999999999995E-07 
    9.9999999999999995E-07 
    9.9999999999999995E-07 
    9.9999999999999995E-07 
    9.9999999999999995E-07 
    9.9999999999999995E-07 
    9.9999999999999995E-07 
    9.9999999999999995E-07 
    9.9999999999999995E-07 
    9.9999999999999995E-07 
    9.9999999999999995E-07 
    9.9999999999999995E-07 
    9.9999999999999995E-07 
    9.9999999999999995E-07 
    9.9999999999999995E-07 
    9.9999999999999995E-07 
    9.9999999999999995E-07 
    9.9999999999999995E-07 
    9.9999999999999995E-07 
    9.9999999999999995E-07 
    9.9999999999999995E-07 
    9.9999999999999995E-07 
    9.9999999999999995E-07 
    9.9999999999999995E-07 
    9.9999999999999995E-07 
    9.9999999999999995E-07 
    9.9999999999999995E-07 
    9.9999999999999995E-07 
    9.9999999999999995E-07 
    9.9999999999999995E-07 
    9.9999999999999995E-07 
    9.9999999999999995E-07 
    9.9999999999999995E-07 
    9.9999999999999995E-07 
    9.9999999999999995E-07 
    9.9999999999999995E-07 
    9.9999999999999995E-07 
    9.9999999999999995E-07 
    9.9999999999999995E-07 
    9.9999999999999995E-07 
    9.9999999999999995E-07 
    9.9999999999999995E-07 
    9.9999999999999995E-07 
    9.9999999999999995E-07 
    9.9999999999999995E-07 
    9.9999999999999995E-07 
    9.9999999999999995E-07 
    9.9999999999999995E-07 
    9.9999999999999995E-07 
    9.9999999999999995E-07 
    9.9999999999999995E-07 
    9.9999999999999995E-07 
    9.9999999999999995E-07 
    9.9999999999999995E-07 
    9.9999999999999995E-07 
    9.9999999999999995E-07 
    9.9999999999999995E-07 
    9.9999999999999995E-07 
    1.0000000356157842E-06 
