# vtk DataFile Version 2.0
Pressure Field Data 
ASCII 
DATASET UNSTRUCTURED_GRID 

POINTS 289 double 

    0.0000000000000000E+00     0.0000000000000000E+00     0.0000000000000000E+00 
    1.0000000000000000E+00     0.0000000000000000E+00     0.0000000000000000E+00 
    1.0000000000000000E+00     1.0000000000000000E+00     0.0000000000000000E+00 
    0.0000000000000000E+00     1.0000000000000000E+00     0.0000000000000000E+00 
    6.2499999999872928E-02     0.0000000000000000E+00     0.0000000000000000E+00 
    1.2499999999977310E-01     0.0000000000000000E+00     0.0000000000000000E+00 
    1.8749999999959341E-01     0.0000000000000000E+00     0.0000000000000000E+00 
    2.4999999999941089E-01     0.0000000000000000E+00     0.0000000000000000E+00 
    3.1249999999922851E-01     0.0000000000000000E+00     0.0000000000000000E+00 
    3.7499999999904610E-01     0.0000000000000000E+00     0.0000000000000000E+00 
    4.3749999999886358E-01     0.0000000000000000E+00     0.0000000000000000E+00 
    4.9999999999869210E-01     0.0000000000000000E+00     0.0000000000000000E+00 
    5.6249999999884603E-01     0.0000000000000000E+00     0.0000000000000000E+00 
    6.2499999999901090E-01     0.0000000000000000E+00     0.0000000000000000E+00 
    6.8749999999917577E-01     0.0000000000000000E+00     0.0000000000000000E+00 
    7.4999999999934064E-01     0.0000000000000000E+00     0.0000000000000000E+00 
    8.1249999999950551E-01     0.0000000000000000E+00     0.0000000000000000E+00 
    8.7499999999967026E-01     0.0000000000000000E+00     0.0000000000000000E+00 
    9.3749999999983513E-01     0.0000000000000000E+00     0.0000000000000000E+00 
    1.0000000000000000E+00     6.2499999999872928E-02     0.0000000000000000E+00 
    1.0000000000000000E+00     1.2499999999977310E-01     0.0000000000000000E+00 
    1.0000000000000000E+00     1.8749999999959341E-01     0.0000000000000000E+00 
    1.0000000000000000E+00     2.4999999999941089E-01     0.0000000000000000E+00 
    1.0000000000000000E+00     3.1249999999922851E-01     0.0000000000000000E+00 
    1.0000000000000000E+00     3.7499999999904610E-01     0.0000000000000000E+00 
    1.0000000000000000E+00     4.3749999999886358E-01     0.0000000000000000E+00 
    1.0000000000000000E+00     4.9999999999869210E-01     0.0000000000000000E+00 
    1.0000000000000000E+00     5.6249999999884603E-01     0.0000000000000000E+00 
    1.0000000000000000E+00     6.2499999999901090E-01     0.0000000000000000E+00 
    1.0000000000000000E+00     6.8749999999917577E-01     0.0000000000000000E+00 
    1.0000000000000000E+00     7.4999999999934064E-01     0.0000000000000000E+00 
    1.0000000000000000E+00     8.1249999999950551E-01     0.0000000000000000E+00 
    1.0000000000000000E+00     8.7499999999967026E-01     0.0000000000000000E+00 
    1.0000000000000000E+00     9.3749999999983513E-01     0.0000000000000000E+00 
    9.3749999999973976E-01     1.0000000000000000E+00     0.0000000000000000E+00 
    8.7499999999950118E-01     1.0000000000000000E+00     0.0000000000000000E+00 
    8.1249999999991318E-01     1.0000000000000000E+00     0.0000000000000000E+00 
    7.5000000000034706E-01     1.0000000000000000E+00     0.0000000000000000E+00 
    6.8750000000078049E-01     1.0000000000000000E+00     0.0000000000000000E+00 
    6.2500000000121403E-01     1.0000000000000000E+00     0.0000000000000000E+00 
    5.6250000000164757E-01     1.0000000000000000E+00     0.0000000000000000E+00 
    5.0000000000205946E-01     1.0000000000000000E+00     0.0000000000000000E+00 
    4.3750000000182099E-01     1.0000000000000000E+00     0.0000000000000000E+00 
    3.7500000000156092E-01     1.0000000000000000E+00     0.0000000000000000E+00 
    3.1250000000130068E-01     1.0000000000000000E+00     0.0000000000000000E+00 
    2.5000000000104050E-01     1.0000000000000000E+00     0.0000000000000000E+00 
    1.8750000000078040E-01     1.0000000000000000E+00     0.0000000000000000E+00 
    1.2500000000052031E-01     1.0000000000000000E+00     0.0000000000000000E+00 
    6.2500000000260125E-02     1.0000000000000000E+00     0.0000000000000000E+00 
    0.0000000000000000E+00     9.3749999999973976E-01     0.0000000000000000E+00 
    0.0000000000000000E+00     8.7499999999950118E-01     0.0000000000000000E+00 
    0.0000000000000000E+00     8.1249999999991318E-01     0.0000000000000000E+00 
    0.0000000000000000E+00     7.5000000000034706E-01     0.0000000000000000E+00 
    0.0000000000000000E+00     6.8750000000078049E-01     0.0000000000000000E+00 
    0.0000000000000000E+00     6.2500000000121403E-01     0.0000000000000000E+00 
    0.0000000000000000E+00     5.6250000000164757E-01     0.0000000000000000E+00 
    0.0000000000000000E+00     5.0000000000205946E-01     0.0000000000000000E+00 
    0.0000000000000000E+00     4.3750000000182099E-01     0.0000000000000000E+00 
    0.0000000000000000E+00     3.7500000000156092E-01     0.0000000000000000E+00 
    0.0000000000000000E+00     3.1250000000130068E-01     0.0000000000000000E+00 
    0.0000000000000000E+00     2.5000000000104050E-01     0.0000000000000000E+00 
    0.0000000000000000E+00     1.8750000000078040E-01     0.0000000000000000E+00 
    0.0000000000000000E+00     1.2500000000052031E-01     0.0000000000000000E+00 
    0.0000000000000000E+00     6.2500000000260125E-02     0.0000000000000000E+00 
    6.2499999999897131E-02     6.2500000000235922E-02     0.0000000000000000E+00 
    6.2499999999921327E-02     1.2500000000047351E-01     0.0000000000000000E+00 
    6.2499999999945530E-02     1.8750000000070621E-01     0.0000000000000000E+00 
    6.2499999999969733E-02     2.5000000000093858E-01     0.0000000000000000E+00 
    6.2499999999993928E-02     3.1250000000117117E-01     0.0000000000000000E+00 
    6.2500000000018124E-02     3.7500000000140382E-01     0.0000000000000000E+00 
    6.2500000000042327E-02     4.3750000000163619E-01     0.0000000000000000E+00 
    6.2500000000066530E-02     5.0000000000184897E-01     0.0000000000000000E+00 
    6.2500000000090733E-02     5.6250000000147260E-01     0.0000000000000000E+00 
    6.2500000000114922E-02     6.2500000000107636E-01     0.0000000000000000E+00 
    6.2500000000139125E-02     6.8750000000068034E-01     0.0000000000000000E+00 
    6.2500000000163328E-02     7.5000000000028411E-01     0.0000000000000000E+00 
    6.2500000000187531E-02     8.1249999999988787E-01     0.0000000000000000E+00 
    6.2500000000211720E-02     8.7499999999951172E-01     0.0000000000000000E+00 
    6.2500000000235922E-02     9.3749999999974565E-01     0.0000000000000000E+00 
    1.2499999999981980E-01     6.2500000000211733E-02     0.0000000000000000E+00 
    1.2499999999986650E-01     1.2500000000042691E-01     0.0000000000000000E+00 
    1.2499999999991319E-01     1.8750000000063199E-01     0.0000000000000000E+00 
    1.2499999999995989E-01     2.5000000000083678E-01     0.0000000000000000E+00 
    1.2500000000000661E-01     3.1250000000104172E-01     0.0000000000000000E+00 
    1.2500000000005329E-01     3.7500000000124661E-01     0.0000000000000000E+00 
    1.2500000000010000E-01     4.3750000000145117E-01     0.0000000000000000E+00 
    1.2500000000014669E-01     5.0000000000163858E-01     0.0000000000000000E+00 
    1.2500000000019340E-01     5.6250000000129741E-01     0.0000000000000000E+00 
    1.2500000000024011E-01     6.2500000000093847E-01     0.0000000000000000E+00 
    1.2500000000028680E-01     6.8750000000057998E-01     0.0000000000000000E+00 
    1.2500000000033351E-01     7.5000000000022127E-01     0.0000000000000000E+00 
    1.2500000000038020E-01     8.1249999999986211E-01     0.0000000000000000E+00 
    1.2500000000042691E-01     8.7499999999952238E-01     0.0000000000000000E+00 
    1.2500000000047359E-01     9.3749999999975164E-01     0.0000000000000000E+00 
    1.8749999999966760E-01     6.2500000000187531E-02     0.0000000000000000E+00 
    1.8749999999974179E-01     1.2500000000038020E-01     0.0000000000000000E+00 
    1.8749999999981601E-01     1.8750000000055780E-01     0.0000000000000000E+00 
    1.8749999999989009E-01     2.5000000000073502E-01     0.0000000000000000E+00 
    1.8749999999996431E-01     3.1250000000091221E-01     0.0000000000000000E+00 
    1.8750000000003850E-01     3.7500000000108941E-01     0.0000000000000000E+00 
    1.8750000000011269E-01     4.3750000000126649E-01     0.0000000000000000E+00 
    1.8750000000018691E-01     5.0000000000142808E-01     0.0000000000000000E+00 
    1.8750000000026110E-01     5.6250000000112244E-01     0.0000000000000000E+00 
    1.8750000000033529E-01     6.2500000000080080E-01     0.0000000000000000E+00 
    1.8750000000040951E-01     6.8750000000047962E-01     0.0000000000000000E+00 
    1.8750000000048361E-01     7.5000000000015843E-01     0.0000000000000000E+00 
    1.8750000000055780E-01     8.1249999999983680E-01     0.0000000000000000E+00 
    1.8750000000063199E-01     8.7499999999953304E-01     0.0000000000000000E+00 
    1.8750000000070621E-01     9.3749999999975764E-01     0.0000000000000000E+00 
    2.4999999999951281E-01     6.2500000000163314E-02     0.0000000000000000E+00 
    2.4999999999961461E-01     1.2500000000033351E-01     0.0000000000000000E+00 
    2.4999999999971650E-01     1.8750000000048361E-01     0.0000000000000000E+00 
    2.4999999999981831E-01     2.5000000000063310E-01     0.0000000000000000E+00 
    2.4999999999992020E-01     3.1250000000078260E-01     0.0000000000000000E+00 
    2.5000000000002198E-01     3.7500000000093209E-01     0.0000000000000000E+00 
    2.5000000000012390E-01     4.3750000000108180E-01     0.0000000000000000E+00 
    2.5000000000022571E-01     5.0000000000121769E-01     0.0000000000000000E+00 
    2.5000000000032763E-01     5.6250000000094724E-01     0.0000000000000000E+00 
    2.5000000000042938E-01     6.2500000000066314E-01     0.0000000000000000E+00 
    2.5000000000053119E-01     6.8750000000037925E-01     0.0000000000000000E+00 
[...]
CELL_DATA 256 
SCALARS Pressure double 1 
LOOKUP_TABLE default 

    2.4133677319158964E+00 
    2.3073056882747496E+00 
    2.2363891529182949E+00 
    2.1786654242252830E+00 
    2.1272408740715494E+00 
    2.0799793049090813E+00 
    2.0354533898122846E+00 
    1.9934759468066794E+00 
    1.9539380792963272E+00 
    1.9169704853002005E+00 
    1.8819642239325114E+00 
    1.8451108548458597E+00 
    1.8116478595660070E+00 
    1.7880055777293906E+00 
    1.7721503436980159E+00 
    1.7641979681782247E+00 
    2.3073215369206177E+00 
    2.2622215412343887E+00 
    2.2122560030298350E+00 
    2.1627857099917951E+00 
    2.1156511003478062E+00 
    2.0706489313474985E+00 
    2.0273620259549827E+00 
    1.9861177959250211E+00 
    1.9469268032246572E+00 
    1.9100294285163995E+00 
    1.8747623147195525E+00 
    1.8375918461279261E+00 
    1.8040374604155980E+00 
    1.7802368767087879E+00 
    1.7642613810358614E+00 
    1.7562486079787059E+00 
    2.2364331338037777E+00 
    2.2122831922464070E+00 
    2.1764939557524148E+00 
    2.1362262327197881E+00 
    2.0948053804019731E+00 
    2.0530979701109167E+00 
    2.0118689703420438E+00 
    1.9717896803802430E+00 
    1.9331168458245427E+00 
    1.8963177053094153E+00 
    1.8604516377133213E+00 
    1.8225865286515293E+00 
    1.7888204500693772E+00 
    1.7646787798302803E+00 
    1.7484460250650438E+00 
    1.7402985124157748E+00 
    2.1787447344687609E+00 
    2.1628433022044709E+00 
    2.1362545332889029E+00 
    2.1034916094490770E+00 
    2.0671751379941812E+00 
    2.0289103559514761E+00 
    1.9899535620230091E+00 
    1.9511116086932274E+00 
    1.9129612667002345E+00 
    1.8761464000076487E+00 
    1.8391819633928064E+00 
    1.8001007832113494E+00 
    1.7659571915291588E+00 
    1.7412465392063543E+00 
    1.7245860076252730E+00 
    1.7162105757954464E+00 
    2.1273443322426595E+00 
    2.1157279020753474E+00 
    2.0948559767961590E+00 
    2.0672003741256777E+00 
    2.0349204487472541E+00 
    1.9996857030624342E+00 
    1.9626977884007062E+00 
    1.9248489720881374E+00 
    1.8869781185800119E+00 
    1.8498383938679619E+00 
    1.8110596590808750E+00 
    1.7701134285788052E+00 
    1.7353731835043660E+00 
    1.7097996531116360E+00 
    1.6924874344571543E+00 
    1.6837593904484562E+00 
    2.0800881553849799E+00 
    2.0707409688019580E+00 
    2.0531699393594764E+00 
    2.0289603682394808E+00 
    1.9997130263421719E+00 
    1.9667362508490707E+00 
    1.9311029968111750E+00 
    1.8937760404279989E+00 
    1.8557042768536263E+00 
    1.8176137607500873E+00 
    1.7760412178196181E+00 
    1.7325759877806806E+00 
    1.6969386589711855E+00 
    1.6701232614217463E+00 
    1.6518512062530899E+00 
    1.6425957246166851E+00 
    2.0355754087547986E+00 
    2.0274721372489832E+00 
    2.0119614709679512E+00 
    1.9900239181915911E+00 
    1.9627429828593801E+00 
    1.9311229776537089E+00 
    1.8961303244741956E+00 
    1.8586853542216870E+00 
    1.8197054225360147E+00 
    1.7793629076026576E+00 
    1.7336770843842049E+00 
    1.6874458478308243E+00 
    1.6505133093260664E+00 
    1.6219257708009802E+00 
    1.6022249884557920E+00 
    1.5921696219865829E+00 
    1.9935971278458071E+00 
    1.9862301494844541E+00 
    1.9718897079042588E+00 
    1.9511881316394799E+00 
    1.9248964393647581E+00 
    1.8938067090090478E+00 
    1.8587071730871212E+00 
    1.8203952765234923E+00 
    1.7795775963932532E+00 
    1.7348678507164703E+00 
    1.6837706846674905E+00 
    1.6351897779241820E+00 
    1.5960960852334571E+00 
    1.5648796195279424E+00 
    1.5429937396522897E+00 
    1.5316938878224302E+00 
    1.9540617859987892E+00 
    1.9470530668772938E+00 
    1.9332460930625290E+00 
    1.9130695515266243E+00 
    1.8870531650840996E+00 
    1.8557670043062502E+00 
    1.8197631286520146E+00 
    1.7796094768567419E+00 
    1.7349374683944174E+00 
    1.6833045741023738E+00 
    1.6274809408545068E+00 
    1.5768651529348752E+00 
    1.5338326664939579E+00 
    1.4985158323951682E+00 
    1.4731991686301955E+00 
    1.4599221245736598E+00 
    1.9171419558241025E+00 
    1.9102102794848581E+00 
    1.8965084596118056E+00 
    1.8763189421932940E+00 
    1.8499779759995345E+00 
    1.8177362308770779E+00 
    1.7794792913506954E+00 
    1.7349566899298365E+00 
    1.6833487725561429E+00 
    1.6253605570109348E+00 
    1.5672059224271919E+00 
    1.5130721610953917E+00 
    1.4638548436807419E+00 
    1.4221510067442515E+00 
    1.3913754695824294E+00 
    1.3748788357293278E+00 
    1.8822106508837875E+00 
    1.8749922420075444E+00 
    1.8606472173696824E+00 
    1.8393223411134676E+00 
    1.8111630053809502E+00 
    1.7761596845891470E+00 
    1.7338359514649908E+00 
    1.6839099502668253E+00 
    1.6275561934660412E+00 
    1.5672376916956026E+00 
    1.5056577665251387E+00 
    1.4446040890209635E+00 
    1.3863458691750703E+00 
    1.3348400191812497E+00 
    1.2952532030359010E+00 
    1.2733259631626543E+00 
    1.8454181434300025E+00 
    1.8378709079964584E+00 
    1.8228136654111182E+00 
    1.8002727580926960E+00 
    1.7702722624867093E+00 
    1.7327707489204798E+00 
    1.6876599029188222E+00 
    1.6353533892728755E+00 
    1.5769686398573601E+00 
    1.5131391497658515E+00 
    1.4446368323095362E+00 
    1.3733770565781518E+00 
    1.3021271134844665E+00 
    1.2356554472088610E+00 
    1.1815176953102418E+00 
    1.1498705538501506E+00 
    1.8119857201408496E+00 
    1.8043661832558564E+00 
    1.7891330754869987E+00 
    1.7662547737913479E+00 
    1.7356684086661398E+00 
    1.6972314265612902E+00 
    1.6507711870988033E+00 
    1.5962928554446263E+00 
    1.5339772609546181E+00 
    1.4639573585877432E+00 
    1.3864098283076991E+00 
    1.3021571189277159E+00 
    1.2131505658971489E+00 
    1.1241548449732990E+00 
    1.0453177792373876E+00 
    9.9478050651861705E-01 
    1.7883583139105002E+00 
    1.7805810150232273E+00 
    1.7650094012337088E+00 
    1.7415625695265371E+00 
    1.7101030507778903E+00 
    1.6704098808261241E+00 
    1.6221809044961482E+00 
    1.5650917212220270E+00 
    1.4986840957915901E+00 
    1.4222783241270691E+00 
    1.3349282738888655E+00 
    1.2357093707161015E+00 
    1.1241788076458319E+00 
    1.0025064989860881E+00 
    8.8083873785695865E-01 
    7.8916213795126233E-01 
    1.7725060318006394E+00 
    1.7646096450958990E+00 
    1.7487825093881242E+00 
    1.7249078940595135E+00 
    1.6927927484435727E+00 
    1.6521356468511033E+00 
    1.6024798072400070E+00 
    1.5432123000037816E+00 
    1.4733788287835141E+00 
    1.3915165420449855E+00 
    1.2953562996281700E+00 
    1.1815869520979596E+00 
    1.0453576186180675E+00 
    8.8085504058658082E-01 
    6.8636676912312133E-01 
    4.9185696621133557E-01 
    1.7645476610761408E+00 
    1.7565920321367956E+00 
    1.7406312997090161E+00 
    1.7165290453341775E+00 
    1.6840602293212792E+00 
    1.6428748774806472E+00 
    1.5924200479994379E+00 
    1.5319104500376446E+00 
    1.4601020829900806E+00 
    1.3750218062198518E+00 
    1.2734325689762629E+00 
    1.1499444986546596E+00 
    9.9482625698419236E-01 
    7.8918548584848736E-01 
    4.9186480156817564E-01 
    0.0000000000000000E+00 

SCALARS Saturarion double 1 
LOOKUP_TABLE default 

    1.0000000092321140E+00 
    9.5578633309330430E-01 
    8.8434208441822471E-01 
    8.1019321101678277E-01 
    7.4070467849189736E-01 
    6.7965198312740271E-01 
    6.2827529188431852E-01 
    5.8109481370493044E-01 
    5.3541117323241960E-01 
    4.9243132874248874E-01 
    4.3670774616177327E-01 
    1.4691001008241281E-01 
    3.6086601854450751E-04 
    1.0053660709831841E-06 
    1.0000000001461894E-06 
    9.9999999999999974E-07 
    9.5578211132902580E-01 
    9.2606983479490723E-01 
    8.6302164792069758E-01 
    7.9473909290193412E-01 
    7.3005219227872931E-01 
    6.7275969951657166E-01 
    6.2376707896129913E-01 
    5.7779869304509446E-01 
    5.3326777762176925E-01 
    4.9112768181503541E-01 
    4.3295535372285121E-01 
    1.3634527301460839E-01 
    1.7928914836657631E-04 
    1.0002532969703537E-06 
    1.0000000000541194E-06 
    9.9999999999999995E-07 
    8.8432919035569846E-01 
    8.6301025758769379E-01 
    8.1422252731407951E-01 
    7.6049188500206077E-01 
    7.0693841987252026E-01 
    6.5743327528017736E-01 
    6.1263118148620177E-01 
    5.6909240634472569E-01 
    5.2749862260888714E-01 
    4.8725784661881311E-01 
    4.2656537508408648E-01 
    1.1675203079076564E-01 
    1.6565843383063933E-04 
    1.0088514239360217E-06 
    1.0000000002526879E-06 
    9.9999999999999974E-07 
    8.1017370066287220E-01 
    7.9472418876407369E-01 
    7.6047872001909689E-01 
    7.1977300087084017E-01 
    6.7903275711203903E-01 
    6.3767420908099370E-01 
    5.9671578071702247E-01 
    5.5684437452894298E-01 
    5.1852464436489654E-01 
    4.8065740245078797E-01 
    4.1401681694126019E-01 
    9.2738301402675472E-02 
    6.1672002709833268E-05 
    1.0011906365737365E-06 
    1.0000000000026620E-06 
    1.0000000000000002E-06 
    7.4069020666166474E-01 
    7.3004166839142459E-01 
    7.0691573247181572E-01 
    6.7901339015651840E-01 
    6.4709361320501757E-01 
    6.1229039261924556E-01 
    5.7691505794021836E-01 
    5.4212062298837427E-01 
    5.0703341486430964E-01 
    4.7082064862115136E-01 
    3.8929619229900314E-01 
    6.2467145297148842E-02 
    8.2687080766270994E-05 
    1.0000999834299806E-06 
    1.0000000000237033E-06 
    9.9999999999999995E-07 
    6.7966234350596733E-01 
    6.7275288712796000E-01 
    6.5740036368848065E-01 
    6.3765081856453021E-01 
    6.1227975651407729E-01 
    5.8366873470992764E-01 
    5.5425182387294170E-01 
    5.2432491667793180E-01 
    4.9378024254795494E-01 
    4.5918039184272885E-01 
    3.5632563001228695E-01 
    3.2312671019971553E-02 
    6.0411907232561463E-05 
    1.0003123803499481E-06 
    1.0000000000133915E-06 
    9.9999999999999995E-07 
    6.2829262642970729E-01 
    6.2375970770863964E-01 
    6.1261512244438876E-01 
    5.9671768864005581E-01 
    5.7683583402103378E-01 
    5.5408834003420804E-01 
    5.2956988812719108E-01 
    5.0388088619122517E-01 
    4.7709479612733985E-01 
    4.4531933560655812E-01 
    2.8730922769324896E-01 
    4.2662340428439461E-03 
    1.4566271261557152E-06 
    1.0000000710498332E-06 
    1.0000000000000036E-06 
    9.9999999999999995E-07 
    5.8101295698279110E-01 
    5.7768319814357127E-01 
    5.6898487330287517E-01 
    5.5669915528801850E-01 
    5.4183833600592746E-01 
    5.2402815215443599E-01 
    5.0364135964659507E-01 
    4.8228762378960011E-01 
    4.5942333956704856E-01 
    4.1888880620071139E-01 
    1.6127886752446294E-01 
    2.5740573967119511E-04 
    1.0239313463651877E-06 
    1.0000000021543421E-06 
    9.9999999999999953E-07 
    9.9999999999999995E-07 
    5.3563727594044186E-01 
    5.3354533289162998E-01 
    5.2777181297970133E-01 
    5.1871607688957311E-01 
    5.0781708645831736E-01 
    4.9455371670065423E-01 
    4.7713948028684755E-01 
    4.5888979687759485E-01 
    4.3459101931320387E-01 
    3.3609932564459361E-01 
    3.2694498007052909E-02 
    4.3767895154561576E-05 
    1.0001709892619160E-06 
    1.0000000000065532E-06 
    9.9999999999999995E-07 
    9.9999999999999995E-07 
    4.9365733737412726E-01 
    4.9222395245359951E-01 
    4.8745528551571243E-01 
    4.8054130577256532E-01 
    4.7167283340734667E-01 
    4.6037893129743807E-01 
    4.4465002903784967E-01 
    4.1910573721010297E-01 
    3.3575948762603725E-01 
    8.9768458297322343E-02 
    1.4521854709126873E-03 
    1.0185312759833033E-06 
    1.0000001007725393E-06 
    1.0000000000000002E-06 
    9.9999999999999995E-07 
    9.9999999999999995E-07 
    4.3784544055046787E-01 
    4.3385594974221464E-01 
    4.2566330188031543E-01 
    4.1225040764917259E-01 
    3.8781171111962615E-01 
    3.5407441986885480E-01 
    2.8937321057021070E-01 
    1.6516453759944902E-01 
    3.3302122815778226E-02 
    2.3081833756379857E-03 
    1.8172175481870544E-06 
    1.0000003197314749E-06 
    1.0000000000000855E-06 
    9.9999999999999995E-07 
    9.9999999999999995E-07 
    9.9999999999999995E-07 
    1.4728102939218637E-01 
    1.3369904384691189E-01 
    1.1298756868107557E-01 
    8.6999291368985612E-02 
    5.5239883101485990E-02 
    2.9479073959678651E-02 
    4.6453577256930214E-03 
    2.6720572238537983E-04 
    4.6627827557114659E-05 
    4.2910356319632436E-06 
    1.0000003202057651E-06 
    1.0000000000001001E-06 
    9.9999999999999995E-07 
    9.9999999999999995E-07 
    9.9999999999999995E-07 
    9.9999999999999995E-07 
    1.0382760360248332E-05 
    5.6177607213443553E-06 
    1.5507593913651315E-04 
    2.9714699251465389E-05 
    1.6955610135830483E-05 
    1.8514206238061154E-05 
    1.4319452140699252E-06 
    1.0258582414198586E-06 
    1.0001949685461782E-06 
    1.0000023914211969E-06 
    1.0000000000000304E-06 
    9.9999999999999995E-07 
    9.9999999999999995E-07 
    9.9999999999999995E-07 
    9.9999999999999995E-07 
    9.9999999999999995E-07 
    1.0000764298895984E-06 
    1.0000089315830382E-06 
    1.0010639603131235E-06 
    1.0001832771630523E-06 
    1.0000367190417213E-06 
    1.0000112395044418E-06 
    1.0000000655367585E-06 
    1.0000000021438935E-06 
    1.0000000000083849E-06 
    1.0000000000002488E-06 
    9.9999999999999995E-07 
    9.9999999999999995E-07 
    9.9999999999999995E-07 
    9.9999999999999995E-07 
    9.9999999999999995E-07 
    9.9999999999999995E-07 
    1.0000000000167339E-06 
    1.0000000000003599E-06 
    1.0000000001100979E-06 
    1.0000000000223754E-06 
    1.0000000000005363E-06 
    1.0000000000034095E-06 
    1.0000000000000006E-06 
    9.9999999999999932E-07 
    9.9999999999999995E-07 
    9.9999999999999995E-07 
    9.9999999999999995E-07 
    9.9999999999999995E-07 
    9.9999999999999995E-07 
    9.9999999999999995E-07 
    9.9999999999999995E-07 
    9.9999999999999995E-07 
    9.9999999999999995E-07 
    9.9999999999999995E-07 
    9.9999999999999995E-07 
    9.9999999999999995E-07 
    9.9999999999999995E-07 
    9.9999999999999995E-07 
    9.9999999999999995E-07 
    9.9999999999999995E-07 
    9.9999999999999995E-07 
    9.9999999999999995E-07 
    9.9999999999999995E-07 
    9.9999999999999995E-07 
    9.9999999999999995E-07 
    9.9999999999999995E-07 
    9.9999999999999995E-07 
    1.0000001419572382E-06 
