# vtk DataFile Version 2.0
Pressure Field Data 
ASCII 
DATASET UNSTRUCTURED_GRID 

POINTS 289 double 

    0.0000000000000000E+00     0.0000000000000000E+00     0.0000000000000000E+00 
    1.0000000000000000E+00     0.0000000000000000E+00     0.0000000000000000E+00 
    1.0000000000000000E+00     1.0000000000000000E+00     0.0000000000000000E+00 
    0.0000000000000000E+00     1.0000000000000000E+00     0.0000000000000000E+00 
    6.2499999999872928E-02     0.0000000000000000E+00     0.0000000000000000E+00 
    1.2499999999977310E-01     0.0000000000000000E+00     0.0000000000000000E+00 
    1.8749999999959341E-01     0.0000000000000000E+00     0.0000000000000000E+00 
    2.4999999999941089E-01     0.0000000000000000E+00     0.0000000000000000E+00 
    3.1249999999922851E-01     0.0000000000000000E+00     0.0000000000000000E+00 
    3.7499999999904610E-01     0.0000000000000000E+00     0.0000000000000000E+00 
    4.3749999999886358E-01     0.0000000000000000E+00     0.0000000000000000E+00 
    4.9999999999869210E-01     0.0000000000000000E+00     0.0000000000000000E+00 
    5.6249999999884603E-01     0.0000000000000000E+00     0.0000000000000000E+00 
    6.2499999999901090E-01     0.0000000000000000E+00     0.0000000000000000E+00 
    6.8749999999917577E-01     0.0000000000000000E+00     0.0000000000000000E+00 
    7.4999999999934064E-01     0.0000000000000000E+00     0.0000000000000000E+00 
    8.1249999999950551E-01     0.0000000000000000E+00     0.0000000000000000E+00 
    8.7499999999967026E-01     0.0000000000000000E+00     0.0000000000000000E+00 
    9.3749999999983513E-01     0.0000000000000000E+00     0.0000000000000000E+00 
    1.0000000000000000E+00     6.2499999999872928E-02     0.0000000000000000E+00 
    1.0000000000000000E+00     1.2499999999977310E-01     0.0000000000000000E+00 
    1.0000000000000000E+00     1.8749999999959341E-01     0.0000000000000000E+00 
    1.0000000000000000E+00     2.4999999999941089E-01     0.0000000000000000E+00 
    1.0000000000000000E+00     3.1249999999922851E-01     0.0000000000000000E+00 
    1.0000000000000000E+00     3.7499999999904610E-01     0.0000000000000000E+00 
    1.0000000000000000E+00     4.3749999999886358E-01     0.0000000000000000E+00 
    1.0000000000000000E+00     4.9999999999869210E-01     0.0000000000000000E+00 
    1.0000000000000000E+00     5.6249999999884603E-01     0.0000000000000000E+00 
    1.0000000000000000E+00     6.2499999999901090E-01     0.0000000000000000E+00 
    1.0000000000000000E+00     6.8749999999917577E-01     0.0000000000000000E+00 
    1.0000000000000000E+00     7.4999999999934064E-01     0.0000000000000000E+00 
    1.0000000000000000E+00     8.1249999999950551E-01     0.0000000000000000E+00 
    1.0000000000000000E+00     8.7499999999967026E-01     0.0000000000000000E+00 
    1.0000000000000000E+00     9.3749999999983513E-01     0.0000000000000000E+00 
    9.3749999999973976E-01     1.0000000000000000E+00     0.0000000000000000E+00 
    8.7499999999950118E-01     1.0000000000000000E+00     0.0000000000000000E+00 
    8.1249999999991318E-01     1.0000000000000000E+00     0.0000000000000000E+00 
    7.5000000000034706E-01     1.0000000000000000E+00     0.0000000000000000E+00 
    6.8750000000078049E-01     1.0000000000000000E+00     0.0000000000000000E+00 
    6.2500000000121403E-01     1.0000000000000000E+00     0.0000000000000000E+00 
    5.6250000000164757E-01     1.0000000000000000E+00     0.0000000000000000E+00 
    5.0000000000205946E-01     1.0000000000000000E+00     0.0000000000000000E+00 
    4.3750000000182099E-01     1.0000000000000000E+00     0.0000000000000000E+00 
    3.7500000000156092E-01     1.0000000000000000E+00     0.0000000000000000E+00 
    3.1250000000130068E-01     1.0000000000000000E+00     0.0000000000000000E+00 
    2.5000000000104050E-01     1.0000000000000000E+00     0.0000000000000000E+00 
    1.8750000000078040E-01     1.0000000000000000E+00     0.0000000000000000E+00 
    1.2500000000052031E-01     1.0000000000000000E+00     0.0000000000000000E+00 
    6.2500000000260125E-02     1.0000000000000000E+00     0.0000000000000000E+00 
    0.0000000000000000E+00     9.3749999999973976E-01     0.0000000000000000E+00 
    0.0000000000000000E+00     8.7499999999950118E-01     0.0000000000000000E+00 
    0.0000000000000000E+00     8.1249999999991318E-01     0.0000000000000000E+00 
    0.0000000000000000E+00     7.5000000000034706E-01     0.0000000000000000E+00 
    0.0000000000000000E+00     6.8750000000078049E-01     0.0000000000000000E+00 
    0.0000000000000000E+00     6.2500000000121403E-01     0.0000000000000000E+00 
    0.0000000000000000E+00     5.6250000000164757E-01     0.0000000000000000E+00 
    0.0000000000000000E+00     5.0000000000205946E-01     0.0000000000000000E+00 
    0.0000000000000000E+00     4.3750000000182099E-01     0.0000000000000000E+00 
    0.0000000000000000E+00     3.7500000000156092E-01     0.0000000000000000E+00 
    0.0000000000000000E+00     3.1250000000130068E-01     0.0000000000000000E+00 
    0.0000000000000000E+00     2.5000000000104050E-01     0.0000000000000000E+00 
    0.0000000000000000E+00     1.8750000000078040E-01     0.0000000000000000E+00 
    0.0000000000000000E+00     1.2500000000052031E-01     0.0000000000000000E+00 
    0.0000000000000000E+00     6.2500000000260125E-02     0.0000000000000000E+00 
    6.2499999999897131E-02     6.2500000000235922E-02     0.0000000000000000E+00 
    6.2499999999921327E-02     1.2500000000047351E-01     0.0000000000000000E+00 
    6.2499999999945530E-02     1.8750000000070621E-01     0.0000000000000000E+00 
    6.2499999999969733E-02     2.5000000000093858E-01     0.0000000000000000E+00 
    6.2499999999993928E-02     3.1250000000117117E-01     0.0000000000000000E+00 
    6.2500000000018124E-02     3.7500000000140382E-01     0.0000000000000000E+00 
    6.2500000000042327E-02     4.3750000000163619E-01     0.0000000000000000E+00 
    6.2500000000066530E-02     5.0000000000184897E-01     0.0000000000000000E+00 
    6.2500000000090733E-02     5.6250000000147260E-01     0.0000000000000000E+00 
    6.2500000000114922E-02     6.2500000000107636E-01     0.0000000000000000E+00 
    6.2500000000139125E-02     6.8750000000068034E-01     0.0000000000000000E+00 
    6.2500000000163328E-02     7.5000000000028411E-01     0.0000000000000000E+00 
    6.2500000000187531E-02     8.1249999999988787E-01     0.0000000000000000E+00 
    6.2500000000211720E-02     8.7499999999951172E-01     0.0000000000000000E+00 
    6.2500000000235922E-02     9.3749999999974565E-01     0.0000000000000000E+00 
    1.2499999999981980E-01     6.2500000000211733E-02     0.0000000000000000E+00 
    1.2499999999986650E-01     1.2500000000042691E-01     0.0000000000000000E+00 
    1.2499999999991319E-01     1.8750000000063199E-01     0.0000000000000000E+00 
    1.2499999999995989E-01     2.5000000000083678E-01     0.0000000000000000E+00 
    1.2500000000000661E-01     3.1250000000104172E-01     0.0000000000000000E+00 
    1.2500000000005329E-01     3.7500000000124661E-01     0.0000000000000000E+00 
    1.2500000000010000E-01     4.3750000000145117E-01     0.0000000000000000E+00 
    1.2500000000014669E-01     5.0000000000163858E-01     0.0000000000000000E+00 
    1.2500000000019340E-01     5.6250000000129741E-01     0.0000000000000000E+00 
    1.2500000000024011E-01     6.2500000000093847E-01     0.0000000000000000E+00 
    1.2500000000028680E-01     6.8750000000057998E-01     0.0000000000000000E+00 
    1.2500000000033351E-01     7.5000000000022127E-01     0.0000000000000000E+00 
    1.2500000000038020E-01     8.1249999999986211E-01     0.0000000000000000E+00 
    1.2500000000042691E-01     8.7499999999952238E-01     0.0000000000000000E+00 
    1.2500000000047359E-01     9.3749999999975164E-01     0.0000000000000000E+00 
    1.8749999999966760E-01     6.2500000000187531E-02     0.0000000000000000E+00 
    1.8749999999974179E-01     1.2500000000038020E-01     0.0000000000000000E+00 
    1.8749999999981601E-01     1.8750000000055780E-01     0.0000000000000000E+00 
    1.8749999999989009E-01     2.5000000000073502E-01     0.0000000000000000E+00 
    1.8749999999996431E-01     3.1250000000091221E-01     0.0000000000000000E+00 
    1.8750000000003850E-01     3.7500000000108941E-01     0.0000000000000000E+00 
    1.8750000000011269E-01     4.3750000000126649E-01     0.0000000000000000E+00 
    1.8750000000018691E-01     5.0000000000142808E-01     0.0000000000000000E+00 
    1.8750000000026110E-01     5.6250000000112244E-01     0.0000000000000000E+00 
    1.8750000000033529E-01     6.2500000000080080E-01     0.0000000000000000E+00 
    1.8750000000040951E-01     6.8750000000047962E-01     0.0000000000000000E+00 
    1.8750000000048361E-01     7.5000000000015843E-01     0.0000000000000000E+00 
    1.8750000000055780E-01     8.1249999999983680E-01     0.0000000000000000E+00 
    1.8750000000063199E-01     8.7499999999953304E-01     0.0000000000000000E+00 
    1.8750000000070621E-01     9.3749999999975764E-01     0.0000000000000000E+00 
    2.4999999999951281E-01     6.2500000000163314E-02     0.0000000000000000E+00 
    2.4999999999961461E-01     1.2500000000033351E-01     0.0000000000000000E+00 
    2.4999999999971650E-01     1.8750000000048361E-01     0.0000000000000000E+00 
    2.4999999999981831E-01     2.5000000000063310E-01     0.0000000000000000E+00 
    2.4999999999992020E-01     3.1250000000078260E-01     0.0000000000000000E+00 
    2.5000000000002198E-01     3.7500000000093209E-01     0.0000000000000000E+00 
    2.5000000000012390E-01     4.3750000000108180E-01     0.0000000000000000E+00 
    2.5000000000022571E-01     5.0000000000121769E-01     0.0000000000000000E+00 
    2.5000000000032763E-01     5.6250000000094724E-01     0.0000000000000000E+00 
    2.5000000000042938E-01     6.2500000000066314E-01     0.0000000000000000E+00 
    2.5000000000053119E-01     6.8750000000037925E-01     0.0000000000000000E+00 
[...]
CELL_DATA 256 
SCALARS Pressure double 1 
LOOKUP_TABLE default 

    2.4998617049545566E+00 
    2.3920231662097438E+00 
    2.3177304466847684E+00 
    2.2552833062135749E+00 
    2.1984223874480908E+00 
    2.1452978557644475E+00 
    2.0947667692576606E+00 
    2.0465106699688449E+00 
    2.0004532614569546E+00 
    1.9536072130513717E+00 
    1.9046213457322851E+00 
    1.8619452467856110E+00 
    1.8287616469175816E+00 
    1.8038232106226544E+00 
    1.7871653065074942E+00 
    1.7788303229794189E+00 
    2.3920408751974787E+00 
    2.3451551695296038E+00 
    2.2918412663840297E+00 
    2.2379582135004044E+00 
    2.1856476319658511E+00 
    2.1349378456298127E+00 
    2.0857670256450453E+00 
    2.0383240783185106E+00 
    1.9927067492981114E+00 
    1.9454280079733128E+00 
    1.8960885820283497E+00 
    1.8537293043022360E+00 
    1.8205304820901012E+00 
    1.7955545614211337E+00 
    1.7788555595494260E+00 
    1.7704983628425854E+00 
    2.3177779982102482E+00 
    2.2918699567513490E+00 
    2.2530659001387199E+00 
    2.2088092640736909E+00 
    2.1625049405953152E+00 
    2.1154000253913372E+00 
    2.0684574292285975E+00 
    2.0223097352687613E+00 
    1.9773454367965591E+00 
    1.9292407314682867E+00 
    1.8791949626662625E+00 
    1.8373329052543836E+00 
    1.8041055534297141E+00 
    1.7790384217203767E+00 
    1.7622385117775206E+00 
    1.7538206420258595E+00 
    2.2553650675894157E+00 
    2.2380164401464686E+00 
    2.2088379305640093E+00 
    2.1724298014132111E+00 
    2.1316394967383840E+00 
    2.0883305478902621E+00 
    2.0438320217929773E+00 
    1.9990652172651657E+00 
    1.9544640392025794E+00 
    1.9049750365675846E+00 
    1.8541382949392644E+00 
    1.8128341820204759E+00 
    1.7795465373516963E+00 
    1.7542844474250394E+00 
    1.7372778638568156E+00 
    1.7287341824809246E+00 
    2.1985267672125337E+00 
    2.1857262796782275E+00 
    2.1625596587189357E+00 
    2.1316693266592961E+00 
    2.0953568779165059E+00 
    2.0553680241998160E+00 
    2.0130232191837876E+00 
    1.9693485808572555E+00 
    1.9239200276888639E+00 
    1.8722940293124699E+00 
    1.8213862697644789E+00 
    1.7804959590968874E+00 
    1.7469848917355681E+00 
    1.7213059132819897E+00 
    1.7038984769856587E+00 
    1.6951155506404030E+00 
    2.1454127597144037E+00 
    2.1350394589338260E+00 
    2.1154846256705238E+00 
    2.0883904301003873E+00 
    2.0553974109382569E+00 
    2.0179030199350256E+00 
    1.9770976911674771E+00 
    1.9338517960012476E+00 
    1.8859331602592706E+00 
    1.8319185049345057E+00 
    1.7819296796167714E+00 
    1.7408126427133475E+00 
    1.7066103443655527E+00 
    1.6800846601277375E+00 
    1.6619388206308039E+00 
    1.6527287201366889E+00 
    2.0948928247116596E+00 
    2.0858899125873664E+00 
    2.0685675463843287E+00 
    2.0439050748300525E+00 
    2.0130604942270516E+00 
    1.9771215679438414E+00 
    1.9369460020874456E+00 
    1.8921640405600184E+00 
    1.8400494016849231E+00 
    1.7850930624333918E+00 
    1.7363894601397258E+00 
    1.6942277123663509E+00 
    1.6585739672072575E+00 
    1.6305034704588266E+00 
    1.6110684947108063E+00 
    1.6011246527726590E+00 
    2.0466680187526798E+00 
    2.0384988855931532E+00 
    2.0224893372502124E+00 
    1.9991896139552807E+00 
    1.9694055338475351E+00 
    1.9338832947804809E+00 
    1.8921666352169222E+00 
    1.8428441327963103E+00 
    1.7876060275267458E+00 
    1.7339386386103774E+00 
    1.6852882411782013E+00 
    1.6411721959715240E+00 
    1.6029895793533795E+00 
    1.5723223467532541E+00 
    1.5507448782155415E+00 
    1.5395816043802031E+00 
    2.0006845629785630E+00 
    1.9929761918159548E+00 
    1.9776238900691674E+00 
    1.9546440604745525E+00 
    1.9240119863519622E+00 
    1.8860070505482525E+00 
    1.8400867907347358E+00 
    1.7876199867728790E+00 
    1.7335128149564429E+00 
    1.6805530707427923E+00 
    1.6297315194876292E+00 
    1.5821975171853371E+00 
    1.5399002422130952E+00 
    1.5050635412833189E+00 
    1.4800279622678987E+00 
    1.4668784780796025E+00 
    1.9538446301834638E+00 
    1.9456605636590349E+00 
    1.9294134814678157E+00 
    1.9050308591238136E+00 
    1.8723444512107181E+00 
    1.8320121070218669E+00 
    1.7851719375393793E+00 
    1.7339935690788211E+00 
    1.6805816633013939E+00 
    1.6257328166897320E+00 
    1.5709110800517301E+00 
    1.5179855213675144E+00 
    1.4693463354487006E+00 
    1.4280029107136558E+00 
    1.3974345484996638E+00 
    1.3810308001532665E+00 
    1.9048225322526691E+00 
    1.8962321362908510E+00 
    1.8792382008816277E+00 
    1.8541189153828990E+00 
    1.8214066326070462E+00 
    1.7819817443649542E+00 
    1.7364436486598800E+00 
    1.6853428083253486E+00 
    1.6297729760889934E+00 
    1.5709326343233607E+00 
    1.5101962161626232E+00 
    1.4494673849816009E+00 
    1.3914803474455280E+00 
    1.3401507603536558E+00 
    1.3006577047824188E+00 
    1.2787667274851582E+00 
    1.8621502254337186E+00 
    1.8538979936957625E+00 
    1.8374450071230826E+00 
    1.8129076949677412E+00 
    1.7805697086017644E+00 
    1.7408903613625051E+00 
    1.6943029211954332E+00 
    1.6412421630757605E+00 
    1.5822552078832053E+00 
    1.5180255789897759E+00 
    1.4494866458286313E+00 
    1.3782374038038447E+00 
    1.3069971552222470E+00 
    1.2405046183642499E+00 
    1.1863215977462078E+00 
    1.1546346148472824E+00 
    1.8289598739525421E+00 
    1.8207079212212527E+00 
    1.8042524553023906E+00 
    1.7796684887338712E+00 
    1.7470954259487097E+00 
    1.7067142255310042E+00 
    1.6586702332102599E+00 
    1.6030769326792389E+00 
    1.5399744109108231E+00 
    1.4694033792499643E+00 
    1.3915170945296800E+00 
    1.3070148047363532E+00 
    1.2177857125739131E+00 
    1.1285654480435920E+00 
    1.0495134360275460E+00 
    9.9882714971341569E-01 
    1.8040211654449581E+00 
    1.7957399367103892E+00 
    1.7792051230008858E+00 
    1.7544331111386431E+00 
    1.7214411538997314E+00 
    1.6802091395087040E+00 
    1.6306169852338261E+00 
    1.5724242581212995E+00 
    1.5051511403481677E+00 
    1.4280734429140194E+00 
    1.3402014425306352E+00 
    1.2405364940511434E+00 
    1.1285798889969267E+00 
    1.0064678312941191E+00 
    8.8435866075040692E-01 
    7.9234187042261384E-01 
    1.7873622913168465E+00 
    1.7790441119231395E+00 
    1.7624140349207813E+00 
    1.7374391569949552E+00 
    1.7040467187142294E+00 
    1.6620750596638740E+00 
    1.6111919705968476E+00 
    1.5508550010161990E+00 
    1.4801230299358068E+00 
    1.3975128058804254E+00 
    1.3007167507801898E+00 
    1.1863623815654345E+00 
    1.0495373566031032E+00 
    8.8436855804018477E-01 
    6.8911008611700808E-01 
    4.9383036886626175E-01 
    1.7790210110584828E+00 
    1.7706827667367575E+00 
    1.7539946567225966E+00 
    1.7288958731354198E+00 
    1.6952647000417027E+00 
    1.6528656038802416E+00 
    1.6012481921314763E+00 
    1.5396911256722972E+00 
    1.4669727670538315E+00 
    1.3811086439466673E+00 
    1.2788264242055569E+00 
    1.1546770790124885E+00 
    9.9885389657836054E-01 
    7.9235566788561396E-01 
    4.9383501236661553E-01 
    0.0000000000000000E+00 

SCALARS Saturarion double 1 
LOOKUP_TABLE default 

    1.0000000216737339E+00 
    9.4452350177537403E-01 
    8.5832879103024939E-01 
    7.7245918519619505E-01 
    6.9663739829208604E-01 
    6.3574596911529002E-01 
    5.8279798206436417E-01 
    5.3254047141707683E-01 
    4.8654275592600821E-01 
    4.0749458738328542E-01 
    7.1612775555233710E-02 
    2.9920938941664199E-04 
    1.0000932406976468E-06 
    9.9999999997844085E-07 
    9.9999999999999995E-07 
    9.9999999999999995E-07 
    9.4451751217445112E-01 
    9.0855605761382430E-01 
    8.3304094351597779E-01 
    7.5522324787231832E-01 
    6.8580947467887032E-01 
    6.2905540160700701E-01 
    5.7774715019299028E-01 
    5.2915459854622204E-01 
    4.8408794484222017E-01 
    3.9693131214317867E-01 
    5.3228935304852495E-02 
    4.3643793191507391E-05 
    1.0000092306223280E-06 
    1.0000000000013095E-06 
    9.9999999999999995E-07 
    9.9999999999999995E-07 
    8.5831526888650589E-01 
    8.3302939758020378E-01 
    7.7740254304672063E-01 
    7.1939483413383587E-01 
    6.6401907739161636E-01 
    6.1342777113531499E-01 
    5.6518877276482915E-01 
    5.2041655026131584E-01 
    4.7681038570270945E-01 
    3.7189978743362118E-01 
    3.2469500924643943E-02 
    4.7083128057569180E-06 
    1.0000021934536966E-06 
    1.0000000000000006E-06 
    9.9999999999999995E-07 
    9.9999999999999995E-07 
    7.7244832503331606E-01 
    7.5521287169845408E-01 
    7.1937719726385974E-01 
    6.7865247920865501E-01 
    6.3555929322892657E-01 
    5.9091240876596052E-01 
    5.4807096893238538E-01 
    5.0674253726084884E-01 
    4.6518273885569272E-01 
    3.1842131057365985E-01 
    7.9241203042840890E-03 
    1.9204348096926356E-06 
    1.0000001590831998E-06 
    9.9999999999999995E-07 
    9.9999999999999995E-07 
    9.9999999999999995E-07 
    6.9661893976899614E-01 
    6.8578540209833683E-01 
    6.6397744070765796E-01 
    6.3554790435839426E-01 
    5.9978717064621800E-01 
    5.6317815281877337E-01 
    5.2667530947640306E-01 
    4.8999133412562967E-01 
    4.4630602412871800E-01 
    2.2349847765969241E-01 
    3.1909906431591012E-04 
    1.0222248864802717E-06 
    1.0000000030809112E-06 
    1.0000000000000002E-06 
    9.9999999999999995E-07 
    9.9999999999999995E-07 
    6.3574653664021996E-01 
    6.2903403620324172E-01 
    6.1341772186009480E-01 
    5.9088308650041810E-01 
    5.6302378914859108E-01 
    5.3275212613993994E-01 
    5.0105043685661810E-01 
    4.6817352025517889E-01 
    4.0866117054854384E-01 
    9.3115146321240946E-02 
    2.0615784180988715E-04 
    1.0062625407465510E-06 
    1.0000000000000194E-06 
    9.9999999999999995E-07 
    9.9999999999999995E-07 
    9.9999999999999995E-07 
    5.8269483957419566E-01 
    5.7761210870970237E-01 
    5.6506760946074752E-01 
    5.4777076217747978E-01 
    5.2632304214628667E-01 
    5.0077806542673786E-01 
    4.7309358743084312E-01 
    4.3871962778920454E-01 
    2.8040251472425537E-01 
    8.5231477565906114E-03 
    6.2055811533275740E-06 
    1.0000004501488490E-06 
    1.0000000000000008E-06 
    9.9999999999999995E-07 
    9.9999999999999995E-07 
    9.9999999999999995E-07 
    5.3289577917846853E-01 
    5.2963092950729762E-01 
    5.2070346652820265E-01 
    5.0736290853067523E-01 
    4.9113360753898833E-01 
    4.6799972322612615E-01 
    4.3740799426855981E-01 
    3.5446950630303381E-01 
    6.5274278882461276E-02 
    7.5435753789419380E-04 
    1.0186026317977115E-06 
    1.0000000107629139E-06 
    1.0000000000000008E-06 
    9.9999999999999995E-07 
    9.9999999999999995E-07 
    9.9999999999999995E-07 
    4.8774369785934013E-01 
    4.8468182776741420E-01 
    4.7645667649801610E-01 
    4.6426938062350803E-01 
    4.4723647511159970E-01 
    4.0995591194592151E-01 
    2.8443766595179154E-01 
    6.5281688569479634E-02 
    9.1844962486656062E-04 
    1.1598682629563412E-06 
    1.0000000456291445E-06 
    1.0000000000000135E-06 
    9.9999999999999995E-07 
    9.9999999999999995E-07 
    9.9999999999999995E-07 
    9.9999999999999995E-07 
    4.0800300982874488E-01 
    3.9674070870204653E-01 
    3.6591898924309102E-01 
    3.1112292555486071E-01 
    2.2124638363968141E-01 
    9.6099973029001390E-02 
    9.5689463712144672E-03 
    4.3223397886192334E-04 
    1.0837426207157942E-06 
    1.0000000374272396E-06 
    1.0000000000000237E-06 
    9.9999999999999995E-07 
    9.9999999999999995E-07 
    9.9999999999999995E-07 
    9.9999999999999995E-07 
    9.9999999999999995E-07 
    7.1195984589292188E-02 
    5.0912304030552281E-02 
    3.0472301314793518E-02 
    6.2840497587928002E-03 
    2.9393134199311415E-04 
    2.0597343497732442E-04 
    7.6436712448901643E-06 
    1.0197150024309438E-06 
    1.0000000374162313E-06 
    1.0000000000000211E-06 
    9.9999999999999995E-07 
    9.9999999999999995E-07 
    9.9999999999999995E-07 
    9.9999999999999995E-07 
    9.9999999999999995E-07 
    9.9999999999999995E-07 
    1.0000031727195717E-06 
    2.1339099978071122E-04 
    9.2409593577631894E-06 
    1.4780256473365904E-06 
    1.0191542569429971E-06 
    1.0065801024966614E-06 
    1.0000006404884214E-06 
    1.0000000144264085E-06 
    1.0000000000000220E-06 
    9.9999999999999995E-07 
    9.9999999999999995E-07 
    9.9999999999999995E-07 
    9.9999999999999995E-07 
    9.9999999999999995E-07 
    9.9999999999999995E-07 
    9.9999999999999995E-07 
    1.0000000000018287E-06 
    1.0000743525394349E-06 
    1.0000088941724678E-06 
    1.0000000688287806E-06 
    1.0000000015461402E-06 
    1.0000000000000861E-06 
    1.0000000000000114E-06 
    1.0000000000000042E-06 
    9.9999999999999995E-07 
    9.9999999999999995E-07 
    9.9999999999999995E-07 
    9.9999999999999995E-07 
    9.9999999999999995E-07 
    9.9999999999999995E-07 
    9.9999999999999995E-07 
    9.9999999999999995E-07 
    9.9999999999999995E-07 
    9.9999999999602081E-07 
    1.0000000000004228E-06 
    1.0000000000000002E-06 
    9.9999999999999995E-07 
    9.9999999999999995E-07 
    9.9999999999999995E-07 
    9.9999999999999995E-07 
    9.9999999999999995E-07 
    9.9999999999999995E-07 
    9.9999999999999995E-07 
    9.9999999999999995E-07 
    9.9999999999999995E-07 
    9.9999999999999995E-07 
    9.9999999999999995E-07 
    9.9999999999999995E-07 
    9.9999999999999995E-07 
    9.9999999999999995E-07 
    9.9999999999999995E-07 
    9.9999999999999995E-07 
    9.9999999999999995E-07 
    9.9999999999999995E-07 
    9.9999999999999995E-07 
    9.9999999999999995E-07 
    9.9999999999999995E-07 
    9.9999999999999995E-07 
    9.9999999999999995E-07 
    9.9999999999999995E-07 
    9.9999999999999995E-07 
    9.9999999999999995E-07 
    9.9999999999999995E-07 
    9.9999999999999995E-07 
    9.9999999999999995E-07 
    9.9999999999999995E-07 
    9.9999999999999995E-07 
    9.9999999999999995E-07 
    9.9999999999999995E-07 
    9.9999999999999995E-07 
    9.9999999999999995E-07 
    9.9999999999999995E-07 
    9.9999999999999995E-07 
    9.9999999999999995E-07 
    9.9999999999999995E-07 
    9.9999999999999995E-07 
    9.9999999999999995E-07 
    9.9999999999999995E-07 
    9.9999999999999995E-07 
    1.0000001062569603E-06 
