# vtk DataFile Version 2.0
Pressure Field Data 
ASCII 
DATASET UNSTRUCTURED_GRID 

POINTS 289 double 

    0.0000000000000000E+00     0.0000000000000000E+00     0.0000000000000000E+00 
    1.0000000000000000E+00     0.0000000000000000E+00     0.0000000000000000E+00 
    1.0000000000000000E+00     1.0000000000000000E+00     0.0000000000000000E+00 
    0.0000000000000000E+00     1.0000000000000000E+00     0.0000000000000000E+00 
    6.2499999999872928E-02     0.0000000000000000E+00     0.0000000000000000E+00 
    1.2499999999977310E-01     0.0000000000000000E+00     0.0000000000000000E+00 
    1.8749999999959341E-01     0.0000000000000000E+00     0.0000000000000000E+00 
    2.4999999999941089E-01     0.0000000000000000E+00     0.0000000000000000E+00 
    3.1249999999922851E-01     0.0000000000000000E+00     0.0000000000000000E+00 
    3.7499999999904610E-01     0.0000000000000000E+00     0.0000000000000000E+00 
    4.3749999999886358E-01     0.0000000000000000E+00     0.0000000000000000E+00 
    4.9999999999869210E-01     0.0000000000000000E+00     0.0000000000000000E+00 
    5.6249999999884603E-01     0.0000000000000000E+00     0.0000000000000000E+00 
    6.2499999999901090E-01     0.0000000000000000E+00     0.0000000000000000E+00 
    6.8749999999917577E-01     0.0000000000000000E+00     0.0000000000000000E+00 
    7.4999999999934064E-01     0.0000000000000000E+00     0.0000000000000000E+00 
    8.1249999999950551E-01     0.0000000000000000E+00     0.0000000000000000E+00 
    8.7499999999967026E-01     0.0000000000000000E+00     0.0000000000000000E+00 
    9.3749999999983513E-01     0.0000000000000000E+00     0.0000000000000000E+00 
    1.0000000000000000E+00     6.2499999999872928E-02     0.0000000000000000E+00 
    1.0000000000000000E+00     1.2499999999977310E-01     0.0000000000000000E+00 
    1.0000000000000000E+00     1.8749999999959341E-01     0.0000000000000000E+00 
    1.0000000000000000E+00     2.4999999999941089E-01     0.0000000000000000E+00 
    1.0000000000000000E+00     3.1249999999922851E-01     0.0000000000000000E+00 
    1.0000000000000000E+00     3.7499999999904610E-01     0.0000000000000000E+00 
    1.0000000000000000E+00     4.3749999999886358E-01     0.0000000000000000E+00 
    1.0000000000000000E+00     4.9999999999869210E-01     0.0000000000000000E+00 
    1.0000000000000000E+00     5.6249999999884603E-01     0.0000000000000000E+00 
    1.0000000000000000E+00     6.2499999999901090E-01     0.0000000000000000E+00 
    1.0000000000000000E+00     6.8749999999917577E-01     0.0000000000000000E+00 
    1.0000000000000000E+00     7.4999999999934064E-01     0.0000000000000000E+00 
    1.0000000000000000E+00     8.1249999999950551E-01     0.0000000000000000E+00 
    1.0000000000000000E+00     8.7499999999967026E-01     0.0000000000000000E+00 
    1.0000000000000000E+00     9.3749999999983513E-01     0.0000000000000000E+00 
    9.3749999999973976E-01     1.0000000000000000E+00     0.0000000000000000E+00 
    8.7499999999950118E-01     1.0000000000000000E+00     0.0000000000000000E+00 
    8.1249999999991318E-01     1.0000000000000000E+00     0.0000000000000000E+00 
    7.5000000000034706E-01     1.0000000000000000E+00     0.0000000000000000E+00 
    6.8750000000078049E-01     1.0000000000000000E+00     0.0000000000000000E+00 
    6.2500000000121403E-01     1.0000000000000000E+00     0.0000000000000000E+00 
    5.6250000000164757E-01     1.0000000000000000E+00     0.0000000000000000E+00 
    5.0000000000205946E-01     1.0000000000000000E+00     0.0000000000000000E+00 
    4.3750000000182099E-01     1.0000000000000000E+00     0.0000000000000000E+00 
    3.7500000000156092E-01     1.0000000000000000E+00     0.0000000000000000E+00 
    3.1250000000130068E-01     1.0000000000000000E+00     0.0000000000000000E+00 
    2.5000000000104050E-01     1.0000000000000000E+00     0.0000000000000000E+00 
    1.8750000000078040E-01     1.0000000000000000E+00     0.0000000000000000E+00 
    1.2500000000052031E-01     1.0000000000000000E+00     0.0000000000000000E+00 
    6.2500000000260125E-02     1.0000000000000000E+00     0.0000000000000000E+00 
    0.0000000000000000E+00     9.3749999999973976E-01     0.0000000000000000E+00 
    0.0000000000000000E+00     8.7499999999950118E-01     0.0000000000000000E+00 
    0.0000000000000000E+00     8.1249999999991318E-01     0.0000000000000000E+00 
    0.0000000000000000E+00     7.5000000000034706E-01     0.0000000000000000E+00 
    0.0000000000000000E+00     6.8750000000078049E-01     0.0000000000000000E+00 
    0.0000000000000000E+00     6.2500000000121403E-01     0.0000000000000000E+00 
    0.0000000000000000E+00     5.6250000000164757E-01     0.0000000000000000E+00 
    0.0000000000000000E+00     5.0000000000205946E-01     0.0000000000000000E+00 
    0.0000000000000000E+00     4.3750000000182099E-01     0.0000000000000000E+00 
    0.0000000000000000E+00     3.7500000000156092E-01     0.0000000000000000E+00 
    0.0000000000000000E+00     3.1250000000130068E-01     0.0000000000000000E+00 
    0.0000000000000000E+00     2.5000000000104050E-01     0.0000000000000000E+00 
    0.0000000000000000E+00     1.8750000000078040E-01     0.0000000000000000E+00 
    0.0000000000000000E+00     1.2500000000052031E-01     0.0000000000000000E+00 
    0.0000000000000000E+00     6.2500000000260125E-02     0.0000000000000000E+00 
    6.2499999999897131E-02     6.2500000000235922E-02     0.0000000000000000E+00 
    6.2499999999921327E-02     1.2500000000047351E-01     0.0000000000000000E+00 
    6.2499999999945530E-02     1.8750000000070621E-01     0.0000000000000000E+00 
    6.2499999999969733E-02     2.5000000000093858E-01     0.0000000000000000E+00 
    6.2499999999993928E-02     3.1250000000117117E-01     0.0000000000000000E+00 
    6.2500000000018124E-02     3.7500000000140382E-01     0.0000000000000000E+00 
    6.2500000000042327E-02     4.3750000000163619E-01     0.0000000000000000E+00 
    6.2500000000066530E-02     5.0000000000184897E-01     0.0000000000000000E+00 
    6.2500000000090733E-02     5.6250000000147260E-01     0.0000000000000000E+00 
    6.2500000000114922E-02     6.2500000000107636E-01     0.0000000000000000E+00 
    6.2500000000139125E-02     6.8750000000068034E-01     0.0000000000000000E+00 
    6.2500000000163328E-02     7.5000000000028411E-01     0.0000000000000000E+00 
    6.2500000000187531E-02     8.1249999999988787E-01     0.0000000000000000E+00 
    6.2500000000211720E-02     8.7499999999951172E-01     0.0000000000000000E+00 
    6.2500000000235922E-02     9.3749999999974565E-01     0.0000000000000000E+00 
    1.2499999999981980E-01     6.2500000000211733E-02     0.0000000000000000E+00 
    1.2499999999986650E-01     1.2500000000042691E-01     0.0000000000000000E+00 
    1.2499999999991319E-01     1.8750000000063199E-01     0.0000000000000000E+00 
    1.2499999999995989E-01     2.5000000000083678E-01     0.0000000000000000E+00 
    1.2500000000000661E-01     3.1250000000104172E-01     0.0000000000000000E+00 
    1.2500000000005329E-01     3.7500000000124661E-01     0.0000000000000000E+00 
    1.2500000000010000E-01     4.3750000000145117E-01     0.0000000000000000E+00 
    1.2500000000014669E-01     5.0000000000163858E-01     0.0000000000000000E+00 
    1.2500000000019340E-01     5.6250000000129741E-01     0.0000000000000000E+00 
    1.2500000000024011E-01     6.2500000000093847E-01     0.0000000000000000E+00 
    1.2500000000028680E-01     6.8750000000057998E-01     0.0000000000000000E+00 
    1.2500000000033351E-01     7.5000000000022127E-01     0.0000000000000000E+00 
    1.2500000000038020E-01     8.1249999999986211E-01     0.0000000000000000E+00 
    1.2500000000042691E-01     8.7499999999952238E-01     0.0000000000000000E+00 
    1.2500000000047359E-01     9.3749999999975164E-01     0.0000000000000000E+00 
    1.8749999999966760E-01     6.2500000000187531E-02     0.0000000000000000E+00 
    1.8749999999974179E-01     1.2500000000038020E-01     0.0000000000000000E+00 
    1.8749999999981601E-01     1.8750000000055780E-01     0.0000000000000000E+00 
    1.8749999999989009E-01     2.5000000000073502E-01     0.0000000000000000E+00 
    1.8749999999996431E-01     3.1250000000091221E-01     0.0000000000000000E+00 
    1.8750000000003850E-01     3.7500000000108941E-01     0.0000000000000000E+00 
    1.8750000000011269E-01     4.3750000000126649E-01     0.0000000000000000E+00 
    1.8750000000018691E-01     5.0000000000142808E-01     0.0000000000000000E+00 
    1.8750000000026110E-01     5.6250000000112244E-01     0.0000000000000000E+00 
    1.8750000000033529E-01     6.2500000000080080E-01     0.0000000000000000E+00 
    1.8750000000040951E-01     6.8750000000047962E-01     0.0000000000000000E+00 
    1.8750000000048361E-01     7.5000000000015843E-01     0.0000000000000000E+00 
    1.8750000000055780E-01     8.1249999999983680E-01     0.0000000000000000E+00 
    1.8750000000063199E-01     8.7499999999953304E-01     0.0000000000000000E+00 
    1.8750000000070621E-01     9.3749999999975764E-01     0.0000000000000000E+00 
    2.4999999999951281E-01     6.2500000000163314E-02     0.0000000000000000E+00 
    2.4999999999961461E-01     1.2500000000033351E-01     0.0000000000000000E+00 
    2.4999999999971650E-01     1.8750000000048361E-01     0.0000000000000000E+00 
    2.4999999999981831E-01     2.5000000000063310E-01     0.0000000000000000E+00 
    2.4999999999992020E-01     3.1250000000078260E-01     0.0000000000000000E+00 
    2.5000000000002198E-01     3.7500000000093209E-01     0.0000000000000000E+00 
    2.5000000000012390E-01     4.3750000000108180E-01     0.0000000000000000E+00 
    2.5000000000022571E-01     5.0000000000121769E-01     0.0000000000000000E+00 
    2.5000000000032763E-01     5.6250000000094724E-01     0.0000000000000000E+00 
    2.5000000000042938E-01     6.2500000000066314E-01     0.0000000000000000E+00 
    2.5000000000053119E-01     6.8750000000037925E-01     0.0000000000000000E+00 
[...]
CELL_DATA 256 
SCALARS Pressure double 1 
LOOKUP_TABLE default 

    2.2974688865367434E+00 
    2.1937092105432590E+00 
    2.1270856031085481E+00 
    2.0754136960692295E+00 
    2.0308829754141509E+00 
    1.9913776733838406E+00 
    1.9551430798512504E+00 
    1.9214166872218463E+00 
    1.8903695361851982E+00 
    1.8620137019675502E+00 
    1.8364836755037162E+00 
    1.8141355444683647E+00 
    1.7949054658131842E+00 
    1.7770147190761925E+00 
    1.7633939828838303E+00 
    1.7569329955791730E+00 
    2.1937334368836550E+00 
    2.1509070985641143E+00 
    2.1052683921029245E+00 
    2.0615159359768400E+00 
    2.0209324137384534E+00 
    1.9835809979142307E+00 
    1.9483625284074175E+00 
    1.9152529948712576E+00 
    1.8845399316002436E+00 
    1.8562708639254841E+00 
    1.8307076394993174E+00 
    1.8082532666016435E+00 
    1.7888688984764651E+00 
    1.7707968544604455E+00 
    1.7570146460635268E+00 
    1.7504767001264347E+00 
    2.1271500910352916E+00 
    2.1053083875085910E+00 
    2.0735147222925789E+00 
    2.0383918216288293E+00 
    2.0032824196307124E+00 
    1.9689303891383876E+00 
    1.9354035379217465E+00 
    1.9033558785810760E+00 
    1.8731127781590986E+00 
    1.8449457004655176E+00 
    1.8192635222038136E+00 
    1.7965323955270518E+00 
    1.7768089854841955E+00 
    1.7583452764511522E+00 
    1.7442133793385888E+00 
    1.7375007264471629E+00 
    2.0755340197488006E+00 
    2.0616077287253898E+00 
    2.0384406697800612E+00 
    2.0104821227491390E+00 
    1.9802218378047742E+00 
    1.9488024368354695E+00 
    1.9171958989640479E+00 
    1.8862683837705807E+00 
    1.8564687395176778E+00 
    1.8282883817500961E+00 
    1.8022558250552683E+00 
    1.7789940185523667E+00 
    1.7586952678137646E+00 
    1.7395716978405704E+00 
    1.7248419190324917E+00 
    1.7178271666786911E+00 
    2.0310554803916436E+00 
    2.0210691610961034E+00 
    2.0033761365567693E+00 
    1.9802688278518894E+00 
    1.9535456118614094E+00 
    1.9246297530028325E+00 
    1.8947534503134156E+00 
    1.8647301795241484E+00 
    1.8351190437413474E+00 
    1.8065894809372456E+00 
    1.7798486289925393E+00 
    1.7556910883458041E+00 
    1.7344655569676599E+00 
    1.7143014976369420E+00 
    1.6986371567775793E+00 
    1.6911579729076616E+00 
    1.9915773717591425E+00 
    1.9837530606112481E+00 
    1.9690651085443069E+00 
    1.9488939930481257E+00 
    1.9246766110387787E+00 
    1.8977190164783020E+00 
    1.8690842049937095E+00 
    1.8394639267076072E+00 
    1.8095520704849450E+00 
    1.7801970671957619E+00 
    1.7522674322004581E+00 
    1.7266908933284491E+00 
    1.7040086837973680E+00 
    1.6822508241654603E+00 
    1.6651910495743800E+00 
    1.6570325206762770E+00 
    1.9553748939275077E+00 
    1.9485723960871901E+00 
    1.9355785571866928E+00 
    1.9173274267040756E+00 
    1.8948382056594082E+00 
    1.8691239295142583E+00 
    1.8409939716006958E+00 
    1.8111025139242303E+00 
    1.7802956141354709E+00 
    1.7495084224786952E+00 
    1.7197194879172224E+00 
    1.6919579781954412E+00 
    1.6670709706328299E+00 
    1.6429698721331711E+00 
    1.6238890456174486E+00 
    1.6147389295765475E+00 
    1.9216813593058502E+00 
    1.9154961783266786E+00 
    1.9035646099064945E+00 
    1.8864359277059508E+00 
    1.8648547173611332E+00 
    1.8395459234303313E+00 
    1.8111436885610266E+00 
    1.7803410478826414E+00 
    1.7479928127127633E+00 
    1.7150169130981157E+00 
    1.6824188014561723E+00 
    1.6514312984095869E+00 
    1.6232795826295237E+00 
    1.5958070009911374E+00 
    1.5738798569284582E+00 
    1.5632975935162512E+00 
    1.8906618064713328E+00 
    1.8848120353165247E+00 
    1.8733539578136791E+00 
    1.8566730021989617E+00 
    1.8352826232906587E+00 
    1.8096725369043674E+00 
    1.7803764856983730E+00 
    1.7480325588978045E+00 
    1.7133776212428580E+00 
    1.6772332738532072E+00 
    1.6406622204313426E+00 
    1.6051112337251303E+00 
    1.5721999334422543E+00 
    1.5399269676366625E+00 
    1.5139934045252799E+00 
    1.5012715228309996E+00 
    1.8623292317697349E+00 
    1.8565687581148231E+00 
    1.8452179011736929E+00 
    1.8285278849590447E+00 
    1.8067890128099360E+00 
    1.7803492902191753E+00 
    1.7496180107502017E+00 
    1.7150871805756727E+00 
    1.6772701944010915E+00 
    1.6368819960010665E+00 
    1.5950004040011656E+00 
    1.5532139997345562E+00 
    1.5134794568856826E+00 
    1.4745373915398508E+00 
    1.4427511191249429E+00 
    1.4264729462593442E+00 
    1.8368290472471243E+00 
    1.8310389975724837E+00 
    1.8195734659898737E+00 
    1.8025376093190562E+00 
    1.7800913034638965E+00 
    1.7524577222085680E+00 
    1.7198574956306245E+00 
    1.6825225504928314E+00 
    1.6407453539005408E+00 
    1.5950546163198831E+00 
    1.5463702033100886E+00 
    1.4962660913782948E+00 
    1.4470231757783407E+00 
    1.3988115261131253E+00 
    1.3576984148981339E+00 
    1.3349880653445196E+00 
    1.8145193037464080E+00 
    1.8086255458871701E+00 
    1.7968845672315874E+00 
    1.7793191376254143E+00 
    1.7559806107737359E+00 
    1.7269296302350143E+00 
    1.6921462447111733E+00 
    1.6515958057561240E+00 
    1.6052673782523559E+00 
    1.5533453846763376E+00 
    1.4963365288917039E+00 
    1.4355304449250514E+00 
    1.3731963903395770E+00 
    1.3110533821593999E+00 
    1.2539445821547324E+00 
    1.2195950040303154E+00 
    1.7953213671724919E+00 
    1.7892711011275333E+00 
    1.7771841097059859E+00 
    1.7590352493965709E+00 
    1.7347708832748869E+00 
    1.7042700354771840E+00 
    1.6672897525041608E+00 
    1.6234843187572978E+00 
    1.5724034895815615E+00 
    1.5136677388885891E+00 
    1.4471539665803916E+00 
    1.3732467461311695E+00 
    1.2931302086721594E+00 
    1.2090283422533896E+00 
    1.1246345614247697E+00 
    1.0688757630785113E+00 
    1.7774358588869839E+00 
    1.7712024532973571E+00 
    1.7587236634058476E+00 
    1.7399195009264541E+00 
    1.7146235111068167E+00 
    1.6825354837003155E+00 
    1.6432071165746798E+00 
    1.5960157525738630E+00 
    1.5401116789358265E+00 
    1.4747146873109125E+00 
    1.3989740639202715E+00 
    1.3111486833929140E+00 
    1.2090894388747657E+00 
    1.0925833213933895E+00 
    9.6343301948364879E-01 
    8.6262529223108042E-01 
    1.7638151068257639E+00 
    1.7574245591450439E+00 
    1.7446052049253751E+00 
    1.7252137567123698E+00 
    1.6989865709503151E+00 
    1.6655054690290376E+00 
    1.6241571589505430E+00 
    1.5741101118882745E+00 
    1.5141934428828285E+00 
    1.4429676279728889E+00 
    1.3579497564279539E+00 
    1.2541426512263849E+00 
    1.1248001871153754E+00 
    9.6353213907073110E-01 
    7.6020912493911341E-01 
    5.4609615697689662E-01 
    1.7573482788821997E+00 
    1.7508830854467277E+00 
    1.7378920354658469E+00 
    1.7181991191094643E+00 
    1.6915032894538962E+00 
    1.6573424580670508E+00 
    1.6150091613280397E+00 
    1.5635346433748456E+00 
    1.5014908207131732E+00 
    1.4267177545199607E+00 
    1.3352747587024405E+00 
    1.2198562214613551E+00 
    1.0691054975672487E+00 
    8.6272917768373503E-01 
    5.4597255674648537E-01 
    0.0000000000000000E+00 

SCALARS Saturarion double 1 
LOOKUP_TABLE default 

    1.0000000006044887E+00 
    9.7072570810511039E-01 
    9.1964211275147623E-01 
    8.6313380607193513E-01 
    8.0645650806409352E-01 
    7.5217908033378122E-01 
    7.0227759611950136E-01 
    6.5716964430978475E-01 
    6.1554009315815250E-01 
    5.7427290922945007E-01 
    5.3281202074753586E-01 
    4.9120048684109929E-01 
    4.3003703331819115E-01 
    1.1326214667147583E-01 
    5.6087132135926928E-04 
    1.0135073019665161E-06 
    9.7072322185265347E-01 
    9.4932011652516601E-01 
    9.0385702158998116E-01 
    8.5072899737196739E-01 
    7.9734743226472216E-01 
    7.4586610817270960E-01 
    6.9797410125778869E-01 
    6.5432249671807197E-01 
    6.1374406653102120E-01 
    5.7333120761212197E-01 
    5.3243631303069783E-01 
    4.9108990252404128E-01 
    4.3028866726134596E-01 
    1.1300995440759143E-01 
    5.8299176892927013E-04 
    1.0000171895597303E-06 
    9.1962914007260910E-01 
    9.0384608815302414E-01 
    8.6677239216939916E-01 
    8.2245974724592907E-01 
    7.7632602329046085E-01 
    7.3054691507594582E-01 
    6.8708626093386893E-01 
    6.4684516066171294E-01 
    6.0861761247438528E-01 
    5.6984140382823922E-01 
    5.3047309031054679E-01 
    4.9019095777874400E-01 
    4.2986413408471169E-01 
    1.1241817972807916E-01 
    6.8862883852413071E-04 
    1.0102894223773714E-06 
    8.6310401298387640E-01 
    8.5070424172513581E-01 
    8.2244368940648538E-01 
    7.8626010287041437E-01 
    7.4875237531025973E-01 
    7.1046274831460066E-01 
    6.7273023878012839E-01 
    6.3650294454771061E-01 
    6.0096807370197836E-01 
    5.6456637748705285E-01 
    5.2749472611242665E-01 
    4.8869147558559334E-01 
    4.2918335423433757E-01 
    1.1376512292346755E-01 
    5.4351326133302469E-04 
    1.0013141855825687E-06 
    8.0642565361759533E-01 
    7.9732827244304427E-01 
    7.7630887091926448E-01 
    7.4873969215555203E-01 
    7.1862331427041304E-01 
    6.8792607628775826E-01 
    6.5623364557636532E-01 
    6.2409675976084622E-01 
    5.9156509900305088E-01 
    5.5837815911143784E-01 
    5.2411312315607350E-01 
    4.8761182059546354E-01 
    4.3078076377450791E-01 
    1.2763125152035429E-01 
    5.5216306905213276E-04 
    1.0092434193980509E-06 
    7.5220784634187654E-01 
    7.4587478035581434E-01 
    7.3054073671678255E-01 
    7.1044560471980278E-01 
    6.8791095991148365E-01 
    6.6345733333469659E-01 
    6.3689953895051543E-01 
    6.0914514907499229E-01 
    5.8068164206423578E-01 
    5.5122927907836239E-01 
    5.1991642203582578E-01 
    4.8652998230924244E-01 
    4.3407172688651852E-01 
    1.4212463613977608E-01 
    5.7554384830192467E-04 
    1.0061616281235937E-06 
    7.0231414252835445E-01 
    6.9798552459107555E-01 
    6.8707578066183950E-01 
    6.7270168900069571E-01 
    6.5620520364951263E-01 
    6.3688574177213308E-01 
    6.1509170299401938E-01 
    5.9210584120298604E-01 
    5.6818192809795121E-01 
    5.4276357173989798E-01 
    5.1472780473227675E-01 
    4.8384721842743067E-01 
    4.3610632566305724E-01 
    1.5823333391604538E-01 
    8.7067958487945147E-04 
    1.0306043907350605E-06 
    6.5718510022071308E-01 
    6.5432296200075801E-01 
    6.4682527888217389E-01 
    6.3646944492282875E-01 
    6.2407236933608790E-01 
    6.0912800993746496E-01 
    5.9208352937286246E-01 
    5.7372717474048684E-01 
    5.5430815398574196E-01 
    5.3309201875144918E-01 
    5.0912932962033997E-01 
    4.8129521834997990E-01 
    4.3819965655574594E-01 
    1.7790674976865836E-01 
    1.1835872115472752E-03 
    1.2449467618032981E-06 
    6.1554840493593543E-01 
    6.1373347874518502E-01 
    6.0857653835015235E-01 
    6.0092579849917238E-01 
    5.9153848556878530E-01 
    5.8062937565525807E-01 
    5.6808372021301001E-01 
    5.5419871987971792E-01 
    5.3902635291248302E-01 
    5.2219126231219226E-01 
    5.0265056030744315E-01 
    4.7928529047255430E-01 
    4.4237154919950106E-01 
    2.1557271800061295E-01 
    1.7328615087179985E-03 
    1.1302631192656936E-06 
    5.7426933046879036E-01 
    5.7327027084442683E-01 
    5.6974220907130102E-01 
    5.6446866753999969E-01 
    5.5827365583734123E-01 
    5.5107189876852025E-01 
    5.4254301996541354E-01 
    5.3284649253796779E-01 
    5.2197296787214342E-01 
    5.0962298147414409E-01 
    4.9483620134995621E-01 
    4.7693001590398720E-01 
    4.4620877655579272E-01 
    2.7319150386188862E-01 
    6.6151989151434481E-03 
    9.0609930326403733E-06 
    5.3308777628091053E-01 
    5.3266021576702183E-01 
    5.3069442190892002E-01 
    5.2766570731481910E-01 
    5.2416736959435495E-01 
    5.2001161853779887E-01 
    5.1503363345297759E-01 
    5.0945009469704738E-01 
    5.0273850438216261E-01 
    4.9474603549854385E-01 
    4.8501525868376533E-01 
    4.7252612783950049E-01 
    4.5071839678046366E-01 
    3.3165942449261787E-01 
    3.0014864471834827E-02 
    9.8023933923931394E-06 
    4.9168594622618400E-01 
    4.9161086423646994E-01 
    4.9063531991124792E-01 
    4.8882370795282315E-01 
    4.8744542970190868E-01 
    4.8641839798901704E-01 
    4.8435996783576218E-01 
    4.8246596938152947E-01 
    4.8020036220606854E-01 
    4.7714655433260578E-01 
    4.7237549942512663E-01 
    4.6616883788621144E-01 
    4.5300746762252719E-01 
    3.7661532101340367E-01 
    9.4348734845251081E-02 
    8.6539610396495765E-05 
    4.3055501865560486E-01 
    4.3042884928147818E-01 
    4.2972861523653183E-01 
    4.2908872108651774E-01 
    4.3006636924384051E-01 
    4.3285873648414763E-01 
    4.3542354468095024E-01 
    4.3787115163664808E-01 
    4.4262049566570710E-01 
    4.4623965322326731E-01 
    4.5040497835796128E-01 
    4.5279401425375893E-01 
    4.4899814111119940E-01 
    4.0678782749406617E-01 
    1.7452672793780313E-01 
    1.5037872534183570E-04 
    1.1571013543454328E-01 
    1.1532143185131126E-01 
    1.1358209217644659E-01 
    1.1196767158738327E-01 
    1.2035802368880526E-01 
    1.3842273082255185E-01 
    1.5490593184047044E-01 
    1.7334375530797125E-01 
    2.1209322749504803E-01 
    2.7189135225740890E-01 
    3.3035508070618302E-01 
    3.7598639525130673E-01 
    4.0710459491431134E-01 
    4.1122656129556645E-01 
    2.8874459612049624E-01 
    2.4966009079438384E-02 
    3.3801778101528295E-05 
    1.2419426103046330E-06 
    1.3160339846042102E-06 
    1.1216011872416087E-06 
    6.4146844182408163E-04 
    3.5426802189163957E-04 
    5.6038761260685378E-04 
    3.3791855392634358E-04 
    3.9310347457538545E-04 
    3.0442187617543710E-03 
    2.7915419674471951E-02 
    9.5231299416104392E-02 
    1.7584511771065542E-01 
    2.8664293813919151E-01 
    3.1844856020471896E-01 
    1.2134652125080768E-01 
    1.0000131695258393E-06 
    1.0000001358612293E-06 
    1.0000001443761295E-06 
    1.0000000668369964E-06 
    1.0230921756726097E-06 
    1.0050570147218032E-06 
    1.0030915460793390E-06 
    1.0010787902975529E-06 
    1.0015591794403145E-06 
    1.0952795208374254E-06 
    9.1811226966101325E-06 
    8.5008353003985645E-05 
    2.5998125140931281E-04 
    2.5894197688028447E-02 
    1.2227165654563550E-01 
    8.3065653367101200E-02 
