# vtk DataFile Version 2.0
Pressure Field Data 
ASCII 
DATASET UNSTRUCTURED_GRID 

POINTS 289 double 

    0.0000000000000000E+00     0.0000000000000000E+00     0.0000000000000000E+00 
    1.0000000000000000E+00     0.0000000000000000E+00     0.0000000000000000E+00 
    1.0000000000000000E+00     1.0000000000000000E+00     0.0000000000000000E+00 
    0.0000000000000000E+00     1.0000000000000000E+00     0.0000000000000000E+00 
    6.2499999999872928E-02     0.0000000000000000E+00     0.0000000000000000E+00 
    1.2499999999977310E-01     0.0000000000000000E+00     0.0000000000000000E+00 
    1.8749999999959341E-01     0.0000000000000000E+00     0.0000000000000000E+00 
    2.4999999999941089E-01     0.0000000000000000E+00     0.0000000000000000E+00 
    3.1249999999922851E-01     0.0000000000000000E+00     0.0000000000000000E+00 
    3.7499999999904610E-01     0.0000000000000000E+00     0.0000000000000000E+00 
    4.3749999999886358E-01     0.0000000000000000E+00     0.0000000000000000E+00 
    4.9999999999869210E-01     0.0000000000000000E+00     0.0000000000000000E+00 
    5.6249999999884603E-01     0.0000000000000000E+00     0.0000000000000000E+00 
    6.2499999999901090E-01     0.0000000000000000E+00     0.0000000000000000E+00 
    6.8749999999917577E-01     0.0000000000000000E+00     0.0000000000000000E+00 
    7.4999999999934064E-01     0.0000000000000000E+00     0.0000000000000000E+00 
    8.1249999999950551E-01     0.0000000000000000E+00     0.0000000000000000E+00 
    8.7499999999967026E-01     0.0000000000000000E+00     0.0000000000000000E+00 
    9.3749999999983513E-01     0.0000000000000000E+00     0.0000000000000000E+00 
    1.0000000000000000E+00     6.2499999999872928E-02     0.0000000000000000E+00 
    1.0000000000000000E+00     1.2499999999977310E-01     0.0000000000000000E+00 
    1.0000000000000000E+00     1.8749999999959341E-01     0.0000000000000000E+00 
    1.0000000000000000E+00     2.4999999999941089E-01     0.0000000000000000E+00 
    1.0000000000000000E+00     3.1249999999922851E-01     0.0000000000000000E+00 
    1.0000000000000000E+00     3.7499999999904610E-01     0.0000000000000000E+00 
    1.0000000000000000E+00     4.3749999999886358E-01     0.0000000000000000E+00 
    1.0000000000000000E+00     4.9999999999869210E-01     0.0000000000000000E+00 
    1.0000000000000000E+00     5.6249999999884603E-01     0.0000000000000000E+00 
    1.0000000000000000E+00     6.2499999999901090E-01     0.0000000000000000E+00 
    1.0000000000000000E+00     6.8749999999917577E-01     0.0000000000000000E+00 
    1.0000000000000000E+00     7.4999999999934064E-01     0.0000000000000000E+00 
    1.0000000000000000E+00     8.1249999999950551E-01     0.0000000000000000E+00 
    1.0000000000000000E+00     8.7499999999967026E-01     0.0000000000000000E+00 
    1.0000000000000000E+00     9.3749999999983513E-01     0.0000000000000000E+00 
    9.3749999999973976E-01     1.0000000000000000E+00     0.0000000000000000E+00 
    8.7499999999950118E-01     1.0000000000000000E+00     0.0000000000000000E+00 
    8.1249999999991318E-01     1.0000000000000000E+00     0.0000000000000000E+00 
    7.5000000000034706E-01     1.0000000000000000E+00     0.0000000000000000E+00 
    6.8750000000078049E-01     1.0000000000000000E+00     0.0000000000000000E+00 
    6.2500000000121403E-01     1.0000000000000000E+00     0.0000000000000000E+00 
    5.6250000000164757E-01     1.0000000000000000E+00     0.0000000000000000E+00 
    5.0000000000205946E-01     1.0000000000000000E+00     0.0000000000000000E+00 
    4.3750000000182099E-01     1.0000000000000000E+00     0.0000000000000000E+00 
    3.7500000000156092E-01     1.0000000000000000E+00     0.0000000000000000E+00 
    3.1250000000130068E-01     1.0000000000000000E+00     0.0000000000000000E+00 
    2.5000000000104050E-01     1.0000000000000000E+00     0.0000000000000000E+00 
    1.8750000000078040E-01     1.0000000000000000E+00     0.0000000000000000E+00 
    1.2500000000052031E-01     1.0000000000000000E+00     0.0000000000000000E+00 
    6.2500000000260125E-02     1.0000000000000000E+00     0.0000000000000000E+00 
    0.0000000000000000E+00     9.3749999999973976E-01     0.0000000000000000E+00 
    0.0000000000000000E+00     8.7499999999950118E-01     0.0000000000000000E+00 
    0.0000000000000000E+00     8.1249999999991318E-01     0.0000000000000000E+00 
    0.0000000000000000E+00     7.5000000000034706E-01     0.0000000000000000E+00 
    0.0000000000000000E+00     6.8750000000078049E-01     0.0000000000000000E+00 
    0.0000000000000000E+00     6.2500000000121403E-01     0.0000000000000000E+00 
    0.0000000000000000E+00     5.6250000000164757E-01     0.0000000000000000E+00 
    0.0000000000000000E+00     5.0000000000205946E-01     0.0000000000000000E+00 
    0.0000000000000000E+00     4.3750000000182099E-01     0.0000000000000000E+00 
    0.0000000000000000E+00     3.7500000000156092E-01     0.0000000000000000E+00 
    0.0000000000000000E+00     3.1250000000130068E-01     0.0000000000000000E+00 
    0.0000000000000000E+00     2.5000000000104050E-01     0.0000000000000000E+00 
    0.0000000000000000E+00     1.8750000000078040E-01     0.0000000000000000E+00 
    0.0000000000000000E+00     1.2500000000052031E-01     0.0000000000000000E+00 
    0.0000000000000000E+00     6.2500000000260125E-02     0.0000000000000000E+00 
    6.2499999999897131E-02     6.2500000000235922E-02     0.0000000000000000E+00 
    6.2499999999921327E-02     1.2500000000047351E-01     0.0000000000000000E+00 
    6.2499999999945530E-02     1.8750000000070621E-01     0.0000000000000000E+00 
    6.2499999999969733E-02     2.5000000000093858E-01     0.0000000000000000E+00 
    6.2499999999993928E-02     3.1250000000117117E-01     0.0000000000000000E+00 
    6.2500000000018124E-02     3.7500000000140382E-01     0.0000000000000000E+00 
    6.2500000000042327E-02     4.3750000000163619E-01     0.0000000000000000E+00 
    6.2500000000066530E-02     5.0000000000184897E-01     0.0000000000000000E+00 
    6.2500000000090733E-02     5.6250000000147260E-01     0.0000000000000000E+00 
    6.2500000000114922E-02     6.2500000000107636E-01     0.0000000000000000E+00 
    6.2500000000139125E-02     6.8750000000068034E-01     0.0000000000000000E+00 
    6.2500000000163328E-02     7.5000000000028411E-01     0.0000000000000000E+00 
    6.2500000000187531E-02     8.1249999999988787E-01     0.0000000000000000E+00 
    6.2500000000211720E-02     8.7499999999951172E-01     0.0000000000000000E+00 
    6.2500000000235922E-02     9.3749999999974565E-01     0.0000000000000000E+00 
    1.2499999999981980E-01     6.2500000000211733E-02     0.0000000000000000E+00 
    1.2499999999986650E-01     1.2500000000042691E-01     0.0000000000000000E+00 
    1.2499999999991319E-01     1.8750000000063199E-01     0.0000000000000000E+00 
    1.2499999999995989E-01     2.5000000000083678E-01     0.0000000000000000E+00 
    1.2500000000000661E-01     3.1250000000104172E-01     0.0000000000000000E+00 
    1.2500000000005329E-01     3.7500000000124661E-01     0.0000000000000000E+00 
    1.2500000000010000E-01     4.3750000000145117E-01     0.0000000000000000E+00 
    1.2500000000014669E-01     5.0000000000163858E-01     0.0000000000000000E+00 
    1.2500000000019340E-01     5.6250000000129741E-01     0.0000000000000000E+00 
    1.2500000000024011E-01     6.2500000000093847E-01     0.0000000000000000E+00 
    1.2500000000028680E-01     6.8750000000057998E-01     0.0000000000000000E+00 
    1.2500000000033351E-01     7.5000000000022127E-01     0.0000000000000000E+00 
    1.2500000000038020E-01     8.1249999999986211E-01     0.0000000000000000E+00 
    1.2500000000042691E-01     8.7499999999952238E-01     0.0000000000000000E+00 
    1.2500000000047359E-01     9.3749999999975164E-01     0.0000000000000000E+00 
    1.8749999999966760E-01     6.2500000000187531E-02     0.0000000000000000E+00 
    1.8749999999974179E-01     1.2500000000038020E-01     0.0000000000000000E+00 
    1.8749999999981601E-01     1.8750000000055780E-01     0.0000000000000000E+00 
    1.8749999999989009E-01     2.5000000000073502E-01     0.0000000000000000E+00 
    1.8749999999996431E-01     3.1250000000091221E-01     0.0000000000000000E+00 
    1.8750000000003850E-01     3.7500000000108941E-01     0.0000000000000000E+00 
    1.8750000000011269E-01     4.3750000000126649E-01     0.0000000000000000E+00 
    1.8750000000018691E-01     5.0000000000142808E-01     0.0000000000000000E+00 
    1.8750000000026110E-01     5.6250000000112244E-01     0.0000000000000000E+00 
    1.8750000000033529E-01     6.2500000000080080E-01     0.0000000000000000E+00 
    1.8750000000040951E-01     6.8750000000047962E-01     0.0000000000000000E+00 
    1.8750000000048361E-01     7.5000000000015843E-01     0.0000000000000000E+00 
    1.8750000000055780E-01     8.1249999999983680E-01     0.0000000000000000E+00 
    1.8750000000063199E-01     8.7499999999953304E-01     0.0000000000000000E+00 
    1.8750000000070621E-01     9.3749999999975764E-01     0.0000000000000000E+00 
    2.4999999999951281E-01     6.2500000000163314E-02     0.0000000000000000E+00 
    2.4999999999961461E-01     1.2500000000033351E-01     0.0000000000000000E+00 
    2.4999999999971650E-01     1.8750000000048361E-01     0.0000000000000000E+00 
    2.4999999999981831E-01     2.5000000000063310E-01     0.0000000000000000E+00 
    2.4999999999992020E-01     3.1250000000078260E-01     0.0000000000000000E+00 
    2.5000000000002198E-01     3.7500000000093209E-01     0.0000000000000000E+00 
    2.5000000000012390E-01     4.3750000000108180E-01     0.0000000000000000E+00 
    2.5000000000022571E-01     5.0000000000121769E-01     0.0000000000000000E+00 
    2.5000000000032763E-01     5.6250000000094724E-01     0.0000000000000000E+00 
    2.5000000000042938E-01     6.2500000000066314E-01     0.0000000000000000E+00 
    2.5000000000053119E-01     6.8750000000037925E-01     0.0000000000000000E+00 
[...]
CELL_DATA 256 
SCALARS Pressure double 1 
LOOKUP_TABLE default 

    2.2539285524676869E+00 
    2.1499846433483634E+00 
    2.0830228468416658E+00 
    2.0308683880438325E+00 
    1.9857865686219853E+00 
    1.9456559312907742E+00 
    1.9087170299526737E+00 
    1.8742860905410872E+00 
    1.8425319106467493E+00 
    1.8134615768854885E+00 
    1.7872199047090107E+00 
    1.7641666146103316E+00 
    1.7437854891646847E+00 
    1.7251210551199809E+00 
    1.7114534891190094E+00 
    1.7048476383123554E+00 
    2.1500044777563492E+00 
    2.1069986308355131E+00 
    2.0610170237820897E+00 
    2.0168031589985618E+00 
    1.9756953768780920E+00 
    1.9377211372031207E+00 
    1.9018145960471340E+00 
    1.8680144798216747E+00 
    1.8365957562640542E+00 
    1.8076084972926052E+00 
    1.7813308777004773E+00 
    1.7581663711102125E+00 
    1.7376166321713742E+00 
    1.7187602874639762E+00 
    1.7049321602658210E+00 
    1.6982455293110779E+00 
    2.0830774024362397E+00 
    2.0610514553023007E+00 
    2.0289330074784289E+00 
    1.9933916887934429E+00 
    1.9577735800159972E+00 
    1.9228090033735903E+00 
    1.8886224944161798E+00 
    1.8558949735190240E+00 
    1.8249482001729445E+00 
    1.7960600311306347E+00 
    1.7696546638086814E+00 
    1.7462065693208191E+00 
    1.7252926372740742E+00 
    1.7060230686016391E+00 
    1.6918429622686797E+00 
    1.6849721462760405E+00 
    2.0309721499019244E+00 
    2.0168827416508734E+00 
    1.9934338322950236E+00 
    1.9650826068654601E+00 
    1.9343175075425234E+00 
    1.9023114187916559E+00 
    1.8700759451213500E+00 
    1.8384796069810074E+00 
    1.8079757889724521E+00 
    1.7790627763184856E+00 
    1.7522966846953469E+00 
    1.7283051166782686E+00 
    1.7067830737461636E+00 
    1.6868249953949048E+00 
    1.6720335481806756E+00 
    1.6648407455580549E+00 
    1.9859354614800795E+00 
    1.9758129720642168E+00 
    1.9578536168814402E+00 
    1.9343575054331732E+00 
    1.9071477959391405E+00 
    1.8776843478373513E+00 
    1.8472043394498707E+00 
    1.8165126791914972E+00 
    1.7861872836871413E+00 
    1.7569151664344986E+00 
    1.7294342021914153E+00 
    1.7045233213758508E+00 
    1.6820330610435583E+00 
    1.6609859062064440E+00 
    1.6452220899738819E+00 
    1.6375324241997340E+00 
    1.9458268434408394E+00 
    1.9378680120445482E+00 
    1.9229238884500195E+00 
    1.9023895673821283E+00 
    1.8777244708316412E+00 
    1.8502489214921871E+00 
    1.8210120336027742E+00 
    1.7907127241947656E+00 
    1.7600798421358697E+00 
    1.7299803783490770E+00 
    1.7012996737777564E+00 
    1.6749395277496830E+00 
    1.6509461212231400E+00 
    1.6282231990612483E+00 
    1.6109811060872365E+00 
    1.6025525191417191E+00 
    1.9089156074381277E+00 
    1.9019943768293344E+00 
    1.8887724022134915E+00 
    1.8701885720447364E+00 
    1.8472768628937595E+00 
    1.8210458934724982E+00 
    1.7923006457408193E+00 
    1.7617273640105235E+00 
    1.7302011262966639E+00 
    1.6986602891742664E+00 
    1.6680877182507108E+00 
    1.6395079150634222E+00 
    1.6132747639848131E+00 
    1.5880950237256666E+00 
    1.5686680332892593E+00 
    1.5591340102679947E+00 
    1.8745132767808887E+00 
    1.8682230455896831E+00 
    1.8560738195089372E+00 
    1.8386230522257576E+00 
    1.8166191325657699E+00 
    1.7907823524313660E+00 
    1.7617618221404445E+00 
    1.7302818021173412E+00 
    1.6972024008124542E+00 
    1.6634347841617041E+00 
    1.6300043227597283E+00 
    1.5981658635000942E+00 
    1.5686892022400951E+00 
    1.5399618482130599E+00 
    1.5173434338343217E+00 
    1.5061838408293426E+00 
    1.8427822303091790E+00 
    1.8368285225718060E+00 
    1.8251544499035359E+00 
    1.8081501888905358E+00 
    1.7863256923578683E+00 
    1.7601791534875046E+00 
    1.7302653220769508E+00 
    1.6972326593589029E+00 
    1.6618063637486329E+00 
    1.6248136266999011E+00 
    1.5873555489588409E+00 
    1.5509093776982714E+00 
    1.5167415068232439E+00 
    1.4828193977079138E+00 
    1.4555712101289455E+00 
    1.4420749055693804E+00 
    1.8137303754987693E+00 
    1.8078624331054658E+00 
    1.7962925305162103E+00 
    1.7792670925237630E+00 
    1.7570820742978648E+00 
    1.7301011449855106E+00 
    1.6987418958103211E+00 
    1.6634858726406938E+00 
    1.6248410243900167E+00 
    1.5835425844518292E+00 
    1.5407092435157799E+00 
    1.4979702911898400E+00 
    1.4570288621236738E+00 
    1.4155254832370485E+00 
    1.3815126222197849E+00 
    1.3644808524753900E+00 
    1.7875192435269227E+00 
    1.7816189377894156E+00 
    1.7699254341655086E+00 
    1.7525427938694886E+00 
    1.7296413437501894E+00 
    1.7014544036278767E+00 
    1.6681965525870244E+00 
    1.6300887110330329E+00 
    1.5874227905477594E+00 
    1.5407457261454298E+00 
    1.4910079522579824E+00 
    1.4398265192201651E+00 
    1.3891887830876359E+00 
    1.3369244731157282E+00 
    1.2928213611075632E+00 
    1.2698431193743926E+00 
    1.7645085715845750E+00 
    1.7584990850641331E+00 
    1.7465213605683201E+00 
    1.7285943843100178E+00 
    1.7047742946775963E+00 
    1.6751397262980801E+00 
    1.6396680048038228E+00 
    1.5983073242428010E+00 
    1.5510345157265257E+00 
    1.4980455373441672E+00 
    1.4398429146252321E+00 
    1.3777128058728985E+00 
    1.3135435264326292E+00 
    1.2460679072746004E+00 
    1.1859262261438313E+00 
    1.1519636874327528E+00 
    1.7441499659616950E+00 
    1.7379668244875672E+00 
    1.7256127522590103E+00 
    1.7070666876636342E+00 
    1.6822749078469248E+00 
    1.6511390129133623E+00 
    1.6134411123773300E+00 
    1.5688418637932973E+00 
    1.5168839975725283E+00 
    1.4571304104245595E+00 
    1.3892467133543609E+00 
    1.3136032080686217E+00 
    1.2312116773804447E+00 
    1.1412285892614527E+00 
    1.0538013165959785E+00 
    9.9885755860072101E-01 
    1.7254726182406379E+00 
    1.7190943794967346E+00 
    1.7063263242201439E+00 
    1.6870966996632037E+00 
    1.6612249780544390E+00 
    1.6284226064951257E+00 
    1.5882759409832634E+00 
    1.5401208150679302E+00 
    1.4829654645928669E+00 
    1.4156606282080846E+00 
    1.3370529025216167E+00 
    1.2462247497829280E+00 
    1.1413576693938492E+00 
    1.0186010285364417E+00 
    8.8639460880408771E-01 
    7.8975343017896271E-01 
    1.7117973128970798E+00 
    1.7052639237291463E+00 
    1.6921554878892180E+00 
    1.6723263593207336E+00 
    1.6454934301700335E+00 
    1.6112265678663040E+00 
    1.5688954578584420E+00 
    1.5175488779713429E+00 
    1.4557655703805699E+00 
    1.3817050461411344E+00 
    1.2930076328117399E+00 
    1.1861243057936455E+00 
    1.0539470321051783E+00 
    8.8638504186010392E-01 
    6.8430167522168550E-01 
    4.8857279861957281E-01 
    1.7051841289456870E+00 
    1.6985727744652228E+00 
    1.6852841371746945E+00 
    1.6651342518889318E+00 
    1.6378044065744455E+00 
    1.6028015842722487E+00 
    1.5593621344980730E+00 
    1.5063951182238937E+00 
    1.4422804789509727E+00 
    1.3646851196648326E+00 
    1.2700428672421864E+00 
    1.1521567329820839E+00 
    9.9895829092118160E-01 
    7.8969826284309286E-01 
    4.8850516119338966E-01 
    0.0000000000000000E+00 

SCALARS Saturarion double 1 
LOOKUP_TABLE default 

    1.0000000011676322E+00 
    9.6962855199206877E-01 
    9.1699795904234516E-01 
    8.5907292771025245E-01 
    8.0131525202765308E-01 
    7.4629644282209306E-01 
    6.9599847546005245E-01 
    6.5081819471651670E-01 
    6.0900962282105553E-01 
    5.6737464561590389E-01 
    5.2587936515163713E-01 
    4.8376027105966174E-01 
    4.0728756825878631E-01 
    6.8311985086017227E-02 
    3.7042070481881068E-04 
    1.0010002868214996E-06 
    9.6962599053073606E-01 
    9.4758858793681933E-01 
    9.0079154270432249E-01 
    8.4641635770274937E-01 
    7.9205809115362968E-01 
    7.3989126123287385E-01 
    6.9165509676563863E-01 
    6.4795665039537997E-01 
    6.0718369447400766E-01 
    5.6639488848143660E-01 
    5.2547633705499674E-01 
    4.8361341121827001E-01 
    4.0734180339082454E-01 
    6.7713564058758904E-02 
    3.8435439289608974E-04 
    1.0000006620907571E-06 
    9.1698515456526286E-01 
    9.0078069921760795E-01 
    8.6274565938993286E-01 
    8.1759067665808272E-01 
    7.7074389728312764E-01 
    7.2443592502223575E-01 
    6.8074409772342626E-01 
    6.4046968693467610E-01 
    6.0196914805626267E-01 
    5.6282124504922137E-01 
    5.2351024462335261E-01 
    4.8260191337846592E-01 
    4.0643723354005290E-01 
    6.6184787136537568E-02 
    4.9294999233826452E-04 
    1.0022853304994306E-06 
    8.5904404207796481E-01 
    8.4639243059423608E-01 
    8.1757508210220142E-01 
    7.8087007602369962E-01 
    7.4294411981608255E-01 
    7.0433551252942739E-01 
    6.6643889102196696E-01 
    6.3004366907406884E-01 
    5.9415398481896087E-01 
    5.5747092476566884E-01 
    5.2053268160892685E-01 
    4.8093888286549497E-01 
    4.0502186968522441E-01 
    6.6799476883208420E-02 
    3.0216991869996194E-04 
    1.0000559490054686E-06 
    8.0128596617447900E-01 
    7.9204022904739857E-01 
    7.7072736286102872E-01 
    7.4293128749028414E-01 
    7.1267342343513151E-01 
    6.8180155426488875E-01 
    6.4983892529664300E-01 
    6.1739200709272235E-01 
    5.8459220004455181E-01 
    5.5124192477194889E-01 
    5.1712170063925533E-01 
    4.7991748762642483E-01 
    4.0802614487671174E-01 
    7.7839401806553896E-02 
    3.6511872477055807E-04 
    1.0011142080256966E-06 
    7.4632428348485891E-01 
    7.3989985289371929E-01 
    7.2442911423485812E-01 
    7.0431709489626826E-01 
    6.8178627153187710E-01 
    6.5708236096360861E-01 
    6.3016239507824756E-01 
    6.0215642624055010E-01 
    5.7355419145971342E-01 
    5.4393584495702185E-01 
    5.1260021024653202E-01 
    4.7849542914433141E-01 
    4.1192084800375772E-01 
    8.5634918077966457E-02 
    4.2143290015006978E-04 
    1.0015152479020225E-06 
    6.9603282741246364E-01 
    6.9166523864225671E-01 
    6.8073177638866222E-01 
    6.6640847882413978E-01 
    6.4981180424821638E-01 
    6.3014940461374980E-01 
    6.0806511174219358E-01 
    5.8491733355560638E-01 
    5.6087045774607658E-01 
    5.3527075251349432E-01 
    5.0714492277631651E-01 
    4.7547029423055309E-01 
    4.1417303814105816E-01 
    9.5364917163216989E-02 
    6.6276740944774999E-04 
    1.0031455765626081E-06 
    6.5083457776441644E-01 
    6.4795818763840041E-01 
    6.4045074270588354E-01 
    6.3001449910413898E-01 
    6.1737550874652702E-01 
    6.0214032275596774E-01 
    5.8488861503592782E-01 
    5.6635781792440942E-01 
    5.4675829159418665E-01 
    5.2532362243785768E-01 
    5.0128792929806276E-01 
    4.7278186898502816E-01 
    4.1725757792278911E-01 
    1.0950383677247436E-01 
    8.2426987414649345E-04 
    1.0769406099343286E-06 
    6.0901146104793991E-01 
    6.0716522585627697E-01 
    6.0191626839679180E-01 
    5.9410432411782910E-01 
    5.8455451739991882E-01 
    5.7346812800317337E-01 
    5.6072746337744606E-01 
    5.4661082307925712E-01 
    5.3120437271190479E-01 
    5.1412269920400322E-01 
    4.9449824190058445E-01 
    4.7082021327871382E-01 
    4.2361364591048095E-01 
    1.5156661958264164E-01 
    1.0402380309452515E-03 
    1.0453569455874620E-06 
    5.6736066497958482E-01 
    5.6632625911008883E-01 
    5.6273190770222448E-01 
    5.5739058181967649E-01 
    5.5114097345487301E-01 
    5.4378613846091028E-01 
    5.3507710269054409E-01 
    5.2510243714317972E-01 
    5.1391440700661184E-01 
    5.0128217552111876E-01 
    4.8638853372601681E-01 
    4.6842565826769045E-01 
    4.3258504979414808E-01 
    1.9858813025292579E-01 
    7.5514671099663206E-04 
    1.0875036870531646E-06 
    5.2627173906256808E-01 
    5.2582566135336661E-01 
    5.2385063792424069E-01 
    5.2075406115467215E-01 
    5.1719168945840110E-01 
    5.1280439299195135E-01 
    5.0771451160645864E-01 
    5.0184740646297910E-01 
    4.9467865899371788E-01 
    4.8630159071477974E-01 
    4.7652021880456502E-01 
    4.6400282980065971E-01 
    4.3657025406396016E-01 
    2.5568428405057952E-01 
    2.4270951008184393E-03 
    1.1083042579546228E-06 
    4.8427108955703935E-01 
    4.8415540459969103E-01 
    4.8299193855916811E-01 
    4.8095382670509523E-01 
    4.7961748255807946E-01 
    4.7833684037013480E-01 
    4.7603169197874728E-01 
    4.7393952622427538E-01 
    4.7152398862237105E-01 
    4.6857802523326497E-01 
    4.6393432156945114E-01 
    4.5763407462035716E-01 
    4.3915163452319367E-01 
    3.1770326746325744E-01 
    2.2034905466775008E-02 
    6.0626512148346585E-06 
    4.0729644853107178E-01 
    4.0673818066073336E-01 
    4.0562536248262659E-01 
    4.0414774164347783E-01 
    4.0643199185825457E-01 
    4.1019816029927170E-01 
    4.1281325806984104E-01 
    4.1628963245108258E-01 
    4.2364417030333223E-01 
    4.3210475758895162E-01 
    4.3708308873034335E-01 
    4.4011159252045595E-01 
    4.3147852658507829E-01 
    3.6043359367550920E-01 
    7.8425371028181978E-02 
    2.8919440266813670E-05 
    7.0085843705930739E-02 
    6.9407279952895251E-02 
    6.6993851076458374E-02 
    6.4824786485725427E-02 
    7.4627250293069561E-02 
    8.2639039487458543E-02 
    9.1153367259160567E-02 
    1.0912217482491310E-01 
    1.4659131871057357E-01 
    1.9544376319146556E-01 
    2.5516540387094877E-01 
    3.1729957076833643E-01 
    3.6101045747061922E-01 
    3.5360108777404498E-01 
    1.1744853751764203E-01 
    4.6474346751238839E-04 
    3.3801636351874485E-05 
    1.1902265503786237E-06 
    1.2597299483956719E-06 
    1.0885314321069535E-06 
    2.0622932676008670E-04 
    1.7453848208961911E-04 
    2.9366747570362515E-04 
    1.0597461697070242E-04 
    3.9800926913673215E-05 
    4.7695066079714661E-05 
    1.6073058079095963E-03 
    2.1651565986499251E-02 
    8.0639204387988564E-02 
    1.2195078671790345E-01 
    3.4199131778471815E-02 
    2.3580112007358793E-04 
    1.0000129150853565E-06 
    1.0000000629141618E-06 
    1.0000000698649008E-06 
    1.0000000307137875E-06 
    1.0000975740605873E-06 
    1.0000004118684166E-06 
    1.0002550833522143E-06 
    1.0001715463359141E-06 
    1.0000511592637294E-06 
    1.0000951099729661E-06 
    1.0189247205851238E-06 
    6.2244843762052102E-06 
    3.4722777405401593E-05 
    6.6687887849137045E-05 
    2.6529162094344734E-04 
    1.0463573531347185E-06 
