# vtk DataFile Version 2.0
Pressure Field Data 
ASCII 
DATASET UNSTRUCTURED_GRID 

POINTS 289 double 

    0.0000000000000000E+00     0.0000000000000000E+00     0.0000000000000000E+00 
    1.0000000000000000E+00     0.0000000000000000E+00     0.0000000000000000E+00 
    1.0000000000000000E+00     1.0000000000000000E+00     0.0000000000000000E+00 
    0.0000000000000000E+00     1.0000000000000000E+00     0.0000000000000000E+00 
    6.2499999999872928E-02     0.0000000000000000E+00     0.0000000000000000E+00 
    1.2499999999977310E-01     0.0000000000000000E+00     0.0000000000000000E+00 
    1.8749999999959341E-01     0.0000000000000000E+00     0.0000000000000000E+00 
    2.4999999999941089E-01     0.0000000000000000E+00     0.0000000000000000E+00 
    3.1249999999922851E-01     0.0000000000000000E+00     0.0000000000000000E+00 
    3.7499999999904610E-01     0.0000000000000000E+00     0.0000000000000000E+00 
    4.3749999999886358E-01     0.0000000000000000E+00     0.0000000000000000E+00 
    4.9999999999869210E-01     0.0000000000000000E+00     0.0000000000000000E+00 
    5.6249999999884603E-01     0.0000000000000000E+00     0.0000000000000000E+00 
    6.2499999999901090E-01     0.0000000000000000E+00     0.0000000000000000E+00 
    6.8749999999917577E-01     0.0000000000000000E+00     0.0000000000000000E+00 
    7.4999999999934064E-01     0.0000000000000000E+00     0.0000000000000000E+00 
    8.1249999999950551E-01     0.0000000000000000E+00     0.0000000000000000E+00 
    8.7499999999967026E-01     0.0000000000000000E+00     0.0000000000000000E+00 
    9.3749999999983513E-01     0.0000000000000000E+00     0.0000000000000000E+00 
    1.0000000000000000E+00     6.2499999999872928E-02     0.0000000000000000E+00 
    1.0000000000000000E+00     1.2499999999977310E-01     0.0000000000000000E+00 
    1.0000000000000000E+00     1.8749999999959341E-01     0.0000000000000000E+00 
    1.0000000000000000E+00     2.4999999999941089E-01     0.0000000000000000E+00 
    1.0000000000000000E+00     3.1249999999922851E-01     0.0000000000000000E+00 
    1.0000000000000000E+00     3.7499999999904610E-01     0.0000000000000000E+00 
    1.0000000000000000E+00     4.3749999999886358E-01     0.0000000000000000E+00 
    1.0000000000000000E+00     4.9999999999869210E-01     0.0000000000000000E+00 
    1.0000000000000000E+00     5.6249999999884603E-01     0.0000000000000000E+00 
    1.0000000000000000E+00     6.2499999999901090E-01     0.0000000000000000E+00 
    1.0000000000000000E+00     6.8749999999917577E-01     0.0000000000000000E+00 
    1.0000000000000000E+00     7.4999999999934064E-01     0.0000000000000000E+00 
    1.0000000000000000E+00     8.1249999999950551E-01     0.0000000000000000E+00 
    1.0000000000000000E+00     8.7499999999967026E-01     0.0000000000000000E+00 
    1.0000000000000000E+00     9.3749999999983513E-01     0.0000000000000000E+00 
    9.3749999999973976E-01     1.0000000000000000E+00     0.0000000000000000E+00 
    8.7499999999950118E-01     1.0000000000000000E+00     0.0000000000000000E+00 
    8.1249999999991318E-01     1.0000000000000000E+00     0.0000000000000000E+00 
    7.5000000000034706E-01     1.0000000000000000E+00     0.0000000000000000E+00 
    6.8750000000078049E-01     1.0000000000000000E+00     0.0000000000000000E+00 
    6.2500000000121403E-01     1.0000000000000000E+00     0.0000000000000000E+00 
    5.6250000000164757E-01     1.0000000000000000E+00     0.0000000000000000E+00 
    5.0000000000205946E-01     1.0000000000000000E+00     0.0000000000000000E+00 
    4.3750000000182099E-01     1.0000000000000000E+00     0.0000000000000000E+00 
    3.7500000000156092E-01     1.0000000000000000E+00     0.0000000000000000E+00 
    3.1250000000130068E-01     1.0000000000000000E+00     0.0000000000000000E+00 
    2.5000000000104050E-01     1.0000000000000000E+00     0.0000000000000000E+00 
    1.8750000000078040E-01     1.0000000000000000E+00     0.0000000000000000E+00 
    1.2500000000052031E-01     1.0000000000000000E+00     0.0000000000000000E+00 
    6.2500000000260125E-02     1.0000000000000000E+00     0.0000000000000000E+00 
    0.0000000000000000E+00     9.3749999999973976E-01     0.0000000000000000E+00 
    0.0000000000000000E+00     8.7499999999950118E-01     0.0000000000000000E+00 
    0.0000000000000000E+00     8.1249999999991318E-01     0.0000000000000000E+00 
    0.0000000000000000E+00     7.5000000000034706E-01     0.0000000000000000E+00 
    0.0000000000000000E+00     6.8750000000078049E-01     0.0000000000000000E+00 
    0.0000000000000000E+00     6.2500000000121403E-01     0.0000000000000000E+00 
    0.0000000000000000E+00     5.6250000000164757E-01     0.0000000000000000E+00 
    0.0000000000000000E+00     5.0000000000205946E-01     0.0000000000000000E+00 
    0.0000000000000000E+00     4.3750000000182099E-01     0.0000000000000000E+00 
    0.0000000000000000E+00     3.7500000000156092E-01     0.0000000000000000E+00 
    0.0000000000000000E+00     3.1250000000130068E-01     0.0000000000000000E+00 
    0.0000000000000000E+00     2.5000000000104050E-01     0.0000000000000000E+00 
    0.0000000000000000E+00     1.8750000000078040E-01     0.0000000000000000E+00 
    0.0000000000000000E+00     1.2500000000052031E-01     0.0000000000000000E+00 
    0.0000000000000000E+00     6.2500000000260125E-02     0.0000000000000000E+00 
    6.2499999999897131E-02     6.2500000000235922E-02     0.0000000000000000E+00 
    6.2499999999921327E-02     1.2500000000047351E-01     0.0000000000000000E+00 
    6.2499999999945530E-02     1.8750000000070621E-01     0.0000000000000000E+00 
    6.2499999999969733E-02     2.5000000000093858E-01     0.0000000000000000E+00 
    6.2499999999993928E-02     3.1250000000117117E-01     0.0000000000000000E+00 
    6.2500000000018124E-02     3.7500000000140382E-01     0.0000000000000000E+00 
    6.2500000000042327E-02     4.3750000000163619E-01     0.0000000000000000E+00 
    6.2500000000066530E-02     5.0000000000184897E-01     0.0000000000000000E+00 
    6.2500000000090733E-02     5.6250000000147260E-01     0.0000000000000000E+00 
    6.2500000000114922E-02     6.2500000000107636E-01     0.0000000000000000E+00 
    6.2500000000139125E-02     6.8750000000068034E-01     0.0000000000000000E+00 
    6.2500000000163328E-02     7.5000000000028411E-01     0.0000000000000000E+00 
    6.2500000000187531E-02     8.1249999999988787E-01     0.0000000000000000E+00 
    6.2500000000211720E-02     8.7499999999951172E-01     0.0000000000000000E+00 
    6.2500000000235922E-02     9.3749999999974565E-01     0.0000000000000000E+00 
    1.2499999999981980E-01     6.2500000000211733E-02     0.0000000000000000E+00 
    1.2499999999986650E-01     1.2500000000042691E-01     0.0000000000000000E+00 
    1.2499999999991319E-01     1.8750000000063199E-01     0.0000000000000000E+00 
    1.2499999999995989E-01     2.5000000000083678E-01     0.0000000000000000E+00 
    1.2500000000000661E-01     3.1250000000104172E-01     0.0000000000000000E+00 
    1.2500000000005329E-01     3.7500000000124661E-01     0.0000000000000000E+00 
    1.2500000000010000E-01     4.3750000000145117E-01     0.0000000000000000E+00 
    1.2500000000014669E-01     5.0000000000163858E-01     0.0000000000000000E+00 
    1.2500000000019340E-01     5.6250000000129741E-01     0.0000000000000000E+00 
    1.2500000000024011E-01     6.2500000000093847E-01     0.0000000000000000E+00 
    1.2500000000028680E-01     6.8750000000057998E-01     0.0000000000000000E+00 
    1.2500000000033351E-01     7.5000000000022127E-01     0.0000000000000000E+00 
    1.2500000000038020E-01     8.1249999999986211E-01     0.0000000000000000E+00 
    1.2500000000042691E-01     8.7499999999952238E-01     0.0000000000000000E+00 
    1.2500000000047359E-01     9.3749999999975164E-01     0.0000000000000000E+00 
    1.8749999999966760E-01     6.2500000000187531E-02     0.0000000000000000E+00 
    1.8749999999974179E-01     1.2500000000038020E-01     0.0000000000000000E+00 
    1.8749999999981601E-01     1.8750000000055780E-01     0.0000000000000000E+00 
    1.8749999999989009E-01     2.5000000000073502E-01     0.0000000000000000E+00 
    1.8749999999996431E-01     3.1250000000091221E-01     0.0000000000000000E+00 
    1.8750000000003850E-01     3.7500000000108941E-01     0.0000000000000000E+00 
    1.8750000000011269E-01     4.3750000000126649E-01     0.0000000000000000E+00 
    1.8750000000018691E-01     5.0000000000142808E-01     0.0000000000000000E+00 
    1.8750000000026110E-01     5.6250000000112244E-01     0.0000000000000000E+00 
    1.8750000000033529E-01     6.2500000000080080E-01     0.0000000000000000E+00 
    1.8750000000040951E-01     6.8750000000047962E-01     0.0000000000000000E+00 
    1.8750000000048361E-01     7.5000000000015843E-01     0.0000000000000000E+00 
    1.8750000000055780E-01     8.1249999999983680E-01     0.0000000000000000E+00 
    1.8750000000063199E-01     8.7499999999953304E-01     0.0000000000000000E+00 
    1.8750000000070621E-01     9.3749999999975764E-01     0.0000000000000000E+00 
    2.4999999999951281E-01     6.2500000000163314E-02     0.0000000000000000E+00 
    2.4999999999961461E-01     1.2500000000033351E-01     0.0000000000000000E+00 
    2.4999999999971650E-01     1.8750000000048361E-01     0.0000000000000000E+00 
    2.4999999999981831E-01     2.5000000000063310E-01     0.0000000000000000E+00 
    2.4999999999992020E-01     3.1250000000078260E-01     0.0000000000000000E+00 
    2.5000000000002198E-01     3.7500000000093209E-01     0.0000000000000000E+00 
    2.5000000000012390E-01     4.3750000000108180E-01     0.0000000000000000E+00 
    2.5000000000022571E-01     5.0000000000121769E-01     0.0000000000000000E+00 
    2.5000000000032763E-01     5.6250000000094724E-01     0.0000000000000000E+00 
    2.5000000000042938E-01     6.2500000000066314E-01     0.0000000000000000E+00 
    2.5000000000053119E-01     6.8750000000037925E-01     0.0000000000000000E+00 
[...]
CELL_DATA 256 
SCALARS Pressure double 1 
LOOKUP_TABLE default 

    2.8256597288199830E+00 
    2.7029515179276400E+00 
    2.5998534980092205E+00 
    2.4989094062034156E+00 
    2.4007792770503458E+00 
    2.2910864988266537E+00 
    2.1817710893798004E+00 
    2.0960634601670241E+00 
    2.0231147467896631E+00 
    1.9611410488520504E+00 
    1.9090109497228323E+00 
    1.8660608828387821E+00 
    1.8319076404644135E+00 
    1.8063642894054672E+00 
    1.7893558892220258E+00 
    1.7808620070242309E+00 
    2.7029603573960888E+00 
    2.6413239323310167E+00 
    2.5608521814520149E+00 
    2.4714343930604818E+00 
    2.3767390506020196E+00 
    2.2695002395588286E+00 
    2.1663940828502595E+00 
    2.0834017976431185E+00 
    2.0122149257842383E+00 
    1.9513391603514896E+00 
    1.8998730216364792E+00 
    1.8572952413217019E+00 
    1.8233233836060896E+00 
    1.7978494711916648E+00 
    1.7808569820507065E+00 
    1.7723693916272447E+00 
    2.5998496931392179E+00 
    2.5608523490394841E+00 
    2.4987648193762855E+00 
    2.4218428713858802E+00 
    2.3308973693568986E+00 
    2.2293387352081244E+00 
    2.1370616934381186E+00 
    2.0590409483747973E+00 
    1.9910570241555408E+00 
    1.9321883558292938E+00 
    1.8819120669577771E+00 
    1.8399766143700858E+00 
    1.8062939736767503E+00 
    1.7809058424208608E+00 
    1.7639085616487722E+00 
    1.7554053828005567E+00 
    2.4988614465259791E+00 
    2.4713895471419756E+00 
    2.4218343243391511E+00 
    2.3525286490774371E+00 
    2.2659338354348688E+00 
    2.1763154565430272E+00 
    2.0963135068083938E+00 
    2.0247330442372853E+00 
    1.9608474889611778E+00 
    1.9045058577638685E+00 
    1.8556771241630241E+00 
    1.8144557389621079E+00 
    1.7810213958072423E+00 
    1.7556258901275952E+00 
    1.7385288500384981E+00 
    1.7299496303110535E+00 
    2.4008014025881459E+00 
    2.3767538960094239E+00 
    2.3309554075775796E+00 
    2.2659724182410956E+00 
    2.1908396372924344E+00 
    2.1170336624750252E+00 
    2.0477049412364599E+00 
    1.9827896326628971E+00 
    1.9231570580511954E+00 
    1.8693704254216543E+00 
    1.8218947286892699E+00 
    1.7811922596560150E+00 
    1.7477582371036333E+00 
    1.7221045464935090E+00 
    1.7047035300778675E+00 
    1.6959302200886512E+00 
    2.2913199751549689E+00 
    2.2697479803956941E+00 
    2.2295796475015779E+00 
    2.1764558666906071E+00 
    2.1170973998942775E+00 
    2.0559092793501708E+00 
    1.9947988936985159E+00 
    1.9356203525707012E+00 
    1.8796815701925558E+00 
    1.8279843913722502E+00 
    1.7813802262895069E+00 
    1.7406955832420536E+00 
    1.7067553518055096E+00 
    1.6803819560579463E+00 
    1.6623220654544602E+00 
    1.6531589331948546E+00 
    2.1821042119325269E+00 
    2.1667281136038539E+00 
    2.1373523991985328E+00 
    2.0965117204181904E+00 
    2.0478279147259113E+00 
    1.9948563019156922E+00 
    1.9400513873678880E+00 
    1.8852811345235321E+00 
    1.8320297633158376E+00 
    1.7815409749078539E+00 
    1.7349808148944914E+00 
    1.6934790401998756E+00 
    1.6582160697875625E+00 
    1.6303803579600076E+00 
    1.6110819047965321E+00 
    1.6012086030669472E+00 
    2.0964307452995001E+00 
    2.0837589622466828E+00 
    2.0593529447246519E+00 
    2.0249717406970609E+00 
    1.9829601004505160E+00 
    1.9357292305230027E+00 
    1.8853342163886935E+00 
    1.8334898304455947E+00 
    1.7816723951059135E+00 
    1.7312485891587415E+00 
    1.6835798741775660E+00 
    1.6400868723272324E+00 
    1.6023104775037267E+00 
    1.5719016705044948E+00 
    1.5504780590396039E+00 
    1.5393915287753228E+00 
    2.0234998772221466E+00 
    2.0125823165057981E+00 
    1.9913849432642894E+00 
    1.9611195417123641E+00 
    1.9233696812644594E+00 
    1.8798374837257488E+00 
    1.8321343364212486E+00 
    1.7817250655991652E+00 
    1.7299770544418442E+00 
    1.6782628123037879E+00 
    1.6280562219777426E+00 
    1.5810041521220890E+00 
    1.5390565363142628E+00 
    1.5044580748077607E+00 
    1.4795692902296849E+00 
    1.4664913076691863E+00 
    1.9615496026095953E+00 
    1.9517284677540270E+00 
    1.9325428290998359E+00 
    1.9048133967963874E+00 
    1.8696254842834532E+00 
    1.8281872463286908E+00 
    1.7816973279868038E+00 
    1.7313540726159868E+00 
    1.6783157835233671E+00 
    1.6238470528060420E+00 
    1.5694082541355130E+00 
    1.5168202177138230E+00 
    1.4684488773408708E+00 
    1.4273020661499682E+00 
    1.3968617692508472E+00 
    1.3805204828974640E+00 
    1.9094457204144755E+00 
    1.9002902973627005E+00 
    1.8822989810265771E+00 
    1.8560236904843586E+00 
    1.8221953034485940E+00 
    1.7816331008175661E+00 
    1.7351866022915998E+00 
    1.6837364343292056E+00 
    1.6281620887484387E+00 
    1.5694618797815896E+00 
    1.5089177161293430E+00 
    1.4483936662375176E+00 
    1.3905907252791427E+00 
    1.3394088300881601E+00 
    1.3000194210740079E+00 
    1.2781869298390427E+00 
    1.8665214253584337E+00 
    1.8577404528977710E+00 
    1.8403951395228555E+00 
    1.8148383870907348E+00 
    1.7815329804658220E+00 
    1.7409914994454494E+00 
    1.6937293519183405E+00 
    1.6402895521594849E+00 
    1.5811568271546435E+00 
    1.5169209371642496E+00 
    1.4484419426091468E+00 
    1.3773030850665786E+00 
    1.3061818347204066E+00 
    1.2397975655571820E+00 
    1.1856972847464562E+00 
    1.1540611550294830E+00 
    1.8323895161112784E+00 
    1.8237917434998803E+00 
    1.8067383771138961E+00 
    1.7814331490950654E+00 
    1.7481312389257992E+00 
    1.7070861717707289E+00 
    1.6585033655021573E+00 
    1.6025515412324576E+00 
    1.5392485911967702E+00 
    1.4685897998848236E+00 
    1.3906797825484420E+00 
    1.3062229007563095E+00 
    1.2170687605280852E+00 
    1.1279331924450464E+00 
    1.0489552124792889E+00 
    9.9831714784905734E-01 
    1.8068595365377391E+00 
    1.7983326618865756E+00 
    1.7813672081714824E+00 
    1.7560572279571347E+00 
    1.7224998977687329E+00 
    1.6807376020831954E+00 
    1.6306943294831195E+00 
    1.5721705715849914E+00 
    1.5046788846860557E+00 
    1.4274725057184008E+00 
    1.3395282672814812E+00 
    1.2398698739263345E+00 
    1.1279649677374710E+00 
    1.0059322761177560E+00 
    8.8390601735386531E-01 
    7.9194629334931621E-01 
    1.7898537834286730E+00 
    1.7813440160613327E+00 
    1.7643755400063879E+00 
    1.7389680178361404E+00 
    1.7051090127809623E+00 
    1.6626898588115619E+00 
    1.6114093449537090E+00 
    1.5507613524207173E+00 
    1.4798054375773091E+00 
    1.3970483724065268E+00 
    1.3001564012527935E+00 
    1.1857887102732612E+00 
    1.0490073412796210E+00 
    8.8392711971908722E-01 
    6.8878182277934941E-01 
    4.9359760793891733E-01 
    1.7813500209210014E+00 
    1.7728475505540526E+00 
    1.7558649167429194E+00 
    1.7303830595410967E+00 
    1.6963316382476712E+00 
    1.6535240938162412E+00 
    1.6015339620233255E+00 
    1.5396733971153955E+00 
    1.4667269358575181E+00 
    1.3807075319595346E+00 
    1.2783267133837211E+00 
    1.1541578350770851E+00 
    9.9837664495423439E-01 
    7.9197645242268699E-01 
    4.9360767583930254E-01 
    0.0000000000000000E+00 

SCALARS Saturarion double 1 
LOOKUP_TABLE default 

    9.9992174989106408E-01 
    8.5780234685680590E-01 
    6.7198840731438170E-01 
    5.7216244633843938E-01 
    4.9203123619654715E-01 
    2.2491827087323735E-01 
    6.5071511191410573E-05 
    1.0000000164408847E-06 
    1.0000000000000036E-06 
    9.9999999999999995E-07 
    9.9999999999999995E-07 
    9.9999999999999995E-07 
    9.9999999999999995E-07 
    9.9999999999999995E-07 
    9.9999999999999995E-07 
    9.9999999999999995E-07 
    8.5777915341124944E-01 
    7.6866270341105702E-01 
    6.4563810264799093E-01 
    5.5400926752995971E-01 
    4.7111751234390875E-01 
    1.5214584704835862E-01 
    1.4437176071493661E-03 
    1.0378920933187231E-06 
    1.0000000083525800E-06 
    1.0000000000000010E-06 
    9.9999999999999995E-07 
    9.9999999999999995E-07 
    9.9999999999999995E-07 
    9.9999999999999995E-07 
    9.9999999999999995E-07 
    9.9999999999999995E-07 
    6.7188791691862659E-01 
    6.4555977720871816E-01 
    5.8095515280818488E-01 
    5.0864733916777605E-01 
    3.9014100015908759E-01 
    3.7122520256040584E-02 
    3.1208434751418807E-04 
    1.0021015946732694E-06 
    1.0000000003179992E-06 
    9.9999999999999974E-07 
    9.9999999999999995E-07 
    9.9999999999999995E-07 
    9.9999999999999995E-07 
    9.9999999999999995E-07 
    9.9999999999999995E-07 
    9.9999999999999995E-07 
    5.7210467571058576E-01 
    5.5384773410246579E-01 
    5.0765423126791898E-01 
    4.2635062450175182E-01 
    1.6189521163415238E-01 
    3.0387813769746381E-03 
    1.1269368903471251E-06 
    1.0000000193804998E-06 
    1.0000000000000095E-06 
    9.9999999999999995E-07 
    9.9999999999999995E-07 
    9.9999999999999995E-07 
    9.9999999999999995E-07 
    9.9999999999999995E-07 
    9.9999999999999995E-07 
    9.9999999999999995E-07 
    4.9289670386345802E-01 
    4.7333172525179268E-01 
    3.9063470729595212E-01 
    1.6387527567225482E-01 
    9.2431147617215159E-03 
    1.4989209392291871E-05 
    1.0000104191134014E-06 
    1.0000000000002126E-06 
    9.9999999999999995E-07 
    9.9999999999999995E-07 
    9.9999999999999995E-07 
    9.9999999999999995E-07 
    9.9999999999999995E-07 
    9.9999999999999995E-07 
    9.9999999999999995E-07 
    9.9999999999999995E-07 
    2.2398689215458670E-01 
    1.4832006360400166E-01 
    3.8636237532103927E-02 
    2.4844621566196979E-03 
    3.6691835449902067E-05 
    1.0000581973218366E-06 
    1.0000000000024773E-06 
    9.9999999999999995E-07 
    9.9999999999999995E-07 
    9.9999999999999995E-07 
    9.9999999999999995E-07 
    9.9999999999999995E-07 
    9.9999999999999995E-07 
    9.9999999999999995E-07 
    9.9999999999999995E-07 
    9.9999999999999995E-07 
    1.0544306054236084E-04 
    8.9200278437963088E-05 
    6.9245224812543017E-05 
    1.3181529003078715E-06 
    1.0000574575720667E-06 
    1.0000000000106315E-06 
    9.9999999999999995E-07 
    9.9999999999999995E-07 
    9.9999999999999995E-07 
    9.9999999999999995E-07 
    9.9999999999999995E-07 
    9.9999999999999995E-07 
    9.9999999999999995E-07 
    9.9999999999999995E-07 
    9.9999999999999995E-07 
    9.9999999999999995E-07 
    1.0094437351279701E-06 
    1.0027714834526563E-06 
    1.0004710298384913E-06 
    1.0000000171909235E-06 
    1.0000000000093406E-06 
    9.9999999999999995E-07 
    9.9999999999999995E-07 
    9.9999999999999995E-07 
    9.9999999999999995E-07 
    9.9999999999999995E-07 
    9.9999999999999995E-07 
    9.9999999999999995E-07 
    9.9999999999999995E-07 
    9.9999999999999995E-07 
    9.9999999999999995E-07 
    9.9999999999999995E-07 
    1.0000000007621668E-06 
    1.0000000001052580E-06 
    1.0000000000038747E-06 
    1.0000000000000196E-06 
    9.9999999999999995E-07 
    9.9999999999999995E-07 
    9.9999999999999995E-07 
    9.9999999999999995E-07 
    9.9999999999999995E-07 
    9.9999999999999995E-07 
    9.9999999999999995E-07 
    9.9999999999999995E-07 
    9.9999999999999995E-07 
    9.9999999999999995E-07 
    9.9999999999999995E-07 
    9.9999999999999995E-07 
    9.9999999999999974E-07 
    9.9999999999999995E-07 
    9.9999999999999995E-07 
    9.9999999999999995E-07 
    9.9999999999999995E-07 
    9.9999999999999995E-07 
    9.9999999999999995E-07 
    9.9999999999999995E-07 
    9.9999999999999995E-07 
    9.9999999999999995E-07 
    9.9999999999999995E-07 
    9.9999999999999995E-07 
    9.9999999999999995E-07 
    9.9999999999999995E-07 
    9.9999999999999995E-07 
    9.9999999999999995E-07 
    9.9999999999999995E-07 
    9.9999999999999995E-07 
    9.9999999999999995E-07 
    9.9999999999999995E-07 
    9.9999999999999995E-07 
    9.9999999999999995E-07 
    9.9999999999999995E-07 
    9.9999999999999995E-07 
    9.9999999999999995E-07 
    9.9999999999999995E-07 
    9.9999999999999995E-07 
    9.9999999999999995E-07 
    9.9999999999999995E-07 
    9.9999999999999995E-07 
    9.9999999999999995E-07 
    9.9999999999999995E-07 
    9.9999999999999995E-07 
    9.9999999999999995E-07 
    9.9999999999999995E-07 
    9.9999999999999995E-07 
    9.9999999999999995E-07 
    9.9999999999999995E-07 
    9.9999999999999995E-07 
    9.9999999999999995E-07 
    9.9999999999999995E-07 
    9.9999999999999995E-07 
    9.9999999999999995E-07 
    9.9999999999999995E-07 
    9.9999999999999995E-07 
    9.9999999999999995E-07 
    9.9999999999999995E-07 
    9.9999999999999995E-07 
    9.9999999999999995E-07 
    9.9999999999999995E-07 
    9.9999999999999995E-07 
    9.9999999999999995E-07 
    9.9999999999999995E-07 
    9.9999999999999995E-07 
    9.9999999999999995E-07 
    9.9999999999999995E-07 
    9.9999999999999995E-07 
    9.9999999999999995E-07 
    9.9999999999999995E-07 
    9.9999999999999995E-07 
    9.9999999999999995E-07 
    9.9999999999999995E-07 
    9.9999999999999995E-07 
    9.9999999999999995E-07 
    9.9999999999999995E-07 
    9.9999999999999995E-07 
    9.9999999999999995E-07 
    9.9999999999999995E-07 
    9.9999999999999995E-07 
    9.9999999999999995E-07 
    9.9999999999999995E-07 
    9.9999999999999995E-07 
    9.9999999999999995E-07 
    9.9999999999999995E-07 
    9.9999999999999995E-07 
    9.9999999999999995E-07 
    9.9999999999999995E-07 
    9.9999999999999995E-07 
    9.9999999999999995E-07 
    9.9999999999999995E-07 
    9.9999999999999995E-07 
    9.9999999999999995E-07 
    9.9999999999999995E-07 
    9.9999999999999995E-07 
    9.9999999999999995E-07 
    9.9999999999999995E-07 
    9.9999999999999995E-07 
    9.9999999999999995E-07 
    9.9999999999999995E-07 
    9.9999999999999995E-07 
    9.9999999999999995E-07 
    9.9999999999999995E-07 
    9.9999999999999995E-07 
    9.9999999999999995E-07 
    9.9999999999999995E-07 
    9.9999999999999995E-07 
    9.9999999999999995E-07 
    9.9999999999999995E-07 
    9.9999999999999995E-07 
    9.9999999999999995E-07 
    9.9999999999999995E-07 
    9.9999999999999995E-07 
    9.9999999999999995E-07 
    9.9999999999999995E-07 
    9.9999999999999995E-07 
    9.9999999999999995E-07 
    9.9999999999999995E-07 
    9.9999999999999995E-07 
    9.9999999999999995E-07 
    9.9999999999999995E-07 
    9.9999999999999995E-07 
    1.0000000287009185E-06 
