# vtk DataFile Version 2.0
Pressure Field Data 
ASCII 
DATASET UNSTRUCTURED_GRID 

POINTS 289 double 

    0.0000000000000000E+00     0.0000000000000000E+00     0.0000000000000000E+00 
    1.0000000000000000E+00     0.0000000000000000E+00     0.0000000000000000E+00 
    1.0000000000000000E+00     1.0000000000000000E+00     0.0000000000000000E+00 
    0.0000000000000000E+00     1.0000000000000000E+00     0.0000000000000000E+00 
    6.2499999999872928E-02     0.0000000000000000E+00     0.0000000000000000E+00 
    1.2499999999977310E-01     0.0000000000000000E+00     0.0000000000000000E+00 
    1.8749999999959341E-01     0.0000000000000000E+00     0.0000000000000000E+00 
    2.4999999999941089E-01     0.0000000000000000E+00     0.0000000000000000E+00 
    3.1249999999922851E-01     0.0000000000000000E+00     0.0000000000000000E+00 
    3.7499999999904610E-01     0.0000000000000000E+00     0.0000000000000000E+00 
    4.3749999999886358E-01     0.0000000000000000E+00     0.0000000000000000E+00 
    4.9999999999869210E-01     0.0000000000000000E+00     0.0000000000000000E+00 
    5.6249999999884603E-01     0.0000000000000000E+00     0.0000000000000000E+00 
    6.2499999999901090E-01     0.0000000000000000E+00     0.0000000000000000E+00 
    6.8749999999917577E-01     0.0000000000000000E+00     0.0000000000000000E+00 
    7.4999999999934064E-01     0.0000000000000000E+00     0.0000000000000000E+00 
    8.1249999999950551E-01     0.0000000000000000E+00     0.0000000000000000E+00 
    8.7499999999967026E-01     0.0000000000000000E+00     0.0000000000000000E+00 
    9.3749999999983513E-01     0.0000000000000000E+00     0.0000000000000000E+00 
    1.0000000000000000E+00     6.2499999999872928E-02     0.0000000000000000E+00 
    1.0000000000000000E+00     1.2499999999977310E-01     0.0000000000000000E+00 
    1.0000000000000000E+00     1.8749999999959341E-01     0.0000000000000000E+00 
    1.0000000000000000E+00     2.4999999999941089E-01     0.0000000000000000E+00 
    1.0000000000000000E+00     3.1249999999922851E-01     0.0000000000000000E+00 
    1.0000000000000000E+00     3.7499999999904610E-01     0.0000000000000000E+00 
    1.0000000000000000E+00     4.3749999999886358E-01     0.0000000000000000E+00 
    1.0000000000000000E+00     4.9999999999869210E-01     0.0000000000000000E+00 
    1.0000000000000000E+00     5.6249999999884603E-01     0.0000000000000000E+00 
    1.0000000000000000E+00     6.2499999999901090E-01     0.0000000000000000E+00 
    1.0000000000000000E+00     6.8749999999917577E-01     0.0000000000000000E+00 
    1.0000000000000000E+00     7.4999999999934064E-01     0.0000000000000000E+00 
    1.0000000000000000E+00     8.1249999999950551E-01     0.0000000000000000E+00 
    1.0000000000000000E+00     8.7499999999967026E-01     0.0000000000000000E+00 
    1.0000000000000000E+00     9.3749999999983513E-01     0.0000000000000000E+00 
    9.3749999999973976E-01     1.0000000000000000E+00     0.0000000000000000E+00 
    8.7499999999950118E-01     1.0000000000000000E+00     0.0000000000000000E+00 
    8.1249999999991318E-01     1.0000000000000000E+00     0.0000000000000000E+00 
    7.5000000000034706E-01     1.0000000000000000E+00     0.0000000000000000E+00 
    6.8750000000078049E-01     1.0000000000000000E+00     0.0000000000000000E+00 
    6.2500000000121403E-01     1.0000000000000000E+00     0.0000000000000000E+00 
    5.6250000000164757E-01     1.0000000000000000E+00     0.0000000000000000E+00 
    5.0000000000205946E-01     1.0000000000000000E+00     0.0000000000000000E+00 
    4.3750000000182099E-01     1.0000000000000000E+00     0.0000000000000000E+00 
    3.7500000000156092E-01     1.0000000000000000E+00     0.0000000000000000E+00 
    3.1250000000130068E-01     1.0000000000000000E+00     0.0000000000000000E+00 
    2.5000000000104050E-01     1.0000000000000000E+00     0.0000000000000000E+00 
    1.8750000000078040E-01     1.0000000000000000E+00     0.0000000000000000E+00 
    1.2500000000052031E-01     1.0000000000000000E+00     0.0000000000000000E+00 
    6.2500000000260125E-02     1.0000000000000000E+00     0.0000000000000000E+00 
    0.0000000000000000E+00     9.3749999999973976E-01     0.0000000000000000E+00 
    0.0000000000000000E+00     8.7499999999950118E-01     0.0000000000000000E+00 
    0.0000000000000000E+00     8.1249999999991318E-01     0.0000000000000000E+00 
    0.0000000000000000E+00     7.5000000000034706E-01     0.0000000000000000E+00 
    0.0000000000000000E+00     6.8750000000078049E-01     0.0000000000000000E+00 
    0.0000000000000000E+00     6.2500000000121403E-01     0.0000000000000000E+00 
    0.0000000000000000E+00     5.6250000000164757E-01     0.0000000000000000E+00 
    0.0000000000000000E+00     5.0000000000205946E-01     0.0000000000000000E+00 
    0.0000000000000000E+00     4.3750000000182099E-01     0.0000000000000000E+00 
    0.0000000000000000E+00     3.7500000000156092E-01     0.0000000000000000E+00 
    0.0000000000000000E+00     3.1250000000130068E-01     0.0000000000000000E+00 
    0.0000000000000000E+00     2.5000000000104050E-01     0.0000000000000000E+00 
    0.0000000000000000E+00     1.8750000000078040E-01     0.0000000000000000E+00 
    0.0000000000000000E+00     1.2500000000052031E-01     0.0000000000000000E+00 
    0.0000000000000000E+00     6.2500000000260125E-02     0.0000000000000000E+00 
    6.2499999999897131E-02     6.2500000000235922E-02     0.0000000000000000E+00 
    6.2499999999921327E-02     1.2500000000047351E-01     0.0000000000000000E+00 
    6.2499999999945530E-02     1.8750000000070621E-01     0.0000000000000000E+00 
    6.2499999999969733E-02     2.5000000000093858E-01     0.0000000000000000E+00 
    6.2499999999993928E-02     3.1250000000117117E-01     0.0000000000000000E+00 
    6.2500000000018124E-02     3.7500000000140382E-01     0.0000000000000000E+00 
    6.2500000000042327E-02     4.3750000000163619E-01     0.0000000000000000E+00 
    6.2500000000066530E-02     5.0000000000184897E-01     0.0000000000000000E+00 
    6.2500000000090733E-02     5.6250000000147260E-01     0.0000000000000000E+00 
    6.2500000000114922E-02     6.2500000000107636E-01     0.0000000000000000E+00 
    6.2500000000139125E-02     6.8750000000068034E-01     0.0000000000000000E+00 
    6.2500000000163328E-02     7.5000000000028411E-01     0.0000000000000000E+00 
    6.2500000000187531E-02     8.1249999999988787E-01     0.0000000000000000E+00 
    6.2500000000211720E-02     8.7499999999951172E-01     0.0000000000000000E+00 
    6.2500000000235922E-02     9.3749999999974565E-01     0.0000000000000000E+00 
    1.2499999999981980E-01     6.2500000000211733E-02     0.0000000000000000E+00 
    1.2499999999986650E-01     1.2500000000042691E-01     0.0000000000000000E+00 
    1.2499999999991319E-01     1.8750000000063199E-01     0.0000000000000000E+00 
    1.2499999999995989E-01     2.5000000000083678E-01     0.0000000000000000E+00 
    1.2500000000000661E-01     3.1250000000104172E-01     0.0000000000000000E+00 
    1.2500000000005329E-01     3.7500000000124661E-01     0.0000000000000000E+00 
    1.2500000000010000E-01     4.3750000000145117E-01     0.0000000000000000E+00 
    1.2500000000014669E-01     5.0000000000163858E-01     0.0000000000000000E+00 
    1.2500000000019340E-01     5.6250000000129741E-01     0.0000000000000000E+00 
    1.2500000000024011E-01     6.2500000000093847E-01     0.0000000000000000E+00 
    1.2500000000028680E-01     6.8750000000057998E-01     0.0000000000000000E+00 
    1.2500000000033351E-01     7.5000000000022127E-01     0.0000000000000000E+00 
    1.2500000000038020E-01     8.1249999999986211E-01     0.0000000000000000E+00 
    1.2500000000042691E-01     8.7499999999952238E-01     0.0000000000000000E+00 
    1.2500000000047359E-01     9.3749999999975164E-01     0.0000000000000000E+00 
    1.8749999999966760E-01     6.2500000000187531E-02     0.0000000000000000E+00 
    1.8749999999974179E-01     1.2500000000038020E-01     0.0000000000000000E+00 
    1.8749999999981601E-01     1.8750000000055780E-01     0.0000000000000000E+00 
    1.8749999999989009E-01     2.5000000000073502E-01     0.0000000000000000E+00 
    1.8749999999996431E-01     3.1250000000091221E-01     0.0000000000000000E+00 
    1.8750000000003850E-01     3.7500000000108941E-01     0.0000000000000000E+00 
    1.8750000000011269E-01     4.3750000000126649E-01     0.0000000000000000E+00 
    1.8750000000018691E-01     5.0000000000142808E-01     0.0000000000000000E+00 
    1.8750000000026110E-01     5.6250000000112244E-01     0.0000000000000000E+00 
    1.8750000000033529E-01     6.2500000000080080E-01     0.0000000000000000E+00 
    1.8750000000040951E-01     6.8750000000047962E-01     0.0000000000000000E+00 
    1.8750000000048361E-01     7.5000000000015843E-01     0.0000000000000000E+00 
    1.8750000000055780E-01     8.1249999999983680E-01     0.0000000000000000E+00 
    1.8750000000063199E-01     8.7499999999953304E-01     0.0000000000000000E+00 
    1.8750000000070621E-01     9.3749999999975764E-01     0.0000000000000000E+00 
    2.4999999999951281E-01     6.2500000000163314E-02     0.0000000000000000E+00 
    2.4999999999961461E-01     1.2500000000033351E-01     0.0000000000000000E+00 
    2.4999999999971650E-01     1.8750000000048361E-01     0.0000000000000000E+00 
    2.4999999999981831E-01     2.5000000000063310E-01     0.0000000000000000E+00 
    2.4999999999992020E-01     3.1250000000078260E-01     0.0000000000000000E+00 
    2.5000000000002198E-01     3.7500000000093209E-01     0.0000000000000000E+00 
    2.5000000000012390E-01     4.3750000000108180E-01     0.0000000000000000E+00 
    2.5000000000022571E-01     5.0000000000121769E-01     0.0000000000000000E+00 
    2.5000000000032763E-01     5.6250000000094724E-01     0.0000000000000000E+00 
    2.5000000000042938E-01     6.2500000000066314E-01     0.0000000000000000E+00 
    2.5000000000053119E-01     6.8750000000037925E-01     0.0000000000000000E+00 
[...]
CELL_DATA 256 
SCALARS Pressure double 1 
LOOKUP_TABLE default 

    2.5976197313233182E+00 
    2.4869265878682070E+00 
    2.4071899589036359E+00 
    2.3371147368015182E+00 
    2.2717627856190030E+00 
    2.2097945141826996E+00 
    2.1501205798601122E+00 
    2.0922625482881809E+00 
    2.0273495389239287E+00 
    1.9617316239306977E+00 
    1.9104073971658084E+00 
    1.8679560598337941E+00 
    1.8341074276098011E+00 
    1.8087447769067064E+00 
    1.7918348370630388E+00 
    1.7833826706349138E+00 
    2.4869457416627556E+00 
    2.4371848978128936E+00 
    2.3785487247249226E+00 
    2.3176161369380091E+00 
    2.2572024028685220E+00 
    2.1977914163095806E+00 
    2.1395388054644049E+00 
    2.0818923243858616E+00 
    2.0170294376404776E+00 
    1.9524252091267016E+00 
    1.9015635992541489E+00 
    1.8593688302847449E+00 
    1.8256353451782306E+00 
    1.8003053365394972E+00 
    1.7833912297682846E+00 
    1.7749333366989775E+00 
    2.4072368268963968E+00 
    2.3785754046370076E+00 
    2.3350671220210777E+00 
    2.2844878780014941E+00 
    2.2305770353830527E+00 
    2.1751261330245968E+00 
    2.1192796628297108E+00 
    2.0614227577894684E+00 
    1.9964077558300326E+00 
    1.9341476654213245E+00 
    1.8841065160853343E+00 
    1.8423498618590952E+00 
    1.8087910957417637E+00 
    1.7834828068036617E+00 
    1.7665290376598168E+00 
    1.7580378691320027E+00 
    2.3371881039525557E+00 
    2.3176669128504899E+00 
    2.2845134442887094E+00 
    2.2424629655566668E+00 
    2.1947238229098192E+00 
    2.1435382161641727E+00 
    2.0901916200307915E+00 
    2.0312434722927999E+00 
    1.9661982870435954E+00 
    1.9074136375027544E+00 
    1.8584200329445588E+00 
    1.8171597710825020E+00 
    1.7837255458592820E+00 
    1.7583387023846380E+00 
    1.7412460488276458E+00 
    1.7326602694272975E+00 
    2.2718497434189948E+00 
    2.2572701608350174E+00 
    2.2306228821440257E+00 
    2.1947414111090779E+00 
    2.1521126458451754E+00 
    2.1045552049836269E+00 
    2.0520468161098417E+00 
    1.9910864184091015E+00 
    1.9278710072473040E+00 
    1.8728724965163355E+00 
    1.8250441443453855E+00 
    1.7841652015546194E+00 
    1.7506390753700525E+00 
    1.7249349719607570E+00 
    1.7075039312545783E+00 
    1.6987083760541217E+00 
    2.2098675268569661E+00 
    2.1978672034076565E+00 
    2.1751730225838202E+00 
    2.1435463727678390E+00 
    2.1045585343761637E+00 
    2.0586494571220086E+00 
    2.0042520492050908E+00 
    1.9427371929976622E+00 
    1.8838972829904124E+00 
    1.8316848712457565E+00 
    1.7847408844294910E+00 
    1.7438338987244479E+00 
    1.7097528061962310E+00 
    1.6832900923073413E+00 
    1.6651737585968900E+00 
    1.6559757954024574E+00 
    2.1502307495791748E+00 
    2.1396681883646043E+00 
    2.1193628599331737E+00 
    2.0902270256810538E+00 
    2.0520909980339037E+00 
    2.0042929858391969E+00 
    1.9483378676612839E+00 
    1.8906250040089407E+00 
    1.8361894006739170E+00 
    1.7852857443121917E+00 
    1.7384149827424780E+00 
    1.6966874152835980E+00 
    1.6612653135469022E+00 
    1.6333207573510522E+00 
    1.6139514856085888E+00 
    1.6040365051663605E+00 
    2.0924206726898400E+00 
    2.0820063726684941E+00 
    2.0614570835001778E+00 
    2.0312817457957806E+00 
    1.9911735924678429E+00 
    1.9428107761837636E+00 
    1.8906527097483312E+00 
    1.8377922456006754E+00 
    1.7856369789049917E+00 
    1.7349082561188245E+00 
    1.6869780887956518E+00 
    1.6432753854093285E+00 
    1.6053392062786946E+00 
    1.5748151198612232E+00 
    1.5533156571500821E+00 
    1.5421871348174980E+00 
    2.0275040797821058E+00 
    2.0170987553485054E+00 
    1.9964326824346850E+00 
    1.9662811219492664E+00 
    1.9279887124656072E+00 
    1.8839910405478673E+00 
    1.8362440292470694E+00 
    1.7856629118812386E+00 
    1.7337072298291714E+00 
    1.6817707347691078E+00 
    1.6313510048030242E+00 
    1.5841126957639560E+00 
    1.5420126891328392E+00 
    1.5072981105706997E+00 
    1.4823311912158799E+00 
    1.4692123545595304E+00 
    1.9619176512855609E+00 
    1.9526049696502241E+00 
    1.9343377927913983E+00 
    1.9076097726729238E+00 
    1.8730411143436789E+00 
    1.8318137753421464E+00 
    1.7853789316788597E+00 
    1.7349697573389888E+00 
    1.6818021656184121E+00 
    1.6271717982511948E+00 
    1.5725629594835386E+00 
    1.5198115827439973E+00 
    1.4712967204879166E+00 
    1.4300325915027576E+00 
    1.3995086259940204E+00 
    1.3831240261858624E+00 
    1.9106306564902686E+00 
    1.9017824988004888E+00 
    1.8843221316850951E+00 
    1.8586264489209339E+00 
    1.8252283464874555E+00 
    1.7848953641277328E+00 
    1.7385383513016166E+00 
    1.6870712226315721E+00 
    1.6314140538987323E+00 
    1.5725951373698610E+00 
    1.5119195098561760E+00 
    1.4512534229522100E+00 
    1.3933125115377807E+00 
    1.3420086654871159E+00 
    1.3025255520662660E+00 
    1.2806370300399075E+00 
    1.8682071424240922E+00 
    1.8596142887402545E+00 
    1.8425870562208175E+00 
    1.8173835242873535E+00 
    1.7843684271828375E+00 
    1.7440113601141427E+00 
    1.6968365512833357E+00 
    1.6433962193913687E+00 
    1.5842040727799509E+00 
    1.5198721982423291E+00 
    1.4512822038316857E+00 
    1.3800033845894095E+00 
    1.3087352722409953E+00 
    1.2422105888092718E+00 
    1.1879949820021904E+00 
    1.1562866211612424E+00 
    1.8343793502334924E+00 
    1.8259010319799440E+00 
    1.8090466430943968E+00 
    1.7839662184387466E+00 
    1.7508599615556775E+00 
    1.7099499824053339E+00 
    1.6614363433118642E+00 
    1.6054832985978811E+00 
    1.5421280901040293E+00 
    1.4713819186263446E+00 
    1.3933663172553923E+00 
    1.3087604804484725E+00 
    1.2194357772361835E+00 
    1.1301217547799798E+00 
    1.0509836882647166E+00 
    1.0002402033677995E+00 
    1.8090301194693421E+00 
    1.8005843473240002E+00 
    1.7837511643782367E+00 
    1.7585920321135895E+00 
    1.7251693675205211E+00 
    1.6835023267589748E+00 
    1.6335082139965116E+00 
    1.5749764016304812E+00 
    1.5074313431603334E+00 
    1.4301363309301955E+00 
    1.3420817111415460E+00 
    1.2422554977779918E+00 
    1.1301417519112580E+00 
    1.0078682308721114E+00 
    8.8559866520478114E-01 
    7.9345901979260058E-01 
    1.7921250415488670E+00 
    1.7836753945118404E+00 
    1.7668027824155401E+00 
    1.7415052411025267E+00 
    1.7077450598811041E+00 
    1.6653939087872034E+00 
    1.6141476313923639E+00 
    1.5534860124482250E+00 
    1.4824740692177196E+00 
    1.3996228829094990E+00 
    1.3026100959665541E+00 
    1.1880521952338592E+00 
    1.0510167070919230E+00 
    8.8561216839508450E-01 
    6.9008135749664534E-01 
    4.9452755663702941E-01 
    1.7836677923674065E+00 
    1.7752131123874124E+00 
    1.7583078897911546E+00 
    1.7329164101513312E+00 
    1.6989470940960727E+00 
    1.6561942696280805E+00 
    1.6042314810128782E+00 
    1.5423566724360080E+00 
    1.4693549413686822E+00 
    1.3832387309471657E+00 
    1.2807234094434508E+00 
    1.1563469720106569E+00 
    1.0002776777297369E+00 
    7.9347815402879962E-01 
    4.9453396837756369E-01 
    0.0000000000000000E+00 

SCALARS Saturarion double 1 
LOOKUP_TABLE default 

    1.0000000513296170E+00 
    9.2702080904200945E-01 
    8.1818525286452581E-01 
    7.1687230776917865E-01 
    6.4002571076290826E-01 
    5.7811733776382479E-01 
    5.2109285839132624E-01 
    4.6887437486225053E-01 
    2.4977600153423796E-01 
    9.3444282403034763E-05 
    1.0000000036144422E-06 
    1.0000000000000006E-06 
    9.9999999999999995E-07 
    9.9999999999999995E-07 
    9.9999999999999995E-07 
    9.9999999999999995E-07 
    9.2701203820490663E-01 
    8.8069154492800561E-01 
    7.8720805597631072E-01 
    6.9892590147448563E-01 
    6.3018233570678950E-01 
    5.7050721774376101E-01 
    5.1674114333055321E-01 
    4.6279424450556522E-01 
    2.0900218446627794E-01 
    1.9991021010571446E-04 
    1.0239869371340171E-06 
    1.0000000014654265E-06 
    1.0000000000000002E-06 
    9.9999999999999995E-07 
    9.9999999999999995E-07 
    9.9999999999999995E-07 
    8.1817551548289325E-01 
    7.8719898388141307E-01 
    7.2567512438542980E-01 
    6.6595076849412982E-01 
    6.0767849429216791E-01 
    5.5273430047557504E-01 
    5.0318778119582619E-01 
    4.4610340297177725E-01 
    1.4105397363711453E-01 
    1.3922065713775237E-04 
    1.0061637824500882E-06 
    1.0000000007009612E-06 
    9.9999999999999995E-07 
    9.9999999999999995E-07 
    9.9999999999999995E-07 
    9.9999999999999995E-07 
    7.1686180463907778E-01 
    6.9889926286779147E-01 
    6.6592479952040129E-01 
    6.2211943690402738E-01 
    5.7425593730101587E-01 
    5.2806095072342973E-01 
    4.8213009120932293E-01 
    3.9158187291960228E-01 
    5.4181935690135845E-02 
    6.4998580403687625E-05 
    1.0004811228304698E-06 
    1.0000000000003877E-06 
    9.9999999999999995E-07 
    9.9999999999999995E-07 
    9.9999999999999995E-07 
    9.9999999999999995E-07 
    6.3998779932909688E-01 
    6.3013386972496011E-01 
    6.0765979155945482E-01 
    5.7410302441668004E-01 
    5.3570854856096706E-01 
    4.9566358439879937E-01 
    4.4939889334026578E-01 
    2.5407392910974613E-01 
    3.2686177837326145E-03 
    1.9019396158457571E-06 
    1.0000002262632192E-06 
    1.0000000000000112E-06 
    9.9999999999999995E-07 
    9.9999999999999995E-07 
    9.9999999999999995E-07 
    9.9999999999999995E-07 
    5.7794397584181367E-01 
    5.7032643340339728E-01 
    5.5243651321013965E-01 
    5.2764248163075267E-01 
    4.9551371558678542E-01 
    4.5659721311038393E-01 
    3.6790802799243838E-01 
    6.1311658408821725E-02 
    2.6445379920057057E-04 
    1.0175772144222084E-06 
    1.0000000100879519E-06 
    1.0000000000000036E-06 
    9.9999999999999995E-07 
    9.9999999999999995E-07 
    9.9999999999999995E-07 
    9.9999999999999995E-07 
    5.2191463077450906E-01 
    5.1701844285389242E-01 
    5.0342865896452649E-01 
    4.8368807845504425E-01 
    4.4993458129495817E-01 
    3.6783853338456735E-01 
    1.1531932738462874E-01 
    1.5221661434662514E-03 
    1.2708040153212934E-06 
    1.0000000805194466E-06 
    1.0000000000000491E-06 
    9.9999999999999995E-07 
    9.9999999999999995E-07 
    9.9999999999999995E-07 
    9.9999999999999995E-07 
    9.9999999999999995E-07 
    4.7043554011907657E-01 
    4.6200283912761198E-01 
    4.4471283479570295E-01 
    3.9382980818780522E-01 
    2.5538249463153184E-01 
    6.2199899045104930E-02 
    2.0604908493001457E-03 
    2.4400623395655237E-06 
    1.0000016434657577E-06 
    1.0000000000005918E-06 
    9.9999999999999995E-07 
    9.9999999999999995E-07 
    9.9999999999999995E-07 
    9.9999999999999995E-07 
    9.9999999999999995E-07 
    9.9999999999999995E-07 
    2.4800878799488021E-01 
    2.0653381191490450E-01 
    1.3183688739081631E-01 
    4.9609135676828883E-02 
    4.0796564961035429E-03 
    9.7802420573228979E-04 
    2.7022154256131096E-06 
    1.0000012310841177E-06 
    1.0000000000003608E-06 
    9.9999999999999995E-07 
    9.9999999999999995E-07 
    9.9999999999999995E-07 
    9.9999999999999995E-07 
    9.9999999999999995E-07 
    9.9999999999999995E-07 
    9.9999999999999995E-07 
    9.8378276900654301E-05 
    7.2975817649873655E-05 
    9.3261454114119382E-05 
    5.2015007519657845E-05 
    7.5419356559798943E-06 
    1.1679515060948212E-06 
    1.0000055090470812E-06 
    1.0000000000010628E-06 
    9.9999999999999995E-07 
    9.9999999999999995E-07 
    9.9999999999999995E-07 
    9.9999999999999995E-07 
    9.9999999999999995E-07 
    9.9999999999999995E-07 
    9.9999999999999995E-07 
    9.9999999999999995E-07 
    1.0000000057352799E-06 
    1.0028688914081205E-06 
    1.0027274593069354E-06 
    1.0002617110561080E-06 
    1.0000036214117532E-06 
    1.0000000048893968E-06 
    1.0000000000015958E-06 
    9.9999999999999995E-07 
    9.9999999999999995E-07 
    9.9999999999999995E-07 
    9.9999999999999995E-07 
    9.9999999999999995E-07 
    9.9999999999999995E-07 
    9.9999999999999995E-07 
    9.9999999999999995E-07 
    9.9999999999999995E-07 
    1.0000000000000002E-06 
    1.0000000008662790E-06 
    1.0000000001453273E-06 
    1.0000000000000135E-06 
    1.0000000000003242E-06 
    1.0000000000000002E-06 
    9.9999999999999995E-07 
    9.9999999999999995E-07 
    9.9999999999999995E-07 
    9.9999999999999995E-07 
    9.9999999999999995E-07 
    9.9999999999999995E-07 
    9.9999999999999995E-07 
    9.9999999999999995E-07 
    9.9999999999999995E-07 
    9.9999999999999995E-07 
    9.9999999999999995E-07 
    1.0000000000000002E-06 
    9.9999999999999995E-07 
    9.9999999999999995E-07 
    9.9999999999999995E-07 
    9.9999999999999995E-07 
    9.9999999999999995E-07 
    9.9999999999999995E-07 
    9.9999999999999995E-07 
    9.9999999999999995E-07 
    9.9999999999999995E-07 
    9.9999999999999995E-07 
    9.9999999999999995E-07 
    9.9999999999999995E-07 
    9.9999999999999995E-07 
    9.9999999999999995E-07 
    9.9999999999999995E-07 
    9.9999999999999995E-07 
    9.9999999999999995E-07 
    9.9999999999999995E-07 
    9.9999999999999995E-07 
    9.9999999999999995E-07 
    9.9999999999999995E-07 
    9.9999999999999995E-07 
    9.9999999999999995E-07 
    9.9999999999999995E-07 
    9.9999999999999995E-07 
    9.9999999999999995E-07 
    9.9999999999999995E-07 
    9.9999999999999995E-07 
    9.9999999999999995E-07 
    9.9999999999999995E-07 
    9.9999999999999995E-07 
    9.9999999999999995E-07 
    9.9999999999999995E-07 
    9.9999999999999995E-07 
    9.9999999999999995E-07 
    9.9999999999999995E-07 
    9.9999999999999995E-07 
    9.9999999999999995E-07 
    9.9999999999999995E-07 
    9.9999999999999995E-07 
    9.9999999999999995E-07 
    9.9999999999999995E-07 
    9.9999999999999995E-07 
    9.9999999999999995E-07 
    9.9999999999999995E-07 
    9.9999999999999995E-07 
    9.9999999999999995E-07 
    9.9999999999999995E-07 
    9.9999999999999995E-07 
    9.9999999999999995E-07 
    9.9999999999999995E-07 
    9.9999999999999995E-07 
    9.9999999999999995E-07 
    9.9999999999999995E-07 
    9.9999999999999995E-07 
    9.9999999999999995E-07 
    9.9999999999999995E-07 
    9.9999999999999995E-07 
    9.9999999999999995E-07 
    9.9999999999999995E-07 
    9.9999999999999995E-07 
    1.0000000734475065E-06 
