# vtk DataFile Version 2.0
Pressure Field Data 
ASCII 
DATASET UNSTRUCTURED_GRID 

POINTS 289 double 

    0.0000000000000000E+00     0.0000000000000000E+00     0.0000000000000000E+00 
    1.0000000000000000E+00     0.0000000000000000E+00     0.0000000000000000E+00 
    1.0000000000000000E+00     1.0000000000000000E+00     0.0000000000000000E+00 
    0.0000000000000000E+00     1.0000000000000000E+00     0.0000000000000000E+00 
    6.2499999999872928E-02     0.0000000000000000E+00     0.0000000000000000E+00 
    1.2499999999977310E-01     0.0000000000000000E+00     0.0000000000000000E+00 
    1.8749999999959341E-01     0.0000000000000000E+00     0.0000000000000000E+00 
    2.4999999999941089E-01     0.0000000000000000E+00     0.0000000000000000E+00 
    3.1249999999922851E-01     0.0000000000000000E+00     0.0000000000000000E+00 
    3.7499999999904610E-01     0.0000000000000000E+00     0.0000000000000000E+00 
    4.3749999999886358E-01     0.0000000000000000E+00     0.0000000000000000E+00 
    4.9999999999869210E-01     0.0000000000000000E+00     0.0000000000000000E+00 
    5.6249999999884603E-01     0.0000000000000000E+00     0.0000000000000000E+00 
    6.2499999999901090E-01     0.0000000000000000E+00     0.0000000000000000E+00 
    6.8749999999917577E-01     0.0000000000000000E+00     0.0000000000000000E+00 
    7.4999999999934064E-01     0.0000000000000000E+00     0.0000000000000000E+00 
    8.1249999999950551E-01     0.0000000000000000E+00     0.0000000000000000E+00 
    8.7499999999967026E-01     0.0000000000000000E+00     0.0000000000000000E+00 
    9.3749999999983513E-01     0.0000000000000000E+00     0.0000000000000000E+00 
    1.0000000000000000E+00     6.2499999999872928E-02     0.0000000000000000E+00 
    1.0000000000000000E+00     1.2499999999977310E-01     0.0000000000000000E+00 
    1.0000000000000000E+00     1.8749999999959341E-01     0.0000000000000000E+00 
    1.0000000000000000E+00     2.4999999999941089E-01     0.0000000000000000E+00 
    1.0000000000000000E+00     3.1249999999922851E-01     0.0000000000000000E+00 
    1.0000000000000000E+00     3.7499999999904610E-01     0.0000000000000000E+00 
    1.0000000000000000E+00     4.3749999999886358E-01     0.0000000000000000E+00 
    1.0000000000000000E+00     4.9999999999869210E-01     0.0000000000000000E+00 
    1.0000000000000000E+00     5.6249999999884603E-01     0.0000000000000000E+00 
    1.0000000000000000E+00     6.2499999999901090E-01     0.0000000000000000E+00 
    1.0000000000000000E+00     6.8749999999917577E-01     0.0000000000000000E+00 
    1.0000000000000000E+00     7.4999999999934064E-01     0.0000000000000000E+00 
    1.0000000000000000E+00     8.1249999999950551E-01     0.0000000000000000E+00 
    1.0000000000000000E+00     8.7499999999967026E-01     0.0000000000000000E+00 
    1.0000000000000000E+00     9.3749999999983513E-01     0.0000000000000000E+00 
    9.3749999999973976E-01     1.0000000000000000E+00     0.0000000000000000E+00 
    8.7499999999950118E-01     1.0000000000000000E+00     0.0000000000000000E+00 
    8.1249999999991318E-01     1.0000000000000000E+00     0.0000000000000000E+00 
    7.5000000000034706E-01     1.0000000000000000E+00     0.0000000000000000E+00 
    6.8750000000078049E-01     1.0000000000000000E+00     0.0000000000000000E+00 
    6.2500000000121403E-01     1.0000000000000000E+00     0.0000000000000000E+00 
    5.6250000000164757E-01     1.0000000000000000E+00     0.0000000000000000E+00 
    5.0000000000205946E-01     1.0000000000000000E+00     0.0000000000000000E+00 
    4.3750000000182099E-01     1.0000000000000000E+00     0.0000000000000000E+00 
    3.7500000000156092E-01     1.0000000000000000E+00     0.0000000000000000E+00 
    3.1250000000130068E-01     1.0000000000000000E+00     0.0000000000000000E+00 
    2.5000000000104050E-01     1.0000000000000000E+00     0.0000000000000000E+00 
    1.8750000000078040E-01     1.0000000000000000E+00     0.0000000000000000E+00 
    1.2500000000052031E-01     1.0000000000000000E+00     0.0000000000000000E+00 
    6.2500000000260125E-02     1.0000000000000000E+00     0.0000000000000000E+00 
    0.0000000000000000E+00     9.3749999999973976E-01     0.0000000000000000E+00 
    0.0000000000000000E+00     8.7499999999950118E-01     0.0000000000000000E+00 
    0.0000000000000000E+00     8.1249999999991318E-01     0.0000000000000000E+00 
    0.0000000000000000E+00     7.5000000000034706E-01     0.0000000000000000E+00 
    0.0000000000000000E+00     6.8750000000078049E-01     0.0000000000000000E+00 
    0.0000000000000000E+00     6.2500000000121403E-01     0.0000000000000000E+00 
    0.0000000000000000E+00     5.6250000000164757E-01     0.0000000000000000E+00 
    0.0000000000000000E+00     5.0000000000205946E-01     0.0000000000000000E+00 
    0.0000000000000000E+00     4.3750000000182099E-01     0.0000000000000000E+00 
    0.0000000000000000E+00     3.7500000000156092E-01     0.0000000000000000E+00 
    0.0000000000000000E+00     3.1250000000130068E-01     0.0000000000000000E+00 
    0.0000000000000000E+00     2.5000000000104050E-01     0.0000000000000000E+00 
    0.0000000000000000E+00     1.8750000000078040E-01     0.0000000000000000E+00 
    0.0000000000000000E+00     1.2500000000052031E-01     0.0000000000000000E+00 
    0.0000000000000000E+00     6.2500000000260125E-02     0.0000000000000000E+00 
    6.2499999999897131E-02     6.2500000000235922E-02     0.0000000000000000E+00 
    6.2499999999921327E-02     1.2500000000047351E-01     0.0000000000000000E+00 
    6.2499999999945530E-02     1.8750000000070621E-01     0.0000000000000000E+00 
    6.2499999999969733E-02     2.5000000000093858E-01     0.0000000000000000E+00 
    6.2499999999993928E-02     3.1250000000117117E-01     0.0000000000000000E+00 
    6.2500000000018124E-02     3.7500000000140382E-01     0.0000000000000000E+00 
    6.2500000000042327E-02     4.3750000000163619E-01     0.0000000000000000E+00 
    6.2500000000066530E-02     5.0000000000184897E-01     0.0000000000000000E+00 
    6.2500000000090733E-02     5.6250000000147260E-01     0.0000000000000000E+00 
    6.2500000000114922E-02     6.2500000000107636E-01     0.0000000000000000E+00 
    6.2500000000139125E-02     6.8750000000068034E-01     0.0000000000000000E+00 
    6.2500000000163328E-02     7.5000000000028411E-01     0.0000000000000000E+00 
    6.2500000000187531E-02     8.1249999999988787E-01     0.0000000000000000E+00 
    6.2500000000211720E-02     8.7499999999951172E-01     0.0000000000000000E+00 
    6.2500000000235922E-02     9.3749999999974565E-01     0.0000000000000000E+00 
    1.2499999999981980E-01     6.2500000000211733E-02     0.0000000000000000E+00 
    1.2499999999986650E-01     1.2500000000042691E-01     0.0000000000000000E+00 
    1.2499999999991319E-01     1.8750000000063199E-01     0.0000000000000000E+00 
    1.2499999999995989E-01     2.5000000000083678E-01     0.0000000000000000E+00 
    1.2500000000000661E-01     3.1250000000104172E-01     0.0000000000000000E+00 
    1.2500000000005329E-01     3.7500000000124661E-01     0.0000000000000000E+00 
    1.2500000000010000E-01     4.3750000000145117E-01     0.0000000000000000E+00 
    1.2500000000014669E-01     5.0000000000163858E-01     0.0000000000000000E+00 
    1.2500000000019340E-01     5.6250000000129741E-01     0.0000000000000000E+00 
    1.2500000000024011E-01     6.2500000000093847E-01     0.0000000000000000E+00 
    1.2500000000028680E-01     6.8750000000057998E-01     0.0000000000000000E+00 
    1.2500000000033351E-01     7.5000000000022127E-01     0.0000000000000000E+00 
    1.2500000000038020E-01     8.1249999999986211E-01     0.0000000000000000E+00 
    1.2500000000042691E-01     8.7499999999952238E-01     0.0000000000000000E+00 
    1.2500000000047359E-01     9.3749999999975164E-01     0.0000000000000000E+00 
    1.8749999999966760E-01     6.2500000000187531E-02     0.0000000000000000E+00 
    1.8749999999974179E-01     1.2500000000038020E-01     0.0000000000000000E+00 
    1.8749999999981601E-01     1.8750000000055780E-01     0.0000000000000000E+00 
    1.8749999999989009E-01     2.5000000000073502E-01     0.0000000000000000E+00 
    1.8749999999996431E-01     3.1250000000091221E-01     0.0000000000000000E+00 
    1.8750000000003850E-01     3.7500000000108941E-01     0.0000000000000000E+00 
    1.8750000000011269E-01     4.3750000000126649E-01     0.0000000000000000E+00 
    1.8750000000018691E-01     5.0000000000142808E-01     0.0000000000000000E+00 
    1.8750000000026110E-01     5.6250000000112244E-01     0.0000000000000000E+00 
    1.8750000000033529E-01     6.2500000000080080E-01     0.0000000000000000E+00 
    1.8750000000040951E-01     6.8750000000047962E-01     0.0000000000000000E+00 
    1.8750000000048361E-01     7.5000000000015843E-01     0.0000000000000000E+00 
    1.8750000000055780E-01     8.1249999999983680E-01     0.0000000000000000E+00 
    1.8750000000063199E-01     8.7499999999953304E-01     0.0000000000000000E+00 
    1.8750000000070621E-01     9.3749999999975764E-01     0.0000000000000000E+00 
    2.4999999999951281E-01     6.2500000000163314E-02     0.0000000000000000E+00 
    2.4999999999961461E-01     1.2500000000033351E-01     0.0000000000000000E+00 
    2.4999999999971650E-01     1.8750000000048361E-01     0.0000000000000000E+00 
    2.4999999999981831E-01     2.5000000000063310E-01     0.0000000000000000E+00 
    2.4999999999992020E-01     3.1250000000078260E-01     0.0000000000000000E+00 
    2.5000000000002198E-01     3.7500000000093209E-01     0.0000000000000000E+00 
    2.5000000000012390E-01     4.3750000000108180E-01     0.0000000000000000E+00 
    2.5000000000022571E-01     5.0000000000121769E-01     0.0000000000000000E+00 
    2.5000000000032763E-01     5.6250000000094724E-01     0.0000000000000000E+00 
    2.5000000000042938E-01     6.2500000000066314E-01     0.0000000000000000E+00 
    2.5000000000053119E-01     6.8750000000037925E-01     0.0000000000000000E+00 
[...]
CELL_DATA 256 
SCALARS Pressure double 1 
LOOKUP_TABLE default 

    2.2944247024260735E+00 
    2.1900297235903832E+00 
    2.1222284957845914E+00 
    2.0688860148327826E+00 
    2.0224667701523877E+00 
    1.9808315149461044E+00 
    1.9422325430402967E+00 
    1.9061791433464697E+00 
    1.8728041599158995E+00 
    1.8420974690208380E+00 
    1.8142596750697386E+00 
    1.7896061281163098E+00 
    1.7654009291649573E+00 
    1.7438208736681178E+00 
    1.7298407075529036E+00 
    1.7228209625517314E+00 
    2.1900478375105559E+00 
    2.1465936423237149E+00 
    2.0997555326487509E+00 
    2.0544105121586362E+00 
    2.0120377806481065E+00 
    1.9725738334745613E+00 
    1.9350532736656489E+00 
    1.8996623195079139E+00 
    1.8666193260453587E+00 
    1.8359810704898611E+00 
    1.8080961717345017E+00 
    1.7833161417345327E+00 
    1.7588847118022217E+00 
    1.7370551949935489E+00 
    1.7229089295940436E+00 
    1.7158038723241777E+00 
    2.1222789047787347E+00 
    2.0997873942089647E+00 
    2.0668645666745156E+00 
    2.0303099837584764E+00 
    1.9934732573171359E+00 
    1.9570567324517942E+00 
    1.9213311339242805E+00 
    1.8870316000245684E+00 
    1.8544538880089387E+00 
    1.8239013653798000E+00 
    1.7958639801787859E+00 
    1.7707675888470180E+00 
    1.7458445868827375E+00 
    1.7234898684646252E+00 
    1.7089882189484327E+00 
    1.7016942470758898E+00 
    2.0689816726477961E+00 
    2.0544834074391756E+00 
    2.0303482346527550E+00 
    2.0010549365239991E+00 
    1.9690923937301175E+00 
    1.9357114975329071E+00 
    1.9020099254452769E+00 
    1.8688551338866219E+00 
    1.8367090669072044E+00 
    1.8061053386899988E+00 
    1.7776800366987442E+00 
    1.7519847409275611E+00 
    1.7262294962219060E+00 
    1.7030135481465662E+00 
    1.6879153641464231E+00 
    1.6803006176479280E+00 
    2.0226022659465790E+00 
    2.0121440486032807E+00 
    1.9935456395339910E+00 
    1.9691289075031935E+00 
    1.9407826454868788E+00 
    1.9100427376543752E+00 
    1.8781446745306292E+00 
    1.8458846912608109E+00 
    1.8138964301289737E+00 
    1.7829151893399526E+00 
    1.7537458281216154E+00 
    1.7270428859130071E+00 
    1.6999832881507901E+00 
    1.6754447486636048E+00 
    1.6594174844523533E+00 
    1.6513045059043403E+00 
    1.9809862333703938E+00 
    1.9727072108696642E+00 
    1.9571620692009601E+00 
    1.9357841557329138E+00 
    1.9100806771239758E+00 
    1.8813877531113721E+00 
    1.8507272011951914E+00 
    1.8188437563869901E+00 
    1.7865445135797162E+00 
    1.7547203909866631E+00 
    1.7242843699555079E+00 
    1.6959914039678823E+00 
    1.6669726444761086E+00 
    1.6404773630702885E+00 
    1.6230658224747265E+00 
    1.6142106645394443E+00 
    1.9424146841451209E+00 
    1.9352191117018607E+00 
    1.9214708236482962E+00 
    1.9021164626416316E+00 
    1.8782147100638862E+00 
    1.8507605719242548E+00 
    1.8205774301322033E+00 
    1.7884339558085183E+00 
    1.7552449272181649E+00 
    1.7219291565153263E+00 
    1.6894847780901807E+00 
    1.6587916257936739E+00 
    1.6269318580568137E+00 
    1.5976308522085085E+00 
    1.5782027030530454E+00 
    1.5682533991084309E+00 
    1.9063883531897745E+00 
    1.8998553902824125E+00 
    1.8871993918818908E+00 
    1.8689923279590710E+00 
    1.8459883116975877E+00 
    1.8189115126686592E+00 
    1.7884666717662618E+00 
    1.7554329341670130E+00 
    1.7206522889174147E+00 
    1.6850188098016841E+00 
    1.6496143911037990E+00 
    1.6154806751579163E+00 
    1.5795888735112851E+00 
    1.5462849437985386E+00 
    1.5239126084551460E+00 
    1.5123521290593571E+00 
    1.8730319885816880E+00 
    1.8668327834804657E+00 
    1.8546467902361126E+00 
    1.8368754384909849E+00 
    1.8140277351504734E+00 
    1.7866341191093102E+00 
    1.7552995692938507E+00 
    1.7206776824208425E+00 
    1.6834654058232013E+00 
    1.6445238273632610E+00 
    1.6050400225966592E+00 
    1.5661464809559602E+00 
    1.5246019265211370E+00 
    1.4855275201457412E+00 
    1.4588236987317647E+00 
    1.4448942748983897E+00 
    1.8423397605795142E+00 
    1.8362145449699556E+00 
    1.8241234132524913E+00 
    1.8063069696508540E+00 
    1.7830779772652670E+00 
    1.7548318209250191E+00 
    1.7220047449206399E+00 
    1.6850721987676758E+00 
    1.6445546364048802E+00 
    1.6012524090898390E+00 
    1.5563458771674796E+00 
    1.5109730691251180E+00 
    1.4614314069941463E+00 
    1.4140097260411539E+00 
    1.3809719147106831E+00 
    1.3635122998238915E+00 
    1.8145374070992362E+00 
    1.8083729158334387E+00 
    1.7961390088176408E+00 
    1.7779410318855007E+00 
    1.7539696628083474E+00 
    1.7244573738078182E+00 
    1.6896182250240013E+00 
    1.6497182811182554E+00 
    1.6051034459474658E+00 
    1.5563604938308311E+00 
    1.5043921387885069E+00 
    1.4500613763639278E+00 
    1.3890482896334815E+00 
    1.3298366606632095E+00 
    1.2876026649003796E+00 
    1.2646589439382954E+00 
    1.7899387021854383E+00 
    1.7836510694601382E+00 
    1.7711015873789069E+00 
    1.7523023908109057E+00 
    1.7273272504999662E+00 
    1.6962322458507946E+00 
    1.6589826062049877E+00 
    1.6156209321552311E+00 
    1.5662221151540436E+00 
    1.5109644745784092E+00 
    1.4500067540709132E+00 
    1.3828007265118398E+00 
    1.3055127295992592E+00 
    1.2309304060550388E+00 
    1.1751420419323979E+00 
    1.1428910904612535E+00 
    1.7657688242179599E+00 
    1.7592456967921108E+00 
    1.7461870493113021E+00 
    1.7265365292147559E+00 
    1.7002453698802520E+00 
    1.6671815416876941E+00 
    1.6270722702998754E+00 
    1.5796738243693984E+00 
    1.5246426597455316E+00 
    1.4614197584751361E+00 
    1.3890252281197653E+00 
    1.3055654482580574E+00 
    1.2109505817377899E+00 
    1.1178857823480839E+00 
    1.0393299627870793E+00 
    9.8888723976165405E-01 
    1.7441877195845732E+00 
    1.7374064444984920E+00 
    1.7238114207049069E+00 
    1.7032924399303424E+00 
    1.6756744314478518E+00 
    1.6406500823203691E+00 
    1.5977365247565203E+00 
    1.5463442250622614E+00 
    1.4855648771640189E+00 
    1.4140443577177420E+00 
    1.3298961084219001E+00 
    1.2310543158110674E+00 
    1.1179841402061839E+00 
    9.9614699266347628E-01 
    8.7553625948235203E-01 
    7.8445056346262676E-01 
    1.7302016465961216E+00 
    1.7232553337807937E+00 
    1.7093081382826130E+00 
    1.6881988200345959E+00 
    1.6596585243634796E+00 
    1.6232601281656700E+00 
    1.5783469859507901E+00 
    1.5240177706847331E+00 
    1.4589034601185442E+00 
    1.3810423909528311E+00 
    1.2876690863125231E+00 
    1.1752198778317489E+00 
    1.0394017929068982E+00 
    8.7556291823102805E-01 
    6.8225000539892422E-01 
    4.8891598546399823E-01 
    1.7231695825909208E+00 
    1.7161394369930107E+00 
    1.7020056561280508E+00 
    1.6805786222189969E+00 
    1.6515428714865854E+00 
    1.6144061483399912E+00 
    1.5684053219509422E+00 
    1.5124681786158194E+00 
    1.4449854017147905E+00 
    1.3635904148458946E+00 
    1.2647299633077806E+00 
    1.1429599067315270E+00 
    9.8894468600319818E-01 
    7.8448218109741019E-01 
    4.8892657694808761E-01 
    0.0000000000000000E+00 

SCALARS Saturarion double 1 
LOOKUP_TABLE default 

    1.0000000021802364E+00 
    9.6665306691058894E-01 
    9.0987926122839158E-01 
    8.4822848014670948E-01 
    7.8765168085976145E-01 
    7.3078031173434943E-01 
    6.7968663569351073E-01 
    6.3442832423775197E-01 
    5.9185951991962393E-01 
    5.4936633630947140E-01 
    5.0809221593540699E-01 
    4.6286572992619235E-01 
    2.9514578181322659E-01 
    2.9825432676367893E-03 
    1.0093036249445250E-06 
    1.0000000002503117E-06 
    9.6665022500085307E-01 
    9.4292242502576207E-01 
    8.9254378164370873E-01 
    8.3491541167169236E-01 
    7.7801790669375948E-01 
    7.2416888815534819E-01 
    6.7527065523741991E-01 
    6.3152387107675412E-01 
    5.8994639710187025E-01 
    5.4831350997186035E-01 
    5.0759424043300783E-01 
    4.6272374788249859E-01 
    2.9323150875191389E-01 
    2.5808967257674210E-03 
    1.0037474196521950E-06 
    1.0000000000765940E-06 
    9.0986662573202104E-01 
    8.9253294417392370E-01 
    8.5197196256304963E-01 
    8.0466914137207335E-01 
    7.5600676677550294E-01 
    7.0845692753465994E-01 
    6.6438330798943424E-01 
    6.2394437710397854E-01 
    5.8445307200815100E-01 
    5.4461119966724580E-01 
    5.0561791214286622E-01 
    4.6129507648463125E-01 
    2.8910176548337574E-01 
    2.0803710927781308E-03 
    1.0186679416863641E-06 
    1.0000000003188124E-06 
    8.4820141446668695E-01 
    8.3489324047273172E-01 
    8.0465438617112517E-01 
    7.6667903003070126E-01 
    7.2777223279377945E-01 
    6.8846772138085721E-01 
    6.5016404209102496E-01 
    6.1310863316853481E-01 
    5.7624288915873356E-01 
    5.3917669160212345E-01 
    5.0251768658345608E-01 
    4.5928014428138630E-01 
    2.8491751221869627E-01 
    1.6638514724536071E-03 
    1.0118258732607995E-06 
    1.0000000001911198E-06 
    7.8762719235739131E-01 
    7.7800383409096807E-01 
    7.5599159548305639E-01 
    7.2775874614967373E-01 
    6.9725401940329135E-01 
    6.6584288495740251E-01 
    6.3301730179708560E-01 
    5.9975760038800141E-01 
    5.6638773801257469E-01 
    5.3267450532930161E-01 
    4.9885126601650465E-01 
    4.5783228500837758E-01 
    2.8658195301798811E-01 
    2.4970417839590515E-03 
    1.0245796846399727E-06 
    1.0000000009323950E-06 
    7.3080732561659223E-01 
    7.2417704415999939E-01 
    7.0844731786166004E-01 
    6.8844534966477133E-01 
    6.6582803177329619E-01 
    6.4023291722393816E-01 
    6.1240107447742442E-01 
    5.8389456014047880E-01 
    5.5497836123773991E-01 
    5.2478385516370407E-01 
    4.9340264758041302E-01 
    4.5490279140206025E-01 
    2.8618859439237709E-01 
    2.2797804617229345E-03 
    1.0121056984709638E-06 
    1.0000000018849415E-06 
    6.7971636846379002E-01 
    6.7527804539183667E-01 
    6.6436643282390073E-01 
    6.5013213840838380E-01 
    6.3299704358754327E-01 
    6.1238800413025596E-01 
    5.8969537477023348E-01 
    5.6617313635866473E-01 
    5.4173035252399293E-01 
    5.1558438163354225E-01 
    4.8726809281804850E-01 
    4.5122419039460115E-01 
    2.8574517125354781E-01 
    2.3560522665360007E-03 
    1.0031894681685192E-06 
    1.0000000004623379E-06 
    6.3444694875401908E-01 
    6.3152643501808270E-01 
    6.2392588629623824E-01 
    6.1309436236104875E-01 
    5.9975480190529074E-01 
    5.8385659400458911E-01 
    5.6610117242774083E-01 
    5.4703904558394190E-01 
    5.2685293885170159E-01 
    5.0481184332084916E-01 
    4.8089200152034661E-01 
    4.4793735025069920E-01 
    2.8968535516526933E-01 
    2.9464298283703736E-03 
    1.1115373680264224E-06 
    9.9999999771233443E-07 
    5.9182893505021150E-01 
    5.8988897833158938E-01 
    5.8435834855528912E-01 
    5.7616249107449224E-01 
    5.6628069258734648E-01 
    5.5476408037842317E-01 
    5.4146237078499482E-01 
    5.2661514747857929E-01 
    5.1050587401903091E-01 
    4.9281601344253934E-01 
    4.7330505235552883E-01 
    4.4404762593735986E-01 
    3.0204313505601676E-01 
    7.3893000688250486E-03 
    1.6993856467268714E-06 
    9.9999998268946099E-07 
    5.4940930132326293E-01 
    5.4831453762177895E-01 
    5.4465451881083171E-01 
    5.3920472215159854E-01 
    5.3266138414180042E-01 
    5.2486523029727794E-01 
    5.1571519430501611E-01 
    5.0482384760399612E-01 
    4.9270052444700857E-01 
    4.7959871421351746E-01 
    4.6484435144432690E-01 
    4.4002554328329163E-01 
    3.0915808784380527E-01 
    1.0265527270046544E-02 
    2.3537686852226210E-06 
    9.9999997779925222E-07 
    5.0873135583325202E-01 
    5.0825971194520758E-01 
    5.0617807608168519E-01 
    5.0271898397838399E-01 
    4.9888918425673145E-01 
    4.9404318054179652E-01 
    4.8864958607908038E-01 
    4.8169812420895830E-01 
    4.7339818043915344E-01 
    4.6448159793257954E-01 
    4.5465942660785946E-01 
    4.3269456985926719E-01 
    3.0424015022721934E-01 
    9.5445272470361525E-03 
    1.7303771145183962E-06 
    1.0000000025033440E-06 
    4.6381377382689132E-01 
    4.6351011694784544E-01 
    4.6165557223642101E-01 
    4.5902619876068973E-01 
    4.5723457811447532E-01 
    4.5434108202492596E-01 
    4.5131473315141513E-01 
    4.4849926192118306E-01 
    4.4449302400813984E-01 
    4.4004510627908289E-01 
    4.3270535990260939E-01 
    4.1443151855726673E-01 
    2.6379229142855415E-01 
    4.6212959556022511E-03 
    1.4698064534612805E-06 
    1.0000000999218812E-06 
    2.9570468588407606E-01 
    2.9247425766483354E-01 
    2.8725411576749965E-01 
    2.8152177944378998E-01 
    2.8275868400910503E-01 
    2.8031849500755357E-01 
    2.7880796642812544E-01 
    2.8570730039720338E-01 
    3.0057908882030221E-01 
    3.0924149105508691E-01 
    3.0734511433686740E-01 
    2.7304547849360561E-01 
    8.8055326697158917E-02 
    7.9773405857534361E-04 
    1.1778326750180901E-06 
    1.0000000136524622E-06 
    2.7977308974173501E-03 
    2.5734510089641229E-03 
    1.8228783694888523E-03 
    1.3657462996996867E-03 
    1.7443155116127057E-03 
    1.5381663684701486E-03 
    1.5158455975050318E-03 
    2.4461351647911984E-03 
    7.1359121114650649E-03 
    9.9919685576758902E-03 
    1.0946274180539147E-02 
    5.5855651878793551E-03 
    8.2057402435053626E-04 
    1.5682444502948333E-06 
    1.0000003990909083E-06 
    1.0000000000001179E-06 
    1.0598799025263223E-06 
    1.0557447165975207E-06 
    1.0066072164273950E-06 
    1.0010673281685101E-06 
    1.0007524866326354E-06 
    1.0011619335386489E-06 
    1.0252464675480354E-06 
    1.0017293912535897E-06 
    1.2318430973843642E-06 
    1.0805793519523190E-06 
    2.0933227376219129E-06 
    1.7896424924154173E-06 
    1.1679870018709094E-06 
    1.0000003613829788E-06 
    1.0000000000002583E-06 
    9.9999999999999995E-07 
    9.9999999986393046E-07 
    9.9999999998842440E-07 
    1.0000000000600103E-06 
    1.0000000000927979E-06 
    1.0000000000413070E-06 
    1.0000000000493964E-06 
    9.9999999986926423E-07 
    1.0000000000715141E-06 
    1.0000000060362399E-06 
    1.0000000162622099E-06 
    1.0000000941631740E-06 
    1.0000001596567038E-06 
    1.0000000016779028E-06 
    1.0000000000000762E-06 
    9.9999999999999995E-07 
    1.0000001994051762E-06 
