# vtk DataFile Version 2.0
Pressure Field Data 
ASCII 
DATASET UNSTRUCTURED_GRID 

POINTS 289 double 

    0.0000000000000000E+00     0.0000000000000000E+00     0.0000000000000000E+00 
    1.0000000000000000E+00     0.0000000000000000E+00     0.0000000000000000E+00 
    1.0000000000000000E+00     1.0000000000000000E+00     0.0000000000000000E+00 
    0.0000000000000000E+00     1.0000000000000000E+00     0.0000000000000000E+00 
    6.2499999999872928E-02     0.0000000000000000E+00     0.0000000000000000E+00 
    1.2499999999977310E-01     0.0000000000000000E+00     0.0000000000000000E+00 
    1.8749999999959341E-01     0.0000000000000000E+00     0.0000000000000000E+00 
    2.4999999999941089E-01     0.0000000000000000E+00     0.0000000000000000E+00 
    3.1249999999922851E-01     0.0000000000000000E+00     0.0000000000000000E+00 
    3.7499999999904610E-01     0.0000000000000000E+00     0.0000000000000000E+00 
    4.3749999999886358E-01     0.0000000000000000E+00     0.0000000000000000E+00 
    4.9999999999869210E-01     0.0000000000000000E+00     0.0000000000000000E+00 
    5.6249999999884603E-01     0.0000000000000000E+00     0.0000000000000000E+00 
    6.2499999999901090E-01     0.0000000000000000E+00     0.0000000000000000E+00 
    6.8749999999917577E-01     0.0000000000000000E+00     0.0000000000000000E+00 
    7.4999999999934064E-01     0.0000000000000000E+00     0.0000000000000000E+00 
    8.1249999999950551E-01     0.0000000000000000E+00     0.0000000000000000E+00 
    8.7499999999967026E-01     0.0000000000000000E+00     0.0000000000000000E+00 
    9.3749999999983513E-01     0.0000000000000000E+00     0.0000000000000000E+00 
    1.0000000000000000E+00     6.2499999999872928E-02     0.0000000000000000E+00 
    1.0000000000000000E+00     1.2499999999977310E-01     0.0000000000000000E+00 
    1.0000000000000000E+00     1.8749999999959341E-01     0.0000000000000000E+00 
    1.0000000000000000E+00     2.4999999999941089E-01     0.0000000000000000E+00 
    1.0000000000000000E+00     3.1249999999922851E-01     0.0000000000000000E+00 
    1.0000000000000000E+00     3.7499999999904610E-01     0.0000000000000000E+00 
    1.0000000000000000E+00     4.3749999999886358E-01     0.0000000000000000E+00 
    1.0000000000000000E+00     4.9999999999869210E-01     0.0000000000000000E+00 
    1.0000000000000000E+00     5.6249999999884603E-01     0.0000000000000000E+00 
    1.0000000000000000E+00     6.2499999999901090E-01     0.0000000000000000E+00 
    1.0000000000000000E+00     6.8749999999917577E-01     0.0000000000000000E+00 
    1.0000000000000000E+00     7.4999999999934064E-01     0.0000000000000000E+00 
    1.0000000000000000E+00     8.1249999999950551E-01     0.0000000000000000E+00 
    1.0000000000000000E+00     8.7499999999967026E-01     0.0000000000000000E+00 
    1.0000000000000000E+00     9.3749999999983513E-01     0.0000000000000000E+00 
    9.3749999999973976E-01     1.0000000000000000E+00     0.0000000000000000E+00 
    8.7499999999950118E-01     1.0000000000000000E+00     0.0000000000000000E+00 
    8.1249999999991318E-01     1.0000000000000000E+00     0.0000000000000000E+00 
    7.5000000000034706E-01     1.0000000000000000E+00     0.0000000000000000E+00 
    6.8750000000078049E-01     1.0000000000000000E+00     0.0000000000000000E+00 
    6.2500000000121403E-01     1.0000000000000000E+00     0.0000000000000000E+00 
    5.6250000000164757E-01     1.0000000000000000E+00     0.0000000000000000E+00 
    5.0000000000205946E-01     1.0000000000000000E+00     0.0000000000000000E+00 
    4.3750000000182099E-01     1.0000000000000000E+00     0.0000000000000000E+00 
    3.7500000000156092E-01     1.0000000000000000E+00     0.0000000000000000E+00 
    3.1250000000130068E-01     1.0000000000000000E+00     0.0000000000000000E+00 
    2.5000000000104050E-01     1.0000000000000000E+00     0.0000000000000000E+00 
    1.8750000000078040E-01     1.0000000000000000E+00     0.0000000000000000E+00 
    1.2500000000052031E-01     1.0000000000000000E+00     0.0000000000000000E+00 
    6.2500000000260125E-02     1.0000000000000000E+00     0.0000000000000000E+00 
    0.0000000000000000E+00     9.3749999999973976E-01     0.0000000000000000E+00 
    0.0000000000000000E+00     8.7499999999950118E-01     0.0000000000000000E+00 
    0.0000000000000000E+00     8.1249999999991318E-01     0.0000000000000000E+00 
    0.0000000000000000E+00     7.5000000000034706E-01     0.0000000000000000E+00 
    0.0000000000000000E+00     6.8750000000078049E-01     0.0000000000000000E+00 
    0.0000000000000000E+00     6.2500000000121403E-01     0.0000000000000000E+00 
    0.0000000000000000E+00     5.6250000000164757E-01     0.0000000000000000E+00 
    0.0000000000000000E+00     5.0000000000205946E-01     0.0000000000000000E+00 
    0.0000000000000000E+00     4.3750000000182099E-01     0.0000000000000000E+00 
    0.0000000000000000E+00     3.7500000000156092E-01     0.0000000000000000E+00 
    0.0000000000000000E+00     3.1250000000130068E-01     0.0000000000000000E+00 
    0.0000000000000000E+00     2.5000000000104050E-01     0.0000000000000000E+00 
    0.0000000000000000E+00     1.8750000000078040E-01     0.0000000000000000E+00 
    0.0000000000000000E+00     1.2500000000052031E-01     0.0000000000000000E+00 
    0.0000000000000000E+00     6.2500000000260125E-02     0.0000000000000000E+00 
    6.2499999999897131E-02     6.2500000000235922E-02     0.0000000000000000E+00 
    6.2499999999921327E-02     1.2500000000047351E-01     0.0000000000000000E+00 
    6.2499999999945530E-02     1.8750000000070621E-01     0.0000000000000000E+00 
    6.2499999999969733E-02     2.5000000000093858E-01     0.0000000000000000E+00 
    6.2499999999993928E-02     3.1250000000117117E-01     0.0000000000000000E+00 
    6.2500000000018124E-02     3.7500000000140382E-01     0.0000000000000000E+00 
    6.2500000000042327E-02     4.3750000000163619E-01     0.0000000000000000E+00 
    6.2500000000066530E-02     5.0000000000184897E-01     0.0000000000000000E+00 
    6.2500000000090733E-02     5.6250000000147260E-01     0.0000000000000000E+00 
    6.2500000000114922E-02     6.2500000000107636E-01     0.0000000000000000E+00 
    6.2500000000139125E-02     6.8750000000068034E-01     0.0000000000000000E+00 
    6.2500000000163328E-02     7.5000000000028411E-01     0.0000000000000000E+00 
    6.2500000000187531E-02     8.1249999999988787E-01     0.0000000000000000E+00 
    6.2500000000211720E-02     8.7499999999951172E-01     0.0000000000000000E+00 
    6.2500000000235922E-02     9.3749999999974565E-01     0.0000000000000000E+00 
    1.2499999999981980E-01     6.2500000000211733E-02     0.0000000000000000E+00 
    1.2499999999986650E-01     1.2500000000042691E-01     0.0000000000000000E+00 
    1.2499999999991319E-01     1.8750000000063199E-01     0.0000000000000000E+00 
    1.2499999999995989E-01     2.5000000000083678E-01     0.0000000000000000E+00 
    1.2500000000000661E-01     3.1250000000104172E-01     0.0000000000000000E+00 
    1.2500000000005329E-01     3.7500000000124661E-01     0.0000000000000000E+00 
    1.2500000000010000E-01     4.3750000000145117E-01     0.0000000000000000E+00 
    1.2500000000014669E-01     5.0000000000163858E-01     0.0000000000000000E+00 
    1.2500000000019340E-01     5.6250000000129741E-01     0.0000000000000000E+00 
    1.2500000000024011E-01     6.2500000000093847E-01     0.0000000000000000E+00 
    1.2500000000028680E-01     6.8750000000057998E-01     0.0000000000000000E+00 
    1.2500000000033351E-01     7.5000000000022127E-01     0.0000000000000000E+00 
    1.2500000000038020E-01     8.1249999999986211E-01     0.0000000000000000E+00 
    1.2500000000042691E-01     8.7499999999952238E-01     0.0000000000000000E+00 
    1.2500000000047359E-01     9.3749999999975164E-01     0.0000000000000000E+00 
    1.8749999999966760E-01     6.2500000000187531E-02     0.0000000000000000E+00 
    1.8749999999974179E-01     1.2500000000038020E-01     0.0000000000000000E+00 
    1.8749999999981601E-01     1.8750000000055780E-01     0.0000000000000000E+00 
    1.8749999999989009E-01     2.5000000000073502E-01     0.0000000000000000E+00 
    1.8749999999996431E-01     3.1250000000091221E-01     0.0000000000000000E+00 
    1.8750000000003850E-01     3.7500000000108941E-01     0.0000000000000000E+00 
    1.8750000000011269E-01     4.3750000000126649E-01     0.0000000000000000E+00 
    1.8750000000018691E-01     5.0000000000142808E-01     0.0000000000000000E+00 
    1.8750000000026110E-01     5.6250000000112244E-01     0.0000000000000000E+00 
    1.8750000000033529E-01     6.2500000000080080E-01     0.0000000000000000E+00 
    1.8750000000040951E-01     6.8750000000047962E-01     0.0000000000000000E+00 
    1.8750000000048361E-01     7.5000000000015843E-01     0.0000000000000000E+00 
    1.8750000000055780E-01     8.1249999999983680E-01     0.0000000000000000E+00 
    1.8750000000063199E-01     8.7499999999953304E-01     0.0000000000000000E+00 
    1.8750000000070621E-01     9.3749999999975764E-01     0.0000000000000000E+00 
    2.4999999999951281E-01     6.2500000000163314E-02     0.0000000000000000E+00 
    2.4999999999961461E-01     1.2500000000033351E-01     0.0000000000000000E+00 
    2.4999999999971650E-01     1.8750000000048361E-01     0.0000000000000000E+00 
    2.4999999999981831E-01     2.5000000000063310E-01     0.0000000000000000E+00 
    2.4999999999992020E-01     3.1250000000078260E-01     0.0000000000000000E+00 
    2.5000000000002198E-01     3.7500000000093209E-01     0.0000000000000000E+00 
    2.5000000000012390E-01     4.3750000000108180E-01     0.0000000000000000E+00 
    2.5000000000022571E-01     5.0000000000121769E-01     0.0000000000000000E+00 
    2.5000000000032763E-01     5.6250000000094724E-01     0.0000000000000000E+00 
    2.5000000000042938E-01     6.2500000000066314E-01     0.0000000000000000E+00 
    2.5000000000053119E-01     6.8750000000037925E-01     0.0000000000000000E+00 
[...]
CELL_DATA 256 
SCALARS Pressure double 1 
LOOKUP_TABLE default 

    2.5260623475920090E+00 
    2.4175586281862467E+00 
    2.3419947708552842E+00 
    2.2777800808965205E+00 
    2.2189267568875457E+00 
    2.1637359348878644E+00 
    2.1110930234407639E+00 
    2.0607260986858704E+00 
    2.0125285670669646E+00 
    1.9592875170303989E+00 
    1.9054601733953755E+00 
    1.8636705071977291E+00 
    1.8302854111571369E+00 
    1.8052303212723897E+00 
    1.7885068697161479E+00 
    1.7801422880463067E+00 
    2.4175767257238663E+00 
    2.3700157278400948E+00 
    2.3154503740829679E+00 
    2.2599261882478925E+00 
    2.2057167637679176E+00 
    2.1529729355949359E+00 
    2.1016881306538311E+00 
    2.0520987224464160E+00 
    2.0040631910123534E+00 
    1.9505688441277589E+00 
    1.8968728615837005E+00 
    1.8552853146011203E+00 
    1.8219681196105222E+00 
    1.7969110482454500E+00 
    1.7801617174680406E+00 
    1.7717807603840214E+00 
    2.3420418879698817E+00 
    2.3154783184459333E+00 
    2.2755601311654483E+00 
    2.2298235257245240E+00 
    2.1817284078728085E+00 
    2.1326573264996145E+00 
    2.0836039986719088E+00 
    2.0352272032983998E+00 
    1.9870626946024226E+00 
    1.9330503644638606E+00 
    1.8799463845505577E+00 
    1.8386653950342839E+00 
    1.8054194719649739E+00 
    1.7803143758412292E+00 
    1.7634835968836007E+00 
    1.7550497492767070E+00 
    2.2778586916312431E+00 
    2.2599815750423842E+00 
    2.2298509593222180E+00 
    2.1921018251852464E+00 
    2.1496589211987986E+00 
    2.1044755194051019E+00 
    2.0579054958466760E+00 
    2.0108757851645089E+00 
    1.9618135119192330E+00 
    1.9068774062533764E+00 
    1.8550897354345786E+00 
    1.8140426957425191E+00 
    1.7807565372249132E+00 
    1.7554737030201548E+00 
    1.7384478962132199E+00 
    1.7298939646634135E+00 
    2.2190246838026857E+00 
    2.2057908000400936E+00 
    2.1817816639353045E+00 
    2.1496895052180980E+00 
    2.1118622948793369E+00 
    2.0700982622498687E+00 
    2.0257471602342827E+00 
    1.9796767095714247E+00 
    1.9286424739754631E+00 
    1.8726443232209815E+00 
    1.8227081293590743E+00 
    1.7816818013852767E+00 
    1.7481140840502298E+00 
    1.7224078753437722E+00 
    1.7049854000126330E+00 
    1.6961957017156015E+00 
    2.1638398823404583E+00 
    2.1530663503346026E+00 
    2.1327369940863421E+00 
    2.1045317065540248E+00 
    2.0701240937705800E+00 
    2.0309248261046302E+00 
    1.9880580594170190E+00 
    1.9412049692845579E+00 
    1.8870178729761766E+00 
    1.8312171611128512E+00 
    1.7831315695215260E+00 
    1.7418777078711800E+00 
    1.7076300664942448E+00 
    1.6810879290344487E+00 
    1.6629351503559004E+00 
    1.6537224446868271E+00 
    2.1112013450143303E+00 
    2.1018017238937414E+00 
    2.0837169923396979E+00 
    2.0579917438427291E+00 
    2.0258006750539614E+00 
    1.9881036361376370E+00 
    1.9450111886568109E+00 
    1.8947756521519934E+00 
    1.8383182170041477E+00 
    1.7845242579045006E+00 
    1.7371367359669661E+00 
    1.6950764394645064E+00 
    1.6594559271581686E+00 
    1.6313990456215877E+00 
    1.6119701857212658E+00 
    1.6020289374317349E+00 
    2.0608910525798869E+00 
    2.0522804180335936E+00 
    2.0354267740229388E+00 
    2.0110360848490019E+00 
    1.9797754353474997E+00 
    1.9413083666682271E+00 
    1.8948338264980862E+00 
    1.8412754751969034E+00 
    1.7861450022704861E+00 
    1.7341918769297369E+00 
    1.6858542386988662E+00 
    1.6418723174971324E+00 
    1.6037542878894535E+00 
    1.5731185295060559E+00 
    1.5515561194754528E+00 
    1.5403990444399074E+00 
    2.0127652666838980E+00 
    2.0042877615552959E+00 
    1.9872579649594564E+00 
    1.9619303880063179E+00 
    1.9287045311226205E+00 
    1.8871046953032833E+00 
    1.8383330959496660E+00 
    1.7861042560251350E+00 
    1.7331614450876984E+00 
    1.6809237089180222E+00 
    1.6302525434942499E+00 
    1.5828189600270062E+00 
    1.5405811066385560E+00 
    1.5057770148888334E+00 
    1.4807579233651866E+00 
    1.4676152444645822E+00 
    1.9595089402358363E+00 
    1.9507457801203534E+00 
    1.9331488319382881E+00 
    1.9069027842073782E+00 
    1.8726692770181321E+00 
    1.8312713760797610E+00 
    1.7845346048259469E+00 
    1.7341756434386930E+00 
    1.6809270645607362E+00 
    1.6261731555827208E+00 
    1.5714333676393424E+00 
    1.5185693631087080E+00 
    1.4699701600415063E+00 
    1.4286497527708035E+00 
    1.3980929805689211E+00 
    1.3816937802884275E+00 
    1.9056602684518529E+00 
    1.8970504211392700E+00 
    1.8800910470633363E+00 
    1.8552003680553537E+00 
    1.8227964386801336E+00 
    1.7832052983707829E+00 
    1.7371862704085674E+00 
    1.6858869536017416E+00 
    1.6302806733377744E+00 
    1.5714514122630792E+00 
    1.5107402004051793E+00 
    1.4500350441926946E+00 
    1.3920638436466684E+00 
    1.3407419768551665E+00 
    1.3012510830382884E+00 
    1.2793601302215099E+00 
    1.8638808688306241E+00 
    1.8554812488156360E+00 
    1.8388385483900707E+00 
    1.8141898711231850E+00 
    1.7818063963103261E+00 
    1.7419826884641960E+00 
    1.6951608129289404E+00 
    1.6419402393365992E+00 
    1.5828735401241889E+00 
    1.5186084791128780E+00 
    1.4500545926661950E+00 
    1.3787975689247733E+00 
    1.3075493710136383E+00 
    1.2410467334266995E+00 
    1.1868530743829191E+00 
    1.1551589815482035E+00 
    1.8305054888651793E+00 
    1.8221774468580705E+00 
    1.8056118018108227E+00 
    1.7809284781172876E+00 
    1.7482655047704909E+00 
    1.7077616922479502E+00 
    1.6595680690846408E+00 
    1.6038491576366620E+00 
    1.5406590499827355E+00 
    1.4700297604942238E+00 
    1.3921025063096575E+00 
    1.3075680441977784E+00 
    1.2183092062473906E+00 
    1.1290594189625698E+00 
    1.0499800831390964E+00 
    9.9927554671473318E-01 
    1.8054576484841052E+00 
    1.7971299888295138E+00 
    1.7805197575666725E+00 
    1.7556621206608405E+00 
    1.7225779902706928E+00 
    1.6812393550406746E+00 
    1.6315314332697730E+00 
    1.5732327360952922E+00 
    1.5058725879001686E+00 
    1.4287256299493172E+00 
    1.3407962580136679E+00 
    1.2410807724766100E+00 
    1.1290748243090589E+00 
    1.0069117951470856E+00 
    8.8475182432407951E-01 
    7.9269610687144965E-01 
    1.7887360928023701E+00 
    1.7803841633894699E+00 
    1.7636947088684658E+00 
    1.7386443426818021E+00 
    1.7051653136139400E+00 
    1.6630975207745640E+00 
    1.6121137309121136E+00 
    1.5516808140950920E+00 
    1.4808632556912269E+00 
    1.3981783335909455E+00 
    1.3013149260164538E+00 
    1.1868968886272120E+00 
    1.0500056793188526E+00 
    8.8476238878465852E-01 
    6.8941766639590207E-01 
    4.9405122465530610E-01 
    1.7803659390751645E+00 
    1.7719988479580280E+00 
    1.7552579214203847E+00 
    1.7300888222971837E+00 
    1.6963749965837751E+00 
    1.6538848689457499E+00 
    1.6021728103196571E+00 
    1.5405239256161991E+00 
    1.4677206946504577E+00 
    1.3817794601744493E+00 
    1.2794251687741987E+00 
    1.1552048981068830E+00 
    9.9930432446083917E-01 
    7.9271090566820523E-01 
    4.9405619887486485E-01 
    0.0000000000000000E+00 

SCALARS Saturarion double 1 
LOOKUP_TABLE default 

    1.0000000276998027E+00 
    9.4039754079695792E-01 
    8.4885762775837215E-01 
    7.5896391104284677E-01 
    6.8189605329635994E-01 
    6.2148555165120534E-01 
    5.6705998759272358E-01 
    5.1675129187894364E-01 
    4.6923371421406351E-01 
    2.9649779135011622E-01 
    2.5931750567416128E-03 
    1.0000030533210707E-06 
    9.9999999999241202E-07 
    9.9999999999999995E-07 
    9.9999999999999995E-07 
    9.9999999999999995E-07 
    9.4039092928606172E-01 
    9.0206982707935490E-01 
    8.2215632173198183E-01 
    7.4126903730529825E-01 
    6.7127912151611502E-01 
    6.1470176623054362E-01 
    5.6181647072819918E-01 
    5.1363565250975252E-01 
    4.6518286363283351E-01 
    2.6728271919655178E-01 
    7.5089337481744399E-04 
    1.0080509648552679E-06 
    1.0000000026571218E-06 
    9.9999999999999932E-07 
    9.9999999999999995E-07 
    9.9999999999999995E-07 
    8.4884454491131645E-01 
    8.2214535139401645E-01 
    7.6452301105109988E-01 
    7.0568274213252047E-01 
    6.5000673543308429E-01 
    5.9830411162275199E-01 
    5.4916955610732832E-01 
    5.0462279300916058E-01 
    4.5501063186970575E-01 
    2.2175416316679972E-01 
    1.3946303197178342E-04 
    1.0108709930889313E-06 
    1.0000000031351065E-06 
    1.0000000000000004E-06 
    9.9999999999999995E-07 
    9.9999999999999995E-07 
    7.5895583063931382E-01 
    7.4125850516643177E-01 
    7.0566227539539383E-01 
    6.6491819011907261E-01 
    6.2036174771062669E-01 
    5.7502252774730866E-01 
    5.3170616022701001E-01 
    4.8994562690875249E-01 
    4.3648196535950451E-01 
    1.3567658232578442E-01 
    1.2576259295980644E-04 
    1.0048262104450630E-06 
    1.0000000000295760E-06 
    1.0000000000000002E-06 
    9.9999999999999995E-07 
    9.9999999999999995E-07 
    6.8187505104480561E-01 
    6.7124911671664433E-01 
    6.4996598587343934E-01 
    6.2035237563616574E-01 
    5.8365892884172399E-01 
    5.4672659970612936E-01 
    5.0929561849232541E-01 
    4.7154863756300758E-01 
    3.8624074651426493E-01 
    5.1272224706673614E-02 
    5.8282077251210998E-05 
    1.0003193785934994E-06 
    1.0000000000000042E-06 
    9.9999999999999995E-07 
    9.9999999999999995E-07 
    9.9999999999999995E-07 
    6.2147165184709396E-01 
    6.1466398553519619E-01 
    5.9829994522031926E-01 
    5.7489755516506358E-01 
    5.4643051510707530E-01 
    5.1530881814787011E-01 
    4.8221346304885998E-01 
    4.4227129844567536E-01 
    2.5330286387998213E-01 
    2.6642177080994597E-03 
    1.2256573896229365E-06 
    1.0000000573148790E-06 
    1.0000000000000023E-06 
    9.9999999999999995E-07 
    9.9999999999999995E-07 
    9.9999999999999995E-07 
    5.6692633365711487E-01 
    5.6172685127193378E-01 
    5.4908578671074670E-01 
    5.3162938460705733E-01 
    5.0934863103638339E-01 
    4.8221589742407417E-01 
    4.4983905301363108E-01 
    3.7212202597320754E-01 
    6.6720864578968142E-02 
    1.8254327455326070E-04 
    1.0035351591680229E-06 
    1.0000000000020460E-06 
    9.9999999999999995E-07 
    9.9999999999999995E-07 
    9.9999999999999995E-07 
    9.9999999999999995E-07 
    5.1770802433427987E-01 
    5.1451696437097594E-01 
    5.0487660204853824E-01 
    4.9055580693132161E-01 
    4.7227446418934577E-01 
    4.4172137372710074E-01 
    3.6988128297796130E-01 
    1.2545638565439263E-01 
    1.6971589649877764E-03 
    2.3220585161903567E-06 
    1.0000015863092102E-06 
    1.0000000000034203E-06 
    9.9999999999999995E-07 
    9.9999999999999995E-07 
    9.9999999999999995E-07 
    9.9999999999999995E-07 
    4.7040440395983563E-01 
    4.6534930603080360E-01 
    4.5374001954262072E-01 
    4.3289882942488256E-01 
    3.8625948360951484E-01 
    2.5904743817794240E-01 
    6.9980775479135240E-02 
    1.7326880511052320E-03 
    2.4770118987386563E-06 
    1.0000010695301112E-06 
    1.0000000000004677E-06 
    9.9999999999999995E-07 
    9.9999999999999995E-07 
    9.9999999999999995E-07 
    9.9999999999999995E-07 
    9.9999999999999995E-07 
    2.9631836894590746E-01 
    2.6526000044133513E-01 
    2.1024937923632511E-01 
    1.3179410222164642E-01 
    5.1338088843960475E-02 
    3.2345070255352412E-03 
    3.3567657715792863E-04 
    1.8635617222938773E-06 
    1.0000011834122871E-06 
    1.0000000000006052E-06 
    9.9999999999999995E-07 
    9.9999999999999995E-07 
    9.9999999999999995E-07 
    9.9999999999999995E-07 
    9.9999999999999995E-07 
    9.9999999999999995E-07 
    1.5283552131025559E-03 
    4.5906341921600767E-04 
    8.2436833779419186E-05 
    9.8901578062204624E-05 
    5.3552811181766918E-05 
    1.5880758412263715E-06 
    1.0058918507894316E-06 
    1.0000014856357877E-06 
    1.0000000000005262E-06 
    9.9999999999999995E-07 
    9.9999999999999995E-07 
    9.9999999999999995E-07 
    9.9999999999999995E-07 
    9.9999999999999995E-07 
    9.9999999999999995E-07 
    9.9999999999999995E-07 
    1.0000000159362263E-06 
    1.0104544535301352E-06 
    1.0017466022446237E-06 
    1.0025950069268044E-06 
    1.0002776440349632E-06 
    1.0000002157589428E-06 
    1.0000000031208092E-06 
    1.0000000000004652E-06 
    9.9999999999999995E-07 
    9.9999999999999995E-07 
    9.9999999999999995E-07 
    9.9999999999999995E-07 
    9.9999999999999995E-07 
    9.9999999999999995E-07 
    9.9999999999999995E-07 
    9.9999999999999995E-07 
    1.0000000000000029E-06 
    1.0000000011295794E-06 
    1.0000000004093475E-06 
    1.0000000002748628E-06 
    1.0000000000000055E-06 
    1.0000000000000133E-06 
    9.9999999999999995E-07 
    9.9999999999999995E-07 
    9.9999999999999995E-07 
    9.9999999999999995E-07 
    9.9999999999999995E-07 
    9.9999999999999995E-07 
    9.9999999999999995E-07 
    9.9999999999999995E-07 
    9.9999999999999995E-07 
    9.9999999999999995E-07 
    9.9999999999999995E-07 
    9.9999999999999995E-07 
    9.9999999999999995E-07 
    9.9999999999999974E-07 
    9.9999999999999995E-07 
    9.9999999999999995E-07 
    9.9999999999999995E-07 
    9.9999999999999995E-07 
    9.9999999999999995E-07 
    9.9999999999999995E-07 
    9.9999999999999995E-07 
    9.9999999999999995E-07 
    9.9999999999999995E-07 
    9.9999999999999995E-07 
    9.9999999999999995E-07 
    9.9999999999999995E-07 
    9.9999999999999995E-07 
    9.9999999999999995E-07 
    9.9999999999999995E-07 
    9.9999999999999995E-07 
    9.9999999999999995E-07 
    9.9999999999999995E-07 
    9.9999999999999995E-07 
    9.9999999999999995E-07 
    9.9999999999999995E-07 
    9.9999999999999995E-07 
    9.9999999999999995E-07 
    9.9999999999999995E-07 
    9.9999999999999995E-07 
    9.9999999999999995E-07 
    9.9999999999999995E-07 
    9.9999999999999995E-07 
    9.9999999999999995E-07 
    9.9999999999999995E-07 
    9.9999999999999995E-07 
    9.9999999999999995E-07 
    9.9999999999999995E-07 
    9.9999999999999995E-07 
    9.9999999999999995E-07 
    9.9999999999999995E-07 
    9.9999999999999995E-07 
    9.9999999999999995E-07 
    9.9999999999999995E-07 
    9.9999999999999995E-07 
    9.9999999999999995E-07 
    9.9999999999999995E-07 
    9.9999999999999995E-07 
    1.0000000966589174E-06 
