# vtk DataFile Version 2.0
Pressure Field Data 
ASCII 
DATASET UNSTRUCTURED_GRID 

POINTS 289 double 

    0.0000000000000000E+00     0.0000000000000000E+00     0.0000000000000000E+00 
    1.0000000000000000E+00     0.0000000000000000E+00     0.0000000000000000E+00 
    1.0000000000000000E+00     1.0000000000000000E+00     0.0000000000000000E+00 
    0.0000000000000000E+00     1.0000000000000000E+00     0.0000000000000000E+00 
    6.2499999999872928E-02     0.0000000000000000E+00     0.0000000000000000E+00 
    1.2499999999977310E-01     0.0000000000000000E+00     0.0000000000000000E+00 
    1.8749999999959341E-01     0.0000000000000000E+00     0.0000000000000000E+00 
    2.4999999999941089E-01     0.0000000000000000E+00     0.0000000000000000E+00 
    3.1249999999922851E-01     0.0000000000000000E+00     0.0000000000000000E+00 
    3.7499999999904610E-01     0.0000000000000000E+00     0.0000000000000000E+00 
    4.3749999999886358E-01     0.0000000000000000E+00     0.0000000000000000E+00 
    4.9999999999869210E-01     0.0000000000000000E+00     0.0000000000000000E+00 
    5.6249999999884603E-01     0.0000000000000000E+00     0.0000000000000000E+00 
    6.2499999999901090E-01     0.0000000000000000E+00     0.0000000000000000E+00 
    6.8749999999917577E-01     0.0000000000000000E+00     0.0000000000000000E+00 
    7.4999999999934064E-01     0.0000000000000000E+00     0.0000000000000000E+00 
    8.1249999999950551E-01     0.0000000000000000E+00     0.0000000000000000E+00 
    8.7499999999967026E-01     0.0000000000000000E+00     0.0000000000000000E+00 
    9.3749999999983513E-01     0.0000000000000000E+00     0.0000000000000000E+00 
    1.0000000000000000E+00     6.2499999999872928E-02     0.0000000000000000E+00 
    1.0000000000000000E+00     1.2499999999977310E-01     0.0000000000000000E+00 
    1.0000000000000000E+00     1.8749999999959341E-01     0.0000000000000000E+00 
    1.0000000000000000E+00     2.4999999999941089E-01     0.0000000000000000E+00 
    1.0000000000000000E+00     3.1249999999922851E-01     0.0000000000000000E+00 
    1.0000000000000000E+00     3.7499999999904610E-01     0.0000000000000000E+00 
    1.0000000000000000E+00     4.3749999999886358E-01     0.0000000000000000E+00 
    1.0000000000000000E+00     4.9999999999869210E-01     0.0000000000000000E+00 
    1.0000000000000000E+00     5.6249999999884603E-01     0.0000000000000000E+00 
    1.0000000000000000E+00     6.2499999999901090E-01     0.0000000000000000E+00 
    1.0000000000000000E+00     6.8749999999917577E-01     0.0000000000000000E+00 
    1.0000000000000000E+00     7.4999999999934064E-01     0.0000000000000000E+00 
    1.0000000000000000E+00     8.1249999999950551E-01     0.0000000000000000E+00 
    1.0000000000000000E+00     8.7499999999967026E-01     0.0000000000000000E+00 
    1.0000000000000000E+00     9.3749999999983513E-01     0.0000000000000000E+00 
    9.3749999999973976E-01     1.0000000000000000E+00     0.0000000000000000E+00 
    8.7499999999950118E-01     1.0000000000000000E+00     0.0000000000000000E+00 
    8.1249999999991318E-01     1.0000000000000000E+00     0.0000000000000000E+00 
    7.5000000000034706E-01     1.0000000000000000E+00     0.0000000000000000E+00 
    6.8750000000078049E-01     1.0000000000000000E+00     0.0000000000000000E+00 
    6.2500000000121403E-01     1.0000000000000000E+00     0.0000000000000000E+00 
    5.6250000000164757E-01     1.0000000000000000E+00     0.0000000000000000E+00 
    5.0000000000205946E-01     1.0000000000000000E+00     0.0000000000000000E+00 
    4.3750000000182099E-01     1.0000000000000000E+00     0.0000000000000000E+00 
    3.7500000000156092E-01     1.0000000000000000E+00     0.0000000000000000E+00 
    3.1250000000130068E-01     1.0000000000000000E+00     0.0000000000000000E+00 
    2.5000000000104050E-01     1.0000000000000000E+00     0.0000000000000000E+00 
    1.8750000000078040E-01     1.0000000000000000E+00     0.0000000000000000E+00 
    1.2500000000052031E-01     1.0000000000000000E+00     0.0000000000000000E+00 
    6.2500000000260125E-02     1.0000000000000000E+00     0.0000000000000000E+00 
    0.0000000000000000E+00     9.3749999999973976E-01     0.0000000000000000E+00 
    0.0000000000000000E+00     8.7499999999950118E-01     0.0000000000000000E+00 
    0.0000000000000000E+00     8.1249999999991318E-01     0.0000000000000000E+00 
    0.0000000000000000E+00     7.5000000000034706E-01     0.0000000000000000E+00 
    0.0000000000000000E+00     6.8750000000078049E-01     0.0000000000000000E+00 
    0.0000000000000000E+00     6.2500000000121403E-01     0.0000000000000000E+00 
    0.0000000000000000E+00     5.6250000000164757E-01     0.0000000000000000E+00 
    0.0000000000000000E+00     5.0000000000205946E-01     0.0000000000000000E+00 
    0.0000000000000000E+00     4.3750000000182099E-01     0.0000000000000000E+00 
    0.0000000000000000E+00     3.7500000000156092E-01     0.0000000000000000E+00 
    0.0000000000000000E+00     3.1250000000130068E-01     0.0000000000000000E+00 
    0.0000000000000000E+00     2.5000000000104050E-01     0.0000000000000000E+00 
    0.0000000000000000E+00     1.8750000000078040E-01     0.0000000000000000E+00 
    0.0000000000000000E+00     1.2500000000052031E-01     0.0000000000000000E+00 
    0.0000000000000000E+00     6.2500000000260125E-02     0.0000000000000000E+00 
    6.2499999999897131E-02     6.2500000000235922E-02     0.0000000000000000E+00 
    6.2499999999921327E-02     1.2500000000047351E-01     0.0000000000000000E+00 
    6.2499999999945530E-02     1.8750000000070621E-01     0.0000000000000000E+00 
    6.2499999999969733E-02     2.5000000000093858E-01     0.0000000000000000E+00 
    6.2499999999993928E-02     3.1250000000117117E-01     0.0000000000000000E+00 
    6.2500000000018124E-02     3.7500000000140382E-01     0.0000000000000000E+00 
    6.2500000000042327E-02     4.3750000000163619E-01     0.0000000000000000E+00 
    6.2500000000066530E-02     5.0000000000184897E-01     0.0000000000000000E+00 
    6.2500000000090733E-02     5.6250000000147260E-01     0.0000000000000000E+00 
    6.2500000000114922E-02     6.2500000000107636E-01     0.0000000000000000E+00 
    6.2500000000139125E-02     6.8750000000068034E-01     0.0000000000000000E+00 
    6.2500000000163328E-02     7.5000000000028411E-01     0.0000000000000000E+00 
    6.2500000000187531E-02     8.1249999999988787E-01     0.0000000000000000E+00 
    6.2500000000211720E-02     8.7499999999951172E-01     0.0000000000000000E+00 
    6.2500000000235922E-02     9.3749999999974565E-01     0.0000000000000000E+00 
    1.2499999999981980E-01     6.2500000000211733E-02     0.0000000000000000E+00 
    1.2499999999986650E-01     1.2500000000042691E-01     0.0000000000000000E+00 
    1.2499999999991319E-01     1.8750000000063199E-01     0.0000000000000000E+00 
    1.2499999999995989E-01     2.5000000000083678E-01     0.0000000000000000E+00 
    1.2500000000000661E-01     3.1250000000104172E-01     0.0000000000000000E+00 
    1.2500000000005329E-01     3.7500000000124661E-01     0.0000000000000000E+00 
    1.2500000000010000E-01     4.3750000000145117E-01     0.0000000000000000E+00 
    1.2500000000014669E-01     5.0000000000163858E-01     0.0000000000000000E+00 
    1.2500000000019340E-01     5.6250000000129741E-01     0.0000000000000000E+00 
    1.2500000000024011E-01     6.2500000000093847E-01     0.0000000000000000E+00 
    1.2500000000028680E-01     6.8750000000057998E-01     0.0000000000000000E+00 
    1.2500000000033351E-01     7.5000000000022127E-01     0.0000000000000000E+00 
    1.2500000000038020E-01     8.1249999999986211E-01     0.0000000000000000E+00 
    1.2500000000042691E-01     8.7499999999952238E-01     0.0000000000000000E+00 
    1.2500000000047359E-01     9.3749999999975164E-01     0.0000000000000000E+00 
    1.8749999999966760E-01     6.2500000000187531E-02     0.0000000000000000E+00 
    1.8749999999974179E-01     1.2500000000038020E-01     0.0000000000000000E+00 
    1.8749999999981601E-01     1.8750000000055780E-01     0.0000000000000000E+00 
    1.8749999999989009E-01     2.5000000000073502E-01     0.0000000000000000E+00 
    1.8749999999996431E-01     3.1250000000091221E-01     0.0000000000000000E+00 
    1.8750000000003850E-01     3.7500000000108941E-01     0.0000000000000000E+00 
    1.8750000000011269E-01     4.3750000000126649E-01     0.0000000000000000E+00 
    1.8750000000018691E-01     5.0000000000142808E-01     0.0000000000000000E+00 
    1.8750000000026110E-01     5.6250000000112244E-01     0.0000000000000000E+00 
    1.8750000000033529E-01     6.2500000000080080E-01     0.0000000000000000E+00 
    1.8750000000040951E-01     6.8750000000047962E-01     0.0000000000000000E+00 
    1.8750000000048361E-01     7.5000000000015843E-01     0.0000000000000000E+00 
    1.8750000000055780E-01     8.1249999999983680E-01     0.0000000000000000E+00 
    1.8750000000063199E-01     8.7499999999953304E-01     0.0000000000000000E+00 
    1.8750000000070621E-01     9.3749999999975764E-01     0.0000000000000000E+00 
    2.4999999999951281E-01     6.2500000000163314E-02     0.0000000000000000E+00 
    2.4999999999961461E-01     1.2500000000033351E-01     0.0000000000000000E+00 
    2.4999999999971650E-01     1.8750000000048361E-01     0.0000000000000000E+00 
    2.4999999999981831E-01     2.5000000000063310E-01     0.0000000000000000E+00 
    2.4999999999992020E-01     3.1250000000078260E-01     0.0000000000000000E+00 
    2.5000000000002198E-01     3.7500000000093209E-01     0.0000000000000000E+00 
    2.5000000000012390E-01     4.3750000000108180E-01     0.0000000000000000E+00 
    2.5000000000022571E-01     5.0000000000121769E-01     0.0000000000000000E+00 
    2.5000000000032763E-01     5.6250000000094724E-01     0.0000000000000000E+00 
    2.5000000000042938E-01     6.2500000000066314E-01     0.0000000000000000E+00 
    2.5000000000053119E-01     6.8750000000037925E-01     0.0000000000000000E+00 
[...]
CELL_DATA 256 
SCALARS Pressure double 1 
LOOKUP_TABLE default 

    2.6374578403105651E+00 
    2.5253554649637628E+00 
    2.4428819074520312E+00 
    2.3689989853958089E+00 
    2.2995278682486613E+00 
    2.2332469617356785E+00 
    2.1690395236954831E+00 
    2.1006250909407891E+00 
    2.0282556903787836E+00 
    1.9657515333339097E+00 
    1.9137786456496433E+00 
    1.8709176044485849E+00 
    1.8368095694252027E+00 
    1.8112845677973559E+00 
    1.7942794051941469E+00 
    1.7857829484271663E+00 
    2.5253745590058601E+00 
    2.4741849409680325E+00 
    2.4129087208617270E+00 
    2.3484801009971896E+00 
    2.2841189506121271E+00 
    2.2205237139682992E+00 
    2.1578814341659234E+00 
    2.0894203646877711E+00 
    2.0172235212897180E+00 
    1.9560565386760629E+00 
    1.9046930664453401E+00 
    1.8621801813588827E+00 
    1.8282406061483645E+00 
    1.8027780006291443E+00 
    1.7857843770339095E+00 
    1.7772889400203573E+00 
    2.4429296475426900E+00 
    2.4129362853073082E+00 
    2.3671312776592561E+00 
    2.3134260320768361E+00 
    2.2558050941984797E+00 
    2.1963079086554891E+00 
    2.1355642759456024E+00 
    2.0669075723757686E+00 
    1.9959197324844902E+00 
    1.9370213878147464E+00 
    1.8868034192820282E+00 
    1.8448990938986729E+00 
    1.8112260397398248E+00 
    1.7858351316117766E+00 
    1.7688281419135345E+00 
    1.7603107705958223E+00 
    2.3690752220965812E+00 
    2.3485349205339614E+00 
    2.3134576286832531E+00 
    2.2686441540401923E+00 
    2.2174983558375092E+00 
    2.1623250230215518E+00 
    2.1022017880888666E+00 
    2.0332064743810885E+00 
    1.9657783292841660E+00 
    1.9094667065635209E+00 
    1.8606477993719812E+00 
    1.8194137255730964E+00 
    1.7859585802818350E+00 
    1.7605411547402019E+00 
    1.7434234026225388E+00 
    1.7348237930406003E+00 
    2.2996177278032897E+00 
    2.2841902039872637E+00 
    2.2558576174196903E+00 
    2.2175286738899307E+00 
    2.1716676922868059E+00 
    2.1192481953379296E+00 
    2.0579160447107534E+00 
    1.9904291855476295E+00 
    1.9285024646984301E+00 
    1.8745244741453226E+00 
    1.8269477754543111E+00 
    1.7861713484669768E+00 
    1.7526799903492889E+00 
    1.7269819347497013E+00 
    1.7095475263489912E+00 
    1.7007481801740496E+00 
    2.2333434971022257E+00 
    2.2206271878836961E+00 
    2.1964132781346537E+00 
    2.1624389620377609E+00 
    2.1193275977340393E+00 
    2.0661907641029429E+00 
    2.0042688789225225E+00 
    1.9420476162290508E+00 
    1.8852692414880245E+00 
    1.8332537027363534E+00 
    1.7864689842050885E+00 
    1.7456604195921921E+00 
    1.7116305339671201E+00 
    1.6851908728211245E+00 
    1.6670832318424968E+00 
    1.6578875037672984E+00 
    2.1692821191736034E+00 
    2.1581494212984973E+00 
    2.1358145697376005E+00 
    2.1024288083304916E+00 
    2.0580451804082482E+00 
    2.0042796644642018E+00 
    1.9470705412687168E+00 
    1.8910862166588018E+00 
    1.8375213714055090E+00 
    1.7867802500783390E+00 
    1.7400289394650055E+00 
    1.6983820884195269E+00 
    1.6630083450390436E+00 
    1.6350896984002157E+00 
    1.6157326618636116E+00 
    1.6058220682942861E+00 
    2.1009016944182082E+00 
    2.0896745699536563E+00 
    2.0670702247075985E+00 
    2.0332977143069439E+00 
    1.9904228391723910E+00 
    1.9419878049042567E+00 
    1.8910641831521953E+00 
    1.8390255396710247E+00 
    1.7869954700476289E+00 
    1.7363672652828088E+00 
    1.6885169839635676E+00 
    1.6448705538411665E+00 
    1.6069698766763560E+00 
    1.5764656094706344E+00 
    1.5549757378222375E+00 
    1.5438506841124542E+00 
    2.0283497745929400E+00 
    2.0172494430900487E+00 
    1.9958912315087030E+00 
    1.9657605560196678E+00 
    1.9284623967706052E+00 
    1.8852207964860070E+00 
    1.8375099856958712E+00 
    1.7869980546537092E+00 
    1.7350985269831589E+00 
    1.6832149618225143E+00 
    1.6328378624570032E+00 
    1.5856291717654758E+00 
    1.5435466785810650E+00 
    1.5088402442469064E+00 
    1.4838758349879195E+00 
    1.4707571238979680E+00 
    1.9658617901510993E+00 
    1.9561310668707552E+00 
    1.9370738087639217E+00 
    1.9095161668597056E+00 
    1.8745524311190249E+00 
    1.8332668991438290E+00 
    1.7868003811751434E+00 
    1.7363887400108582E+00 
    1.6832295699490640E+00 
    1.6286107135549386E+00 
    1.5740102998297762E+00 
    1.5212615594348928E+00 
    1.4727434234913015E+00 
    1.4314719375646452E+00 
    1.4009398882079134E+00 
    1.3845499722357428E+00 
    1.9139080212424491E+00 
    1.9048061541558143E+00 
    1.8869005699657495E+00 
    1.8607329979551293E+00 
    1.8270179687458785E+00 
    1.7865271774507558E+00 
    1.7400814377802465E+00 
    1.6885632348602162E+00 
    1.6328737181492858E+00 
    1.5740307299331124E+00 
    1.5133329232302619E+00 
    1.4526431212309334E+00 
    1.3946762187947646E+00 
    1.3433461160476048E+00 
    1.3038406530000848E+00 
    1.2819388543410153E+00 
    1.8710711592608349E+00 
    1.8623240425418983E+00 
    1.8450306859384158E+00 
    1.8195326259769515E+00 
    1.7862766483761843E+00 
    1.7457530864150195E+00 
    1.6984639593524147E+00 
    1.6449419601044870E+00 
    1.5856872582684691E+00 
    1.5213025315275548E+00 
    1.4526633659842272E+00 
    1.3813348941315391E+00 
    1.3100160972700647E+00 
    1.2434420866543661E+00 
    1.1891845441522233E+00 
    1.1574507718594558E+00 
    1.8369850726011012E+00 
    1.8284090301073772E+00 
    1.8113841954486014E+00 
    1.7861045946387384E+00 
    1.7528128269552892E+00 
    1.7117501441334535E+00 
    1.6631151142669702E+00 
    1.6070637014448135E+00 
    1.5436252209341088E+00 
    1.4728037382501491E+00 
    1.3947153858992820E+00 
    1.3100348893793778E+00 
    1.2206324682812444E+00 
    1.1312399133523567E+00 
    1.0520308942507262E+00 
    1.0012409727270015E+00 
    1.8114758781292823E+00 
    1.8029634635318739E+00 
    1.7860115057905974E+00 
    1.7607061512085067E+00 
    1.7271342907475107E+00 
    1.6853299883309543E+00 
    1.6352149899367194E+00 
    1.5765764025834921E+00 
    1.5089345234346450E+00 
    1.4315473789369229E+00 
    1.3434003088343291E+00 
    1.2434759830056190E+00 
    1.1312551847522749E+00 
    1.0088653659626270E+00 
    8.8647862310658387E-01 
    7.9424974951859517E-01 
    1.7944777010519264E+00 
    1.7859776306039830E+00 
    1.7690132301062966E+00 
    1.7435979470903011E+00 
    1.7097100541639667E+00 
    1.6672328165055161E+00 
    1.6158679180310158E+00 
    1.5550955777547260E+00 
    1.4839785843099125E+00 
    1.4010237642793899E+00 
    1.3039036729857514E+00 
    1.1892277678778191E+00 
    1.0520560710220210E+00 
    8.8648896479400408E-01 
    6.9076584370051797E-01 
    4.9501908875899103E-01 
    1.7859773720434369E+00 
    1.7774791653535904E+00 
    1.7604937322244101E+00 
    1.7349970093223142E+00 
    1.7009099124027363E+00 
    1.6580366484580180E+00 
    1.6059568068973400E+00 
    1.5439697626721789E+00 
    1.4708590911111006E+00 
    1.3846333431371720E+00 
    1.2820024581806992E+00 
    1.1574957235827703E+00 
    1.0012691082940612E+00 
    7.9426417703401397E-01 
    4.9502392525051825E-01 
    0.0000000000000000E+00 

SCALARS Saturarion double 1 
LOOKUP_TABLE default 

    1.0000000721511642E+00 
    9.1869639988478158E-01 
    7.9904570800486041E-01 
    6.9270451419434786E-01 
    6.1761477529992570E-01 
    5.5292830169132379E-01 
    4.9658059847106950E-01 
    3.9630282612163648E-01 
    4.8857176495359096E-02 
    1.0000109873462913E-06 
    1.0000000000038222E-06 
    9.9999999999999995E-07 
    9.9999999999999995E-07 
    9.9999999999999995E-07 
    9.9999999999999995E-07 
    9.9999999999999995E-07 
    9.1868711138437165E-01 
    8.6712122209343379E-01 
    7.6591120633278365E-01 
    6.7565455706561828E-01 
    6.0744852205288358E-01 
    5.4534862703537290E-01 
    4.9216094666968702E-01 
    3.7670209696900836E-01 
    1.7674893108532777E-02 
    3.2578965869920491E-06 
    1.0000005694620179E-06 
    1.0000000000000497E-06 
    9.9999999999999995E-07 
    9.9999999999999995E-07 
    9.9999999999999995E-07 
    9.9999999999999995E-07 
    7.9904377920559511E-01 
    7.6590473455346364E-01 
    7.0418115981947393E-01 
    6.4359402071820060E-01 
    5.8300448578935782E-01 
    5.2737068138524557E-01 
    4.7544751854772921E-01 
    3.0169594846718256E-01 
    4.0407019434761937E-03 
    1.9258134062961079E-06 
    1.0000004531130207E-06 
    1.0000000000000713E-06 
    9.9999999999999995E-07 
    9.9999999999999995E-07 
    9.9999999999999995E-07 
    9.9999999999999995E-07 
    6.9269207781531539E-01 
    6.7561732971048138E-01 
    6.4357830302748142E-01 
    5.9674700046866658E-01 
    5.4844863454410975E-01 
    5.0047535491387296E-01 
    4.4536912008387031E-01 
    1.5673990664725990E-01 
    1.5577605267081249E-03 
    1.2213627573295383E-06 
    1.0000000386517068E-06 
    1.0000000000000135E-06 
    9.9999999999999995E-07 
    9.9999999999999995E-07 
    9.9999999999999995E-07 
    9.9999999999999995E-07 
    6.1754572297831212E-01 
    6.0738970934350500E-01 
    5.8290785143188362E-01 
    5.4802057342152088E-01 
    5.0791471112669562E-01 
    4.6217589711644985E-01 
    3.4330321985218154E-01 
    2.7820848065743170E-02 
    1.6748216546422798E-04 
    1.0094874571658424E-06 
    1.0000000011731764E-06 
    9.9999999999999995E-07 
    9.9999999999999995E-07 
    9.9999999999999995E-07 
    9.9999999999999995E-07 
    9.9999999999999995E-07 
    5.5284455871060079E-01 
    5.4527834052004243E-01 
    5.2742959330271888E-01 
    5.0107861627070849E-01 
    4.6250127502364502E-01 
    3.8721516867757394E-01 
    1.0810703275232381E-01 
    1.3581184140857110E-03 
    1.2288550762845138E-06 
    1.0000000757569988E-06 
    1.0000000000000374E-06 
    9.9999999999999995E-07 
    9.9999999999999995E-07 
    9.9999999999999995E-07 
    9.9999999999999995E-07 
    9.9999999999999995E-07 
    4.9841805704821451E-01 
    4.9203924205746802E-01 
    4.7575539145129769E-01 
    4.4324516466284258E-01 
    3.4064163286440091E-01 
    1.0943645415019920E-01 
    2.2131546490408451E-03 
    1.8290450803661823E-06 
    1.0000003103289919E-06 
    1.0000000000000789E-06 
    9.9999999999999995E-07 
    9.9999999999999995E-07 
    9.9999999999999995E-07 
    9.9999999999999995E-07 
    9.9999999999999995E-07 
    9.9999999999999995E-07 
    3.9640910201654900E-01 
    3.6661645394005971E-01 
    2.9274174675069004E-01 
    1.6051801734332743E-01 
    3.1426649546153214E-02 
    7.0064971185266277E-04 
    1.2557981729024340E-06 
    1.0000003617276950E-06 
    1.0000000000000866E-06 
    9.9999999999999995E-07 
    9.9999999999999995E-07 
    9.9999999999999995E-07 
    9.9999999999999995E-07 
    9.9999999999999995E-07 
    9.9999999999999995E-07 
    9.9999999999999995E-07 
    4.7292255825978707E-02 
    2.3764176811144715E-02 
    2.7160921415092685E-03 
    2.8892356412411814E-04 
    6.9238313473694637E-05 
    1.1159577450967942E-06 
    1.0000001769780926E-06 
    1.0000000000000451E-06 
    9.9999999999999995E-07 
    9.9999999999999995E-07 
    9.9999999999999995E-07 
    9.9999999999999995E-07 
    9.9999999999999995E-07 
    9.9999999999999995E-07 
    9.9999999999999995E-07 
    9.9999999999999995E-07 
    1.0000192323367621E-06 
    3.9084397944957789E-05 
    1.2002811443220220E-06 
    1.0338942388720819E-06 
    1.0006591920698931E-06 
    1.0000000096186425E-06 
    1.0000000000000196E-06 
    9.9999999999999995E-07 
    9.9999999999999995E-07 
    9.9999999999999995E-07 
    9.9999999999999995E-07 
    9.9999999999999995E-07 
    9.9999999999999995E-07 
    9.9999999999999995E-07 
    9.9999999999999995E-07 
    9.9999999999999995E-07 
    1.0000000000070926E-06 
    1.0000055036556394E-06 
    1.0000000411148397E-06 
    1.0000000036602716E-06 
    1.0000000000000412E-06 
    1.0000000000000019E-06 
    9.9999999999999995E-07 
    9.9999999999999995E-07 
    9.9999999999999995E-07 
    9.9999999999999995E-07 
    9.9999999999999995E-07 
    9.9999999999999995E-07 
    9.9999999999999995E-07 
    9.9999999999999995E-07 
    9.9999999999999995E-07 
    9.9999999999999995E-07 
    9.9999999999999995E-07 
    1.0000000000000370E-06 
    1.0000000000000025E-06 
    9.9999999999999953E-07 
    9.9999999999999995E-07 
    9.9999999999999995E-07 
    9.9999999999999995E-07 
    9.9999999999999995E-07 
    9.9999999999999995E-07 
    9.9999999999999995E-07 
    9.9999999999999995E-07 
    9.9999999999999995E-07 
    9.9999999999999995E-07 
    9.9999999999999995E-07 
    9.9999999999999995E-07 
    9.9999999999999995E-07 
    9.9999999999999995E-07 
    9.9999999999999995E-07 
    9.9999999999999995E-07 
    9.9999999999999995E-07 
    9.9999999999999995E-07 
    9.9999999999999995E-07 
    9.9999999999999995E-07 
    9.9999999999999995E-07 
    9.9999999999999995E-07 
    9.9999999999999995E-07 
    9.9999999999999995E-07 
    9.9999999999999995E-07 
    9.9999999999999995E-07 
    9.9999999999999995E-07 
    9.9999999999999995E-07 
    9.9999999999999995E-07 
    9.9999999999999995E-07 
    9.9999999999999995E-07 
    9.9999999999999995E-07 
    9.9999999999999995E-07 
    9.9999999999999995E-07 
    9.9999999999999995E-07 
    9.9999999999999995E-07 
    9.9999999999999995E-07 
    9.9999999999999995E-07 
    9.9999999999999995E-07 
    9.9999999999999995E-07 
    9.9999999999999995E-07 
    9.9999999999999995E-07 
    9.9999999999999995E-07 
    9.9999999999999995E-07 
    9.9999999999999995E-07 
    9.9999999999999995E-07 
    9.9999999999999995E-07 
    9.9999999999999995E-07 
    9.9999999999999995E-07 
    9.9999999999999995E-07 
    9.9999999999999995E-07 
    9.9999999999999995E-07 
    9.9999999999999995E-07 
    9.9999999999999995E-07 
    9.9999999999999995E-07 
    9.9999999999999995E-07 
    9.9999999999999995E-07 
    9.9999999999999995E-07 
    9.9999999999999995E-07 
    9.9999999999999995E-07 
    9.9999999999999995E-07 
    9.9999999999999995E-07 
    9.9999999999999995E-07 
    9.9999999999999995E-07 
    9.9999999999999995E-07 
    9.9999999999999995E-07 
    9.9999999999999995E-07 
    9.9999999999999995E-07 
    9.9999999999999995E-07 
    9.9999999999999995E-07 
    9.9999999999999995E-07 
    9.9999999999999995E-07 
    9.9999999999999995E-07 
    9.9999999999999995E-07 
    9.9999999999999995E-07 
    9.9999999999999995E-07 
    1.0000000631919526E-06 
