# vtk DataFile Version 2.0
Pressure Field Data 
ASCII 
DATASET UNSTRUCTURED_GRID 

POINTS 289 double 

    0.0000000000000000E+00     0.0000000000000000E+00     0.0000000000000000E+00 
    1.0000000000000000E+00     0.0000000000000000E+00     0.0000000000000000E+00 
    1.0000000000000000E+00     1.0000000000000000E+00     0.0000000000000000E+00 
    0.0000000000000000E+00     1.0000000000000000E+00     0.0000000000000000E+00 
    6.2499999999872928E-02     0.0000000000000000E+00     0.0000000000000000E+00 
    1.2499999999977310E-01     0.0000000000000000E+00     0.0000000000000000E+00 
    1.8749999999959341E-01     0.0000000000000000E+00     0.0000000000000000E+00 
    2.4999999999941089E-01     0.0000000000000000E+00     0.0000000000000000E+00 
    3.1249999999922851E-01     0.0000000000000000E+00     0.0000000000000000E+00 
    3.7499999999904610E-01     0.0000000000000000E+00     0.0000000000000000E+00 
    4.3749999999886358E-01     0.0000000000000000E+00     0.0000000000000000E+00 
    4.9999999999869210E-01     0.0000000000000000E+00     0.0000000000000000E+00 
    5.6249999999884603E-01     0.0000000000000000E+00     0.0000000000000000E+00 
    6.2499999999901090E-01     0.0000000000000000E+00     0.0000000000000000E+00 
    6.8749999999917577E-01     0.0000000000000000E+00     0.0000000000000000E+00 
    7.4999999999934064E-01     0.0000000000000000E+00     0.0000000000000000E+00 
    8.1249999999950551E-01     0.0000000000000000E+00     0.0000000000000000E+00 
    8.7499999999967026E-01     0.0000000000000000E+00     0.0000000000000000E+00 
    9.3749999999983513E-01     0.0000000000000000E+00     0.0000000000000000E+00 
    1.0000000000000000E+00     6.2499999999872928E-02     0.0000000000000000E+00 
    1.0000000000000000E+00     1.2499999999977310E-01     0.0000000000000000E+00 
    1.0000000000000000E+00     1.8749999999959341E-01     0.0000000000000000E+00 
    1.0000000000000000E+00     2.4999999999941089E-01     0.0000000000000000E+00 
    1.0000000000000000E+00     3.1249999999922851E-01     0.0000000000000000E+00 
    1.0000000000000000E+00     3.7499999999904610E-01     0.0000000000000000E+00 
    1.0000000000000000E+00     4.3749999999886358E-01     0.0000000000000000E+00 
    1.0000000000000000E+00     4.9999999999869210E-01     0.0000000000000000E+00 
    1.0000000000000000E+00     5.6249999999884603E-01     0.0000000000000000E+00 
    1.0000000000000000E+00     6.2499999999901090E-01     0.0000000000000000E+00 
    1.0000000000000000E+00     6.8749999999917577E-01     0.0000000000000000E+00 
    1.0000000000000000E+00     7.4999999999934064E-01     0.0000000000000000E+00 
    1.0000000000000000E+00     8.1249999999950551E-01     0.0000000000000000E+00 
    1.0000000000000000E+00     8.7499999999967026E-01     0.0000000000000000E+00 
    1.0000000000000000E+00     9.3749999999983513E-01     0.0000000000000000E+00 
    9.3749999999973976E-01     1.0000000000000000E+00     0.0000000000000000E+00 
    8.7499999999950118E-01     1.0000000000000000E+00     0.0000000000000000E+00 
    8.1249999999991318E-01     1.0000000000000000E+00     0.0000000000000000E+00 
    7.5000000000034706E-01     1.0000000000000000E+00     0.0000000000000000E+00 
    6.8750000000078049E-01     1.0000000000000000E+00     0.0000000000000000E+00 
    6.2500000000121403E-01     1.0000000000000000E+00     0.0000000000000000E+00 
    5.6250000000164757E-01     1.0000000000000000E+00     0.0000000000000000E+00 
    5.0000000000205946E-01     1.0000000000000000E+00     0.0000000000000000E+00 
    4.3750000000182099E-01     1.0000000000000000E+00     0.0000000000000000E+00 
    3.7500000000156092E-01     1.0000000000000000E+00     0.0000000000000000E+00 
    3.1250000000130068E-01     1.0000000000000000E+00     0.0000000000000000E+00 
    2.5000000000104050E-01     1.0000000000000000E+00     0.0000000000000000E+00 
    1.8750000000078040E-01     1.0000000000000000E+00     0.0000000000000000E+00 
    1.2500000000052031E-01     1.0000000000000000E+00     0.0000000000000000E+00 
    6.2500000000260125E-02     1.0000000000000000E+00     0.0000000000000000E+00 
    0.0000000000000000E+00     9.3749999999973976E-01     0.0000000000000000E+00 
    0.0000000000000000E+00     8.7499999999950118E-01     0.0000000000000000E+00 
    0.0000000000000000E+00     8.1249999999991318E-01     0.0000000000000000E+00 
    0.0000000000000000E+00     7.5000000000034706E-01     0.0000000000000000E+00 
    0.0000000000000000E+00     6.8750000000078049E-01     0.0000000000000000E+00 
    0.0000000000000000E+00     6.2500000000121403E-01     0.0000000000000000E+00 
    0.0000000000000000E+00     5.6250000000164757E-01     0.0000000000000000E+00 
    0.0000000000000000E+00     5.0000000000205946E-01     0.0000000000000000E+00 
    0.0000000000000000E+00     4.3750000000182099E-01     0.0000000000000000E+00 
    0.0000000000000000E+00     3.7500000000156092E-01     0.0000000000000000E+00 
    0.0000000000000000E+00     3.1250000000130068E-01     0.0000000000000000E+00 
    0.0000000000000000E+00     2.5000000000104050E-01     0.0000000000000000E+00 
    0.0000000000000000E+00     1.8750000000078040E-01     0.0000000000000000E+00 
    0.0000000000000000E+00     1.2500000000052031E-01     0.0000000000000000E+00 
    0.0000000000000000E+00     6.2500000000260125E-02     0.0000000000000000E+00 
    6.2499999999897131E-02     6.2500000000235922E-02     0.0000000000000000E+00 
    6.2499999999921327E-02     1.2500000000047351E-01     0.0000000000000000E+00 
    6.2499999999945530E-02     1.8750000000070621E-01     0.0000000000000000E+00 
    6.2499999999969733E-02     2.5000000000093858E-01     0.0000000000000000E+00 
    6.2499999999993928E-02     3.1250000000117117E-01     0.0000000000000000E+00 
    6.2500000000018124E-02     3.7500000000140382E-01     0.0000000000000000E+00 
    6.2500000000042327E-02     4.3750000000163619E-01     0.0000000000000000E+00 
    6.2500000000066530E-02     5.0000000000184897E-01     0.0000000000000000E+00 
    6.2500000000090733E-02     5.6250000000147260E-01     0.0000000000000000E+00 
    6.2500000000114922E-02     6.2500000000107636E-01     0.0000000000000000E+00 
    6.2500000000139125E-02     6.8750000000068034E-01     0.0000000000000000E+00 
    6.2500000000163328E-02     7.5000000000028411E-01     0.0000000000000000E+00 
    6.2500000000187531E-02     8.1249999999988787E-01     0.0000000000000000E+00 
    6.2500000000211720E-02     8.7499999999951172E-01     0.0000000000000000E+00 
    6.2500000000235922E-02     9.3749999999974565E-01     0.0000000000000000E+00 
    1.2499999999981980E-01     6.2500000000211733E-02     0.0000000000000000E+00 
    1.2499999999986650E-01     1.2500000000042691E-01     0.0000000000000000E+00 
    1.2499999999991319E-01     1.8750000000063199E-01     0.0000000000000000E+00 
    1.2499999999995989E-01     2.5000000000083678E-01     0.0000000000000000E+00 
    1.2500000000000661E-01     3.1250000000104172E-01     0.0000000000000000E+00 
    1.2500000000005329E-01     3.7500000000124661E-01     0.0000000000000000E+00 
    1.2500000000010000E-01     4.3750000000145117E-01     0.0000000000000000E+00 
    1.2500000000014669E-01     5.0000000000163858E-01     0.0000000000000000E+00 
    1.2500000000019340E-01     5.6250000000129741E-01     0.0000000000000000E+00 
    1.2500000000024011E-01     6.2500000000093847E-01     0.0000000000000000E+00 
    1.2500000000028680E-01     6.8750000000057998E-01     0.0000000000000000E+00 
    1.2500000000033351E-01     7.5000000000022127E-01     0.0000000000000000E+00 
    1.2500000000038020E-01     8.1249999999986211E-01     0.0000000000000000E+00 
    1.2500000000042691E-01     8.7499999999952238E-01     0.0000000000000000E+00 
    1.2500000000047359E-01     9.3749999999975164E-01     0.0000000000000000E+00 
    1.8749999999966760E-01     6.2500000000187531E-02     0.0000000000000000E+00 
    1.8749999999974179E-01     1.2500000000038020E-01     0.0000000000000000E+00 
    1.8749999999981601E-01     1.8750000000055780E-01     0.0000000000000000E+00 
    1.8749999999989009E-01     2.5000000000073502E-01     0.0000000000000000E+00 
    1.8749999999996431E-01     3.1250000000091221E-01     0.0000000000000000E+00 
    1.8750000000003850E-01     3.7500000000108941E-01     0.0000000000000000E+00 
    1.8750000000011269E-01     4.3750000000126649E-01     0.0000000000000000E+00 
    1.8750000000018691E-01     5.0000000000142808E-01     0.0000000000000000E+00 
    1.8750000000026110E-01     5.6250000000112244E-01     0.0000000000000000E+00 
    1.8750000000033529E-01     6.2500000000080080E-01     0.0000000000000000E+00 
    1.8750000000040951E-01     6.8750000000047962E-01     0.0000000000000000E+00 
    1.8750000000048361E-01     7.5000000000015843E-01     0.0000000000000000E+00 
    1.8750000000055780E-01     8.1249999999983680E-01     0.0000000000000000E+00 
    1.8750000000063199E-01     8.7499999999953304E-01     0.0000000000000000E+00 
    1.8750000000070621E-01     9.3749999999975764E-01     0.0000000000000000E+00 
    2.4999999999951281E-01     6.2500000000163314E-02     0.0000000000000000E+00 
    2.4999999999961461E-01     1.2500000000033351E-01     0.0000000000000000E+00 
    2.4999999999971650E-01     1.8750000000048361E-01     0.0000000000000000E+00 
    2.4999999999981831E-01     2.5000000000063310E-01     0.0000000000000000E+00 
    2.4999999999992020E-01     3.1250000000078260E-01     0.0000000000000000E+00 
    2.5000000000002198E-01     3.7500000000093209E-01     0.0000000000000000E+00 
    2.5000000000012390E-01     4.3750000000108180E-01     0.0000000000000000E+00 
    2.5000000000022571E-01     5.0000000000121769E-01     0.0000000000000000E+00 
    2.5000000000032763E-01     5.6250000000094724E-01     0.0000000000000000E+00 
    2.5000000000042938E-01     6.2500000000066314E-01     0.0000000000000000E+00 
    2.5000000000053119E-01     6.8750000000037925E-01     0.0000000000000000E+00 
[...]
CELL_DATA 256 
SCALARS Pressure double 1 
LOOKUP_TABLE default 

    2.3456645149968005E+00 
    2.2406429488688362E+00 
    2.1716624709144408E+00 
    2.1166534604793852E+00 
    2.0683468294524414E+00 
    2.0245853015685675E+00 
    1.9836952446726852E+00 
    1.9453727450425540E+00 
    1.9096499117904691E+00 
    1.8765279713360394E+00 
    1.8462558425338704E+00 
    1.8180403542264794E+00 
    1.7900668454586939E+00 
    1.7669271129153490E+00 
    1.7520832048742481E+00 
    1.7446257721924483E+00 
    2.2406604693790282E+00 
    2.1965831933361151E+00 
    2.1485509956501581E+00 
    2.1016323747598475E+00 
    2.0574743101229260E+00 
    2.0159132845695384E+00 
    1.9761650604951051E+00 
    1.9385408427699053E+00 
    1.9031526680052435E+00 
    1.8701038474605061E+00 
    1.8397787718819445E+00 
    1.8113245854576376E+00 
    1.7830565488910761E+00 
    1.7597195699486368E+00 
    1.7447120777208140E+00 
    1.7371713015208261E+00 
    2.1717107812081355E+00 
    2.1485811609595604E+00 
    2.1145564094345204E+00 
    2.0765984225449841E+00 
    2.0380459965255122E+00 
    1.9996095570668937E+00 
    1.9617665571778644E+00 
    1.9252692152118438E+00 
    1.8903609029421122E+00 
    1.8574133385990281E+00 
    1.8269176630507855E+00 
    1.7979334019649262E+00 
    1.7690384013909952E+00 
    1.7452699145976616E+00 
    1.7299127194458679E+00 
    1.7221882257133059E+00 
    2.1167431137282224E+00 
    2.1016994572640377E+00 
    2.0766328946561465E+00 
    2.0460369599574655E+00 
    2.0124214243925831E+00 
    1.9771663758099036E+00 
    1.9414612979773651E+00 
    1.9061480180145738E+00 
    1.8716979960636433E+00 
    1.8387207080305907E+00 
    1.8078183652979070E+00 
    1.7779145693975735E+00 
    1.7479659515394852E+00 
    1.7234618498467260E+00 
    1.7075231361720100E+00 
    1.6994902574093727E+00 
    2.0684700348350695E+00 
    2.0575692345651291E+00 
    2.0381100716357317E+00 
    2.0124535843265976E+00 
    1.9825932063583456E+00 
    1.9501442071637110E+00 
    1.9163232004946402E+00 
    1.8819349312765732E+00 
    1.8476830370078081E+00 
    1.8143682687938334E+00 
    1.7827122027871698E+00 
    1.7513499846299141E+00 
    1.7197599491259332E+00 
    1.6941068650005078E+00 
    1.6772761439982875E+00 
    1.6687714101579036E+00 
    2.0247225427756779E+00 
    2.0160310500623404E+00 
    1.9997022709032257E+00 
    1.9772301318636631E+00 
    1.9501776517759937E+00 
    1.9198756753802975E+00 
    1.8873313260882698E+00 
    1.8533700778322091E+00 
    1.8188680301353619E+00 
    1.7847442468355179E+00 
    1.7517852708747916E+00 
    1.7181933066217463E+00 
    1.6841887460655511E+00 
    1.6568702433550393E+00 
    1.6387515316148280E+00 
    1.6295630627394964E+00 
    1.9838554560217865E+00 
    1.9763105159159706E+00 
    1.9618886172798984E+00 
    1.9415542157013679E+00 
    1.9163843354218166E+00 
    1.8873601387563921E+00 
    1.8553522688125257E+00 
    1.8212120605862265E+00 
    1.7858688479321327E+00 
    1.7502628656458907E+00 
    1.7152455781952793E+00 
    1.6783823369165829E+00 
    1.6409347703847517E+00 
    1.6112631912130382E+00 
    1.5913246847765470E+00 
    1.5811588734398494E+00 
    1.9455518203719746E+00 
    1.9387053922467505E+00 
    1.9254121134525428E+00 
    1.9062641070083948E+00 
    1.8820192157908318E+00 
    1.8534209796268737E+00 
    1.8212347984863009E+00 
    1.7862566523405090E+00 
    1.7493123887258091E+00 
    1.7113700854566702E+00 
    1.6733018970543669E+00 
    1.6317887669414444E+00 
    1.5895969714736171E+00 
    1.5566799757085292E+00 
    1.5341670100181455E+00 
    1.5225951189791813E+00 
    1.9098349481910877E+00 
    1.9033269994849391E+00 
    1.8905216018884570E+00 
    1.8718350784524034E+00 
    1.8477802697622108E+00 
    1.8189263945563103E+00 
    1.7859086005039662E+00 
    1.7493376299708505E+00 
    1.7099048922824132E+00 
    1.6685636479144008E+00 
    1.6258543954454610E+00 
    1.5776612769222587E+00 
    1.5294164073773593E+00 
    1.4922333917049377E+00 
    1.4660921120470494E+00 
    1.4524638732250084E+00 
    1.8767316821516129E+00 
    1.8703050772141268E+00 
    1.8576131323420721E+00 
    1.8389037005149114E+00 
    1.8145085782724466E+00 
    1.7848446692063642E+00 
    1.7503476916340530E+00 
    1.7114362979484929E+00 
    1.6685967061997116E+00 
    1.6225379892085221E+00 
    1.5724338084689971E+00 
    1.5150024294267497E+00 
    1.4599464216025078E+00 
    1.4169776753442707E+00 
    1.3855148320679853E+00 
    1.3687104627927540E+00 
    1.8465003275525751E+00 
    1.8400261626552343E+00 
    1.8271714079167498E+00 
    1.8080648915971202E+00 
    1.7829225146151602E+00 
    1.7519551008313636E+00 
    1.7153830133437189E+00 
    1.6733989018844799E+00 
    1.6259147130772924E+00 
    1.5724657919835006E+00 
    1.5114707979023605E+00 
    1.4445422764879079E+00 
    1.3823009627667551E+00 
    1.3302369813232044E+00 
    1.2902580179687437E+00 
    1.2681401697693500E+00 
    1.8183259441079294E+00 
    1.8115981588493668E+00 
    1.7981878841782364E+00 
    1.7781362135783219E+00 
    1.7515140073900992E+00 
    1.7183083921983329E+00 
    1.6784781784923191E+00 
    1.6318794435080433E+00 
    1.5777643612108239E+00 
    1.5150861333992576E+00 
    1.4445791304332702E+00 
    1.3705544107053900E+00 
    1.2981405450291521E+00 
    1.2314680664071456E+00 
    1.1771896381649813E+00 
    1.1454791808934965E+00 
    1.7903845989168079E+00 
    1.7833545203070789E+00 
    1.7693006305409265E+00 
    1.7481782053151131E+00 
    1.7199097041794327E+00 
    1.6843042207022607E+00 
    1.6410589960960844E+00 
    1.5897384364384193E+00 
    1.5295712428041082E+00 
    1.4600651999589100E+00 
    1.3823670335879299E+00 
    1.2981694145240403E+00 
    1.2092414980096420E+00 
    1.1203271878450811E+00 
    1.0415819804705166E+00 
    9.9112151268419424E-01 
    1.7672547344010183E+00 
    1.7600369371810942E+00 
    1.7455676869166450E+00 
    1.7237322989922386E+00 
    1.6943457820389400E+00 
    1.6570916910165885E+00 
    1.6114792042992232E+00 
    1.5568791488445548E+00 
    1.4924057454836601E+00 
    1.4171089722101553E+00 
    1.3303264008306588E+00 
    1.2315217640484417E+00 
    1.1203509854616558E+00 
    9.9902917106653810E-01 
    8.7771215743960229E-01 
    7.8631283524393725E-01 
    1.7524126536170159E+00 
    1.7450316361701894E+00 
    1.7302152950489513E+00 
    1.7078037179959844E+00 
    1.6775334059241140E+00 
    1.6389900240044850E+00 
    1.5915463146245077E+00 
    1.5343676083909270E+00 
    1.4662651939253597E+00 
    1.3856537956828814E+00 
    1.2903600959405270E+00 
    1.1772581640607285E+00 
    1.0416213850807907E+00 
    8.7772827524121988E-01 
    6.8392269485230806E-01 
    4.9009353935773847E-01 
    1.7449473203940786E+00 
    1.7374843451372721E+00 
    1.7224865457499456E+00 
    1.6997694157669432E+00 
    1.6690299202403560E+00 
    1.6298025029994199E+00 
    1.5813782622853620E+00 
    1.5227917111940796E+00 
    1.4526331717188683E+00 
    1.3688484024348224E+00 
    1.2682443200327860E+00 
    1.1455518411655128E+00 
    9.9116658944747904E-01 
    7.8633586685857504E-01 
    4.9010127071382953E-01 
    0.0000000000000000E+00 

SCALARS Saturarion double 1 
LOOKUP_TABLE default 

    1.0000000044674664E+00 
    9.6251676146702536E-01 
    9.0008670980889627E-01 
    8.3349953159759682E-01 
    7.6927434996564559E-01 
    7.1029544836753988E-01 
    6.5873735534808853E-01 
    6.1324777815488085E-01 
    5.6921623260196019E-01 
    5.2624287667318237E-01 
    4.8447903540649129E-01 
    4.1491596208091691E-01 
    8.8815771051147255E-02 
    2.4106948129816100E-04 
    1.0004421651097758E-06 
    9.9999999996698430E-07 
    9.6251343798579625E-01 
    9.3648723063298711E-01 
    8.8121155318086986E-01 
    8.1932934431147320E-01 
    7.5918038468228177E-01 
    7.0348358364113195E-01 
    6.5428315982991914E-01 
    6.1023698002585547E-01 
    5.6717497084084023E-01 
    5.2514947331200723E-01 
    4.8373103436658438E-01 
    4.1302866485200301E-01 
    8.4893892663970780E-02 
    7.2828570657204733E-06 
    1.0000030669332968E-06 
    1.0000000000000544E-06 
    9.0007405284353559E-01 
    8.8120052409519223E-01 
    8.3732546688158005E-01 
    7.8733071801833210E-01 
    7.3645717857067272E-01 
    6.8770417513475890E-01 
    6.4349708783899473E-01 
    6.0229060382587274E-01 
    5.6133266997507858E-01 
    5.2161246598528155E-01 
    4.8123416336674701E-01 
    4.0796829058172562E-01 
    7.8198314319316231E-02 
    3.9659050265465605E-06 
    1.0000035245180843E-06 
    1.0000000000002814E-06 
    8.3347488847046658E-01 
    8.1930966590982790E-01 
    7.8731687007596807E-01 
    7.4793416246071898E-01 
    7.0805574575113983E-01 
    6.6805321134099638E-01 
    6.2898575399430445E-01 
    5.9068780495588014E-01 
    5.5284522937937264E-01 
    5.1611211394344536E-01 
    4.7763669685997961E-01 
    4.0263684824314933E-01 
    7.0746308119274320E-02 
    3.2331428393192413E-06 
    1.0000015880780863E-06 
    1.0000000000000184E-06 
    7.6925524739594409E-01 
    7.5916974001988191E-01 
    7.3644153361555975E-01 
    7.0804012100757208E-01 
    6.7729837237035384E-01 
    6.4478042869426377E-01 
    6.1068167106516968E-01 
    5.7662252222389609E-01 
    5.4262507183558339E-01 
    5.0860904395649131E-01 
    4.7240745945507656E-01 
    3.9517043422616283E-01 
    5.7268133365371558E-02 
    1.3834685937534188E-04 
    1.0000367080531334E-06 
    1.0000000000017722E-06 
    7.1031768456215572E-01 
    7.0348737502478298E-01 
    6.8768630952673504E-01 
    6.6802520314878777E-01 
    6.4476818713539208E-01 
    6.1774287361509783E-01 
    5.8905973333404349E-01 
    5.6012614941405636E-01 
    5.3060447316611559E-01 
    4.9984331083359662E-01 
    4.6550885752476262E-01 
    3.7946750466270079E-01 
    4.8130178652932093E-02 
    7.5968270548615088E-05 
    1.0000045890310552E-06 
    1.0000000000002382E-06 
    6.5876202484802049E-01 
    6.5428737316772523E-01 
    6.4347711389167550E-01 
    6.2896544673272770E-01 
    6.1067287351505295E-01 
    5.8903210593057187E-01 
    5.6573549145069990E-01 
    5.4160431976070678E-01 
    5.1635815980329614E-01 
    4.8997426440636094E-01 
    4.5833636164615044E-01 
    3.6664785026526214E-01 
    3.6459295255563448E-02 
    1.7786196955132906E-05 
    1.0000099667703346E-06 
    1.0000000000003331E-06 
    6.1325413653000238E-01 
    6.1021934383112453E-01 
    6.0224890800151243E-01 
    5.9066846349098190E-01 
    5.7655189974632370E-01 
    5.5994938238039282E-01 
    5.4139967303275160E-01 
    5.2142041350455925E-01 
    5.0027778873072104E-01 
    4.7783117012713050E-01 
    4.4937052370938207E-01 
    3.4164351808267052E-01 
    2.2526049633606882E-02 
    8.6802321651957663E-06 
    1.0000094763278985E-06 
    1.0000000000002295E-06 
    5.6913299988364996E-01 
    5.6706725882465148E-01 
    5.6124364440979202E-01 
    5.5275621128405417E-01 
    5.4248415595515220E-01 
    5.3043892026245243E-01 
    5.1618253670472725E-01 
    5.0010258165372012E-01 
    4.8319008662599017E-01 
    4.6531705897337772E-01 
    4.3815288676552649E-01 
    2.9975773171735415E-01 
    7.4682148600240233E-03 
    1.5239620365793994E-06 
    1.0000000693582923E-06 
    1.0000000000000004E-06 
    5.2666192640808307E-01 
    5.2555535797640729E-01 
    5.2198774529689740E-01 
    5.1626115682519202E-01 
    5.0895492541066301E-01 
    5.0089768840051252E-01 
    4.9077747396689692E-01 
    4.7798575907301255E-01 
    4.6498326553198865E-01 
    4.5047802852031182E-01 
    4.1877796502340037E-01 
    2.1084752456666025E-01 
    5.0865740500689264E-04 
    1.0337096823606312E-06 
    1.0000000022275308E-06 
    1.0000000000000006E-06 
    4.8509823038065703E-01 
    4.8440393029295736E-01 
    4.8150929981323709E-01 
    4.7736109301646695E-01 
    4.7216554156350554E-01 
    4.6620264157864322E-01 
    4.5932081572567007E-01 
    4.4971700637167089E-01 
    4.3792205318353805E-01 
    4.1875217742177862E-01 
    3.4657151830696775E-01 
    6.9312338617660910E-02 
    2.3241045837833874E-04 
    1.0092806128551841E-06 
    1.0000000006933081E-06 
    1.0000000000000002E-06 
    4.1607684278459656E-01 
    4.1366971668986702E-01 
    4.0768355356325875E-01 
    4.0074981652143710E-01 
    3.9148225352269245E-01 
    3.7638857504269735E-01 
    3.6403666378665822E-01 
    3.4200727672743353E-01 
    3.0168229075860292E-01 
    2.1290549646534776E-01 
    6.9717048633630624E-02 
    1.1309966519032751E-03 
    1.0810155823216306E-06 
    1.0000000602180199E-06 
    1.0000000000000211E-06 
    9.9999999999999995E-07 
    8.9458355116846924E-02 
    8.3126860156343962E-02 
    7.5971374017313339E-02 
    6.6853008598503877E-02 
    5.4797528069250950E-02 
    4.3110998227506213E-02 
    3.3340231383871606E-02 
    2.1434722499872390E-02 
    7.8490535557177634E-03 
    5.4507425716670936E-04 
    2.3568934385215720E-04 
    1.0824663862036763E-06 
    1.0000000313926133E-06 
    1.0000000000000165E-06 
    9.9999999999999995E-07 
    9.9999999999999995E-07 
    3.1680056665158061E-05 
    4.3705640458961861E-05 
    1.5299557809347866E-05 
    1.1474405392053423E-05 
    6.1928259355909596E-06 
    2.9795027373891215E-06 
    1.2087805583157302E-05 
    3.7877861232309648E-06 
    1.5909482890708107E-06 
    1.0364939161205877E-06 
    1.0095626818659854E-06 
    1.0000000613730772E-06 
    1.0000000000000182E-06 
    9.9999999999999995E-07 
    9.9999999999999995E-07 
    9.9999999999999995E-07 
    1.0000000025014769E-06 
    1.0000271661853679E-06 
    1.0000019129608489E-06 
    1.0000121411417877E-06 
    1.0000043035260966E-06 
    1.0000009714412406E-06 
    1.0000010308881084E-06 
    1.0000009397840906E-06 
    1.0000000805067117E-06 
    1.0000000029737922E-06 
    1.0000000007906542E-06 
    1.0000000000000207E-06 
    9.9999999999999995E-07 
    9.9999999999999995E-07 
    9.9999999999999995E-07 
    9.9999999999999995E-07 
    9.9999999999999995E-07 
    1.0000000000001368E-06 
    1.0000000000001141E-06 
    1.0000000000000872E-06 
    1.0000000000002219E-06 
    1.0000000000000129E-06 
    1.0000000000000775E-06 
    1.0000000000000163E-06 
    1.0000000000000002E-06 
    1.0000000000000004E-06 
    9.9999999999999995E-07 
    9.9999999999999995E-07 
    9.9999999999999995E-07 
    9.9999999999999995E-07 
    9.9999999999999995E-07 
    1.0000001736446379E-06 
