# vtk DataFile Version 2.0
Pressure Field Data 
ASCII 
DATASET UNSTRUCTURED_GRID 

POINTS 289 double 

    0.0000000000000000E+00     0.0000000000000000E+00     0.0000000000000000E+00 
    1.0000000000000000E+00     0.0000000000000000E+00     0.0000000000000000E+00 
    1.0000000000000000E+00     1.0000000000000000E+00     0.0000000000000000E+00 
    0.0000000000000000E+00     1.0000000000000000E+00     0.0000000000000000E+00 
    6.2499999999872928E-02     0.0000000000000000E+00     0.0000000000000000E+00 
    1.2499999999977310E-01     0.0000000000000000E+00     0.0000000000000000E+00 
    1.8749999999959341E-01     0.0000000000000000E+00     0.0000000000000000E+00 
    2.4999999999941089E-01     0.0000000000000000E+00     0.0000000000000000E+00 
    3.1249999999922851E-01     0.0000000000000000E+00     0.0000000000000000E+00 
    3.7499999999904610E-01     0.0000000000000000E+00     0.0000000000000000E+00 
    4.3749999999886358E-01     0.0000000000000000E+00     0.0000000000000000E+00 
    4.9999999999869210E-01     0.0000000000000000E+00     0.0000000000000000E+00 
    5.6249999999884603E-01     0.0000000000000000E+00     0.0000000000000000E+00 
    6.2499999999901090E-01     0.0000000000000000E+00     0.0000000000000000E+00 
    6.8749999999917577E-01     0.0000000000000000E+00     0.0000000000000000E+00 
    7.4999999999934064E-01     0.0000000000000000E+00     0.0000000000000000E+00 
    8.1249999999950551E-01     0.0000000000000000E+00     0.0000000000000000E+00 
    8.7499999999967026E-01     0.0000000000000000E+00     0.0000000000000000E+00 
    9.3749999999983513E-01     0.0000000000000000E+00     0.0000000000000000E+00 
    1.0000000000000000E+00     6.2499999999872928E-02     0.0000000000000000E+00 
    1.0000000000000000E+00     1.2499999999977310E-01     0.0000000000000000E+00 
    1.0000000000000000E+00     1.8749999999959341E-01     0.0000000000000000E+00 
    1.0000000000000000E+00     2.4999999999941089E-01     0.0000000000000000E+00 
    1.0000000000000000E+00     3.1249999999922851E-01     0.0000000000000000E+00 
    1.0000000000000000E+00     3.7499999999904610E-01     0.0000000000000000E+00 
    1.0000000000000000E+00     4.3749999999886358E-01     0.0000000000000000E+00 
    1.0000000000000000E+00     4.9999999999869210E-01     0.0000000000000000E+00 
    1.0000000000000000E+00     5.6249999999884603E-01     0.0000000000000000E+00 
    1.0000000000000000E+00     6.2499999999901090E-01     0.0000000000000000E+00 
    1.0000000000000000E+00     6.8749999999917577E-01     0.0000000000000000E+00 
    1.0000000000000000E+00     7.4999999999934064E-01     0.0000000000000000E+00 
    1.0000000000000000E+00     8.1249999999950551E-01     0.0000000000000000E+00 
    1.0000000000000000E+00     8.7499999999967026E-01     0.0000000000000000E+00 
    1.0000000000000000E+00     9.3749999999983513E-01     0.0000000000000000E+00 
    9.3749999999973976E-01     1.0000000000000000E+00     0.0000000000000000E+00 
    8.7499999999950118E-01     1.0000000000000000E+00     0.0000000000000000E+00 
    8.1249999999991318E-01     1.0000000000000000E+00     0.0000000000000000E+00 
    7.5000000000034706E-01     1.0000000000000000E+00     0.0000000000000000E+00 
    6.8750000000078049E-01     1.0000000000000000E+00     0.0000000000000000E+00 
    6.2500000000121403E-01     1.0000000000000000E+00     0.0000000000000000E+00 
    5.6250000000164757E-01     1.0000000000000000E+00     0.0000000000000000E+00 
    5.0000000000205946E-01     1.0000000000000000E+00     0.0000000000000000E+00 
    4.3750000000182099E-01     1.0000000000000000E+00     0.0000000000000000E+00 
    3.7500000000156092E-01     1.0000000000000000E+00     0.0000000000000000E+00 
    3.1250000000130068E-01     1.0000000000000000E+00     0.0000000000000000E+00 
    2.5000000000104050E-01     1.0000000000000000E+00     0.0000000000000000E+00 
    1.8750000000078040E-01     1.0000000000000000E+00     0.0000000000000000E+00 
    1.2500000000052031E-01     1.0000000000000000E+00     0.0000000000000000E+00 
    6.2500000000260125E-02     1.0000000000000000E+00     0.0000000000000000E+00 
    0.0000000000000000E+00     9.3749999999973976E-01     0.0000000000000000E+00 
    0.0000000000000000E+00     8.7499999999950118E-01     0.0000000000000000E+00 
    0.0000000000000000E+00     8.1249999999991318E-01     0.0000000000000000E+00 
    0.0000000000000000E+00     7.5000000000034706E-01     0.0000000000000000E+00 
    0.0000000000000000E+00     6.8750000000078049E-01     0.0000000000000000E+00 
    0.0000000000000000E+00     6.2500000000121403E-01     0.0000000000000000E+00 
    0.0000000000000000E+00     5.6250000000164757E-01     0.0000000000000000E+00 
    0.0000000000000000E+00     5.0000000000205946E-01     0.0000000000000000E+00 
    0.0000000000000000E+00     4.3750000000182099E-01     0.0000000000000000E+00 
    0.0000000000000000E+00     3.7500000000156092E-01     0.0000000000000000E+00 
    0.0000000000000000E+00     3.1250000000130068E-01     0.0000000000000000E+00 
    0.0000000000000000E+00     2.5000000000104050E-01     0.0000000000000000E+00 
    0.0000000000000000E+00     1.8750000000078040E-01     0.0000000000000000E+00 
    0.0000000000000000E+00     1.2500000000052031E-01     0.0000000000000000E+00 
    0.0000000000000000E+00     6.2500000000260125E-02     0.0000000000000000E+00 
    6.2499999999897131E-02     6.2500000000235922E-02     0.0000000000000000E+00 
    6.2499999999921327E-02     1.2500000000047351E-01     0.0000000000000000E+00 
    6.2499999999945530E-02     1.8750000000070621E-01     0.0000000000000000E+00 
    6.2499999999969733E-02     2.5000000000093858E-01     0.0000000000000000E+00 
    6.2499999999993928E-02     3.1250000000117117E-01     0.0000000000000000E+00 
    6.2500000000018124E-02     3.7500000000140382E-01     0.0000000000000000E+00 
    6.2500000000042327E-02     4.3750000000163619E-01     0.0000000000000000E+00 
    6.2500000000066530E-02     5.0000000000184897E-01     0.0000000000000000E+00 
    6.2500000000090733E-02     5.6250000000147260E-01     0.0000000000000000E+00 
    6.2500000000114922E-02     6.2500000000107636E-01     0.0000000000000000E+00 
    6.2500000000139125E-02     6.8750000000068034E-01     0.0000000000000000E+00 
    6.2500000000163328E-02     7.5000000000028411E-01     0.0000000000000000E+00 
    6.2500000000187531E-02     8.1249999999988787E-01     0.0000000000000000E+00 
    6.2500000000211720E-02     8.7499999999951172E-01     0.0000000000000000E+00 
    6.2500000000235922E-02     9.3749999999974565E-01     0.0000000000000000E+00 
    1.2499999999981980E-01     6.2500000000211733E-02     0.0000000000000000E+00 
    1.2499999999986650E-01     1.2500000000042691E-01     0.0000000000000000E+00 
    1.2499999999991319E-01     1.8750000000063199E-01     0.0000000000000000E+00 
    1.2499999999995989E-01     2.5000000000083678E-01     0.0000000000000000E+00 
    1.2500000000000661E-01     3.1250000000104172E-01     0.0000000000000000E+00 
    1.2500000000005329E-01     3.7500000000124661E-01     0.0000000000000000E+00 
    1.2500000000010000E-01     4.3750000000145117E-01     0.0000000000000000E+00 
    1.2500000000014669E-01     5.0000000000163858E-01     0.0000000000000000E+00 
    1.2500000000019340E-01     5.6250000000129741E-01     0.0000000000000000E+00 
    1.2500000000024011E-01     6.2500000000093847E-01     0.0000000000000000E+00 
    1.2500000000028680E-01     6.8750000000057998E-01     0.0000000000000000E+00 
    1.2500000000033351E-01     7.5000000000022127E-01     0.0000000000000000E+00 
    1.2500000000038020E-01     8.1249999999986211E-01     0.0000000000000000E+00 
    1.2500000000042691E-01     8.7499999999952238E-01     0.0000000000000000E+00 
    1.2500000000047359E-01     9.3749999999975164E-01     0.0000000000000000E+00 
    1.8749999999966760E-01     6.2500000000187531E-02     0.0000000000000000E+00 
    1.8749999999974179E-01     1.2500000000038020E-01     0.0000000000000000E+00 
    1.8749999999981601E-01     1.8750000000055780E-01     0.0000000000000000E+00 
    1.8749999999989009E-01     2.5000000000073502E-01     0.0000000000000000E+00 
    1.8749999999996431E-01     3.1250000000091221E-01     0.0000000000000000E+00 
    1.8750000000003850E-01     3.7500000000108941E-01     0.0000000000000000E+00 
    1.8750000000011269E-01     4.3750000000126649E-01     0.0000000000000000E+00 
    1.8750000000018691E-01     5.0000000000142808E-01     0.0000000000000000E+00 
    1.8750000000026110E-01     5.6250000000112244E-01     0.0000000000000000E+00 
    1.8750000000033529E-01     6.2500000000080080E-01     0.0000000000000000E+00 
    1.8750000000040951E-01     6.8750000000047962E-01     0.0000000000000000E+00 
    1.8750000000048361E-01     7.5000000000015843E-01     0.0000000000000000E+00 
    1.8750000000055780E-01     8.1249999999983680E-01     0.0000000000000000E+00 
    1.8750000000063199E-01     8.7499999999953304E-01     0.0000000000000000E+00 
    1.8750000000070621E-01     9.3749999999975764E-01     0.0000000000000000E+00 
    2.4999999999951281E-01     6.2500000000163314E-02     0.0000000000000000E+00 
    2.4999999999961461E-01     1.2500000000033351E-01     0.0000000000000000E+00 
    2.4999999999971650E-01     1.8750000000048361E-01     0.0000000000000000E+00 
    2.4999999999981831E-01     2.5000000000063310E-01     0.0000000000000000E+00 
    2.4999999999992020E-01     3.1250000000078260E-01     0.0000000000000000E+00 
    2.5000000000002198E-01     3.7500000000093209E-01     0.0000000000000000E+00 
    2.5000000000012390E-01     4.3750000000108180E-01     0.0000000000000000E+00 
    2.5000000000022571E-01     5.0000000000121769E-01     0.0000000000000000E+00 
    2.5000000000032763E-01     5.6250000000094724E-01     0.0000000000000000E+00 
    2.5000000000042938E-01     6.2500000000066314E-01     0.0000000000000000E+00 
    2.5000000000053119E-01     6.8750000000037925E-01     0.0000000000000000E+00 
[...]
CELL_DATA 256 
SCALARS Pressure double 1 
LOOKUP_TABLE default 

    2.4671961050684299E+00 
    2.3601152047448286E+00 
    2.2872709043545481E+00 
    2.2268432677154348E+00 
    2.1722965108781609E+00 
    2.1216377117382237E+00 
    2.0736676662195217E+00 
    2.0281382462249797E+00 
    1.9849868226385861E+00 
    1.9441671787759978E+00 
    1.8995684559547943E+00 
    1.8558712907607413E+00 
    1.8233537284644172E+00 
    1.7988789235763993E+00 
    1.7825079015015344E+00 
    1.7743097059189186E+00 
    2.3601312217333716E+00 
    2.3140125138194909E+00 
    2.2621276548106204E+00 
    2.2101200481848680E+00 
    2.1600031291574435E+00 
    2.1116872246076195E+00 
    2.0650208902783067E+00 
    2.0202308477144157E+00 
    1.9774242464494918E+00 
    1.9365080485698247E+00 
    1.8916260266735323E+00 
    1.8478939987063288E+00 
    1.8153352013003532E+00 
    1.7907873112925987E+00 
    1.7743486680679792E+00 
    1.7661146450401710E+00 
    2.2873149015039713E+00 
    2.2621543870525609E+00 
    2.2246221874183529E+00 
    2.1820480403145859E+00 
    2.1377953162494343E+00 
    2.0929531106984207E+00 
    2.0484289069726036E+00 
    2.0048206904148662E+00 
    1.9625274450677948E+00 
    1.9212367103622046E+00 
    1.8757096970603975E+00 
    1.8320197165851126E+00 
    1.7993399548113855E+00 
    1.7746159470282488E+00 
    1.7580195510027417E+00 
    1.7496971095708327E+00 
    2.2269197796921909E+00 
    2.2101741069772025E+00 
    2.1820738330140692E+00 
    2.1471827149212026E+00 
    2.1082604651985224E+00 
    2.0670686196324666E+00 
    2.0248916796807692E+00 
    1.9825708697392701E+00 
    1.9407638306090516E+00 
    1.8984647359003748E+00 
    1.8518340210832611E+00 
    1.8083864805582512E+00 
    1.7754159837163022E+00 
    1.7503463856209163E+00 
    1.7334551384234096E+00 
    1.7249664426391507E+00 
    2.1723923883872001E+00 
    2.1600728744504414E+00 
    2.1378413780278818E+00 
    2.1082842930428529E+00 
    2.0736559149428198E+00 
    2.0356511424860879E+00 
    1.9955319522514474E+00 
    1.9542878576769043E+00 
    1.9127360122253687E+00 
    1.8685676740791732E+00 
    1.8202879427372203E+00 
    1.7771908065532001E+00 
    1.7436151356150127E+00 
    1.7179294100334002E+00 
    1.7005325509597531E+00 
    1.6917587966011793E+00 
    2.1217373189816091E+00 
    2.1117717552052713E+00 
    2.0930205846541678E+00 
    2.0671171412050913E+00 
    2.0356779970750258E+00 
    2.0000498134844031E+00 
    1.9613967392275857E+00 
    1.9207482424820472E+00 
    1.8786585345658049E+00 
    1.8314953360276665E+00 
    1.7813342070696225E+00 
    1.7385147916518935E+00 
    1.7039447113079087E+00 
    1.6772523798705588E+00 
    1.6590313441844566E+00 
    1.6497923431928951E+00 
    2.0737760845513331E+00 
    2.0651193253959343E+00 
    2.0485113373117056E+00 
    2.0249488100942190E+00 
    1.9955641520252512E+00 
    1.9614140065367496E+00 
    1.9234883648070780E+00 
    1.8826330899909640E+00 
    1.8379943823910248E+00 
    1.7865424668843723E+00 
    1.7353866851303850E+00 
    1.6924479628172624E+00 
    1.6564116666628068E+00 
    1.6281239404164229E+00 
    1.6085735489547366E+00 
    1.5985801106290141E+00 
    2.0282477377359407E+00 
    2.0203412876563180E+00 
    2.0049257075303308E+00 
    1.9826472306909648E+00 
    1.9543404603873604E+00 
    1.9207984982103008E+00 
    1.8826792805870414E+00 
    1.8397952691984114E+00 
    1.7900609039216395E+00 
    1.7352398094445582E+00 
    1.6841684124694871E+00 
    1.6396558319017043E+00 
    1.6011650467922827E+00 
    1.5702936989451683E+00 
    1.5485969386313452E+00 
    1.5373794956934981E+00 
    1.9851399784734181E+00 
    1.9775915583925547E+00 
    1.9627017442784593E+00 
    1.9409126113378723E+00 
    1.9128546916687406E+00 
    1.8787657632559827E+00 
    1.8381046472493252E+00 
    1.7901103207883091E+00 
    1.7357301129489580E+00 
    1.6805833619400001E+00 
    1.6287832610716655E+00 
    1.5808654993292099E+00 
    1.5383094429745114E+00 
    1.5033010470738686E+00 
    1.4781621988361280E+00 
    1.4649647493711309E+00 
    1.9443945125988993E+00 
    1.9367250319585270E+00 
    1.9214152362048342E+00 
    1.8985928402847179E+00 
    1.8686770650340905E+00 
    1.8316184759667511E+00 
    1.7866672845471139E+00 
    1.7352696908194505E+00 
    1.6805632712720309E+00 
    1.6249387368607213E+00 
    1.5698644335361276E+00 
    1.5167146022069204E+00 
    1.4679021107319932E+00 
    1.4264381485246900E+00 
    1.3957958154312999E+00 
    1.3793574879296213E+00 
    1.8998349611856160E+00 
    1.8918561003328986E+00 
    1.8758718849924350E+00 
    1.8519503402441910E+00 
    1.8204105821901173E+00 
    1.7814725376576150E+00 
    1.7355042059879455E+00 
    1.6842196698213181E+00 
    1.6288045076797641E+00 
    1.5698853507822343E+00 
    1.5090434113335445E+00 
    1.4482063293332694E+00 
    1.3901297326892232E+00 
    1.3387371075311179E+00 
    1.2992067251655242E+00 
    1.2772993531601595E+00 
    1.8561457418647787E+00 
    1.8481498705754715E+00 
    1.8322523138622782E+00 
    1.8086090207790606E+00 
    1.7774029896606818E+00 
    1.7386965412439275E+00 
    1.6925887225277234E+00 
    1.6397547951387885E+00 
    1.5809341441147646E+00 
    1.5167626017676761E+00 
    1.4482301049143278E+00 
    1.3769674992111345E+00 
    1.3057136914291545E+00 
    1.2392165114723239E+00 
    1.1850376590021954E+00 
    1.1533568822156433E+00 
    1.8236407477250638E+00 
    1.8156080449365257E+00 
    1.7995946874604083E+00 
    1.7756551958228501E+00 
    1.7438361541439891E+00 
    1.7041391490616919E+00 
    1.6565735550323912E+00 
    1.6012943212249207E+00 
    1.5384093503694651E+00 
    1.4679759132189878E+00 
    1.3901767655394248E+00 
    1.3057361624949102E+00 
    1.2165605066880207E+00 
    1.1273941659973330E+00 
    1.0483946668061941E+00 
    9.9774536758971544E-01 
    1.7991700028648456E+00 
    1.7910686577253527E+00 
    1.7748828847998486E+00 
    1.7505966304633207E+00 
    1.7181599026947119E+00 
    1.6774585784602067E+00 
    1.6283018821274389E+00 
    1.5704428693933989E+00 
    1.5034219151123205E+00 
    1.4265316995245696E+00 
    1.3388029730279765E+00 
    1.2392573540204233E+00 
    1.1274125163128257E+00 
    1.0054148566624628E+00 
    8.8342071392974808E-01 
    7.9149310630032532E-01 
    1.7827991525842573E+00 
    1.7746321996612222E+00 
    1.7582905541765015E+00 
    1.7337099765776780E+00 
    1.7007680000543155E+00 
    1.6592441544231971E+00 
    1.6087602241674486E+00 
    1.5487564743124804E+00 
    1.4782942964369361E+00 
    1.3959008773792771E+00 
    1.2992842953987096E+00 
    1.1850903454242425E+00 
    1.0484252359109016E+00 
    8.8343329203958210E-01 
    6.8837886768091605E-01 
    4.9330379030615762E-01 
    1.7745945894578556E+00 
    1.7663931129836483E+00 
    1.7499642858796782E+00 
    1.7252182137584762E+00 
    1.6919917026250011E+00 
    1.6500035296146147E+00 
    1.5987662080737546E+00 
    1.5375392142253752E+00 
    1.4650976413893404E+00 
    1.3794638791195688E+00 
    1.2773792196067812E+00 
    1.1534127290523968E+00 
    9.9778014643981738E-01 
    7.9151093208669554E-01 
    4.9330978028650030E-01 
    0.0000000000000000E+00 

SCALARS Saturarion double 1 
LOOKUP_TABLE default 

    1.0000000159494620E+00 
    9.4928754371547652E-01 
    8.6929523316602586E-01 
    7.8825836404916083E-01 
    7.1465206890408572E-01 
    6.5327456862013267E-01 
    6.0154872009563065E-01 
    5.5212508137121497E-01 
    5.0648338447811581E-01 
    4.5963752789603890E-01 
    2.5137261389376403E-01 
    5.6266801098550396E-04 
    1.0040151750989582E-06 
    1.0000000003357024E-06 
    9.9999999999999953E-07 
    9.9999999999999995E-07 
    9.4928233562407227E-01 
    9.1599196482183232E-01 
    8.4566793775057836E-01 
    7.7170167050958371E-01 
    7.0376018857898792E-01 
    6.4652410073073296E-01 
    5.9677838593046639E-01 
    5.4862716739289286E-01 
    5.0454380140028443E-01 
    4.5711402590106565E-01 
    2.3102684027017834E-01 
    8.6630537525746301E-05 
    1.0033560237566478E-06 
    1.0000000008389988E-06 
    1.0000000000000002E-06 
    9.9999999999999995E-07 
    8.6928193346066429E-01 
    8.4565632266578916E-01 
    7.9269543663929953E-01 
    7.3615424419517317E-01 
    6.8122344288657566E-01 
    6.3140115103868966E-01 
    5.8468404010782327E-01 
    5.3978623139532789E-01 
    4.9879920047475562E-01 
    4.4897014029305737E-01 
    1.9864106645020793E-01 
    2.8233919397844243E-05 
    1.0003182802984610E-06 
    1.0000000000229980E-06 
    9.9999999999999974E-07 
    9.9999999999999995E-07 
    7.8824426558158533E-01 
    7.7169041942545369E-01 
    7.3613949941505386E-01 
    6.9524320085184066E-01 
    6.5349922523923520E-01 
    6.1015072726459763E-01 
    5.6781461090089946E-01 
    5.2705013693446634E-01 
    4.8826239243818914E-01 
    4.3408212142803893E-01 
    1.4910813832333369E-01 
    6.5914168822197872E-05 
    1.0014733792748844E-06 
    1.0000000001219579E-06 
    9.9999999999999995E-07 
    9.9999999999999995E-07 
    7.1463697885365829E-01 
    7.0374362677775604E-01 
    6.8118879073610372E-01 
    6.5348223179294196E-01 
    6.1929359130845063E-01 
    5.8310531020716228E-01 
    5.4722818429716602E-01 
    5.1132561060260295E-01 
    4.7479980896530100E-01 
    4.1090615470785125E-01 
    8.0403370159967208E-02 
    6.7622375330134740E-05 
    1.0006692741270703E-06 
    1.0000000000000927E-06 
    9.9999999999999995E-07 
    9.9999999999999995E-07 
    6.5327998307027735E-01 
    6.4651064860900354E-01 
    6.3137322709095256E-01 
    6.1014573026006758E-01 
    5.8305300902197865E-01 
    5.5358480848524472E-01 
    5.2307812599561376E-01 
    4.9167571157277384E-01 
    4.5871070226739824E-01 
    3.5204452270921111E-01 
    2.6401475744443140E-02 
    1.4043416456359164E-04 
    1.0004461009902577E-06 
    1.0000000000240777E-06 
    9.9999999999999995E-07 
    9.9999999999999995E-07 
    6.0151726901812463E-01 
    5.9670376093233091E-01 
    5.8462196197436145E-01 
    5.6765566301495995E-01 
    5.4687153867569938E-01 
    5.2272175297319268E-01 
    4.9667748267151363E-01 
    4.6966153366495306E-01 
    4.3121729716404633E-01 
    2.1189004388785748E-01 
    7.6502587065109746E-04 
    1.0708765529388719E-06 
    1.0000000088678896E-06 
    1.0000000000000002E-06 
    9.9999999999999995E-07 
    9.9999999999999995E-07 
    5.5208135177402640E-01 
    5.4865308729342011E-01 
    5.3986161384009590E-01 
    5.2719974300132844E-01 
    5.1184493894376093E-01 
    4.9194756632435238E-01 
    4.6929726093539625E-01 
    4.4195747033539767E-01 
    3.5521183002619794E-01 
    4.4208828627635324E-02 
    1.3803537836653578E-04 
    1.0033179693327968E-06 
    1.0000000000001586E-06 
    9.9999999999999995E-07 
    9.9999999999999995E-07 
    9.9999999999999995E-07 
    5.0747819240547809E-01 
    5.0537405809934832E-01 
    4.9899674373138109E-01 
    4.8866134306272263E-01 
    4.7624690500186989E-01 
    4.5902357693043422E-01 
    4.3121443340592103E-01 
    3.5290794454602442E-01 
    1.0370461882222266E-01 
    1.1387500823016896E-03 
    1.5050705491501345E-06 
    1.0000011049058837E-06 
    1.0000000000009463E-06 
    9.9999999999999995E-07 
    9.9999999999999995E-07 
    9.9999999999999995E-07 
    4.6003513828760983E-01 
    4.5653038261018142E-01 
    4.4780021828075733E-01 
    4.3234783930831694E-01 
    4.0957051662551419E-01 
    3.5306587572406017E-01 
    2.1690133727189173E-01 
    4.6190653395100374E-02 
    8.2534603310967041E-04 
    1.6713977376431046E-06 
    1.0000005492487034E-06 
    1.0000000000007818E-06 
    9.9999999999999995E-07 
    9.9999999999999995E-07 
    9.9999999999999995E-07 
    9.9999999999999995E-07 
    2.5238168254442006E-01 
    2.2936011603414921E-01 
    1.9347518456076063E-01 
    1.4073481779244570E-01 
    7.6686829170474910E-02 
    2.6603992757699129E-02 
    8.8645974294572971E-04 
    1.0086435724137297E-04 
    1.1707673475474309E-06 
    1.0000003899590039E-06 
    1.0000000000002526E-06 
    9.9999999999999995E-07 
    9.9999999999999995E-07 
    9.9999999999999995E-07 
    9.9999999999999995E-07 
    9.9999999999999995E-07 
    1.6462868327850758E-04 
    2.4280490962591482E-04 
    4.7737615085107664E-05 
    5.9559432386054570E-05 
    5.9990854165300569E-05 
    1.4065311566207781E-04 
    1.0866288759054659E-06 
    1.0009093051890516E-06 
    1.0000000975267660E-06 
    1.0000000000002424E-06 
    9.9999999999999995E-07 
    9.9999999999999995E-07 
    9.9999999999999995E-07 
    9.9999999999999995E-07 
    9.9999999999999995E-07 
    9.9999999999999995E-07 
    1.0000000100336751E-06 
    1.0040572285265524E-06 
    1.0010186454159656E-06 
    1.0010958435331887E-06 
    1.0005093754468937E-06 
    1.0004065283282369E-06 
    1.0000000121726863E-06 
    1.0000000000000453E-06 
    1.0000000000000082E-06 
    9.9999999999999995E-07 
    9.9999999999999995E-07 
    9.9999999999999995E-07 
    9.9999999999999995E-07 
    9.9999999999999995E-07 
    9.9999999999999995E-07 
    9.9999999999999995E-07 
    1.0000000000000027E-06 
    1.0000000014065268E-06 
    1.0000000001663447E-06 
    1.0000000000913510E-06 
    1.0000000000000677E-06 
    1.0000000000217619E-06 
    9.9999999999999847E-07 
    9.9999999999999995E-07 
    9.9999999999999995E-07 
    9.9999999999999995E-07 
    9.9999999999999995E-07 
    9.9999999999999995E-07 
    9.9999999999999995E-07 
    9.9999999999999995E-07 
    9.9999999999999995E-07 
    9.9999999999999995E-07 
    9.9999999999999995E-07 
    1.0000000000000004E-06 
    9.9999999999999974E-07 
    9.9999999999999995E-07 
    9.9999999999999995E-07 
    9.9999999999999995E-07 
    9.9999999999999995E-07 
    9.9999999999999995E-07 
    9.9999999999999995E-07 
    9.9999999999999995E-07 
    9.9999999999999995E-07 
    9.9999999999999995E-07 
    9.9999999999999995E-07 
    9.9999999999999995E-07 
    9.9999999999999995E-07 
    9.9999999999999995E-07 
    9.9999999999999995E-07 
    9.9999999999999995E-07 
    9.9999999999999995E-07 
    9.9999999999999995E-07 
    9.9999999999999995E-07 
    9.9999999999999995E-07 
    9.9999999999999995E-07 
    9.9999999999999995E-07 
    9.9999999999999995E-07 
    9.9999999999999995E-07 
    9.9999999999999995E-07 
    9.9999999999999995E-07 
    9.9999999999999995E-07 
    9.9999999999999995E-07 
    9.9999999999999995E-07 
    1.0000001193759567E-06 
