# vtk DataFile Version 2.0
Pressure Field Data 
ASCII 
DATASET UNSTRUCTURED_GRID 

POINTS 289 double 

    0.0000000000000000E+00     0.0000000000000000E+00     0.0000000000000000E+00 
    1.0000000000000000E+00     0.0000000000000000E+00     0.0000000000000000E+00 
    1.0000000000000000E+00     1.0000000000000000E+00     0.0000000000000000E+00 
    0.0000000000000000E+00     1.0000000000000000E+00     0.0000000000000000E+00 
    6.2499999999872928E-02     0.0000000000000000E+00     0.0000000000000000E+00 
    1.2499999999977310E-01     0.0000000000000000E+00     0.0000000000000000E+00 
    1.8749999999959341E-01     0.0000000000000000E+00     0.0000000000000000E+00 
    2.4999999999941089E-01     0.0000000000000000E+00     0.0000000000000000E+00 
    3.1249999999922851E-01     0.0000000000000000E+00     0.0000000000000000E+00 
    3.7499999999904610E-01     0.0000000000000000E+00     0.0000000000000000E+00 
    4.3749999999886358E-01     0.0000000000000000E+00     0.0000000000000000E+00 
    4.9999999999869210E-01     0.0000000000000000E+00     0.0000000000000000E+00 
    5.6249999999884603E-01     0.0000000000000000E+00     0.0000000000000000E+00 
    6.2499999999901090E-01     0.0000000000000000E+00     0.0000000000000000E+00 
    6.8749999999917577E-01     0.0000000000000000E+00     0.0000000000000000E+00 
    7.4999999999934064E-01     0.0000000000000000E+00     0.0000000000000000E+00 
    8.1249999999950551E-01     0.0000000000000000E+00     0.0000000000000000E+00 
    8.7499999999967026E-01     0.0000000000000000E+00     0.0000000000000000E+00 
    9.3749999999983513E-01     0.0000000000000000E+00     0.0000000000000000E+00 
    1.0000000000000000E+00     6.2499999999872928E-02     0.0000000000000000E+00 
    1.0000000000000000E+00     1.2499999999977310E-01     0.0000000000000000E+00 
    1.0000000000000000E+00     1.8749999999959341E-01     0.0000000000000000E+00 
    1.0000000000000000E+00     2.4999999999941089E-01     0.0000000000000000E+00 
    1.0000000000000000E+00     3.1249999999922851E-01     0.0000000000000000E+00 
    1.0000000000000000E+00     3.7499999999904610E-01     0.0000000000000000E+00 
    1.0000000000000000E+00     4.3749999999886358E-01     0.0000000000000000E+00 
    1.0000000000000000E+00     4.9999999999869210E-01     0.0000000000000000E+00 
    1.0000000000000000E+00     5.6249999999884603E-01     0.0000000000000000E+00 
    1.0000000000000000E+00     6.2499999999901090E-01     0.0000000000000000E+00 
    1.0000000000000000E+00     6.8749999999917577E-01     0.0000000000000000E+00 
    1.0000000000000000E+00     7.4999999999934064E-01     0.0000000000000000E+00 
    1.0000000000000000E+00     8.1249999999950551E-01     0.0000000000000000E+00 
    1.0000000000000000E+00     8.7499999999967026E-01     0.0000000000000000E+00 
    1.0000000000000000E+00     9.3749999999983513E-01     0.0000000000000000E+00 
    9.3749999999973976E-01     1.0000000000000000E+00     0.0000000000000000E+00 
    8.7499999999950118E-01     1.0000000000000000E+00     0.0000000000000000E+00 
    8.1249999999991318E-01     1.0000000000000000E+00     0.0000000000000000E+00 
    7.5000000000034706E-01     1.0000000000000000E+00     0.0000000000000000E+00 
    6.8750000000078049E-01     1.0000000000000000E+00     0.0000000000000000E+00 
    6.2500000000121403E-01     1.0000000000000000E+00     0.0000000000000000E+00 
    5.6250000000164757E-01     1.0000000000000000E+00     0.0000000000000000E+00 
    5.0000000000205946E-01     1.0000000000000000E+00     0.0000000000000000E+00 
    4.3750000000182099E-01     1.0000000000000000E+00     0.0000000000000000E+00 
    3.7500000000156092E-01     1.0000000000000000E+00     0.0000000000000000E+00 
    3.1250000000130068E-01     1.0000000000000000E+00     0.0000000000000000E+00 
    2.5000000000104050E-01     1.0000000000000000E+00     0.0000000000000000E+00 
    1.8750000000078040E-01     1.0000000000000000E+00     0.0000000000000000E+00 
    1.2500000000052031E-01     1.0000000000000000E+00     0.0000000000000000E+00 
    6.2500000000260125E-02     1.0000000000000000E+00     0.0000000000000000E+00 
    0.0000000000000000E+00     9.3749999999973976E-01     0.0000000000000000E+00 
    0.0000000000000000E+00     8.7499999999950118E-01     0.0000000000000000E+00 
    0.0000000000000000E+00     8.1249999999991318E-01     0.0000000000000000E+00 
    0.0000000000000000E+00     7.5000000000034706E-01     0.0000000000000000E+00 
    0.0000000000000000E+00     6.8750000000078049E-01     0.0000000000000000E+00 
    0.0000000000000000E+00     6.2500000000121403E-01     0.0000000000000000E+00 
    0.0000000000000000E+00     5.6250000000164757E-01     0.0000000000000000E+00 
    0.0000000000000000E+00     5.0000000000205946E-01     0.0000000000000000E+00 
    0.0000000000000000E+00     4.3750000000182099E-01     0.0000000000000000E+00 
    0.0000000000000000E+00     3.7500000000156092E-01     0.0000000000000000E+00 
    0.0000000000000000E+00     3.1250000000130068E-01     0.0000000000000000E+00 
    0.0000000000000000E+00     2.5000000000104050E-01     0.0000000000000000E+00 
    0.0000000000000000E+00     1.8750000000078040E-01     0.0000000000000000E+00 
    0.0000000000000000E+00     1.2500000000052031E-01     0.0000000000000000E+00 
    0.0000000000000000E+00     6.2500000000260125E-02     0.0000000000000000E+00 
    6.2499999999897131E-02     6.2500000000235922E-02     0.0000000000000000E+00 
    6.2499999999921327E-02     1.2500000000047351E-01     0.0000000000000000E+00 
    6.2499999999945530E-02     1.8750000000070621E-01     0.0000000000000000E+00 
    6.2499999999969733E-02     2.5000000000093858E-01     0.0000000000000000E+00 
    6.2499999999993928E-02     3.1250000000117117E-01     0.0000000000000000E+00 
    6.2500000000018124E-02     3.7500000000140382E-01     0.0000000000000000E+00 
    6.2500000000042327E-02     4.3750000000163619E-01     0.0000000000000000E+00 
    6.2500000000066530E-02     5.0000000000184897E-01     0.0000000000000000E+00 
    6.2500000000090733E-02     5.6250000000147260E-01     0.0000000000000000E+00 
    6.2500000000114922E-02     6.2500000000107636E-01     0.0000000000000000E+00 
    6.2500000000139125E-02     6.8750000000068034E-01     0.0000000000000000E+00 
    6.2500000000163328E-02     7.5000000000028411E-01     0.0000000000000000E+00 
    6.2500000000187531E-02     8.1249999999988787E-01     0.0000000000000000E+00 
    6.2500000000211720E-02     8.7499999999951172E-01     0.0000000000000000E+00 
    6.2500000000235922E-02     9.3749999999974565E-01     0.0000000000000000E+00 
    1.2499999999981980E-01     6.2500000000211733E-02     0.0000000000000000E+00 
    1.2499999999986650E-01     1.2500000000042691E-01     0.0000000000000000E+00 
    1.2499999999991319E-01     1.8750000000063199E-01     0.0000000000000000E+00 
    1.2499999999995989E-01     2.5000000000083678E-01     0.0000000000000000E+00 
    1.2500000000000661E-01     3.1250000000104172E-01     0.0000000000000000E+00 
    1.2500000000005329E-01     3.7500000000124661E-01     0.0000000000000000E+00 
    1.2500000000010000E-01     4.3750000000145117E-01     0.0000000000000000E+00 
    1.2500000000014669E-01     5.0000000000163858E-01     0.0000000000000000E+00 
    1.2500000000019340E-01     5.6250000000129741E-01     0.0000000000000000E+00 
    1.2500000000024011E-01     6.2500000000093847E-01     0.0000000000000000E+00 
    1.2500000000028680E-01     6.8750000000057998E-01     0.0000000000000000E+00 
    1.2500000000033351E-01     7.5000000000022127E-01     0.0000000000000000E+00 
    1.2500000000038020E-01     8.1249999999986211E-01     0.0000000000000000E+00 
    1.2500000000042691E-01     8.7499999999952238E-01     0.0000000000000000E+00 
    1.2500000000047359E-01     9.3749999999975164E-01     0.0000000000000000E+00 
    1.8749999999966760E-01     6.2500000000187531E-02     0.0000000000000000E+00 
    1.8749999999974179E-01     1.2500000000038020E-01     0.0000000000000000E+00 
    1.8749999999981601E-01     1.8750000000055780E-01     0.0000000000000000E+00 
    1.8749999999989009E-01     2.5000000000073502E-01     0.0000000000000000E+00 
    1.8749999999996431E-01     3.1250000000091221E-01     0.0000000000000000E+00 
    1.8750000000003850E-01     3.7500000000108941E-01     0.0000000000000000E+00 
    1.8750000000011269E-01     4.3750000000126649E-01     0.0000000000000000E+00 
    1.8750000000018691E-01     5.0000000000142808E-01     0.0000000000000000E+00 
    1.8750000000026110E-01     5.6250000000112244E-01     0.0000000000000000E+00 
    1.8750000000033529E-01     6.2500000000080080E-01     0.0000000000000000E+00 
    1.8750000000040951E-01     6.8750000000047962E-01     0.0000000000000000E+00 
    1.8750000000048361E-01     7.5000000000015843E-01     0.0000000000000000E+00 
    1.8750000000055780E-01     8.1249999999983680E-01     0.0000000000000000E+00 
    1.8750000000063199E-01     8.7499999999953304E-01     0.0000000000000000E+00 
    1.8750000000070621E-01     9.3749999999975764E-01     0.0000000000000000E+00 
    2.4999999999951281E-01     6.2500000000163314E-02     0.0000000000000000E+00 
    2.4999999999961461E-01     1.2500000000033351E-01     0.0000000000000000E+00 
    2.4999999999971650E-01     1.8750000000048361E-01     0.0000000000000000E+00 
    2.4999999999981831E-01     2.5000000000063310E-01     0.0000000000000000E+00 
    2.4999999999992020E-01     3.1250000000078260E-01     0.0000000000000000E+00 
    2.5000000000002198E-01     3.7500000000093209E-01     0.0000000000000000E+00 
    2.5000000000012390E-01     4.3750000000108180E-01     0.0000000000000000E+00 
    2.5000000000022571E-01     5.0000000000121769E-01     0.0000000000000000E+00 
    2.5000000000032763E-01     5.6250000000094724E-01     0.0000000000000000E+00 
    2.5000000000042938E-01     6.2500000000066314E-01     0.0000000000000000E+00 
    2.5000000000053119E-01     6.8750000000037925E-01     0.0000000000000000E+00 
[...]
CELL_DATA 256 
SCALARS Pressure double 1 
LOOKUP_TABLE default 

    2.8692948103698872E+00 
    2.7428070362629535E+00 
    2.6330037255689893E+00 
    2.5238465207099807E+00 
    2.4089030752087615E+00 
    2.2874701643285951E+00 
    2.1832068273266039E+00 
    2.0967654254861166E+00 
    2.0234188669710789E+00 
    1.9612242890043350E+00 
    1.9089655963854426E+00 
    1.8659377679879183E+00 
    1.8317370339010148E+00 
    1.8061650109708127E+00 
    1.7891404661593617E+00 
    1.7806395605537870E+00 
    2.7428035262407926E+00 
    2.6778374101253326E+00 
    2.5912067154099430E+00 
    2.4935788036356907E+00 
    2.3825652603742058E+00 
    2.2654185001070895E+00 
    2.1670585557811570E+00 
    2.0837499849071253E+00 
    2.0123458037709239E+00 
    1.9513334351613394E+00 
    1.8997790974433060E+00 
    1.8571440302809654E+00 
    1.8231353853508887E+00 
    1.7976384658967479E+00 
    1.7806328560778046E+00 
    1.7721400221694683E+00 
    2.6329510097401210E+00 
    2.5911914899773030E+00 
    2.5236386500091808E+00 
    2.4369386268510258E+00 
    2.3314092011412537E+00 
    2.2255848226919457E+00 
    2.1366972192972549E+00 
    2.0588960612941904E+00 
    1.9909379446114084E+00 
    1.9320480952186059E+00 
    1.8817419025934763E+00 
    1.8397801844457458E+00 
    1.8060777233901653E+00 
    1.7806759657601428E+00 
    1.7636706475505690E+00 
    1.7551647956548133E+00 
    2.5237975439353213E+00 
    2.4935501749471451E+00 
    2.4369585079200955E+00 
    2.3564505808061451E+00 
    2.2625105162049497E+00 
    2.1740367896556059E+00 
    2.0954575957114212E+00 
    2.0242626154886390E+00 
    1.9605285189733455E+00 
    1.9042426985029250E+00 
    1.8554305341388788E+00 
    1.8142110243024301E+00 
    1.7807737363697635E+00 
    1.7553745666463909E+00 
    1.7382750352502159E+00 
    1.7296957904195487E+00 
    2.4090406335721526E+00 
    2.3826963946745803E+00 
    2.3315332068870851E+00 
    2.2625495878674777E+00 
    2.1883644431858960E+00 
    2.1159863354551693E+00 
    2.0469260743393494E+00 
    1.9822307150721998E+00 
    1.9227367058620377E+00 
    1.8690263173978514E+00 
    1.8215898949028786E+00 
    1.7809072685182954E+00 
    1.7474828716765509E+00 
    1.7218337474372931E+00 
    1.7044350869014695E+00 
    1.6956639779538321E+00 
    2.2878228684848638E+00 
    2.2657882852554567E+00 
    2.2258762140958579E+00 
    2.1741924528625654E+00 
    2.1160600872904509E+00 
    2.0550595515754488E+00 
    1.9940958518140284E+00 
    1.9350572955632652E+00 
    1.8792247219777980E+00 
    1.8275989982862046E+00 
    1.7810397274445244E+00 
    1.7403831004947823E+00 
    1.7064597975550453E+00 
    1.6800965898798284E+00 
    1.6620428526628968E+00 
    1.6528837453287284E+00 
    2.1836176423654816E+00 
    2.1674350255951929E+00 
    2.1370004629754784E+00 
    2.0956689480312423E+00 
    2.0470568828473845E+00 
    1.9941567386375523E+00 
    1.9394355282884035E+00 
    1.8847513585297788E+00 
    1.8315742963239814E+00 
    1.7811426385917226E+00 
    1.7346243362707132E+00 
    1.6931517946744084E+00 
    1.6579087161848634E+00 
    1.6300861323930387E+00 
    1.6107959656841755E+00 
    1.6009276844616824E+00 
    2.0971692997247926E+00 
    2.0841241063025935E+00 
    2.0592149578119243E+00 
    2.0245118017365842E+00 
    1.9824098848178002E+00 
    1.9351719567565944E+00 
    1.8848072967311342E+00 
    1.8330087079727335E+00 
    1.7812388248656399E+00 
    1.7308571400032271E+00 
    1.6832232316357980E+00 
    1.6397574376933530E+00 
    1.6020011539505343E+00 
    1.5716064074760214E+00 
    1.5501917799761840E+00 
    1.5391102782980841E+00 
    2.0238322271417521E+00 
    2.0127340411262464E+00 
    1.9912809508569109E+00 
    1.9608137693975831E+00 
    1.9229601944373149E+00 
    1.8793888513901718E+00 
    1.8316844807722765E+00 
    1.7812943560586423E+00 
    1.7295738585606995E+00 
    1.6778886169759910E+00 
    1.6277094951032183E+00 
    1.5806810645136489E+00 
    1.5387522888406997E+00 
    1.5041677988331374E+00 
    1.4792881604993389E+00 
    1.4662149527782438E+00 
    1.9616588383277287E+00 
    1.9517454886998022E+00 
    1.9324216665686409E+00 
    1.9045665278723312E+00 
    1.8692949384612025E+00 
    1.8278127451548984E+00 
    1.7813075058217589E+00 
    1.7309684301998682E+00 
    1.6779445195221399E+00 
    1.6234950968454114E+00 
    1.5690769812553165E+00 
    1.5165087579781753E+00 
    1.4681544711437640E+00 
    1.4270213321787524E+00 
    1.3965905936087575E+00 
    1.3802542101143211E+00 
    1.9094265077473525E+00 
    1.9002207118192596E+00 
    1.8821505982489977E+00 
    1.8557962377794845E+00 
    1.8219069517985635E+00 
    1.7813064800446823E+00 
    1.7348415462785458E+00 
    1.6833885308999725E+00 
    1.6278213057209978E+00 
    1.5691336204320216E+00 
    1.5086038931671595E+00 
    1.4480957554173188E+00 
    1.3903082833765941E+00 
    1.3391399536419391E+00 
    1.2997608666541531E+00 
    1.2779346495463881E+00 
    1.8664252197781201E+00 
    1.8576149385247993E+00 
    1.8402224403693592E+00 
    1.8146150690121872E+00 
    1.7812669016707323E+00 
    1.7406954537385133E+00 
    1.6934161167679194E+00 
    1.6399714729401105E+00 
    1.5808422859257694E+00 
    1.5166151045595897E+00 
    1.4481467452745456E+00 
    1.3770225763278083E+00 
    1.3059169808453341E+00 
    1.2395477027981490E+00 
    1.1854596732475677E+00 
    1.1538313617864540E+00 
    1.8322465461797439E+00 
    1.8236304626394007E+00 
    1.8065472342131823E+00 
    1.7812085448756965E+00 
    1.7478766442555911E+00 
    1.7068090368913627E+00 
    1.6582120847809367E+00 
    1.6022556882624979E+00 
    1.5389550421830751E+00 
    1.4683032030039442E+00 
    1.3904022530813747E+00 
    1.3059602634429868E+00 
    1.2168237107177771E+00 
    1.1277067711956130E+00 
    1.0487455188644890E+00 
    9.9811859621513332E-01 
    1.8066882775037538E+00 
    1.7981489284181602E+00 
    1.7811632277151777E+00 
    1.7558299749886535E+00 
    1.7222510669945958E+00 
    1.6804719845389495E+00 
    1.6304176078894266E+00 
    1.5718902771583121E+00 
    1.5044008454114879E+00 
    1.4272011347754270E+00 
    1.3392658969044222E+00 
    1.2396238819800249E+00 
    1.1277402320314287E+00 
    1.0057325374909114E+00 
    8.8373164193253262E-01 
    7.9179062624366914E-01 
    1.7896662953714100E+00 
    1.7811471818735929E+00 
    1.7641637007395798E+00 
    1.7387386265819063E+00 
    1.7048630458412855E+00 
    1.6624310190644005E+00 
    1.6111416141626234E+00 
    1.5504908107609068E+00 
    1.4795373646475618E+00 
    1.3967873983931016E+00 
    1.2999052710378580E+00 
    1.1855559950822849E+00 
    1.0488004240082844E+00 
    8.8375386789454491E-01 
    6.8864875554934879E-01 
    4.9350250602887863E-01 
    1.7811549056463527E+00 
    1.7726449236314312E+00 
    1.7556499592530521E+00 
    1.7301533229403847E+00 
    1.6960876731961758E+00 
    1.6532691671052533E+00 
    1.6012711322754467E+00 
    1.5394077974228895E+00 
    1.4664636085990588E+00 
    1.3804514929484721E+00 
    1.2780820385127452E+00 
    1.1539332725343232E+00 
    9.9818130487329659E-01 
    7.9182241346045779E-01 
    4.9351311801708586E-01 
    0.0000000000000000E+00 

SCALARS Saturarion double 1 
LOOKUP_TABLE default 

    9.9956746286003251E-01 
    8.3791619468319012E-01 
    6.4394105114623990E-01 
    5.4398999193574493E-01 
    4.3099005495878051E-01 
    6.1135548429499288E-02 
    1.0017129337589628E-06 
    1.0000000013926108E-06 
    9.9999999999999995E-07 
    9.9999999999999995E-07 
    9.9999999999999995E-07 
    9.9999999999999995E-07 
    9.9999999999999995E-07 
    9.9999999999999995E-07 
    9.9999999999999995E-07 
    9.9999999999999995E-07 
    8.3788424005702034E-01 
    7.4144731133663011E-01 
    6.1886702957989792E-01 
    5.2554103379883743E-01 
    3.7337459143851909E-01 
    2.3026719120710793E-02 
    1.1729314388504353E-04 
    1.0000947642675574E-06 
    1.0000000000011432E-06 
    9.9999999999999995E-07 
    9.9999999999999995E-07 
    9.9999999999999995E-07 
    9.9999999999999995E-07 
    9.9999999999999995E-07 
    9.9999999999999995E-07 
    9.9999999999999995E-07 
    6.4379387149828959E-01 
    6.1875133701651042E-01 
    5.4979816627672162E-01 
    4.6849291645564295E-01 
    2.0627759812481244E-01 
    7.2100814209985844E-04 
    1.2233358535247059E-06 
    1.0000000161243250E-06 
    1.0000000000000031E-06 
    9.9999999999999995E-07 
    9.9999999999999995E-07 
    9.9999999999999995E-07 
    9.9999999999999995E-07 
    9.9999999999999995E-07 
    9.9999999999999995E-07 
    9.9999999999999995E-07 
    5.4466519300184979E-01 
    5.2558883512669785E-01 
    4.6692211518563620E-01 
    2.9976477156147358E-01 
    2.9501695290188285E-02 
    2.4611184038539151E-04 
    1.0040876719749674E-06 
    1.0000000035106538E-06 
    1.0000000000000004E-06 
    9.9999999999999995E-07 
    9.9999999999999995E-07 
    9.9999999999999995E-07 
    9.9999999999999995E-07 
    9.9999999999999995E-07 
    9.9999999999999995E-07 
    9.9999999999999995E-07 
    4.3112121657193875E-01 
    3.7812914399547137E-01 
    2.0819134677566464E-01 
    2.8103924328749530E-02 
    2.5897103745424271E-04 
    1.0126216932762823E-06 
    1.0000000013400728E-06 
    9.9999999999999995E-07 
    9.9999999999999995E-07 
    9.9999999999999995E-07 
    9.9999999999999995E-07 
    9.9999999999999995E-07 
    9.9999999999999995E-07 
    9.9999999999999995E-07 
    9.9999999999999995E-07 
    9.9999999999999995E-07 
    6.0152212102405067E-02 
    1.8169028189500426E-02 
    6.0943768461227768E-04 
    2.1972112249205120E-04 
    1.0119790753490379E-06 
    1.0000000014975853E-06 
    1.0000000000000004E-06 
    9.9999999999999995E-07 
    9.9999999999999995E-07 
    9.9999999999999995E-07 
    9.9999999999999995E-07 
    9.9999999999999995E-07 
    9.9999999999999995E-07 
    9.9999999999999995E-07 
    9.9999999999999995E-07 
    9.9999999999999995E-07 
    1.0113986457640004E-04 
    6.3012586627979147E-06 
    1.1243696183428418E-06 
    1.0038318568081007E-06 
    1.0000000019635015E-06 
    1.0000000000000002E-06 
    9.9999999999999995E-07 
    9.9999999999999995E-07 
    9.9999999999999995E-07 
    9.9999999999999995E-07 
    9.9999999999999995E-07 
    9.9999999999999995E-07 
    9.9999999999999995E-07 
    9.9999999999999995E-07 
    9.9999999999999995E-07 
    9.9999999999999995E-07 
    9.9999984405152694E-07 
    1.0000015090052665E-06 
    1.0000000117775437E-06 
    1.0000000013241547E-06 
    1.0000000000000002E-06 
    9.9999999999999995E-07 
    9.9999999999999995E-07 
    9.9999999999999995E-07 
    9.9999999999999995E-07 
    9.9999999999999995E-07 
    9.9999999999999995E-07 
    9.9999999999999995E-07 
    9.9999999999999995E-07 
    9.9999999999999995E-07 
    9.9999999999999995E-07 
    9.9999999999999995E-07 
    9.9999999999997730E-07 
    1.0000000000000705E-06 
    9.9999999999999784E-07 
    9.9999999999999995E-07 
    9.9999999999999995E-07 
    9.9999999999999995E-07 
    9.9999999999999995E-07 
    9.9999999999999995E-07 
    9.9999999999999995E-07 
    9.9999999999999995E-07 
    9.9999999999999995E-07 
    9.9999999999999995E-07 
    9.9999999999999995E-07 
    9.9999999999999995E-07 
    9.9999999999999995E-07 
    9.9999999999999995E-07 
    9.9999999999999995E-07 
    9.9999999999999995E-07 
    9.9999999999999995E-07 
    9.9999999999999995E-07 
    9.9999999999999995E-07 
    9.9999999999999995E-07 
    9.9999999999999995E-07 
    9.9999999999999995E-07 
    9.9999999999999995E-07 
    9.9999999999999995E-07 
    9.9999999999999995E-07 
    9.9999999999999995E-07 
    9.9999999999999995E-07 
    9.9999999999999995E-07 
    9.9999999999999995E-07 
    9.9999999999999995E-07 
    9.9999999999999995E-07 
    9.9999999999999995E-07 
    9.9999999999999995E-07 
    9.9999999999999995E-07 
    9.9999999999999995E-07 
    9.9999999999999995E-07 
    9.9999999999999995E-07 
    9.9999999999999995E-07 
    9.9999999999999995E-07 
    9.9999999999999995E-07 
    9.9999999999999995E-07 
    9.9999999999999995E-07 
    9.9999999999999995E-07 
    9.9999999999999995E-07 
    9.9999999999999995E-07 
    9.9999999999999995E-07 
    9.9999999999999995E-07 
    9.9999999999999995E-07 
    9.9999999999999995E-07 
    9.9999999999999995E-07 
    9.9999999999999995E-07 
    9.9999999999999995E-07 
    9.9999999999999995E-07 
    9.9999999999999995E-07 
    9.9999999999999995E-07 
    9.9999999999999995E-07 
    9.9999999999999995E-07 
    9.9999999999999995E-07 
    9.9999999999999995E-07 
    9.9999999999999995E-07 
    9.9999999999999995E-07 
    9.9999999999999995E-07 
    9.9999999999999995E-07 
    9.9999999999999995E-07 
    9.9999999999999995E-07 
    9.9999999999999995E-07 
    9.9999999999999995E-07 
    9.9999999999999995E-07 
    9.9999999999999995E-07 
    9.9999999999999995E-07 
    9.9999999999999995E-07 
    9.9999999999999995E-07 
    9.9999999999999995E-07 
    9.9999999999999995E-07 
    9.9999999999999995E-07 
    9.9999999999999995E-07 
    9.9999999999999995E-07 
    9.9999999999999995E-07 
    9.9999999999999995E-07 
    9.9999999999999995E-07 
    9.9999999999999995E-07 
    9.9999999999999995E-07 
    9.9999999999999995E-07 
    9.9999999999999995E-07 
    9.9999999999999995E-07 
    9.9999999999999995E-07 
    9.9999999999999995E-07 
    9.9999999999999995E-07 
    9.9999999999999995E-07 
    9.9999999999999995E-07 
    9.9999999999999995E-07 
    9.9999999999999995E-07 
    9.9999999999999995E-07 
    9.9999999999999995E-07 
    9.9999999999999995E-07 
    9.9999999999999995E-07 
    9.9999999999999995E-07 
    9.9999999999999995E-07 
    9.9999999999999995E-07 
    9.9999999999999995E-07 
    9.9999999999999995E-07 
    9.9999999999999995E-07 
    9.9999999999999995E-07 
    9.9999999999999995E-07 
    9.9999999999999995E-07 
    9.9999999999999995E-07 
    9.9999999999999995E-07 
    9.9999999999999995E-07 
    9.9999999999999995E-07 
    9.9999999999999995E-07 
    9.9999999999999995E-07 
    9.9999999999999995E-07 
    9.9999999999999995E-07 
    9.9999999999999995E-07 
    9.9999999999999995E-07 
    9.9999999999999995E-07 
    9.9999999999999995E-07 
    9.9999999999999995E-07 
    9.9999999999999995E-07 
    9.9999999999999995E-07 
    9.9999999999999995E-07 
    9.9999999999999995E-07 
    9.9999999999999995E-07 
    9.9999999999999995E-07 
    9.9999999999999995E-07 
    1.0000000240851042E-06 
