# vtk DataFile Version 2.0
Pressure Field Data 
ASCII 
DATASET UNSTRUCTURED_GRID 

POINTS 289 double 

    0.0000000000000000E+00     0.0000000000000000E+00     0.0000000000000000E+00 
    1.0000000000000000E+00     0.0000000000000000E+00     0.0000000000000000E+00 
    1.0000000000000000E+00     1.0000000000000000E+00     0.0000000000000000E+00 
    0.0000000000000000E+00     1.0000000000000000E+00     0.0000000000000000E+00 
    6.2499999999872928E-02     0.0000000000000000E+00     0.0000000000000000E+00 
    1.2499999999977310E-01     0.0000000000000000E+00     0.0000000000000000E+00 
    1.8749999999959341E-01     0.0000000000000000E+00     0.0000000000000000E+00 
    2.4999999999941089E-01     0.0000000000000000E+00     0.0000000000000000E+00 
    3.1249999999922851E-01     0.0000000000000000E+00     0.0000000000000000E+00 
    3.7499999999904610E-01     0.0000000000000000E+00     0.0000000000000000E+00 
    4.3749999999886358E-01     0.0000000000000000E+00     0.0000000000000000E+00 
    4.9999999999869210E-01     0.0000000000000000E+00     0.0000000000000000E+00 
    5.6249999999884603E-01     0.0000000000000000E+00     0.0000000000000000E+00 
    6.2499999999901090E-01     0.0000000000000000E+00     0.0000000000000000E+00 
    6.8749999999917577E-01     0.0000000000000000E+00     0.0000000000000000E+00 
    7.4999999999934064E-01     0.0000000000000000E+00     0.0000000000000000E+00 
    8.1249999999950551E-01     0.0000000000000000E+00     0.0000000000000000E+00 
    8.7499999999967026E-01     0.0000000000000000E+00     0.0000000000000000E+00 
    9.3749999999983513E-01     0.0000000000000000E+00     0.0000000000000000E+00 
    1.0000000000000000E+00     6.2499999999872928E-02     0.0000000000000000E+00 
    1.0000000000000000E+00     1.2499999999977310E-01     0.0000000000000000E+00 
    1.0000000000000000E+00     1.8749999999959341E-01     0.0000000000000000E+00 
    1.0000000000000000E+00     2.4999999999941089E-01     0.0000000000000000E+00 
    1.0000000000000000E+00     3.1249999999922851E-01     0.0000000000000000E+00 
    1.0000000000000000E+00     3.7499999999904610E-01     0.0000000000000000E+00 
    1.0000000000000000E+00     4.3749999999886358E-01     0.0000000000000000E+00 
    1.0000000000000000E+00     4.9999999999869210E-01     0.0000000000000000E+00 
    1.0000000000000000E+00     5.6249999999884603E-01     0.0000000000000000E+00 
    1.0000000000000000E+00     6.2499999999901090E-01     0.0000000000000000E+00 
    1.0000000000000000E+00     6.8749999999917577E-01     0.0000000000000000E+00 
    1.0000000000000000E+00     7.4999999999934064E-01     0.0000000000000000E+00 
    1.0000000000000000E+00     8.1249999999950551E-01     0.0000000000000000E+00 
    1.0000000000000000E+00     8.7499999999967026E-01     0.0000000000000000E+00 
    1.0000000000000000E+00     9.3749999999983513E-01     0.0000000000000000E+00 
    9.3749999999973976E-01     1.0000000000000000E+00     0.0000000000000000E+00 
    8.7499999999950118E-01     1.0000000000000000E+00     0.0000000000000000E+00 
    8.1249999999991318E-01     1.0000000000000000E+00     0.0000000000000000E+00 
    7.5000000000034706E-01     1.0000000000000000E+00     0.0000000000000000E+00 
    6.8750000000078049E-01     1.0000000000000000E+00     0.0000000000000000E+00 
    6.2500000000121403E-01     1.0000000000000000E+00     0.0000000000000000E+00 
    5.6250000000164757E-01     1.0000000000000000E+00     0.0000000000000000E+00 
    5.0000000000205946E-01     1.0000000000000000E+00     0.0000000000000000E+00 
    4.3750000000182099E-01     1.0000000000000000E+00     0.0000000000000000E+00 
    3.7500000000156092E-01     1.0000000000000000E+00     0.0000000000000000E+00 
    3.1250000000130068E-01     1.0000000000000000E+00     0.0000000000000000E+00 
    2.5000000000104050E-01     1.0000000000000000E+00     0.0000000000000000E+00 
    1.8750000000078040E-01     1.0000000000000000E+00     0.0000000000000000E+00 
    1.2500000000052031E-01     1.0000000000000000E+00     0.0000000000000000E+00 
    6.2500000000260125E-02     1.0000000000000000E+00     0.0000000000000000E+00 
    0.0000000000000000E+00     9.3749999999973976E-01     0.0000000000000000E+00 
    0.0000000000000000E+00     8.7499999999950118E-01     0.0000000000000000E+00 
    0.0000000000000000E+00     8.1249999999991318E-01     0.0000000000000000E+00 
    0.0000000000000000E+00     7.5000000000034706E-01     0.0000000000000000E+00 
    0.0000000000000000E+00     6.8750000000078049E-01     0.0000000000000000E+00 
    0.0000000000000000E+00     6.2500000000121403E-01     0.0000000000000000E+00 
    0.0000000000000000E+00     5.6250000000164757E-01     0.0000000000000000E+00 
    0.0000000000000000E+00     5.0000000000205946E-01     0.0000000000000000E+00 
    0.0000000000000000E+00     4.3750000000182099E-01     0.0000000000000000E+00 
    0.0000000000000000E+00     3.7500000000156092E-01     0.0000000000000000E+00 
    0.0000000000000000E+00     3.1250000000130068E-01     0.0000000000000000E+00 
    0.0000000000000000E+00     2.5000000000104050E-01     0.0000000000000000E+00 
    0.0000000000000000E+00     1.8750000000078040E-01     0.0000000000000000E+00 
    0.0000000000000000E+00     1.2500000000052031E-01     0.0000000000000000E+00 
    0.0000000000000000E+00     6.2500000000260125E-02     0.0000000000000000E+00 
    6.2499999999897131E-02     6.2500000000235922E-02     0.0000000000000000E+00 
    6.2499999999921327E-02     1.2500000000047351E-01     0.0000000000000000E+00 
    6.2499999999945530E-02     1.8750000000070621E-01     0.0000000000000000E+00 
    6.2499999999969733E-02     2.5000000000093858E-01     0.0000000000000000E+00 
    6.2499999999993928E-02     3.1250000000117117E-01     0.0000000000000000E+00 
    6.2500000000018124E-02     3.7500000000140382E-01     0.0000000000000000E+00 
    6.2500000000042327E-02     4.3750000000163619E-01     0.0000000000000000E+00 
    6.2500000000066530E-02     5.0000000000184897E-01     0.0000000000000000E+00 
    6.2500000000090733E-02     5.6250000000147260E-01     0.0000000000000000E+00 
    6.2500000000114922E-02     6.2500000000107636E-01     0.0000000000000000E+00 
    6.2500000000139125E-02     6.8750000000068034E-01     0.0000000000000000E+00 
    6.2500000000163328E-02     7.5000000000028411E-01     0.0000000000000000E+00 
    6.2500000000187531E-02     8.1249999999988787E-01     0.0000000000000000E+00 
    6.2500000000211720E-02     8.7499999999951172E-01     0.0000000000000000E+00 
    6.2500000000235922E-02     9.3749999999974565E-01     0.0000000000000000E+00 
    1.2499999999981980E-01     6.2500000000211733E-02     0.0000000000000000E+00 
    1.2499999999986650E-01     1.2500000000042691E-01     0.0000000000000000E+00 
    1.2499999999991319E-01     1.8750000000063199E-01     0.0000000000000000E+00 
    1.2499999999995989E-01     2.5000000000083678E-01     0.0000000000000000E+00 
    1.2500000000000661E-01     3.1250000000104172E-01     0.0000000000000000E+00 
    1.2500000000005329E-01     3.7500000000124661E-01     0.0000000000000000E+00 
    1.2500000000010000E-01     4.3750000000145117E-01     0.0000000000000000E+00 
    1.2500000000014669E-01     5.0000000000163858E-01     0.0000000000000000E+00 
    1.2500000000019340E-01     5.6250000000129741E-01     0.0000000000000000E+00 
    1.2500000000024011E-01     6.2500000000093847E-01     0.0000000000000000E+00 
    1.2500000000028680E-01     6.8750000000057998E-01     0.0000000000000000E+00 
    1.2500000000033351E-01     7.5000000000022127E-01     0.0000000000000000E+00 
    1.2500000000038020E-01     8.1249999999986211E-01     0.0000000000000000E+00 
    1.2500000000042691E-01     8.7499999999952238E-01     0.0000000000000000E+00 
    1.2500000000047359E-01     9.3749999999975164E-01     0.0000000000000000E+00 
    1.8749999999966760E-01     6.2500000000187531E-02     0.0000000000000000E+00 
    1.8749999999974179E-01     1.2500000000038020E-01     0.0000000000000000E+00 
    1.8749999999981601E-01     1.8750000000055780E-01     0.0000000000000000E+00 
    1.8749999999989009E-01     2.5000000000073502E-01     0.0000000000000000E+00 
    1.8749999999996431E-01     3.1250000000091221E-01     0.0000000000000000E+00 
    1.8750000000003850E-01     3.7500000000108941E-01     0.0000000000000000E+00 
    1.8750000000011269E-01     4.3750000000126649E-01     0.0000000000000000E+00 
    1.8750000000018691E-01     5.0000000000142808E-01     0.0000000000000000E+00 
    1.8750000000026110E-01     5.6250000000112244E-01     0.0000000000000000E+00 
    1.8750000000033529E-01     6.2500000000080080E-01     0.0000000000000000E+00 
    1.8750000000040951E-01     6.8750000000047962E-01     0.0000000000000000E+00 
    1.8750000000048361E-01     7.5000000000015843E-01     0.0000000000000000E+00 
    1.8750000000055780E-01     8.1249999999983680E-01     0.0000000000000000E+00 
    1.8750000000063199E-01     8.7499999999953304E-01     0.0000000000000000E+00 
    1.8750000000070621E-01     9.3749999999975764E-01     0.0000000000000000E+00 
    2.4999999999951281E-01     6.2500000000163314E-02     0.0000000000000000E+00 
    2.4999999999961461E-01     1.2500000000033351E-01     0.0000000000000000E+00 
    2.4999999999971650E-01     1.8750000000048361E-01     0.0000000000000000E+00 
    2.4999999999981831E-01     2.5000000000063310E-01     0.0000000000000000E+00 
    2.4999999999992020E-01     3.1250000000078260E-01     0.0000000000000000E+00 
    2.5000000000002198E-01     3.7500000000093209E-01     0.0000000000000000E+00 
    2.5000000000012390E-01     4.3750000000108180E-01     0.0000000000000000E+00 
    2.5000000000022571E-01     5.0000000000121769E-01     0.0000000000000000E+00 
    2.5000000000032763E-01     5.6250000000094724E-01     0.0000000000000000E+00 
    2.5000000000042938E-01     6.2500000000066314E-01     0.0000000000000000E+00 
    2.5000000000053119E-01     6.8750000000037925E-01     0.0000000000000000E+00 
[...]
CELL_DATA 256 
SCALARS Pressure double 1 
LOOKUP_TABLE default 

    2.2683362687452719E+00 
    2.1647516967919427E+00 
    2.0984517700788867E+00 
    2.0472421012931430E+00 
    2.0032306177091832E+00 
    1.9643047771515947E+00 
    1.9287245529087931E+00 
    1.8956477087946375E+00 
    1.8652436292607542E+00 
    1.8375309936787376E+00 
    1.8126407374172762E+00 
    1.7909176803171101E+00 
    1.7725366298158083E+00 
    1.7553192955453607E+00 
    1.7418657360483496E+00 
    1.7355392729155139E+00 
    2.1647765662877023E+00 
    2.1221226468429135E+00 
    2.0768148073313397E+00 
    2.0335042861054333E+00 
    1.9934114321518814E+00 
    1.9566374713880355E+00 
    1.9220579011725616E+00 
    1.8895820904774874E+00 
    1.8595096060491199E+00 
    1.8318862496932147E+00 
    1.8069641980439151E+00 
    1.7851381590083337E+00 
    1.7666094204495928E+00 
    1.7492209112532815E+00 
    1.7356142396032730E+00 
    1.7292177589663189E+00 
    2.0985175329581627E+00 
    2.0768554842507556E+00 
    2.0453756222416684E+00 
    2.0106493601135500E+00 
    1.9760132914678645E+00 
    1.9422303465837845E+00 
    1.9093132178089980E+00 
    1.8778871766542535E+00 
    1.8482811336926279E+00 
    1.8207599851455039E+00 
    1.7957253131571591E+00 
    1.7736241431948327E+00 
    1.7547635844813925E+00 
    1.7370049056049217E+00 
    1.7230724876256891E+00 
    1.7165190275303897E+00 
    2.0473644853371855E+00 
    2.0335976811560834E+00 
    2.0106991483637193E+00 
    1.9831085839278149E+00 
    1.9533186656778003E+00 
    1.9224445847811180E+00 
    1.8914164622801308E+00 
    1.8610980700599145E+00 
    1.8319335850169975E+00 
    1.8044088623825894E+00 
    1.7790301169351019E+00 
    1.7563975003424379E+00 
    1.7369606204526016E+00 
    1.7185733861009929E+00 
    1.7041013276973014E+00 
    1.6972826415949223E+00 
    2.0034062970831448E+00 
    1.9935508563976099E+00 
    1.9761088155917521E+00 
    1.9533664146941923E+00 
    1.9270986008192221E+00 
    1.8986902228114106E+00 
    1.8693651333528374E+00 
    1.8399494645431509E+00 
    1.8109843559858103E+00 
    1.7831212279208661E+00 
    1.7570342576203559E+00 
    1.7335089192902204E+00 
    1.7131346743453117E+00 
    1.6937669165197800E+00 
    1.6784753865494015E+00 
    1.6712479870205026E+00 
    1.9645080284582550E+00 
    1.9568124189107281E+00 
    1.9423669248988253E+00 
    1.9225369359384059E+00 
    1.8987371581636905E+00 
    1.8722558525547361E+00 
    1.8441707873702664E+00 
    1.8151723831315290E+00 
    1.7859184969075392E+00 
    1.7572326421414932E+00 
    1.7299620577365196E+00 
    1.7050335439851783E+00 
    1.6831952110137871E+00 
    1.6623530384258138E+00 
    1.6458484806127494E+00 
    1.6380106668463328E+00 
    1.9289590808365189E+00 
    1.9222698549152122E+00 
    1.9094893586987323E+00 
    1.8915480223548080E+00 
    1.8694490955718981E+00 
    1.8442096201745968E+00 
    1.8166476504234526E+00 
    1.7873884068024346E+00 
    1.7572429034775372E+00 
    1.7271364324836431E+00 
    1.6980418603814671E+00 
    1.6709675897696574E+00 
    1.6469240545102888E+00 
    1.6239273947462525E+00 
    1.6056673896342999E+00 
    1.5969250137398014E+00 
    1.8959139505526701E+00 
    1.8898263239354496E+00 
    1.8780959155549146E+00 
    1.8612644247362204E+00 
    1.8400718502515809E+00 
    1.8152518822454424E+00 
    1.7874276334690968E+00 
    1.7572579057255397E+00 
    1.7255869854437058E+00 
    1.6933391573145837E+00 
    1.6615032515379538E+00 
    1.6312628864463450E+00 
    1.6039506506764876E+00 
    1.5778954372761271E+00 
    1.5571903149007793E+00 
    1.5470986163179512E+00 
    1.8655359361902866E+00 
    1.8597813031180606E+00 
    1.8485209667160882E+00 
    1.8321355123860910E+00 
    1.8111448081895796E+00 
    1.7860354163022929E+00 
    1.7573198860127934E+00 
    1.7256229416660545E+00 
    1.6916948162443002E+00 
    1.6563560760472886E+00 
    1.6206327550772759E+00 
    1.5859122559054719E+00 
    1.5538942027898408E+00 
    1.5236347123698213E+00 
    1.4994215818434053E+00 
    1.4871326415940405E+00 
    1.8378451100000166E+00 
    1.8321823636746397E+00 
    1.8210298731981753E+00 
    1.8046453517637446E+00 
    1.7833176048328647E+00 
    1.7573816442654990E+00 
    1.7272400739143874E+00 
    1.6933976102226147E+00 
    1.6563799132308061E+00 
    1.6168848587408895E+00 
    1.5759549740538463E+00 
    1.5351326576329278E+00 
    1.4964806747090629E+00 
    1.4602872547031591E+00 
    1.4305005627548937E+00 
    1.4144461875481524E+00 
    1.8129780827599089E+00 
    1.8072877328410462E+00 
    1.7960276963960373E+00 
    1.7793047099606569E+00 
    1.7572711678928508E+00 
    1.7301459885545416E+00 
    1.6981631151887004E+00 
    1.6615717318709999E+00 
    1.6206687838632303E+00 
    1.5759707463204395E+00 
    1.5283751415688791E+00 
    1.4794063275945004E+00 
    1.4314576013898581E+00 
    1.3862789679966763E+00 
    1.3470865732065072E+00 
    1.3247027493490102E+00 
    1.7912832800470924E+00 
    1.7854936366009257E+00 
    1.7739629898375850E+00 
    1.7567131243066081E+00 
    1.7337934631037073E+00 
    1.7052650884027201E+00 
    1.6711231203023245E+00 
    1.6313568761570247E+00 
    1.5859709276288516E+00 
    1.5351634431817420E+00 
    1.4794148785525014E+00 
    1.4199120876154427E+00 
    1.3590041657143619E+00 
    1.2997372951232280E+00 
    1.2450306879717341E+00 
    1.2119661967416628E+00 
    1.7729358315236023E+00 
    1.7669992525341591E+00 
    1.7551365942713264E+00 
    1.7373106722178775E+00 
    1.7134537488556298E+00 
    1.6834521178274566E+00 
    1.6470955255790274E+00 
    1.6040565696776656E+00 
    1.5539563307142397E+00 
    1.4965083575365339E+00 
    1.4314697375046728E+00 
    1.3590425104809198E+00 
    1.2805865977638231E+00 
    1.1994889189773643E+00 
    1.1196713285015962E+00 
    1.0667333453776604E+00 
    1.7557426658553179E+00 
    1.7496325522583795E+00 
    1.7373963796238709E+00 
    1.7189390361912009E+00 
    1.6940876047666285E+00 
    1.6625913822630838E+00 
    1.6240725614376654E+00 
    1.5779508031090632E+00 
    1.5236021590274760E+00 
    1.4602367404903709E+00 
    1.3863199631929812E+00 
    1.2999232451607816E+00 
    1.1996527941891362E+00 
    1.0866161445904281E+00 
    9.6416423064398704E-01 
    8.6458630769322409E-01 
    1.7422971775553726E+00 
    1.7360338356603728E+00 
    1.7234705752888493E+00 
    1.7044677464257256E+00 
    1.6787840959736697E+00 
    1.6460738395102135E+00 
    1.6058054676973426E+00 
    1.5572322938425018E+00 
    1.4993782507380584E+00 
    1.4305221620228261E+00 
    1.3473458607877231E+00 
    1.2454594433829003E+00 
    1.1200017853315660E+00 
    9.6427758815772691E-01 
    7.6864812203255251E-01 
    5.5222599028023744E-01 
    1.7359625794037579E+00 
    1.7296294843304736E+00 
    1.7169081880067381E+00 
    1.6976361958576189E+00 
    1.6715429798857249E+00 
    1.6382286943292483E+00 
    1.5970614383288495E+00 
    1.5471567634099721E+00 
    1.4871462633823720E+00 
    1.4145691002881375E+00 
    1.3250687713614562E+00 
    1.2124490660053073E+00 
    1.0671059644451664E+00 
    8.6472577639191961E-01 
    5.5218233280710005E-01 
    0.0000000000000000E+00 

SCALARS Saturarion double 1 
LOOKUP_TABLE default 

    1.0000000002222975E+00 
    9.7188669327338106E-01 
    9.2245303146196356E-01 
    8.6747124992217206E-01 
    8.1196500164621577E-01 
    7.5850318470272871E-01 
    7.0908008651248422E-01 
    6.6409419314687212E-01 
    6.2260176604666284E-01 
    5.8171960394150191E-01 
    5.4038377756368927E-01 
    4.9895543690540095E-01 
    4.4662875097617699E-01 
    1.7103394785285148E-01 
    6.5964671629828507E-04 
    1.0196863514641619E-06 
    9.7188427157163182E-01 
    9.5116014261293713E-01 
    9.0711704969896634E-01 
    8.5533941974667782E-01 
    8.0301750298046914E-01 
    7.5229759181855826E-01 
    7.0482705385973499E-01 
    6.6126423675336499E-01 
    6.2083464980039249E-01 
    5.8082449590125218E-01 
    5.4003979868574747E-01 
    4.9889212887153661E-01 
    4.4693585632645533E-01 
    1.7127533967939565E-01 
    6.8543940465941398E-04 
    1.0000506288594615E-06 
    9.2243983228158055E-01 
    9.0710597727210918E-01 
    8.7106720408080729E-01 
    8.2767844500145715E-01 
    7.8232587685613952E-01 
    7.3714524173267426E-01 
    6.9398612052618025E-01 
    6.5379318561318656E-01 
    6.1578734504102106E-01 
    5.7743273774280268E-01 
    5.3810289870103933E-01 
    4.9809110761932596E-01 
    4.4680398932673454E-01 
    1.7132370931524543E-01 
    8.0544119088966459E-04 
    1.0226750460467307E-06 
    8.6744037971875543E-01 
    8.5531369140578339E-01 
    8.2766181125416260E-01 
    7.9206176733114009E-01 
    7.5502874816840304E-01 
    7.1711671275950917E-01 
    6.7958502417002109E-01 
    6.4350080940197996E-01 
    6.0830749728458511E-01 
    5.7226333913463789E-01 
    5.3512432092251361E-01 
    4.9674270510240570E-01 
    4.4642947526986743E-01 
    1.7390736512457722E-01 
    6.8795127742347429E-04 
    1.0043431972632724E-06 
    8.1193258556068815E-01 
    8.0299707777872542E-01 
    7.8230804827889933E-01 
    7.5501619399258046E-01 
    7.2508613794121479E-01 
    6.9457789056243580E-01 
    6.6314312214920335E-01 
    6.3132057119713147E-01 
    5.9910207639769131E-01 
    5.6612652116571438E-01 
    5.3176268133762539E-01 
    4.9560499658668145E-01 
    4.4685935946018490E-01 
    1.8859541146743727E-01 
    6.7062363368743496E-04 
    1.0229545948819489E-06 
    7.5853365951682250E-01 
    7.5230651139512095E-01 
    7.3713963142248262E-01 
    7.1710081394529424E-01 
    6.9456309619254264E-01 
    6.7032575553341667E-01 
    6.4414163231307908E-01 
    6.1669103940402692E-01 
    5.8840553218173020E-01 
    5.5910817443434557E-01 
    5.2784670413472845E-01 
    4.9473351849400615E-01 
    4.4961581848267107E-01 
    2.0864354950504010E-01 
    7.1622341912144229E-04 
    1.0085212375725403E-06 
    7.0911944434417351E-01 
    7.0484010199315361E-01 
    6.9397763371283228E-01 
    6.7955884089950602E-01 
    6.6311399030877438E-01 
    6.4412674261647440E-01 
    6.2267534468458197E-01 
    5.9989118376371953E-01 
    5.7609691274809782E-01 
    5.5083950683139360E-01 
    5.2296832883269617E-01 
    4.9242035436767390E-01 
    4.5137301337643243E-01 
    2.2784398540802520E-01 
    1.1744905092882572E-03 
    1.0703268754561721E-06 
    6.6410940273018604E-01 
    6.6126398960109933E-01 
    6.5377268049501969E-01 
    6.4346427599385392E-01 
    6.3128868407702132E-01 
    6.1667065428752643E-01 
    5.9987250028046524E-01 
    5.8169811890329437E-01 
    5.6245040435743232E-01 
    5.4143773928383565E-01 
    5.1762511616232332E-01 
    4.9008270421330946E-01 
    4.5209365269236307E-01 
    2.5083157049616556E-01 
    1.5690271792511128E-03 
    1.2980518427507161E-06 
    6.2261427612538811E-01 
    6.2082899825299953E-01 
    6.1575482703501416E-01 
    6.0826946122339054E-01 
    5.9907835941812881E-01 
    5.8837457241764235E-01 
    5.7603481576565285E-01 
    5.6237518661745933E-01 
    5.4743595526545097E-01 
    5.3084392724208107E-01 
    5.1147720162084553E-01 
    4.8814359375202199E-01 
    4.5456199645477252E-01 
    2.9082399504073159E-01 
    6.2219219716989922E-03 
    1.9194520272510590E-06 
    5.8173722816544282E-01 
    5.8078173084765305E-01 
    5.7734021324309426E-01 
    5.7216174590309599E-01 
    5.6602872303162599E-01 
    5.5896933753326883E-01 
    5.5063399092082466E-01 
    5.4120531088217494E-01 
    5.3064166305298499E-01 
    5.1856643284297543E-01 
    5.0398441477097533E-01 
    4.8584496717155029E-01 
    4.5819904462453293E-01 
    3.3622908788388400E-01 
    3.4340428887684994E-02 
    4.7702215022574939E-04 
    5.4055571665351676E-01 
    5.4015481435257895E-01 
    5.3820814002273454E-01 
    5.3522370883144299E-01 
    5.3178561811377723E-01 
    5.2785892058417372E-01 
    5.2306808422673789E-01 
    5.1772456883488482E-01 
    5.1143887610606631E-01 
    5.0384995339568850E-01 
    4.9436410125052344E-01 
    4.8168639782623590E-01 
    4.6203337352735996E-01 
    3.7855473344910279E-01 
    9.3380778553471738E-02 
    9.7258931218081171E-05 
    4.9945024559477164E-01 
    4.9940577588723550E-01 
    4.9857880453946923E-01 
    4.9698908375052187E-01 
    4.9557420780691941E-01 
    4.9467411174190568E-01 
    4.9279374845442431E-01 
    4.9107584136006083E-01 
    4.8908209129795377E-01 
    4.8615081803304799E-01 
    4.8162305597137922E-01 
    4.7509028317592922E-01 
    4.6352043746028071E-01 
    4.0905238505575103E-01 
    1.5597676476205602E-01 
    1.8527995451938936E-04 
    4.4754754224608817E-01 
    4.4765273183858922E-01 
    4.4717804396661182E-01 
    4.4683683261086937E-01 
    4.4707959366691330E-01 
    4.4825042231627382E-01 
    4.4995701717841319E-01 
    4.5195580877241009E-01 
    4.5493737918844929E-01 
    4.5872713023627054E-01 
    4.6255336332610170E-01 
    4.6358969584076842E-01 
    4.6108886583707043E-01 
    4.3315326605912624E-01 
    2.5870145101862435E-01 
    1.0001981415127613E-02 
    1.7298739536132507E-01 
    1.7306979627226526E-01 
    1.7238673876781360E-01 
    1.7204740132688467E-01 
    1.8139298221841707E-01 
    2.0408101380232802E-01 
    2.2608641371502189E-01 
    2.4579767223607168E-01 
    2.8812971183135044E-01 
    3.3447023048112873E-01 
    3.7898074876884374E-01 
    4.1180880578023854E-01 
    4.3270041390427949E-01 
    4.3702940144300667E-01 
    3.5056372821832271E-01 
    9.5433457750382311E-02 
    3.3801932212469812E-05 
    1.2678281150618234E-06 
    3.0516965282209962E-05 
    3.1979949572114759E-05 
    1.1331407728600667E-03 
    4.3737081979451257E-04 
    9.8228258250687662E-04 
    5.7628378837410073E-04 
    4.2196833726597660E-03 
    2.6942755047946260E-02 
    8.2314214389702628E-02 
    1.5045774577180845E-01 
    2.5795696289034614E-01 
    3.5047356991360945E-01 
    3.6265364590880877E-01 
    2.2115912785850231E-01 
    1.0000134555415699E-06 
    1.0000002341825089E-06 
    1.0000062372803690E-06 
    1.0000055055396111E-06 
    1.0741769273695711E-06 
    1.0070845396947229E-06 
    1.0524013387924472E-06 
    1.0252808955420064E-06 
    1.1785169705977647E-06 
    7.7728133666614217E-06 
    6.7156073754020624E-05 
    1.3258606715765603E-04 
    1.0765556158207418E-02 
    9.8792517163978633E-02 
    2.1867055392498785E-01 
    2.1700986587682791E-01 
