# vtk DataFile Version 2.0
Pressure Field Data 
ASCII 
DATASET UNSTRUCTURED_GRID 

POINTS 289 double 

    0.0000000000000000E+00     0.0000000000000000E+00     0.0000000000000000E+00 
    1.0000000000000000E+00     0.0000000000000000E+00     0.0000000000000000E+00 
    1.0000000000000000E+00     1.0000000000000000E+00     0.0000000000000000E+00 
    0.0000000000000000E+00     1.0000000000000000E+00     0.0000000000000000E+00 
    6.2499999999872928E-02     0.0000000000000000E+00     0.0000000000000000E+00 
    1.2499999999977310E-01     0.0000000000000000E+00     0.0000000000000000E+00 
    1.8749999999959341E-01     0.0000000000000000E+00     0.0000000000000000E+00 
    2.4999999999941089E-01     0.0000000000000000E+00     0.0000000000000000E+00 
    3.1249999999922851E-01     0.0000000000000000E+00     0.0000000000000000E+00 
    3.7499999999904610E-01     0.0000000000000000E+00     0.0000000000000000E+00 
    4.3749999999886358E-01     0.0000000000000000E+00     0.0000000000000000E+00 
    4.9999999999869210E-01     0.0000000000000000E+00     0.0000000000000000E+00 
    5.6249999999884603E-01     0.0000000000000000E+00     0.0000000000000000E+00 
    6.2499999999901090E-01     0.0000000000000000E+00     0.0000000000000000E+00 
    6.8749999999917577E-01     0.0000000000000000E+00     0.0000000000000000E+00 
    7.4999999999934064E-01     0.0000000000000000E+00     0.0000000000000000E+00 
    8.1249999999950551E-01     0.0000000000000000E+00     0.0000000000000000E+00 
    8.7499999999967026E-01     0.0000000000000000E+00     0.0000000000000000E+00 
    9.3749999999983513E-01     0.0000000000000000E+00     0.0000000000000000E+00 
    1.0000000000000000E+00     6.2499999999872928E-02     0.0000000000000000E+00 
    1.0000000000000000E+00     1.2499999999977310E-01     0.0000000000000000E+00 
    1.0000000000000000E+00     1.8749999999959341E-01     0.0000000000000000E+00 
    1.0000000000000000E+00     2.4999999999941089E-01     0.0000000000000000E+00 
    1.0000000000000000E+00     3.1249999999922851E-01     0.0000000000000000E+00 
    1.0000000000000000E+00     3.7499999999904610E-01     0.0000000000000000E+00 
    1.0000000000000000E+00     4.3749999999886358E-01     0.0000000000000000E+00 
    1.0000000000000000E+00     4.9999999999869210E-01     0.0000000000000000E+00 
    1.0000000000000000E+00     5.6249999999884603E-01     0.0000000000000000E+00 
    1.0000000000000000E+00     6.2499999999901090E-01     0.0000000000000000E+00 
    1.0000000000000000E+00     6.8749999999917577E-01     0.0000000000000000E+00 
    1.0000000000000000E+00     7.4999999999934064E-01     0.0000000000000000E+00 
    1.0000000000000000E+00     8.1249999999950551E-01     0.0000000000000000E+00 
    1.0000000000000000E+00     8.7499999999967026E-01     0.0000000000000000E+00 
    1.0000000000000000E+00     9.3749999999983513E-01     0.0000000000000000E+00 
    9.3749999999973976E-01     1.0000000000000000E+00     0.0000000000000000E+00 
    8.7499999999950118E-01     1.0000000000000000E+00     0.0000000000000000E+00 
    8.1249999999991318E-01     1.0000000000000000E+00     0.0000000000000000E+00 
    7.5000000000034706E-01     1.0000000000000000E+00     0.0000000000000000E+00 
    6.8750000000078049E-01     1.0000000000000000E+00     0.0000000000000000E+00 
    6.2500000000121403E-01     1.0000000000000000E+00     0.0000000000000000E+00 
    5.6250000000164757E-01     1.0000000000000000E+00     0.0000000000000000E+00 
    5.0000000000205946E-01     1.0000000000000000E+00     0.0000000000000000E+00 
    4.3750000000182099E-01     1.0000000000000000E+00     0.0000000000000000E+00 
    3.7500000000156092E-01     1.0000000000000000E+00     0.0000000000000000E+00 
    3.1250000000130068E-01     1.0000000000000000E+00     0.0000000000000000E+00 
    2.5000000000104050E-01     1.0000000000000000E+00     0.0000000000000000E+00 
    1.8750000000078040E-01     1.0000000000000000E+00     0.0000000000000000E+00 
    1.2500000000052031E-01     1.0000000000000000E+00     0.0000000000000000E+00 
    6.2500000000260125E-02     1.0000000000000000E+00     0.0000000000000000E+00 
    0.0000000000000000E+00     9.3749999999973976E-01     0.0000000000000000E+00 
    0.0000000000000000E+00     8.7499999999950118E-01     0.0000000000000000E+00 
    0.0000000000000000E+00     8.1249999999991318E-01     0.0000000000000000E+00 
    0.0000000000000000E+00     7.5000000000034706E-01     0.0000000000000000E+00 
    0.0000000000000000E+00     6.8750000000078049E-01     0.0000000000000000E+00 
    0.0000000000000000E+00     6.2500000000121403E-01     0.0000000000000000E+00 
    0.0000000000000000E+00     5.6250000000164757E-01     0.0000000000000000E+00 
    0.0000000000000000E+00     5.0000000000205946E-01     0.0000000000000000E+00 
    0.0000000000000000E+00     4.3750000000182099E-01     0.0000000000000000E+00 
    0.0000000000000000E+00     3.7500000000156092E-01     0.0000000000000000E+00 
    0.0000000000000000E+00     3.1250000000130068E-01     0.0000000000000000E+00 
    0.0000000000000000E+00     2.5000000000104050E-01     0.0000000000000000E+00 
    0.0000000000000000E+00     1.8750000000078040E-01     0.0000000000000000E+00 
    0.0000000000000000E+00     1.2500000000052031E-01     0.0000000000000000E+00 
    0.0000000000000000E+00     6.2500000000260125E-02     0.0000000000000000E+00 
    6.2499999999897131E-02     6.2500000000235922E-02     0.0000000000000000E+00 
    6.2499999999921327E-02     1.2500000000047351E-01     0.0000000000000000E+00 
    6.2499999999945530E-02     1.8750000000070621E-01     0.0000000000000000E+00 
    6.2499999999969733E-02     2.5000000000093858E-01     0.0000000000000000E+00 
    6.2499999999993928E-02     3.1250000000117117E-01     0.0000000000000000E+00 
    6.2500000000018124E-02     3.7500000000140382E-01     0.0000000000000000E+00 
    6.2500000000042327E-02     4.3750000000163619E-01     0.0000000000000000E+00 
    6.2500000000066530E-02     5.0000000000184897E-01     0.0000000000000000E+00 
    6.2500000000090733E-02     5.6250000000147260E-01     0.0000000000000000E+00 
    6.2500000000114922E-02     6.2500000000107636E-01     0.0000000000000000E+00 
    6.2500000000139125E-02     6.8750000000068034E-01     0.0000000000000000E+00 
    6.2500000000163328E-02     7.5000000000028411E-01     0.0000000000000000E+00 
    6.2500000000187531E-02     8.1249999999988787E-01     0.0000000000000000E+00 
    6.2500000000211720E-02     8.7499999999951172E-01     0.0000000000000000E+00 
    6.2500000000235922E-02     9.3749999999974565E-01     0.0000000000000000E+00 
    1.2499999999981980E-01     6.2500000000211733E-02     0.0000000000000000E+00 
    1.2499999999986650E-01     1.2500000000042691E-01     0.0000000000000000E+00 
    1.2499999999991319E-01     1.8750000000063199E-01     0.0000000000000000E+00 
    1.2499999999995989E-01     2.5000000000083678E-01     0.0000000000000000E+00 
    1.2500000000000661E-01     3.1250000000104172E-01     0.0000000000000000E+00 
    1.2500000000005329E-01     3.7500000000124661E-01     0.0000000000000000E+00 
    1.2500000000010000E-01     4.3750000000145117E-01     0.0000000000000000E+00 
    1.2500000000014669E-01     5.0000000000163858E-01     0.0000000000000000E+00 
    1.2500000000019340E-01     5.6250000000129741E-01     0.0000000000000000E+00 
    1.2500000000024011E-01     6.2500000000093847E-01     0.0000000000000000E+00 
    1.2500000000028680E-01     6.8750000000057998E-01     0.0000000000000000E+00 
    1.2500000000033351E-01     7.5000000000022127E-01     0.0000000000000000E+00 
    1.2500000000038020E-01     8.1249999999986211E-01     0.0000000000000000E+00 
    1.2500000000042691E-01     8.7499999999952238E-01     0.0000000000000000E+00 
    1.2500000000047359E-01     9.3749999999975164E-01     0.0000000000000000E+00 
    1.8749999999966760E-01     6.2500000000187531E-02     0.0000000000000000E+00 
    1.8749999999974179E-01     1.2500000000038020E-01     0.0000000000000000E+00 
    1.8749999999981601E-01     1.8750000000055780E-01     0.0000000000000000E+00 
    1.8749999999989009E-01     2.5000000000073502E-01     0.0000000000000000E+00 
    1.8749999999996431E-01     3.1250000000091221E-01     0.0000000000000000E+00 
    1.8750000000003850E-01     3.7500000000108941E-01     0.0000000000000000E+00 
    1.8750000000011269E-01     4.3750000000126649E-01     0.0000000000000000E+00 
    1.8750000000018691E-01     5.0000000000142808E-01     0.0000000000000000E+00 
    1.8750000000026110E-01     5.6250000000112244E-01     0.0000000000000000E+00 
    1.8750000000033529E-01     6.2500000000080080E-01     0.0000000000000000E+00 
    1.8750000000040951E-01     6.8750000000047962E-01     0.0000000000000000E+00 
    1.8750000000048361E-01     7.5000000000015843E-01     0.0000000000000000E+00 
    1.8750000000055780E-01     8.1249999999983680E-01     0.0000000000000000E+00 
    1.8750000000063199E-01     8.7499999999953304E-01     0.0000000000000000E+00 
    1.8750000000070621E-01     9.3749999999975764E-01     0.0000000000000000E+00 
    2.4999999999951281E-01     6.2500000000163314E-02     0.0000000000000000E+00 
    2.4999999999961461E-01     1.2500000000033351E-01     0.0000000000000000E+00 
    2.4999999999971650E-01     1.8750000000048361E-01     0.0000000000000000E+00 
    2.4999999999981831E-01     2.5000000000063310E-01     0.0000000000000000E+00 
    2.4999999999992020E-01     3.1250000000078260E-01     0.0000000000000000E+00 
    2.5000000000002198E-01     3.7500000000093209E-01     0.0000000000000000E+00 
    2.5000000000012390E-01     4.3750000000108180E-01     0.0000000000000000E+00 
    2.5000000000022571E-01     5.0000000000121769E-01     0.0000000000000000E+00 
    2.5000000000032763E-01     5.6250000000094724E-01     0.0000000000000000E+00 
    2.5000000000042938E-01     6.2500000000066314E-01     0.0000000000000000E+00 
    2.5000000000053119E-01     6.8750000000037925E-01     0.0000000000000000E+00 
[...]
CELL_DATA 256 
SCALARS Pressure double 1 
LOOKUP_TABLE default 

    2.3169988202645730E+00 
    2.2123527370127092E+00 
    2.1440811254565109E+00 
    2.0900741218799350E+00 
    2.0429055121803605E+00 
    2.0004290989055740E+00 
    1.9609224123603495E+00 
    1.9239837844167749E+00 
    1.8897123170159436E+00 
    1.8580990997761671E+00 
    1.8293864336466938E+00 
    1.8037483139383572E+00 
    1.7777715586910061E+00 
    1.7548116913229848E+00 
    1.7404350393516612E+00 
    1.7332098311323356E+00 
    2.2123705332064612E+00 
    2.1686667152078871E+00 
    2.1213505856481785E+00 
    2.0753759594273973E+00 
    2.0322940444873794E+00 
    1.9919983390719496E+00 
    1.9535939574679284E+00 
    1.9173305016823057E+00 
    1.8833875334653860E+00 
    1.8518380129737149E+00 
    1.8230691915841393E+00 
    1.7972771736355688E+00 
    1.7710551524268601E+00 
    1.7478470653154949E+00 
    1.7332999174052293E+00 
    1.7259874308460501E+00 
    2.1441302571838574E+00 
    2.1213813931274434E+00 
    2.0880142301667348E+00 
    2.0508967639121884E+00 
    2.0133763643793801E+00 
    1.9761533252570667E+00 
    1.9395841699042877E+00 
    1.9044204064098711E+00 
    1.8709397033713184E+00 
    1.8394714843990558E+00 
    1.8105334310374859E+00 
    1.7843749716951098E+00 
    1.7576187504065457E+00 
    1.7338823190711201E+00 
    1.7189699177393245E+00 
    1.7114648463866462E+00 
    2.0901661511321667E+00 
    2.0754453461810134E+00 
    2.0509327170695273E+00 
    2.0211148703468282E+00 
    1.9884863305806828E+00 
    1.9543490783848374E+00 
    1.9198434799095789E+00 
    1.8858308563634678E+00 
    1.8527790597472305E+00 
    1.8212523848746387E+00 
    1.7919090246325402E+00 
    1.7650856741419365E+00 
    1.7374200404033977E+00 
    1.7127991032497834E+00 
    1.6972759778576414E+00 
    1.6894468748799554E+00 
    2.0430336251518533E+00 
    2.0323933899224600E+00 
    2.0134434897433753E+00 
    1.9885199461800640E+00 
    1.9595528824108046E+00 
    1.9281150879854119E+00 
    1.8954368948062543E+00 
    1.8623166194918777E+00 
    1.8294200260927698E+00 
    1.7975115194865405E+00 
    1.7674040476649668E+00 
    1.7394802595451651E+00 
    1.7103773384202774E+00 
    1.6843924055010788E+00 
    1.6679365138858706E+00 
    1.6596119022619307E+00 
    2.0005729238509313E+00 
    1.9921217067157990E+00 
    1.9762502178658161E+00 
    1.9544154161643761E+00 
    1.9281495240049669E+00 
    1.8987901356523298E+00 
    1.8673502935590056E+00 
    1.8346075668039823E+00 
    1.8014036010670074E+00 
    1.7686408716301749E+00 
    1.7372243640531624E+00 
    1.7075677446837751E+00 
    1.6763119473191945E+00 
    1.6483347919060647E+00 
    1.6305171318783562E+00 
    1.6214676824293077E+00 
    1.9610903408678309E+00 
    1.9537461670849752E+00 
    1.9397113953242568E+00 
    1.9199395003160129E+00 
    1.8954992622435318E+00 
    1.8673794718198440E+00 
    1.8364215068973508E+00 
    1.8034328006225731E+00 
    1.7693373037666464E+00 
    1.7350535624608283E+00 
    1.7015728582578111E+00 
    1.6693307591080115E+00 
    1.6349641804337833E+00 
    1.6041409895412311E+00 
    1.5843641255697409E+00 
    1.5742662831081675E+00 
    1.9241737196237430E+00 
    1.9175045822566401E+00 
    1.9045702675286871E+00 
    1.8859517946460320E+00 
    1.8624059319788813E+00 
    1.8346637550428389E+00 
    1.8034587930130126E+00 
    1.7695846863531079E+00 
    1.7338717449512724E+00 
    1.6972293791164637E+00 
    1.6607279131388091E+00 
    1.6247618427269239E+00 
    1.5859449298337014E+00 
    1.5511279239668008E+00 
    1.5285758716279247E+00 
    1.5169727799333279E+00 
    1.8899135913013971E+00 
    1.8835747551710957E+00 
    1.8711075613721397E+00 
    1.8529209722861819E+00 
    1.8295258388946298E+00 
    1.8014695390334836E+00 
    1.7693770646109332E+00 
    1.7338931768905539E+00 
    1.6957072912910836E+00 
    1.6557243467185381E+00 
    1.6150684144453300E+00 
    1.5737649978598764E+00 
    1.5286138744799296E+00 
    1.4883245567200489E+00 
    1.4618617048357523E+00 
    1.4480801441888689E+00 
    1.8583124213912932E+00 
    1.8520431665620050E+00 
    1.8396663447342358E+00 
    1.8214256809733886E+00 
    1.7976424445338861E+00 
    1.7687249265109879E+00 
    1.7351176046654682E+00 
    1.6972856627620005E+00 
    1.6557627533441657E+00 
    1.6113918012516235E+00 
    1.5651566527960603E+00 
    1.5161270845620101E+00 
    1.4620923563987325E+00 
    1.4145556681001834E+00 
    1.3824756899074560E+00 
    1.3654114206904973E+00 
    1.8296354799621317E+00 
    1.8233177425066491E+00 
    1.8107794362127347E+00 
    1.7921361967693155E+00 
    1.7675886944838441E+00 
    1.7373667131920232E+00 
    1.7016946571711793E+00 
    1.6608355481306714E+00 
    1.6151567076835212E+00 
    1.5652160170687959E+00 
    1.5114455582387070E+00 
    1.4512951504065177E+00 
    1.3855587438960242E+00 
    1.3286785801915335E+00 
    1.2880513479049980E+00 
    1.2656664144927650E+00 
    1.8040518416684101E+00 
    1.7975764508741530E+00 
    1.7846614184821239E+00 
    1.7653406153144700E+00 
    1.7396878628295607E+00 
    1.7077376604887737E+00 
    1.6694830645541285E+00 
    1.6249161329867627E+00 
    1.5739408890973565E+00 
    1.5163346403778060E+00 
    1.4514422089024532E+00 
    1.3770175462983596E+00 
    1.2991405767951942E+00 
    1.2300698562591046E+00 
    1.1754384867255459E+00 
    1.1435651057313727E+00 
    1.7781180688823328E+00 
    1.7713876069684908E+00 
    1.7579230260189211E+00 
    1.7376816042979464E+00 
    1.7105929693809749E+00 
    1.6765005954457979E+00 
    1.6351500381743298E+00 
    1.5861580313973616E+00 
    1.5288733799509791E+00 
    1.4623890313158316E+00 
    1.3856978434476532E+00 
    1.2990905281510290E+00 
    1.2079857059124794E+00 
    1.1189173984118486E+00 
    1.0401022948798786E+00 
    9.8960490367311327E-01 
    1.7551650893173418E+00 
    1.7481877917699455E+00 
    1.7342004942728411E+00 
    1.7130880522222138E+00 
    1.6846554990857494E+00 
    1.6485844279516035E+00 
    1.6043841522150855E+00 
    1.5513719232970753E+00 
    1.4885655098252792E+00 
    1.4147628993554628E+00 
    1.3287135692213081E+00 
    1.2299772246869241E+00 
    1.1188866283142633E+00 
    9.9768618811139897E-01 
    8.7647221653240370E-01 
    7.8515689877082184E-01 
    1.7407896758499490E+00 
    1.7336439853858918E+00 
    1.7192962377963472E+00 
    1.6975805930607333E+00 
    1.6682215282985557E+00 
    1.6307869859943138E+00 
    1.5846180320899304E+00 
    1.5288135459019385E+00 
    1.4620737361587794E+00 
    1.3826368152917072E+00 
    1.2881141292077722E+00 
    1.1754291767086624E+00 
    1.0400946819664796E+00 
    8.7647135494273942E-01 
    6.8294130178870305E-01 
    4.8938158023853540E-01 
    1.7335564834487984E+00 
    1.7263254349463586E+00 
    1.7117881149370024E+00 
    1.6897518599724439E+00 
    1.6598984983362175E+00 
    1.6217372712599147E+00 
    1.5745167311357813E+00 
    1.5172004794959069E+00 
    1.4482749826787633E+00 
    1.3655564444061230E+00 
    1.2657439190051840E+00 
    1.1435900848732197E+00 
    9.8961146133124411E-01 
    7.8515910961579116E-01 
    4.8938236856990402E-01 
    0.0000000000000000E+00 

SCALARS Saturarion double 1 
LOOKUP_TABLE default 

    1.0000000028527090E+00 
    9.6496763916365780E-01 
    9.0587612663290440E-01 
    8.4218260293690816E-01 
    7.8008278279509735E-01 
    7.2228414627174931E-01 
    6.7091763312467567E-01 
    6.2561483924839956E-01 
    5.8247783292979838E-01 
    5.3967996600266666E-01 
    4.9850903429709337E-01 
    4.4943299234940542E-01 
    2.0359153172526101E-01 
    2.5065945468464147E-04 
    1.0012470663550416E-06 
    1.0000000001540903E-06 
    9.6496461900662400E-01 
    9.4029462555681775E-01 
    8.8790936178397917E-01 
    8.2851325071380888E-01 
    7.7025201690611511E-01 
    7.1557780653652303E-01 
    6.6647855387181121E-01 
    6.2267493265018603E-01 
    5.8051162595890038E-01 
    5.3860086130876161E-01 
    4.9791722230547081E-01 
    4.4927759068184625E-01 
    2.0025567730424912E-01 
    2.2399008534228364E-05 
    1.0000468725079861E-06 
    1.0000000000044312E-06 
    9.0586355071366265E-01 
    8.8789849687348532E-01 
    8.4595957637498242E-01 
    7.9752117139433831E-01 
    7.4791207580296770E-01 
    6.9979616374398079E-01 
    6.5563593254153396E-01 
    6.1497769912647426E-01 
    5.7485791378691520E-01 
    5.3492141054073483E-01 
    4.9581002223320675E-01 
    4.4732927111065834E-01 
    1.9403161973555969E-01 
    1.7374661765108996E-05 
    1.0000161000904609E-06 
    1.0000000000023412E-06 
    8.4215661336888570E-01 
    8.2849216401345760E-01 
    7.9750688106464362E-01 
    7.5890641849981955E-01 
    7.1954889635475916E-01 
    6.7993807818109664E-01 
    6.4136910417398540E-01 
    6.0382841858935354E-01 
    5.6649503785565780E-01 
    5.2947810922904925E-01 
    4.9255958797853111E-01 
    4.4498357506770020E-01 
    1.8813075210497376E-01 
    1.2454880456228724E-05 
    1.0000109674104773E-06 
    1.0000000000019134E-06 
    7.8006084607303861E-01 
    7.7023977569887281E-01 
    7.4789719089209650E-01 
    7.1953476476259481E-01 
    6.8893978890529972E-01 
    6.5713398345482388E-01 
    6.2377582429169931E-01 
    5.9013327620891642E-01 
    5.5651041417085012E-01 
    5.2262425096271803E-01 
    4.8847926337673192E-01 
    4.4236353152497687E-01 
    1.8122120203647471E-01 
    3.9409786202210717E-04 
    1.0019846229632300E-06 
    1.0000000002468086E-06 
    7.2230991676140743E-01 
    7.1558488627558992E-01 
    6.9978394263804400E-01 
    6.7991335868907388E-01 
    6.5712006174479420E-01 
    6.3093684920127580E-01 
    6.0269321357562777E-01 
    5.7399343631345157E-01 
    5.4487368099680789E-01 
    5.1437576854897138E-01 
    4.8251672247705529E-01 
    4.3753269672808237E-01 
    1.7607103028907087E-01 
    1.3707773740357106E-04 
    1.0064202001014663E-06 
    1.0000000005874067E-06 
    6.7094528940866538E-01 
    6.6648480934744558E-01 
    6.5561733965579438E-01 
    6.4133998090668731E-01 
    6.2376102583552595E-01 
    6.0267742347270725E-01 
    5.7972341910053615E-01 
    5.5597805908588804E-01 
    5.3124497895454270E-01 
    5.0489434846874692E-01 
    4.7597660816246029E-01 
    4.3299197544047141E-01 
    1.6736008099573108E-01 
    2.7007337852807255E-05 
    1.0003622906729255E-06 
    1.0000000000536927E-06 
    6.2563225884376117E-01 
    6.2267408719692796E-01 
    6.1495478579583562E-01 
    6.0381920921690035E-01 
    5.9012066974875466E-01 
    5.7391580846976742E-01 
    5.5585998911517731E-01 
    5.3644460956303208E-01 
    5.1587036582206869E-01 
    4.9360296544836252E-01 
    4.6927509636880005E-01 
    4.2696389265166484E-01 
    1.6298029910980713E-01 
    2.1574956623450028E-05 
    1.0002177716685669E-06 
    1.0000000000142794E-06 
    5.8242206518653361E-01 
    5.8042659329881718E-01 
    5.7474818763663094E-01 
    5.6640046280545120E-01 
    5.5636138234528043E-01 
    5.4461830298290981E-01 
    5.3095969870248849E-01 
    5.1562696662507412E-01 
    4.9908891155403956E-01 
    4.8130144616163323E-01 
    4.6073967864117227E-01 
    4.2039454690934863E-01 
    1.5289659354888241E-01 
    5.5502058326764417E-05 
    1.0004221105532912E-06 
    1.0000000000242926E-06 
    5.3983252289287886E-01 
    5.3872395778628523E-01 
    5.3509812673865242E-01 
    5.2957705922001153E-01 
    5.2272001155741488E-01 
    5.1475680380204147E-01 
    5.0533588580533317E-01 
    4.9374623996339806E-01 
    4.8115800601730790E-01 
    4.6834281772526154E-01 
    4.5153338400934673E-01 
    4.0740849374790744E-01 
    1.3004740657348735E-01 
    9.8183899996666702E-05 
    1.0007925234709875E-06 
    1.0000000000238859E-06 
    4.9915980785533409E-01 
    4.9865380435683082E-01 
    4.9634776237223055E-01 
    4.9262571639624075E-01 
    4.8845005499903971E-01 
    4.8334340528896097E-01 
    4.7748929352340680E-01 
    4.6985164377988242E-01 
    4.6075910422533956E-01 
    4.5118076520833827E-01 
    4.3677883214123292E-01 
    3.8119478687157526E-01 
    8.2250111321405112E-02 
    6.4989951884031577E-04 
    1.0014255306815139E-06 
    1.0000000000658362E-06 
    4.5057486537693675E-01 
    4.4995089148579942E-01 
    4.4744593277493372E-01 
    4.4418851674029469E-01 
    4.4143984819479687E-01 
    4.3658991387907475E-01 
    4.3260133824098884E-01 
    4.2764168987968515E-01 
    4.2155833086141464E-01 
    4.0800934380276943E-01 
    3.8187530471153169E-01 
    2.5878138409762963E-01 
    1.4661026560298308E-02 
    1.1457057228052007E-04 
    1.0010211355516856E-06 
    1.0000000002714526E-06 
    2.0394598000704672E-01 
    1.9923141863001578E-01 
    1.9184542979491911E-01 
    1.8404701955310449E-01 
    1.7760691817054652E-01 
    1.6775207886290350E-01 
    1.6172673661777867E-01 
    1.5915747842308822E-01 
    1.5151485123505470E-01 
    1.2944328534775434E-01 
    9.3550401594726579E-02 
    1.6390104965860915E-02 
    9.6198234321491385E-05 
    1.0271659017632626E-06 
    1.0000000234682609E-06 
    1.0000000000000031E-06 
    1.5853177211009437E-04 
    5.8511023536869877E-05 
    2.0832355950189432E-05 
    1.6736035853052796E-05 
    1.2173345958910664E-05 
    6.7065037663385374E-06 
    1.6617601748393180E-05 
    1.2400545535366951E-05 
    2.2836323007805132E-04 
    4.8345254558335594E-04 
    1.0639245136200718E-03 
    7.2407843459779898E-05 
    1.0007726307614090E-06 
    1.0000000010076060E-06 
    1.0000000000000016E-06 
    9.9999999999999995E-07 
    1.0001769482217483E-06 
    1.0006242186557403E-06 
    1.0001373157170967E-06 
    1.0000946920163930E-06 
    1.0000636187199845E-06 
    1.0000190965096987E-06 
    1.0001536752395587E-06 
    1.0000679018610334E-06 
    1.0002710831504062E-06 
    1.0037483163637182E-06 
    1.0566689129180074E-06 
    1.0071841398291729E-06 
    1.0000000024955293E-06 
    9.9999999999999953E-07 
    9.9999999999999995E-07 
    9.9999999999999995E-07 
    1.0000000000081634E-06 
    1.0000000000450009E-06 
    1.0000000000178726E-06 
    1.0000000000139027E-06 
    1.0000000000081044E-06 
    1.0000000000032352E-06 
    1.0000000000261925E-06 
    1.0000000000043418E-06 
    1.0000000000586043E-06 
    1.0000000003539924E-06 
    1.0000000054252678E-06 
    1.0000000010589188E-06 
    1.0000000000000004E-06 
    9.9999999999999995E-07 
    9.9999999999999995E-07 
    1.0000001881862130E-06 
