# vtk DataFile Version 2.0
Pressure Field Data 
ASCII 
DATASET UNSTRUCTURED_GRID 

POINTS 289 double 

    0.0000000000000000E+00     0.0000000000000000E+00     0.0000000000000000E+00 
    1.0000000000000000E+00     0.0000000000000000E+00     0.0000000000000000E+00 
    1.0000000000000000E+00     1.0000000000000000E+00     0.0000000000000000E+00 
    0.0000000000000000E+00     1.0000000000000000E+00     0.0000000000000000E+00 
    6.2499999999872928E-02     0.0000000000000000E+00     0.0000000000000000E+00 
    1.2499999999977310E-01     0.0000000000000000E+00     0.0000000000000000E+00 
    1.8749999999959341E-01     0.0000000000000000E+00     0.0000000000000000E+00 
    2.4999999999941089E-01     0.0000000000000000E+00     0.0000000000000000E+00 
    3.1249999999922851E-01     0.0000000000000000E+00     0.0000000000000000E+00 
    3.7499999999904610E-01     0.0000000000000000E+00     0.0000000000000000E+00 
    4.3749999999886358E-01     0.0000000000000000E+00     0.0000000000000000E+00 
    4.9999999999869210E-01     0.0000000000000000E+00     0.0000000000000000E+00 
    5.6249999999884603E-01     0.0000000000000000E+00     0.0000000000000000E+00 
    6.2499999999901090E-01     0.0000000000000000E+00     0.0000000000000000E+00 
    6.8749999999917577E-01     0.0000000000000000E+00     0.0000000000000000E+00 
    7.4999999999934064E-01     0.0000000000000000E+00     0.0000000000000000E+00 
    8.1249999999950551E-01     0.0000000000000000E+00     0.0000000000000000E+00 
    8.7499999999967026E-01     0.0000000000000000E+00     0.0000000000000000E+00 
    9.3749999999983513E-01     0.0000000000000000E+00     0.0000000000000000E+00 
    1.0000000000000000E+00     6.2499999999872928E-02     0.0000000000000000E+00 
    1.0000000000000000E+00     1.2499999999977310E-01     0.0000000000000000E+00 
    1.0000000000000000E+00     1.8749999999959341E-01     0.0000000000000000E+00 
    1.0000000000000000E+00     2.4999999999941089E-01     0.0000000000000000E+00 
    1.0000000000000000E+00     3.1249999999922851E-01     0.0000000000000000E+00 
    1.0000000000000000E+00     3.7499999999904610E-01     0.0000000000000000E+00 
    1.0000000000000000E+00     4.3749999999886358E-01     0.0000000000000000E+00 
    1.0000000000000000E+00     4.9999999999869210E-01     0.0000000000000000E+00 
    1.0000000000000000E+00     5.6249999999884603E-01     0.0000000000000000E+00 
    1.0000000000000000E+00     6.2499999999901090E-01     0.0000000000000000E+00 
    1.0000000000000000E+00     6.8749999999917577E-01     0.0000000000000000E+00 
    1.0000000000000000E+00     7.4999999999934064E-01     0.0000000000000000E+00 
    1.0000000000000000E+00     8.1249999999950551E-01     0.0000000000000000E+00 
    1.0000000000000000E+00     8.7499999999967026E-01     0.0000000000000000E+00 
    1.0000000000000000E+00     9.3749999999983513E-01     0.0000000000000000E+00 
    9.3749999999973976E-01     1.0000000000000000E+00     0.0000000000000000E+00 
    8.7499999999950118E-01     1.0000000000000000E+00     0.0000000000000000E+00 
    8.1249999999991318E-01     1.0000000000000000E+00     0.0000000000000000E+00 
    7.5000000000034706E-01     1.0000000000000000E+00     0.0000000000000000E+00 
    6.8750000000078049E-01     1.0000000000000000E+00     0.0000000000000000E+00 
    6.2500000000121403E-01     1.0000000000000000E+00     0.0000000000000000E+00 
    5.6250000000164757E-01     1.0000000000000000E+00     0.0000000000000000E+00 
    5.0000000000205946E-01     1.0000000000000000E+00     0.0000000000000000E+00 
    4.3750000000182099E-01     1.0000000000000000E+00     0.0000000000000000E+00 
    3.7500000000156092E-01     1.0000000000000000E+00     0.0000000000000000E+00 
    3.1250000000130068E-01     1.0000000000000000E+00     0.0000000000000000E+00 
    2.5000000000104050E-01     1.0000000000000000E+00     0.0000000000000000E+00 
    1.8750000000078040E-01     1.0000000000000000E+00     0.0000000000000000E+00 
    1.2500000000052031E-01     1.0000000000000000E+00     0.0000000000000000E+00 
    6.2500000000260125E-02     1.0000000000000000E+00     0.0000000000000000E+00 
    0.0000000000000000E+00     9.3749999999973976E-01     0.0000000000000000E+00 
    0.0000000000000000E+00     8.7499999999950118E-01     0.0000000000000000E+00 
    0.0000000000000000E+00     8.1249999999991318E-01     0.0000000000000000E+00 
    0.0000000000000000E+00     7.5000000000034706E-01     0.0000000000000000E+00 
    0.0000000000000000E+00     6.8750000000078049E-01     0.0000000000000000E+00 
    0.0000000000000000E+00     6.2500000000121403E-01     0.0000000000000000E+00 
    0.0000000000000000E+00     5.6250000000164757E-01     0.0000000000000000E+00 
    0.0000000000000000E+00     5.0000000000205946E-01     0.0000000000000000E+00 
    0.0000000000000000E+00     4.3750000000182099E-01     0.0000000000000000E+00 
    0.0000000000000000E+00     3.7500000000156092E-01     0.0000000000000000E+00 
    0.0000000000000000E+00     3.1250000000130068E-01     0.0000000000000000E+00 
    0.0000000000000000E+00     2.5000000000104050E-01     0.0000000000000000E+00 
    0.0000000000000000E+00     1.8750000000078040E-01     0.0000000000000000E+00 
    0.0000000000000000E+00     1.2500000000052031E-01     0.0000000000000000E+00 
    0.0000000000000000E+00     6.2500000000260125E-02     0.0000000000000000E+00 
    6.2499999999897131E-02     6.2500000000235922E-02     0.0000000000000000E+00 
    6.2499999999921327E-02     1.2500000000047351E-01     0.0000000000000000E+00 
    6.2499999999945530E-02     1.8750000000070621E-01     0.0000000000000000E+00 
    6.2499999999969733E-02     2.5000000000093858E-01     0.0000000000000000E+00 
    6.2499999999993928E-02     3.1250000000117117E-01     0.0000000000000000E+00 
    6.2500000000018124E-02     3.7500000000140382E-01     0.0000000000000000E+00 
    6.2500000000042327E-02     4.3750000000163619E-01     0.0000000000000000E+00 
    6.2500000000066530E-02     5.0000000000184897E-01     0.0000000000000000E+00 
    6.2500000000090733E-02     5.6250000000147260E-01     0.0000000000000000E+00 
    6.2500000000114922E-02     6.2500000000107636E-01     0.0000000000000000E+00 
    6.2500000000139125E-02     6.8750000000068034E-01     0.0000000000000000E+00 
    6.2500000000163328E-02     7.5000000000028411E-01     0.0000000000000000E+00 
    6.2500000000187531E-02     8.1249999999988787E-01     0.0000000000000000E+00 
    6.2500000000211720E-02     8.7499999999951172E-01     0.0000000000000000E+00 
    6.2500000000235922E-02     9.3749999999974565E-01     0.0000000000000000E+00 
    1.2499999999981980E-01     6.2500000000211733E-02     0.0000000000000000E+00 
    1.2499999999986650E-01     1.2500000000042691E-01     0.0000000000000000E+00 
    1.2499999999991319E-01     1.8750000000063199E-01     0.0000000000000000E+00 
    1.2499999999995989E-01     2.5000000000083678E-01     0.0000000000000000E+00 
    1.2500000000000661E-01     3.1250000000104172E-01     0.0000000000000000E+00 
    1.2500000000005329E-01     3.7500000000124661E-01     0.0000000000000000E+00 
    1.2500000000010000E-01     4.3750000000145117E-01     0.0000000000000000E+00 
    1.2500000000014669E-01     5.0000000000163858E-01     0.0000000000000000E+00 
    1.2500000000019340E-01     5.6250000000129741E-01     0.0000000000000000E+00 
    1.2500000000024011E-01     6.2500000000093847E-01     0.0000000000000000E+00 
    1.2500000000028680E-01     6.8750000000057998E-01     0.0000000000000000E+00 
    1.2500000000033351E-01     7.5000000000022127E-01     0.0000000000000000E+00 
    1.2500000000038020E-01     8.1249999999986211E-01     0.0000000000000000E+00 
    1.2500000000042691E-01     8.7499999999952238E-01     0.0000000000000000E+00 
    1.2500000000047359E-01     9.3749999999975164E-01     0.0000000000000000E+00 
    1.8749999999966760E-01     6.2500000000187531E-02     0.0000000000000000E+00 
    1.8749999999974179E-01     1.2500000000038020E-01     0.0000000000000000E+00 
    1.8749999999981601E-01     1.8750000000055780E-01     0.0000000000000000E+00 
    1.8749999999989009E-01     2.5000000000073502E-01     0.0000000000000000E+00 
    1.8749999999996431E-01     3.1250000000091221E-01     0.0000000000000000E+00 
    1.8750000000003850E-01     3.7500000000108941E-01     0.0000000000000000E+00 
    1.8750000000011269E-01     4.3750000000126649E-01     0.0000000000000000E+00 
    1.8750000000018691E-01     5.0000000000142808E-01     0.0000000000000000E+00 
    1.8750000000026110E-01     5.6250000000112244E-01     0.0000000000000000E+00 
    1.8750000000033529E-01     6.2500000000080080E-01     0.0000000000000000E+00 
    1.8750000000040951E-01     6.8750000000047962E-01     0.0000000000000000E+00 
    1.8750000000048361E-01     7.5000000000015843E-01     0.0000000000000000E+00 
    1.8750000000055780E-01     8.1249999999983680E-01     0.0000000000000000E+00 
    1.8750000000063199E-01     8.7499999999953304E-01     0.0000000000000000E+00 
    1.8750000000070621E-01     9.3749999999975764E-01     0.0000000000000000E+00 
    2.4999999999951281E-01     6.2500000000163314E-02     0.0000000000000000E+00 
    2.4999999999961461E-01     1.2500000000033351E-01     0.0000000000000000E+00 
    2.4999999999971650E-01     1.8750000000048361E-01     0.0000000000000000E+00 
    2.4999999999981831E-01     2.5000000000063310E-01     0.0000000000000000E+00 
    2.4999999999992020E-01     3.1250000000078260E-01     0.0000000000000000E+00 
    2.5000000000002198E-01     3.7500000000093209E-01     0.0000000000000000E+00 
    2.5000000000012390E-01     4.3750000000108180E-01     0.0000000000000000E+00 
    2.5000000000022571E-01     5.0000000000121769E-01     0.0000000000000000E+00 
    2.5000000000032763E-01     5.6250000000094724E-01     0.0000000000000000E+00 
    2.5000000000042938E-01     6.2500000000066314E-01     0.0000000000000000E+00 
    2.5000000000053119E-01     6.8750000000037925E-01     0.0000000000000000E+00 
[...]
CELL_DATA 256 
SCALARS Pressure double 1 
LOOKUP_TABLE default 

    2.6888336957580949E+00 
    2.5745946755784987E+00 
    2.4878954155934734E+00 
    2.4083217289769872E+00 
    2.3327618491142506E+00 
    2.2601229960111602E+00 
    2.1865687508174956E+00 
    2.1056287153466888E+00 
    2.0289929557691906E+00 
    1.9672417297911555E+00 
    1.9152001273424342E+00 
    1.8722772108772441E+00 
    1.8381205270391427E+00 
    1.8125609061919097E+00 
    1.7955340500032828E+00 
    1.7870269895167228E+00 
    2.5746103897935182E+00 
    2.5212379826143421E+00 
    2.4559644223975359E+00 
    2.3863247452473804E+00 
    2.3161166954796228E+00 
    2.2463444660485381E+00 
    2.1729561981877503E+00 
    2.0923887757574553E+00 
    2.0183596908429875E+00 
    1.9575506828203673E+00 
    1.9061081634986974E+00 
    1.8635281345910133E+00 
    1.8295387890639154E+00 
    1.8040418759396559E+00 
    1.7870271472099335E+00 
    1.7785216709425762E+00 
    2.4879315669418012E+00 
    2.4559858843245093E+00 
    2.4067865520378779E+00 
    2.3484314323186739E+00 
    2.2853238415050150E+00 
    2.2196031142094146E+00 
    2.1462231234648819E+00 
    2.0670277599762490E+00 
    1.9975082985605472E+00 
    1.9385330277989383E+00 
    1.8881993147311626E+00 
    1.8462199715448986E+00 
    1.8124975911184265E+00 
    1.7870744311640419E+00 
    1.7700481082627848E+00 
    1.7615217863578903E+00 
    2.4083663859230473E+00 
    2.3863638375486511E+00 
    2.3484671226639571E+00 
    2.2995554435021996E+00 
    2.2432019317899199E+00 
    2.1801287636115729E+00 
    2.1065872161009431E+00 
    2.0317485585094048E+00 
    1.9674121400601805E+00 
    1.9109148001966740E+00 
    1.8619827525915453E+00 
    1.8206840140586578E+00 
    1.7871881218103269E+00 
    1.7617442237241829E+00 
    1.7446105737998572E+00 
    1.7360036809164667E+00 
    2.3327625399431207E+00 
    2.3161326353865936E+00 
    2.2853793057539158E+00 
    2.2432518025078854E+00 
    2.1911219019356456E+00 
    2.1279374533282631E+00 
    2.0568292632807861E+00 
    1.9894896808050200E+00 
    1.9297096889351326E+00 
    1.8757725935814467E+00 
    1.8281727895188151E+00 
    1.7873693335911702E+00 
    1.7538549636298402E+00 
    1.7281395573651643E+00 
    1.7106939163185371E+00 
    1.7018892732023927E+00 
    2.2601656160290116E+00 
    2.2464328346496667E+00 
    2.2197152344145761E+00 
    2.1802057709717766E+00 
    2.1279395777201602E+00 
    2.0659477267777002E+00 
    2.0024206171990917E+00 
    1.9424106604779212E+00 
    1.8862182432902983E+00 
    1.8343374223232904E+00 
    1.7875892129171820E+00 
    1.7467840368087308E+00 
    1.7127468587573433E+00 
    1.6862981393691103E+00 
    1.6681835009507993E+00 
    1.6589842078332964E+00 
    2.1866976399881377E+00 
    2.1730924213331235E+00 
    2.1463467329608830E+00 
    2.1066476366719882E+00 
    2.0568104080651777E+00 
    2.0024002735172459E+00 
    1.9469158561282158E+00 
    1.8919185910184644E+00 
    1.8384612670809548E+00 
    1.7877957362492767E+00 
    1.7410796460836957E+00 
    1.6994437967245497E+00 
    1.6640691357268609E+00 
    1.6361453932765602E+00 
    1.6167833805091056E+00 
    1.6068700094675010E+00 
    2.1058417630891721E+00 
    2.0925461571486381E+00 
    2.0671424262661149E+00 
    2.0318040971256184E+00 
    1.9894912610756006E+00 
    1.9424061887529667E+00 
    1.8919271160920441E+00 
    1.8399336745255528E+00 
    1.7879473174626894E+00 
    1.7373552128867098E+00 
    1.6895245283973104E+00 
    1.6458836155170409E+00 
    1.6079804785679619E+00 
    1.5774705073139828E+00 
    1.5559751249035623E+00 
    1.5448468389538115E+00 
    2.0293128338624813E+00 
    2.0186475977338980E+00 
    1.9977182086170369E+00 
    1.9675310793748471E+00 
    1.9297777828156577E+00 
    1.8862670538383204E+00 
    1.8385009778799919E+00 
    1.7879711503066649E+00 
    1.7360722853127954E+00 
    1.6841934077720757E+00 
    1.6338165042166499E+00 
    1.5866023431909737E+00 
    1.5445108221227228E+00 
    1.5097943782759637E+00 
    1.4848215394523929E+00 
    1.4716979302909654E+00 
    1.9675427501181648E+00 
    1.9578254376323272E+00 
    1.9387586718879832E+00 
    1.9110839191253550E+00 
    1.8758979711554036E+00 
    1.8344340030352513E+00 
    1.7878732137728706E+00 
    1.7374104853568288E+00 
    1.6842226881412239E+00 
    1.6295842555334221E+00 
    1.5749658520501200E+00 
    1.5221987555261132E+00 
    1.4736620689365594E+00 
    1.4323734375375208E+00 
    1.4018279342329023E+00 
    1.3854303816279037E+00 
    1.9154982678484880E+00 
    1.9063868446854633E+00 
    1.8884445725582464E+00 
    1.8621885926102881E+00 
    1.8283423130470438E+00 
    1.7877286384146251E+00 
    1.7411933382818914E+00 
    1.6896127108390193E+00 
    1.6338774970932826E+00 
    1.5749974614610285E+00 
    1.5142660683290672E+00 
    1.4535446851473393E+00 
    1.3955477356579713E+00 
    1.3441906835636253E+00 
    1.3046642144299756E+00 
    1.2827508501573450E+00 
    1.8725809084795997E+00 
    1.8638172577018899E+00 
    1.8464845081828649E+00 
    1.8209182594992479E+00 
    1.7875723740764180E+00 
    1.7469575465338725E+00 
    1.6995896441229783E+00 
    1.6460024920929204E+00 
    1.5866929168182360E+00 
    1.5222592338157990E+00 
    1.4535737416016394E+00 
    1.3822008138155975E+00 
    1.3108390743902776E+00 
    1.2442255213441455E+00 
    1.1899358352089362E+00 
    1.1581834275321781E+00 
    1.8384323232950182E+00 
    1.8298391097615190E+00 
    1.8127783468566327E+00 
    1.7874437752242984E+00 
    1.7540829998338630E+00 
    1.7129468617724268E+00 
    1.6642416049785420E+00 
    1.6081254526540107E+00 
    1.5446269832784807E+00 
    1.4737479336604500E+00 
    1.3956022168197535E+00 
    1.3108645411714492E+00 
    1.2214044857856063E+00 
    1.1319556805728979E+00 
    1.0526971969676993E+00 
    1.0018756066211856E+00 
    1.8128788089776600E+00 
    1.8043502228852921E+00 
    1.7873662054270987E+00 
    1.7620141696203941E+00 
    1.7283846205193218E+00 
    1.6865169072007229E+00 
    1.6363372472220474E+00 
    1.5776347388464453E+00 
    1.5099296440399850E+00 
    1.4324784811091438E+00 
    1.3442646442222936E+00 
    1.2442707928574086E+00 
    1.1319757461994771E+00 
    1.0095071769365003E+00 
    8.8704240270561974E-01 
    7.9475455128579453E-01 
    1.7958526846803218E+00 
    1.7873375030040020E+00 
    1.7703438468204147E+00 
    1.7448867112884157E+00 
    1.7109471643473027E+00 
    1.6684119187008195E+00 
    1.6169854454430135E+00 
    1.5561496146032570E+00 
    1.4849672179928708E+00 
    1.4019437791550082E+00 
    1.3047496735809156E+00 
    1.1899933555139273E+00 
    1.0527302135272134E+00 
    8.8705583202466898E-01 
    6.9120719928103114E-01 
    4.9533468633444955E-01 
    1.7873386087031757E+00 
    1.7788260301699661E+00 
    1.7618128799347563E+00 
    1.7362766166519465E+00 
    1.7021405444721580E+00 
    1.6592116117617302E+00 
    1.6070714639882209E+00 
    1.5450209468978107E+00 
    1.4718435873005684E+00 
    1.3855467076069370E+00 
    1.2828381015343198E+00 
    1.1582440889678833E+00 
    1.0019130988813285E+00 
    7.9477361552845760E-01 
    4.9534105887406593E-01 
    0.0000000000000000E+00 

SCALARS Saturarion double 1 
LOOKUP_TABLE default 

    1.0000000827939668E+00 
    9.0627990311476203E-01 
    7.7049140451726361E-01 
    6.6095289172088512E-01 
    5.8652042886330036E-01 
    5.2021905910796040E-01 
    4.5102253750208127E-01 
    1.3557576232054203E-01 
    1.0000563938903545E-06 
    1.0000000000508289E-06 
    9.9999999999999974E-07 
    9.9999999999999995E-07 
    9.9999999999999995E-07 
    9.9999999999999995E-07 
    9.9999999999999995E-07 
    9.9999999999999995E-07 
    9.0626805573583258E-01 
    8.4658909743050947E-01 
    7.3554883471752186E-01 
    6.4563336029710738E-01 
    5.7524132846355269E-01 
    5.1260933917251539E-01 
    4.3089531813671056E-01 
    9.7882876133781660E-02 
    4.7214155844777525E-04 
    1.0008370173232794E-06 
    1.0000000000756832E-06 
    9.9999999999999995E-07 
    9.9999999999999995E-07 
    9.9999999999999995E-07 
    9.9999999999999995E-07 
    9.9999999999999995E-07 
    7.7049085703835518E-01 
    7.3553339170092347E-01 
    6.7558023388279331E-01 
    6.1170105043892109E-01 
    5.4941684620470865E-01 
    4.9150407961195919E-01 
    3.7671191860919961E-01 
    3.5024066160086853E-02 
    2.9727551387500933E-04 
    1.0007021686112290E-06 
    1.0000000000725731E-06 
    9.9999999999999995E-07 
    9.9999999999999995E-07 
    9.9999999999999995E-07 
    9.9999999999999995E-07 
    9.9999999999999995E-07 
    6.6090474450564818E-01 
    6.4556548130765956E-01 
    6.1165894044491731E-01 
    5.6202715565791350E-01 
    5.1230263589079184E-01 
    4.5571643294630781E-01 
    2.2211557944346741E-01 
    8.2652375782043055E-04 
    1.1148297573581043E-06 
    1.0000000096399748E-06 
    9.9999999999999932E-07 
    9.9999999999999995E-07 
    9.9999999999999995E-07 
    9.9999999999999995E-07 
    9.9999999999999995E-07 
    9.9999999999999995E-07 
    5.8629241360708217E-01 
    5.7503692784461236E-01 
    5.4888130576941319E-01 
    5.1142813030158440E-01 
    4.6372223507442534E-01 
    3.5543869272965634E-01 
    4.2690040386849260E-02 
    3.1913947810194656E-04 
    1.0090989235324964E-06 
    1.0000000008411475E-06 
    1.0000000000000002E-06 
    9.9999999999999995E-07 
    9.9999999999999995E-07 
    9.9999999999999995E-07 
    9.9999999999999995E-07 
    9.9999999999999995E-07 
    5.2118572196373303E-01 
    5.1359902709307037E-01 
    4.9318337371298460E-01 
    4.5448621430228836E-01 
    3.5512938475548017E-01 
    8.3789071072766855E-02 
    7.6393499586853138E-04 
    1.0468466933798540E-06 
    1.0000000905457343E-06 
    1.0000000000001224E-06 
    9.9999999999999995E-07 
    9.9999999999999995E-07 
    9.9999999999999995E-07 
    9.9999999999999995E-07 
    9.9999999999999995E-07 
    9.9999999999999995E-07 
    4.5269779827881579E-01 
    4.3179272813772235E-01 
    3.7554665905011164E-01 
    2.2486488265448781E-01 
    4.4170151921630263E-02 
    7.5275982781630767E-04 
    1.1262042921059691E-06 
    1.0000000594102982E-06 
    1.0000000000000146E-06 
    9.9999999999999995E-07 
    9.9999999999999995E-07 
    9.9999999999999995E-07 
    9.9999999999999995E-07 
    9.9999999999999995E-07 
    9.9999999999999995E-07 
    9.9999999999999995E-07 
    1.3332666106608260E-01 
    8.9320611854217899E-02 
    2.6501220144101979E-02 
    1.6241499739985713E-03 
    3.8015497332948532E-04 
    1.0427541836477256E-06 
    1.0000000571778382E-06 
    1.0000000000000110E-06 
    9.9999999999999995E-07 
    9.9999999999999995E-07 
    9.9999999999999995E-07 
    9.9999999999999995E-07 
    9.9999999999999995E-07 
    9.9999999999999995E-07 
    9.9999999999999995E-07 
    9.9999999999999995E-07 
    1.0014540163641193E-06 
    3.7371999175703315E-05 
    2.0268775030053820E-05 
    1.9602352172056550E-06 
    1.0138798462498678E-06 
    1.0000000413018808E-06 
    1.0000000000000218E-06 
    9.9999999999999995E-07 
    9.9999999999999995E-07 
    9.9999999999999995E-07 
    9.9999999999999995E-07 
    9.9999999999999995E-07 
    9.9999999999999995E-07 
    9.9999999999999995E-07 
    9.9999999999999995E-07 
    9.9999999999999995E-07 
    1.0000000029987852E-06 
    1.0001195713248802E-06 
    1.0000361943634893E-06 
    1.0000002373466066E-06 
    1.0000000025710118E-06 
    1.0000000000000201E-06 
    9.9999999999999995E-07 
    9.9999999999999995E-07 
    9.9999999999999995E-07 
    9.9999999999999995E-07 
    9.9999999999999995E-07 
    9.9999999999999995E-07 
    9.9999999999999995E-07 
    9.9999999999999995E-07 
    9.9999999999999995E-07 
    9.9999999999999995E-07 
    9.9999999999999995E-07 
    1.0000000000245266E-06 
    1.0000000000003657E-06 
    9.9999999999998323E-07 
    1.0000000000000002E-06 
    9.9999999999999995E-07 
    9.9999999999999995E-07 
    9.9999999999999995E-07 
    9.9999999999999995E-07 
    9.9999999999999995E-07 
    9.9999999999999995E-07 
    9.9999999999999995E-07 
    9.9999999999999995E-07 
    9.9999999999999995E-07 
    9.9999999999999995E-07 
    9.9999999999999995E-07 
    9.9999999999999995E-07 
    9.9999999999999995E-07 
    9.9999999999999995E-07 
    9.9999999999999995E-07 
    9.9999999999999995E-07 
    9.9999999999999995E-07 
    9.9999999999999995E-07 
    9.9999999999999995E-07 
    9.9999999999999995E-07 
    9.9999999999999995E-07 
    9.9999999999999995E-07 
    9.9999999999999995E-07 
    9.9999999999999995E-07 
    9.9999999999999995E-07 
    9.9999999999999995E-07 
    9.9999999999999995E-07 
    9.9999999999999995E-07 
    9.9999999999999995E-07 
    9.9999999999999995E-07 
    9.9999999999999995E-07 
    9.9999999999999995E-07 
    9.9999999999999995E-07 
    9.9999999999999995E-07 
    9.9999999999999995E-07 
    9.9999999999999995E-07 
    9.9999999999999995E-07 
    9.9999999999999995E-07 
    9.9999999999999995E-07 
    9.9999999999999995E-07 
    9.9999999999999995E-07 
    9.9999999999999995E-07 
    9.9999999999999995E-07 
    9.9999999999999995E-07 
    9.9999999999999995E-07 
    9.9999999999999995E-07 
    9.9999999999999995E-07 
    9.9999999999999995E-07 
    9.9999999999999995E-07 
    9.9999999999999995E-07 
    9.9999999999999995E-07 
    9.9999999999999995E-07 
    9.9999999999999995E-07 
    9.9999999999999995E-07 
    9.9999999999999995E-07 
    9.9999999999999995E-07 
    9.9999999999999995E-07 
    9.9999999999999995E-07 
    9.9999999999999995E-07 
    9.9999999999999995E-07 
    9.9999999999999995E-07 
    9.9999999999999995E-07 
    9.9999999999999995E-07 
    9.9999999999999995E-07 
    9.9999999999999995E-07 
    9.9999999999999995E-07 
    9.9999999999999995E-07 
    9.9999999999999995E-07 
    9.9999999999999995E-07 
    9.9999999999999995E-07 
    9.9999999999999995E-07 
    9.9999999999999995E-07 
    9.9999999999999995E-07 
    9.9999999999999995E-07 
    9.9999999999999995E-07 
    9.9999999999999995E-07 
    9.9999999999999995E-07 
    9.9999999999999995E-07 
    9.9999999999999995E-07 
    9.9999999999999995E-07 
    9.9999999999999995E-07 
    9.9999999999999995E-07 
    9.9999999999999995E-07 
    9.9999999999999995E-07 
    9.9999999999999995E-07 
    9.9999999999999995E-07 
    9.9999999999999995E-07 
    9.9999999999999995E-07 
    9.9999999999999995E-07 
    9.9999999999999995E-07 
    1.0000000516909356E-06 
