# vtk DataFile Version 2.0
Pressure Field Data 
ASCII 
DATASET UNSTRUCTURED_GRID 

POINTS 289 double 

    0.0000000000000000E+00     0.0000000000000000E+00     0.0000000000000000E+00 
    1.0000000000000000E+00     0.0000000000000000E+00     0.0000000000000000E+00 
    1.0000000000000000E+00     1.0000000000000000E+00     0.0000000000000000E+00 
    0.0000000000000000E+00     1.0000000000000000E+00     0.0000000000000000E+00 
    6.2499999999872928E-02     0.0000000000000000E+00     0.0000000000000000E+00 
    1.2499999999977310E-01     0.0000000000000000E+00     0.0000000000000000E+00 
    1.8749999999959341E-01     0.0000000000000000E+00     0.0000000000000000E+00 
    2.4999999999941089E-01     0.0000000000000000E+00     0.0000000000000000E+00 
    3.1249999999922851E-01     0.0000000000000000E+00     0.0000000000000000E+00 
    3.7499999999904610E-01     0.0000000000000000E+00     0.0000000000000000E+00 
    4.3749999999886358E-01     0.0000000000000000E+00     0.0000000000000000E+00 
    4.9999999999869210E-01     0.0000000000000000E+00     0.0000000000000000E+00 
    5.6249999999884603E-01     0.0000000000000000E+00     0.0000000000000000E+00 
    6.2499999999901090E-01     0.0000000000000000E+00     0.0000000000000000E+00 
    6.8749999999917577E-01     0.0000000000000000E+00     0.0000000000000000E+00 
    7.4999999999934064E-01     0.0000000000000000E+00     0.0000000000000000E+00 
    8.1249999999950551E-01     0.0000000000000000E+00     0.0000000000000000E+00 
    8.7499999999967026E-01     0.0000000000000000E+00     0.0000000000000000E+00 
    9.3749999999983513E-01     0.0000000000000000E+00     0.0000000000000000E+00 
    1.0000000000000000E+00     6.2499999999872928E-02     0.0000000000000000E+00 
    1.0000000000000000E+00     1.2499999999977310E-01     0.0000000000000000E+00 
    1.0000000000000000E+00     1.8749999999959341E-01     0.0000000000000000E+00 
    1.0000000000000000E+00     2.4999999999941089E-01     0.0000000000000000E+00 
    1.0000000000000000E+00     3.1249999999922851E-01     0.0000000000000000E+00 
    1.0000000000000000E+00     3.7499999999904610E-01     0.0000000000000000E+00 
    1.0000000000000000E+00     4.3749999999886358E-01     0.0000000000000000E+00 
    1.0000000000000000E+00     4.9999999999869210E-01     0.0000000000000000E+00 
    1.0000000000000000E+00     5.6249999999884603E-01     0.0000000000000000E+00 
    1.0000000000000000E+00     6.2499999999901090E-01     0.0000000000000000E+00 
    1.0000000000000000E+00     6.8749999999917577E-01     0.0000000000000000E+00 
    1.0000000000000000E+00     7.4999999999934064E-01     0.0000000000000000E+00 
    1.0000000000000000E+00     8.1249999999950551E-01     0.0000000000000000E+00 
    1.0000000000000000E+00     8.7499999999967026E-01     0.0000000000000000E+00 
    1.0000000000000000E+00     9.3749999999983513E-01     0.0000000000000000E+00 
    9.3749999999973976E-01     1.0000000000000000E+00     0.0000000000000000E+00 
    8.7499999999950118E-01     1.0000000000000000E+00     0.0000000000000000E+00 
    8.1249999999991318E-01     1.0000000000000000E+00     0.0000000000000000E+00 
    7.5000000000034706E-01     1.0000000000000000E+00     0.0000000000000000E+00 
    6.8750000000078049E-01     1.0000000000000000E+00     0.0000000000000000E+00 
    6.2500000000121403E-01     1.0000000000000000E+00     0.0000000000000000E+00 
    5.6250000000164757E-01     1.0000000000000000E+00     0.0000000000000000E+00 
    5.0000000000205946E-01     1.0000000000000000E+00     0.0000000000000000E+00 
    4.3750000000182099E-01     1.0000000000000000E+00     0.0000000000000000E+00 
    3.7500000000156092E-01     1.0000000000000000E+00     0.0000000000000000E+00 
    3.1250000000130068E-01     1.0000000000000000E+00     0.0000000000000000E+00 
    2.5000000000104050E-01     1.0000000000000000E+00     0.0000000000000000E+00 
    1.8750000000078040E-01     1.0000000000000000E+00     0.0000000000000000E+00 
    1.2500000000052031E-01     1.0000000000000000E+00     0.0000000000000000E+00 
    6.2500000000260125E-02     1.0000000000000000E+00     0.0000000000000000E+00 
    0.0000000000000000E+00     9.3749999999973976E-01     0.0000000000000000E+00 
    0.0000000000000000E+00     8.7499999999950118E-01     0.0000000000000000E+00 
    0.0000000000000000E+00     8.1249999999991318E-01     0.0000000000000000E+00 
    0.0000000000000000E+00     7.5000000000034706E-01     0.0000000000000000E+00 
    0.0000000000000000E+00     6.8750000000078049E-01     0.0000000000000000E+00 
    0.0000000000000000E+00     6.2500000000121403E-01     0.0000000000000000E+00 
    0.0000000000000000E+00     5.6250000000164757E-01     0.0000000000000000E+00 
    0.0000000000000000E+00     5.0000000000205946E-01     0.0000000000000000E+00 
    0.0000000000000000E+00     4.3750000000182099E-01     0.0000000000000000E+00 
    0.0000000000000000E+00     3.7500000000156092E-01     0.0000000000000000E+00 
    0.0000000000000000E+00     3.1250000000130068E-01     0.0000000000000000E+00 
    0.0000000000000000E+00     2.5000000000104050E-01     0.0000000000000000E+00 
    0.0000000000000000E+00     1.8750000000078040E-01     0.0000000000000000E+00 
    0.0000000000000000E+00     1.2500000000052031E-01     0.0000000000000000E+00 
    0.0000000000000000E+00     6.2500000000260125E-02     0.0000000000000000E+00 
    6.2499999999897131E-02     6.2500000000235922E-02     0.0000000000000000E+00 
    6.2499999999921327E-02     1.2500000000047351E-01     0.0000000000000000E+00 
    6.2499999999945530E-02     1.8750000000070621E-01     0.0000000000000000E+00 
    6.2499999999969733E-02     2.5000000000093858E-01     0.0000000000000000E+00 
    6.2499999999993928E-02     3.1250000000117117E-01     0.0000000000000000E+00 
    6.2500000000018124E-02     3.7500000000140382E-01     0.0000000000000000E+00 
    6.2500000000042327E-02     4.3750000000163619E-01     0.0000000000000000E+00 
    6.2500000000066530E-02     5.0000000000184897E-01     0.0000000000000000E+00 
    6.2500000000090733E-02     5.6250000000147260E-01     0.0000000000000000E+00 
    6.2500000000114922E-02     6.2500000000107636E-01     0.0000000000000000E+00 
    6.2500000000139125E-02     6.8750000000068034E-01     0.0000000000000000E+00 
    6.2500000000163328E-02     7.5000000000028411E-01     0.0000000000000000E+00 
    6.2500000000187531E-02     8.1249999999988787E-01     0.0000000000000000E+00 
    6.2500000000211720E-02     8.7499999999951172E-01     0.0000000000000000E+00 
    6.2500000000235922E-02     9.3749999999974565E-01     0.0000000000000000E+00 
    1.2499999999981980E-01     6.2500000000211733E-02     0.0000000000000000E+00 
    1.2499999999986650E-01     1.2500000000042691E-01     0.0000000000000000E+00 
    1.2499999999991319E-01     1.8750000000063199E-01     0.0000000000000000E+00 
    1.2499999999995989E-01     2.5000000000083678E-01     0.0000000000000000E+00 
    1.2500000000000661E-01     3.1250000000104172E-01     0.0000000000000000E+00 
    1.2500000000005329E-01     3.7500000000124661E-01     0.0000000000000000E+00 
    1.2500000000010000E-01     4.3750000000145117E-01     0.0000000000000000E+00 
    1.2500000000014669E-01     5.0000000000163858E-01     0.0000000000000000E+00 
    1.2500000000019340E-01     5.6250000000129741E-01     0.0000000000000000E+00 
    1.2500000000024011E-01     6.2500000000093847E-01     0.0000000000000000E+00 
    1.2500000000028680E-01     6.8750000000057998E-01     0.0000000000000000E+00 
    1.2500000000033351E-01     7.5000000000022127E-01     0.0000000000000000E+00 
    1.2500000000038020E-01     8.1249999999986211E-01     0.0000000000000000E+00 
    1.2500000000042691E-01     8.7499999999952238E-01     0.0000000000000000E+00 
    1.2500000000047359E-01     9.3749999999975164E-01     0.0000000000000000E+00 
    1.8749999999966760E-01     6.2500000000187531E-02     0.0000000000000000E+00 
    1.8749999999974179E-01     1.2500000000038020E-01     0.0000000000000000E+00 
    1.8749999999981601E-01     1.8750000000055780E-01     0.0000000000000000E+00 
    1.8749999999989009E-01     2.5000000000073502E-01     0.0000000000000000E+00 
    1.8749999999996431E-01     3.1250000000091221E-01     0.0000000000000000E+00 
    1.8750000000003850E-01     3.7500000000108941E-01     0.0000000000000000E+00 
    1.8750000000011269E-01     4.3750000000126649E-01     0.0000000000000000E+00 
    1.8750000000018691E-01     5.0000000000142808E-01     0.0000000000000000E+00 
    1.8750000000026110E-01     5.6250000000112244E-01     0.0000000000000000E+00 
    1.8750000000033529E-01     6.2500000000080080E-01     0.0000000000000000E+00 
    1.8750000000040951E-01     6.8750000000047962E-01     0.0000000000000000E+00 
    1.8750000000048361E-01     7.5000000000015843E-01     0.0000000000000000E+00 
    1.8750000000055780E-01     8.1249999999983680E-01     0.0000000000000000E+00 
    1.8750000000063199E-01     8.7499999999953304E-01     0.0000000000000000E+00 
    1.8750000000070621E-01     9.3749999999975764E-01     0.0000000000000000E+00 
    2.4999999999951281E-01     6.2500000000163314E-02     0.0000000000000000E+00 
    2.4999999999961461E-01     1.2500000000033351E-01     0.0000000000000000E+00 
    2.4999999999971650E-01     1.8750000000048361E-01     0.0000000000000000E+00 
    2.4999999999981831E-01     2.5000000000063310E-01     0.0000000000000000E+00 
    2.4999999999992020E-01     3.1250000000078260E-01     0.0000000000000000E+00 
    2.5000000000002198E-01     3.7500000000093209E-01     0.0000000000000000E+00 
    2.5000000000012390E-01     4.3750000000108180E-01     0.0000000000000000E+00 
    2.5000000000022571E-01     5.0000000000121769E-01     0.0000000000000000E+00 
    2.5000000000032763E-01     5.6250000000094724E-01     0.0000000000000000E+00 
    2.5000000000042938E-01     6.2500000000066314E-01     0.0000000000000000E+00 
    2.5000000000053119E-01     6.8750000000037925E-01     0.0000000000000000E+00 
[...]
CELL_DATA 256 
SCALARS Pressure double 1 
LOOKUP_TABLE default 

    2.2954482663932816E+00 
    2.1917824597802400E+00 
    2.1253324681072097E+00 
    2.0739085188882878E+00 
    2.0296569566234104E+00 
    1.9904639536264217E+00 
    1.9545820532270721E+00 
    1.9212065466593853E+00 
    1.8905081650134015E+00 
    1.8625027148508833E+00 
    1.8373224679912505E+00 
    1.8153185341415909E+00 
    1.7965759816530449E+00 
    1.7790406459460151E+00 
    1.7654784246604691E+00 
    1.7590882024289316E+00 
    2.1918071416373763E+00 
    2.1490732085073860E+00 
    2.1036118225399507E+00 
    2.0600963709922118E+00 
    2.0197767678129908E+00 
    1.9827363776859916E+00 
    1.9478621975641939E+00 
    1.9150951576880764E+00 
    1.8847294916697876E+00 
    1.8568121740050842E+00 
    1.8315994427930287E+00 
    1.8094909168268476E+00 
    1.7905983432377790E+00 
    1.7728871632387220E+00 
    1.7591666868870020E+00 
    1.7527028019694162E+00 
    2.1253977845886096E+00 
    2.1036522160311502E+00 
    2.0720265980305350E+00 
    2.0371165234250936E+00 
    2.0022616869058063E+00 
    1.9682158065819502E+00 
    1.9350175391228830E+00 
    1.9033057946613139E+00 
    1.8734081345759763E+00 
    1.8455929401663460E+00 
    1.8202644570579505E+00 
    1.7978800826020247E+00 
    1.7786541088658592E+00 
    1.7605626889622707E+00 
    1.7465024048785769E+00 
    1.7398723041360169E+00 
    2.0740299880645079E+00 
    2.0601889506385782E+00 
    2.0371657818001117E+00 
    2.0094047487508333E+00 
    1.9793970218164731E+00 
    1.9482705730502361E+00 
    1.9169756743641264E+00 
    1.8863772215582872E+00 
    1.8569219045574241E+00 
    1.8290983064613524E+00 
    1.8034225708090148E+00 
    1.7805077411027348E+00 
    1.7607089443319794E+00 
    1.7419737426476314E+00 
    1.7273412855080645E+00 
    1.7204271279399963E+00 
    2.0298309058270081E+00 
    2.0199145900745559E+00 
    2.0023560189666525E+00 
    1.9794441689816080E+00 
    1.9529648353968714E+00 
    1.9243213035598086E+00 
    1.8947419567139085E+00 
    1.8650465819722939E+00 
    1.8357848894476569E+00 
    1.8076169755107327E+00 
    1.7812329492820245E+00 
    1.7574258404745240E+00 
    1.7366994859773088E+00 
    1.7169534996647804E+00 
    1.7014387771870001E+00 
    1.6940876977896087E+00 
    1.9906647317222603E+00 
    1.9829091333793045E+00 
    1.9683506965126378E+00 
    1.9483618416240640E+00 
    1.9243677440613869E+00 
    1.8976656503210254E+00 
    1.8693265031560877E+00 
    1.8400405720510240E+00 
    1.8104830203862454E+00 
    1.7814899772653252E+00 
    1.7539197099969142E+00 
    1.7287031131101411E+00 
    1.7065200036968438E+00 
    1.6852379487435687E+00 
    1.6684148935976042E+00 
    1.6604212417182538E+00 
    1.9548137231324003E+00 
    1.9480715845030558E+00 
    1.9351915932165373E+00 
    1.9171057503274662E+00 
    1.8948250469878258E+00 
    1.8693649740001055E+00 
    1.8415389113818248E+00 
    1.8119854910183473E+00 
    1.7815330399936884E+00 
    1.7511126625197049E+00 
    1.7217001802751160E+00 
    1.6943163831410213E+00 
    1.6699280096043716E+00 
    1.6463944959102097E+00 
    1.6276852631015886E+00 
    1.6187517061533989E+00 
    1.9214694436812088E+00 
    1.9153362833790382E+00 
    1.9035119176433730E+00 
    1.8865415793359408E+00 
    1.8651676297882303E+00 
    1.8401193781330478E+00 
    1.8120245788652249E+00 
    1.7815586117104210E+00 
    1.7495716760464957E+00 
    1.7169854922137540E+00 
    1.6847964841165339E+00 
    1.6542146500216606E+00 
    1.6265534098548096E+00 
    1.5997978711982697E+00 
    1.5784575555506979E+00 
    1.5681520612816051E+00 
    1.8907966105396450E+00 
    1.8849975065967994E+00 
    1.8736446672984928E+00 
    1.8571209754884330E+00 
    1.8359430188652941E+00 
    1.8105983443171005E+00 
    1.7816095449175224E+00 
    1.7496082747614077E+00 
    1.7153385731184154E+00 
    1.6796212091523846E+00 
    1.6434993122968851E+00 
    1.6083902168378335E+00 
    1.5759697561813870E+00 
    1.5447249305272333E+00 
    1.5196870472492712E+00 
    1.5072341251403574E+00 
    1.8628121622044826E+00 
    1.8571036931392657E+00 
    1.8458583068397003E+00 
    1.8293304307213951E+00 
    1.8078090490753798E+00 
    1.7816352012086969E+00 
    1.7512150369174673E+00 
    1.7170469816974605E+00 
    1.6796501294652615E+00 
    1.6397307411425937E+00 
    1.5983478143459708E+00 
    1.5570647603929819E+00 
    1.5179056358454137E+00 
    1.4804514803882258E+00 
    1.4497617452842479E+00 
    1.4336186924137977E+00 
    1.8376563397910408E+00 
    1.8319192631348837E+00 
    1.8205627437977907E+00 
    1.8036925561758113E+00 
    1.7814639717899809E+00 
    1.7540979328354729E+00 
    1.7218223974747158E+00 
    1.6848773815677951E+00 
    1.6435558412634448E+00 
    1.5983827051388635E+00 
    1.5502644178976586E+00 
    1.5007421688509317E+00 
    1.4521827086423764E+00 
    1.4056894597701270E+00 
    1.3656399588035066E+00 
    1.3430665117168943E+00 
    1.8156832166702583E+00 
    1.8098447601872028E+00 
    1.7982154868351761E+00 
    1.7808178431193997E+00 
    1.7577004060138812E+00 
    1.7289234243014637E+00 
    1.6944768378859407E+00 
    1.6543378315627308E+00 
    1.6084936824932761E+00 
    1.5571490698297901E+00 
    1.5007926679940620E+00 
    1.4406326489722157E+00 
    1.3790363800995520E+00 
    1.3185731433259757E+00 
    1.2627383398309928E+00 
    1.2289510848261307E+00 
    1.7969732696630583E+00 
    1.7909842006163641E+00 
    1.7790180510320313E+00 
    1.7610435276470748E+00 
    1.7369978093373371E+00 
    1.7067632588813266E+00 
    1.6701138801986362E+00 
    1.6267020721421057E+00 
    1.5760927686251280E+00 
    1.5180219844713376E+00 
    1.4522845879623179E+00 
    1.3790877012369549E+00 
    1.2998430693793612E+00 
    1.2175350026527001E+00 
    1.1355928001930036E+00 
    1.0812573673179739E+00 
    1.7794546467600310E+00 
    1.7732872988039243E+00 
    1.7609384242999291E+00 
    1.7423200070920550E+00 
    1.7172613556619525E+00 
    1.6854855915466798E+00 
    1.6465741724278709E+00 
    1.5999073089534279E+00 
    1.5447599206890090E+00 
    1.4805095883018864E+00 
    1.4058174081111565E+00 
    1.3186711229270593E+00 
    1.2175742106250607E+00 
    1.1031813572931271E+00 
    9.7794831685192041E-01 
    8.7783038574522565E-01 
    1.7658964340976322E+00 
    1.7595726631379820E+00 
    1.7468875247182825E+00 
    1.7276990468795437E+00 
    1.7017537503216353E+00 
    1.6686677489343196E+00 
    1.6278651376731088E+00 
    1.5785545938552510E+00 
    1.5197076345664813E+00 
    1.4498786161462356E+00 
    1.3659162794299644E+00 
    1.2629609898356988E+00 
    1.1357094360232702E+00 
    9.7800731372769267E-01 
    7.7945509967657467E-01 
    5.6232489418804132E-01 
    1.7594986999332001E+00 
    1.7531024976793952E+00 
    1.7402520615132016E+00 
    1.7207776926221168E+00 
    1.6943926879782885E+00 
    1.6606656534319839E+00 
    1.6189278134024250E+00 
    1.5682603702664624E+00 
    1.5073016111536741E+00 
    1.4337939889022333E+00 
    1.3433918564861131E+00 
    1.2292343889137984E+00 
    1.0814226752122125E+00 
    8.7793236759110438E-01 
    5.6237698628967758E-01 
    0.0000000000000000E+00 

SCALARS Saturarion double 1 
LOOKUP_TABLE default 

    1.0000000002499381E+00 
    9.7131947388662443E-01 
    9.2107798156922061E-01 
    8.6534682782682382E-01 
    8.0926418616009710E-01 
    7.5539925399178032E-01 
    7.0573512414469342E-01 
    6.6068313796579448E-01 
    6.1912918108125825E-01 
    5.7806014279088247E-01 
    5.3665183977628050E-01 
    4.9517176972800087E-01 
    4.3924902466366772E-01 
    1.4186291228456552E-01 
    6.1748317089907944E-04 
    1.0141883586373394E-06 
    9.7131702025918343E-01 
    9.5026010401733985E-01 
    9.0552212047690606E-01 
    8.5308068668831938E-01 
    8.0023715399565931E-01 
    7.4914035966111903E-01 
    7.0145652424775873E-01 
    6.5784446351022530E-01 
    6.1734853438003323E-01 
    5.7714197729858563E-01 
    5.3629201334692123E-01 
    4.9508492017307693E-01 
    4.3954144004656753E-01 
    1.4185881168242717E-01 
    6.4202794826764679E-04 
    1.0000333158187075E-06 
    9.2106488637048423E-01 
    9.0551111166968223E-01 
    8.6896440506989803E-01 
    8.2511990557768156E-01 
    7.7938191232888898E-01 
    7.3390376686323655E-01 
    6.9058983622431880E-01 
    6.5037041716044275E-01 
    6.1226459283377432E-01 
    5.7370173693974080E-01 
    5.3433910140986585E-01 
    4.9423843489973796E-01 
    4.3930455117055139E-01 
    1.4147886284760244E-01 
    7.7539000444211599E-04 
    1.0145043241262827E-06 
    8.6531646337402390E-01 
    8.5305541512858007E-01 
    8.2510354399413555E-01 
    7.8921418322696291E-01 
    7.5194497023740825E-01 
    7.1384309610566099E-01 
    6.7620896031531519E-01 
    6.4005832970671306E-01 
    6.0470340046498572E-01 
    5.6847778806637561E-01 
    5.3135913941113433E-01 
    4.9282057850961097E-01 
    4.3881918563352529E-01 
    1.4349172990819595E-01 
    6.4983124542906901E-04 
    1.0026642005245886E-06 
    8.0923252810979718E-01 
    8.0021733510729276E-01 
    7.7936441141004542E-01 
    7.5193235197505881E-01 
    7.2190642797669735E-01 
    6.9130446957861169E-01 
    6.5974674593101923E-01 
    6.2777301249937112E-01 
    5.9539832443782015E-01 
    5.6231345999324334E-01 
    5.2798839842491052E-01 
    4.9170479256501604E-01 
    4.3993241193880539E-01 
    1.5797915238892987E-01 
    6.4179819415454667E-04 
    1.0134838458467836E-06 
    7.5542885125412618E-01 
    7.4914913480199785E-01 
    7.3389787437843645E-01 
    7.1382658384156139E-01 
    6.9128948354731456E-01 
    6.6695222794649278E-01 
    6.4058737900603180E-01 
    6.1298407958962087E-01 
    5.8460719893002755E-01 
    5.5523528447580039E-01 
    5.2394499226413327E-01 
    4.9075080437364504E-01 
    4.4274015198069622E-01 
    1.7585201608827034E-01 
    6.7194203342271319E-04 
    1.0068469438039674E-06 
    7.0577303736827401E-01 
    7.0146871766919461E-01 
    6.9058033605303104E-01 
    6.7618154515915074E-01 
    6.5971782165593706E-01 
    6.4057301675428047E-01 
    6.1895031133457967E-01 
    5.9606320264054424E-01 
    5.7220498267281783E-01 
    5.4687256093284464E-01 
    5.1891336821143286E-01 
    4.8825470900231804E-01 
    4.4460599926529537E-01 
    1.9331571960157798E-01 
    9.7658356542002812E-04 
    1.0451478139842134E-06 
    6.6069829945654868E-01 
    6.5784442842287516E-01 
    6.5035008530783978E-01 
    6.4002299882937419E-01 
    6.2774454314327977E-01 
    6.1296539315850995E-01 
    5.9604301693271056E-01 
    5.7777950878250950E-01 
    5.5845045626817147E-01 
    5.3734236903364418E-01 
    5.1344783719396370E-01 
    4.8580759885446295E-01 
    4.4628018307265377E-01 
    2.1372462366201619E-01 
    1.2251942667780623E-03 
    1.2736774920758366E-06 
    6.1913995418133982E-01 
    6.1734082379131661E-01 
    6.1222833835606894E-01 
    6.0466366271762140E-01 
    5.9537409119059470E-01 
    5.8456754501080876E-01 
    5.7212677032338066E-01 
    5.5835944720639696E-01 
    5.4330834365565761E-01 
    5.2660050242885459E-01 
    5.0714161025354942E-01 
    4.8381042345407821E-01 
    4.4885072167610485E-01 
    2.5473049705925904E-01 
    2.7502566668452656E-03 
    1.3752410807276478E-06 
    5.7806655737987189E-01 
    5.7708943678335411E-01 
    5.7360411401653322E-01 
    5.6837629761122355E-01 
    5.6221122829042081E-01 
    5.5508476352517278E-01 
    5.4665493063120907E-01 
    5.3709895057443358E-01 
    5.2638721913286035E-01 
    5.1418147967977790E-01 
    4.9949227841763877E-01 
    4.8147243231388870E-01 
    4.5261155042943918E-01 
    3.0914038743741257E-01 
    1.9928045273619105E-02 
    1.0814672573511886E-04 
    5.3687099981668518E-01 
    5.3645635514624879E-01 
    5.3449858294965258E-01 
    5.3149485621146841E-01 
    5.2802802410300975E-01 
    5.2399390779583577E-01 
    5.1910394886831335E-01 
    5.1364835058242397E-01 
    5.0716410724152883E-01 
    4.9938191635411372E-01 
    4.8976291685629497E-01 
    4.7716116081696142E-01 
    4.5652491174045962E-01 
    3.5654934641355179E-01 
    6.1532130757341902E-02 
    2.5681616855958152E-05 
    4.9566039222022573E-01 
    4.9560227310352678E-01 
    4.9470917110289597E-01 
    4.9301447584147812E-01 
    4.9160942452338108E-01 
    4.9066532554485864E-01 
    4.8870050406493309E-01 
    4.8690860202621633E-01 
    4.8476804068857976E-01 
    4.8173751334500425E-01 
    4.7706093604652283E-01 
    4.7062722707548876E-01 
    4.5863939999770631E-01 
    3.9514182565904371E-01 
    1.2752034626033351E-01 
    1.0386039109478980E-04 
    4.4003929728343461E-01 
    4.4005362034241702E-01 
    4.3948384248178535E-01 
    4.3905355502723381E-01 
    4.3953618736860461E-01 
    4.4175848223346642E-01 
    4.4399175446569206E-01 
    4.4613389031179718E-01 
    4.4898073283225876E-01 
    4.5303891437434812E-01 
    4.5655460810906068E-01 
    4.5835195891956587E-01 
    4.5580074521981295E-01 
    4.2232286224472176E-01 
    2.2150212753787438E-01 
    1.4880238368541162E-03 
    1.4403535362414363E-01 
    1.4387651982674907E-01 
    1.4263264967194811E-01 
    1.4164220636841704E-01 
    1.5040143761267719E-01 
    1.7170189993129586E-01 
    1.9111710136256216E-01 
    2.0767735289477662E-01 
    2.5237365283297225E-01 
    3.0733696092327606E-01 
    3.5585671571263294E-01 
    3.9477939119062239E-01 
    4.2220746451098390E-01 
    4.2619572992670401E-01 
    3.2433361258626431E-01 
    5.4041520500578519E-02 
    3.3801856603298253E-05 
    1.2593101114757169E-06 
    2.2504870307321639E-06 
    2.1683961523974074E-06 
    9.1853162635805580E-04 
    4.1693227377025436E-04 
    8.2447337057513985E-04 
    3.7427130516757282E-04 
    1.0538147382038289E-03 
    1.1265632017893254E-02 
    5.6929156919038604E-02 
    1.2677494599896483E-01 
    2.2234969922730535E-01 
    3.2440982041876276E-01 
    3.4313209216592577E-01 
    1.9576236861574919E-01 
    1.0000133135190519E-06 
    1.0000001840592855E-06 
    1.0000001952215979E-06 
    1.0000001056057491E-06 
    1.0512650274530308E-06 
    1.0053466580276133E-06 
    1.0200330105479690E-06 
    1.0018441836866824E-06 
    1.0230711976985860E-06 
    2.3585041710317577E-06 
    3.2809624706632653E-05 
    1.0298333001178083E-04 
    1.8118123989424436E-03 
    5.3756902294569066E-02 
    1.9371541152475477E-01 
    1.9494860832126681E-01 
