# vtk DataFile Version 2.0
Pressure Field Data 
ASCII 
DATASET UNSTRUCTURED_GRID 

POINTS 289 double 

    0.0000000000000000E+00     0.0000000000000000E+00     0.0000000000000000E+00 
    1.0000000000000000E+00     0.0000000000000000E+00     0.0000000000000000E+00 
    1.0000000000000000E+00     1.0000000000000000E+00     0.0000000000000000E+00 
    0.0000000000000000E+00     1.0000000000000000E+00     0.0000000000000000E+00 
    6.2499999999872928E-02     0.0000000000000000E+00     0.0000000000000000E+00 
    1.2499999999977310E-01     0.0000000000000000E+00     0.0000000000000000E+00 
    1.8749999999959341E-01     0.0000000000000000E+00     0.0000000000000000E+00 
    2.4999999999941089E-01     0.0000000000000000E+00     0.0000000000000000E+00 
    3.1249999999922851E-01     0.0000000000000000E+00     0.0000000000000000E+00 
    3.7499999999904610E-01     0.0000000000000000E+00     0.0000000000000000E+00 
    4.3749999999886358E-01     0.0000000000000000E+00     0.0000000000000000E+00 
    4.9999999999869210E-01     0.0000000000000000E+00     0.0000000000000000E+00 
    5.6249999999884603E-01     0.0000000000000000E+00     0.0000000000000000E+00 
    6.2499999999901090E-01     0.0000000000000000E+00     0.0000000000000000E+00 
    6.8749999999917577E-01     0.0000000000000000E+00     0.0000000000000000E+00 
    7.4999999999934064E-01     0.0000000000000000E+00     0.0000000000000000E+00 
    8.1249999999950551E-01     0.0000000000000000E+00     0.0000000000000000E+00 
    8.7499999999967026E-01     0.0000000000000000E+00     0.0000000000000000E+00 
    9.3749999999983513E-01     0.0000000000000000E+00     0.0000000000000000E+00 
    1.0000000000000000E+00     6.2499999999872928E-02     0.0000000000000000E+00 
    1.0000000000000000E+00     1.2499999999977310E-01     0.0000000000000000E+00 
    1.0000000000000000E+00     1.8749999999959341E-01     0.0000000000000000E+00 
    1.0000000000000000E+00     2.4999999999941089E-01     0.0000000000000000E+00 
    1.0000000000000000E+00     3.1249999999922851E-01     0.0000000000000000E+00 
    1.0000000000000000E+00     3.7499999999904610E-01     0.0000000000000000E+00 
    1.0000000000000000E+00     4.3749999999886358E-01     0.0000000000000000E+00 
    1.0000000000000000E+00     4.9999999999869210E-01     0.0000000000000000E+00 
    1.0000000000000000E+00     5.6249999999884603E-01     0.0000000000000000E+00 
    1.0000000000000000E+00     6.2499999999901090E-01     0.0000000000000000E+00 
    1.0000000000000000E+00     6.8749999999917577E-01     0.0000000000000000E+00 
    1.0000000000000000E+00     7.4999999999934064E-01     0.0000000000000000E+00 
    1.0000000000000000E+00     8.1249999999950551E-01     0.0000000000000000E+00 
    1.0000000000000000E+00     8.7499999999967026E-01     0.0000000000000000E+00 
    1.0000000000000000E+00     9.3749999999983513E-01     0.0000000000000000E+00 
    9.3749999999973976E-01     1.0000000000000000E+00     0.0000000000000000E+00 
    8.7499999999950118E-01     1.0000000000000000E+00     0.0000000000000000E+00 
    8.1249999999991318E-01     1.0000000000000000E+00     0.0000000000000000E+00 
    7.5000000000034706E-01     1.0000000000000000E+00     0.0000000000000000E+00 
    6.8750000000078049E-01     1.0000000000000000E+00     0.0000000000000000E+00 
    6.2500000000121403E-01     1.0000000000000000E+00     0.0000000000000000E+00 
    5.6250000000164757E-01     1.0000000000000000E+00     0.0000000000000000E+00 
    5.0000000000205946E-01     1.0000000000000000E+00     0.0000000000000000E+00 
    4.3750000000182099E-01     1.0000000000000000E+00     0.0000000000000000E+00 
    3.7500000000156092E-01     1.0000000000000000E+00     0.0000000000000000E+00 
    3.1250000000130068E-01     1.0000000000000000E+00     0.0000000000000000E+00 
    2.5000000000104050E-01     1.0000000000000000E+00     0.0000000000000000E+00 
    1.8750000000078040E-01     1.0000000000000000E+00     0.0000000000000000E+00 
    1.2500000000052031E-01     1.0000000000000000E+00     0.0000000000000000E+00 
    6.2500000000260125E-02     1.0000000000000000E+00     0.0000000000000000E+00 
    0.0000000000000000E+00     9.3749999999973976E-01     0.0000000000000000E+00 
    0.0000000000000000E+00     8.7499999999950118E-01     0.0000000000000000E+00 
    0.0000000000000000E+00     8.1249999999991318E-01     0.0000000000000000E+00 
    0.0000000000000000E+00     7.5000000000034706E-01     0.0000000000000000E+00 
    0.0000000000000000E+00     6.8750000000078049E-01     0.0000000000000000E+00 
    0.0000000000000000E+00     6.2500000000121403E-01     0.0000000000000000E+00 
    0.0000000000000000E+00     5.6250000000164757E-01     0.0000000000000000E+00 
    0.0000000000000000E+00     5.0000000000205946E-01     0.0000000000000000E+00 
    0.0000000000000000E+00     4.3750000000182099E-01     0.0000000000000000E+00 
    0.0000000000000000E+00     3.7500000000156092E-01     0.0000000000000000E+00 
    0.0000000000000000E+00     3.1250000000130068E-01     0.0000000000000000E+00 
    0.0000000000000000E+00     2.5000000000104050E-01     0.0000000000000000E+00 
    0.0000000000000000E+00     1.8750000000078040E-01     0.0000000000000000E+00 
    0.0000000000000000E+00     1.2500000000052031E-01     0.0000000000000000E+00 
    0.0000000000000000E+00     6.2500000000260125E-02     0.0000000000000000E+00 
    6.2499999999897131E-02     6.2500000000235922E-02     0.0000000000000000E+00 
    6.2499999999921327E-02     1.2500000000047351E-01     0.0000000000000000E+00 
    6.2499999999945530E-02     1.8750000000070621E-01     0.0000000000000000E+00 
    6.2499999999969733E-02     2.5000000000093858E-01     0.0000000000000000E+00 
    6.2499999999993928E-02     3.1250000000117117E-01     0.0000000000000000E+00 
    6.2500000000018124E-02     3.7500000000140382E-01     0.0000000000000000E+00 
    6.2500000000042327E-02     4.3750000000163619E-01     0.0000000000000000E+00 
    6.2500000000066530E-02     5.0000000000184897E-01     0.0000000000000000E+00 
    6.2500000000090733E-02     5.6250000000147260E-01     0.0000000000000000E+00 
    6.2500000000114922E-02     6.2500000000107636E-01     0.0000000000000000E+00 
    6.2500000000139125E-02     6.8750000000068034E-01     0.0000000000000000E+00 
    6.2500000000163328E-02     7.5000000000028411E-01     0.0000000000000000E+00 
    6.2500000000187531E-02     8.1249999999988787E-01     0.0000000000000000E+00 
    6.2500000000211720E-02     8.7499999999951172E-01     0.0000000000000000E+00 
    6.2500000000235922E-02     9.3749999999974565E-01     0.0000000000000000E+00 
    1.2499999999981980E-01     6.2500000000211733E-02     0.0000000000000000E+00 
    1.2499999999986650E-01     1.2500000000042691E-01     0.0000000000000000E+00 
    1.2499999999991319E-01     1.8750000000063199E-01     0.0000000000000000E+00 
    1.2499999999995989E-01     2.5000000000083678E-01     0.0000000000000000E+00 
    1.2500000000000661E-01     3.1250000000104172E-01     0.0000000000000000E+00 
    1.2500000000005329E-01     3.7500000000124661E-01     0.0000000000000000E+00 
    1.2500000000010000E-01     4.3750000000145117E-01     0.0000000000000000E+00 
    1.2500000000014669E-01     5.0000000000163858E-01     0.0000000000000000E+00 
    1.2500000000019340E-01     5.6250000000129741E-01     0.0000000000000000E+00 
    1.2500000000024011E-01     6.2500000000093847E-01     0.0000000000000000E+00 
    1.2500000000028680E-01     6.8750000000057998E-01     0.0000000000000000E+00 
    1.2500000000033351E-01     7.5000000000022127E-01     0.0000000000000000E+00 
    1.2500000000038020E-01     8.1249999999986211E-01     0.0000000000000000E+00 
    1.2500000000042691E-01     8.7499999999952238E-01     0.0000000000000000E+00 
    1.2500000000047359E-01     9.3749999999975164E-01     0.0000000000000000E+00 
    1.8749999999966760E-01     6.2500000000187531E-02     0.0000000000000000E+00 
    1.8749999999974179E-01     1.2500000000038020E-01     0.0000000000000000E+00 
    1.8749999999981601E-01     1.8750000000055780E-01     0.0000000000000000E+00 
    1.8749999999989009E-01     2.5000000000073502E-01     0.0000000000000000E+00 
    1.8749999999996431E-01     3.1250000000091221E-01     0.0000000000000000E+00 
    1.8750000000003850E-01     3.7500000000108941E-01     0.0000000000000000E+00 
    1.8750000000011269E-01     4.3750000000126649E-01     0.0000000000000000E+00 
    1.8750000000018691E-01     5.0000000000142808E-01     0.0000000000000000E+00 
    1.8750000000026110E-01     5.6250000000112244E-01     0.0000000000000000E+00 
    1.8750000000033529E-01     6.2500000000080080E-01     0.0000000000000000E+00 
    1.8750000000040951E-01     6.8750000000047962E-01     0.0000000000000000E+00 
    1.8750000000048361E-01     7.5000000000015843E-01     0.0000000000000000E+00 
    1.8750000000055780E-01     8.1249999999983680E-01     0.0000000000000000E+00 
    1.8750000000063199E-01     8.7499999999953304E-01     0.0000000000000000E+00 
    1.8750000000070621E-01     9.3749999999975764E-01     0.0000000000000000E+00 
    2.4999999999951281E-01     6.2500000000163314E-02     0.0000000000000000E+00 
    2.4999999999961461E-01     1.2500000000033351E-01     0.0000000000000000E+00 
    2.4999999999971650E-01     1.8750000000048361E-01     0.0000000000000000E+00 
    2.4999999999981831E-01     2.5000000000063310E-01     0.0000000000000000E+00 
    2.4999999999992020E-01     3.1250000000078260E-01     0.0000000000000000E+00 
    2.5000000000002198E-01     3.7500000000093209E-01     0.0000000000000000E+00 
    2.5000000000012390E-01     4.3750000000108180E-01     0.0000000000000000E+00 
    2.5000000000022571E-01     5.0000000000121769E-01     0.0000000000000000E+00 
    2.5000000000032763E-01     5.6250000000094724E-01     0.0000000000000000E+00 
    2.5000000000042938E-01     6.2500000000066314E-01     0.0000000000000000E+00 
    2.5000000000053119E-01     6.8750000000037925E-01     0.0000000000000000E+00 
[...]
CELL_DATA 256 
SCALARS Pressure double 1 
LOOKUP_TABLE default 

    2.2042354207385513E+00 
    2.1007999645886897E+00 
    2.0347744875094258E+00 
    1.9839556217792493E+00 
    1.9403767280314834E+00 
    1.9019263632110428E+00 
    1.8668841272605066E+00 
    1.8343345843630350E+00 
    1.8044423024951453E+00 
    1.7772297944585700E+00 
    1.7528269686213824E+00 
    1.7315644739676401E+00 
    1.7136959165542971E+00 
    1.6971316554064018E+00 
    1.6840793868370219E+00 
    1.6778832444997538E+00 
    2.1008241566011194E+00 
    2.0583173872737306E+00 
    2.0132910793248224E+00 
    1.9703539507299122E+00 
    1.9306680313502547E+00 
    1.8943697571719438E+00 
    1.8603160854984078E+00 
    1.8283535103304724E+00 
    1.7987911717688578E+00 
    1.7716703443463504E+00 
    1.7472368819635136E+00 
    1.7258724448853680E+00 
    1.7078621667487068E+00 
    1.6911427495898681E+00 
    1.6779508387999214E+00 
    1.6716919888295521E+00 
    2.0348394331759856E+00 
    2.0133316768599094E+00 
    1.9821190825771096E+00 
    1.9477259892242638E+00 
    1.9134821770303185E+00 
    1.8801708127350842E+00 
    1.8477554286531885E+00 
    1.8168333513051722E+00 
    1.7877355161587638E+00 
    1.7607174086867841E+00 
    1.7361790955244540E+00 
    1.7145418618206736E+00 
    1.6962030163933015E+00 
    1.6791409609063139E+00 
    1.6656585672043782E+00 
    1.6592610397940337E+00 
    1.9840781832793590E+00 
    1.9704483831803645E+00 
    1.9477768157217583E+00 
    1.9204940641908441E+00 
    1.8910969055202653E+00 
    1.8606777892095379E+00 
    1.8301261943003353E+00 
    1.8003025950027027E+00 
    1.7716456587126386E+00 
    1.7446354547190004E+00 
    1.7197632041979605E+00 
    1.6975946671081139E+00 
    1.6786711591021801E+00 
    1.6610212110898461E+00 
    1.6470755328188860E+00 
    1.6404483577766225E+00 
    1.9405552382431213E+00 
    1.9308110344745206E+00 
    1.9135809286601213E+00 
    1.8911467346736486E+00 
    1.8652641098514051E+00 
    1.8372813767589280E+00 
    1.8084102193584042E+00 
    1.7794901360688102E+00 
    1.7510465171128919E+00 
    1.7237147486607314E+00 
    1.6981391058382427E+00 
    1.6750799811824055E+00 
    1.6551987252761011E+00 
    1.6366420002098134E+00 
    1.6220144794564131E+00 
    1.6150283869324031E+00 
    1.9021363936257472E+00 
    1.8945515256260688E+00 
    1.8803137246632669E+00 
    1.8607753669787455E+00 
    1.8373315034704059E+00 
    1.8112500376954495E+00 
    1.7836204731278751E+00 
    1.7551369334513678E+00 
    1.7264245702368803E+00 
    1.6982803783500307E+00 
    1.6715289995450988E+00 
    1.6470821325005769E+00 
    1.6257264356196479E+00 
    1.6058465820171990E+00 
    1.5902008699786543E+00 
    1.5826428638897367E+00 
    1.8671296846879344E+00 
    1.8605390803074868E+00 
    1.8479423130710004E+00 
    1.8302676176899009E+00 
    1.8085022787576430E+00 
    1.7836643727538328E+00 
    1.7565825581371055E+00 
    1.7278589357285783E+00 
    1.6982679167337449E+00 
    1.6687193344839601E+00 
    1.6401805727037164E+00 
    1.6136326656899973E+00 
    1.5901004579608355E+00 
    1.5683163857548126E+00 
    1.5511342287789294E+00 
    1.5426698778382040E+00 
    1.8346177648543849E+00 
    1.8286149605940680E+00 
    1.8170591924072166E+00 
    1.8004853446353342E+00 
    1.7796274203468643E+00 
    1.7552287571876692E+00 
    1.7279059616868304E+00 
    1.6982835519326496E+00 
    1.6671884644392587E+00 
    1.6355479915560671E+00 
    1.6043419729875104E+00 
    1.5747070179696723E+00 
    1.5479996536458371E+00 
    1.5235039417109042E+00 
    1.5040602538421841E+00 
    1.4941723848837551E+00 
    1.8047586816098891E+00 
    1.7990875192570912E+00 
    1.7880003258262285E+00 
    1.7718724725979698E+00 
    1.7512312696228254E+00 
    1.7265646370661061E+00 
    1.6983650103387284E+00 
    1.6672374325455483E+00 
    1.6339389132322892E+00 
    1.5992900960531808E+00 
    1.5642870745411361E+00 
    1.5302663061146236E+00 
    1.4989729257027875E+00 
    1.4705688609166854E+00 
    1.4476948539373091E+00 
    1.4355485988125669E+00 
    1.7775764541506831E+00 
    1.7720003189569897E+00 
    1.7610226514241640E+00 
    1.7449081102801010E+00 
    1.7239481737713029E+00 
    1.6984680889716171E+00 
    1.6688617586486958E+00 
    1.6356397220180956E+00 
    1.5993348179257703E+00 
    1.5606242797606094E+00 
    1.5205136337563496E+00 
    1.4805031456117492E+00 
    1.4426782902250685E+00 
    1.4084398511363505E+00 
    1.3800082051432569E+00 
    1.3641852739769893E+00 
    1.7532025802580127E+00 
    1.7476021551745853E+00 
    1.7365267335233077E+00 
    1.7200846452135965E+00 
    1.6984250475335729E+00 
    1.6717669207652899E+00 
    1.6403597179886775E+00 
    1.6044656391752830E+00 
    1.5643694051472703E+00 
    1.5205604101779262E+00 
    1.4739155777821771E+00 
    1.4259315626306808E+00 
    1.3789698497414944E+00 
    1.3358138223929639E+00 
    1.2982207782808246E+00 
    1.2763422677794329E+00 
    1.7319701277530566E+00 
    1.7262769639922744E+00 
    1.7149386269012605E+00 
    1.6979704869477872E+00 
    1.6754253321554409E+00 
    1.6473803449252447E+00 
    1.6138610335962600E+00 
    1.5748748250792766E+00 
    1.5304014175083955E+00 
    1.4806152761181903E+00 
    1.4259901297836182E+00 
    1.3677277007745394E+00 
    1.3081561087958742E+00 
    1.2511138654456075E+00 
    1.1987669041681437E+00 
    1.1668398682178940E+00 
    1.7141488549870756E+00 
    1.7083121528882850E+00 
    1.6966439866946073E+00 
    1.6790951647588039E+00 
    1.6556000083427924E+00 
    1.6260718707660045E+00 
    1.5903594325253680E+00 
    1.5482045673375622E+00 
    1.4991686148866623E+00 
    1.4428891231442400E+00 
    1.3790982598426420E+00 
    1.3081637987265062E+00 
    1.2315638405188369E+00 
    1.1530073056329746E+00 
    1.0767367590365469E+00 
    1.0254623417874349E+00 
    1.6976281391640977E+00 
    1.6916275064463668E+00 
    1.6796078225050093E+00 
    1.6614680849274193E+00 
    1.6370510374106757E+00 
    1.6061673740698037E+00 
    1.5685368213565194E+00 
    1.5236770468869254E+00 
    1.4707469804628648E+00 
    1.4086590346536387E+00 
    1.3359273137360415E+00 
    1.2511084114424480E+00 
    1.1530610000392065E+00 
    1.0427465602724773E+00 
    9.2499181754150639E-01 
    8.2734465340396857E-01 
    1.6845876654898395E+00 
    1.6784484870249450E+00 
    1.6661370917282441E+00 
    1.6475242520373647E+00 
    1.6224028283884608E+00 
    1.5904956657645057E+00 
    1.5513435169853438E+00 
    1.5042253057778499E+00 
    1.4478684586515582E+00 
    1.3802056854431515E+00 
    1.2983317317735332E+00 
    1.1987784173759213E+00 
    1.0767575708843855E+00 
    9.2494884980500092E-01 
    7.3676806992270005E-01 
    5.2708009652978738E-01 
    1.6783841795526786E+00 
    1.6721822067473078E+00 
    1.6597299129772720E+00 
    1.6408821880560280E+00 
    1.6154025294481240E+00 
    1.5829396464033716E+00 
    1.5428949279269497E+00 
    1.4943531146335312E+00 
    1.4357280927044302E+00 
    1.3643751799521260E+00 
    1.2764913715347233E+00 
    1.1668852196525588E+00 
    1.0254151101500870E+00 
    8.2722315510301725E-01 
    5.2701116533708992E-01 
    0.0000000000000000E+00 

SCALARS Saturarion double 1 
LOOKUP_TABLE default 

    1.0000000001915141E+00 
    9.7296848472837738E-01 
    9.2508523491767458E-01 
    8.7155214354138832E-01 
    8.1717037228710876E-01 
    7.6450493828481270E-01 
    7.1557949848794322E-01 
    6.7075829398515829E-01 
    6.2936276815190062E-01 
    5.8882520587847620E-01 
    5.4768700884676536E-01 
    5.0622289524662500E-01 
    4.5704116857011506E-01 
    2.3148538630730786E-01 
    6.8928343642455324E-04 
    1.0378055391974179E-06 
    9.7296611614194539E-01 
    9.5288272938097596E-01 
    9.1017121030402126E-01 
    8.5968188828341674E-01 
    8.0837779081051908E-01 
    7.5840382112588256E-01 
    7.1137939308292242E-01 
    6.6794691893047275E-01 
    6.2761786404040398E-01 
    5.8797331365709704E-01 
    5.4737489963670871E-01 
    5.0620395908278992E-01 
    4.5826982718797793E-01 
    2.3125864432371085E-01 
    7.1996016244504685E-04 
    1.0000947161146083E-06 
    9.2507182002740351E-01 
    9.1015999930912050E-01 
    8.7510226431434857E-01 
    8.3260696291495562E-01 
    7.8801108280195842E-01 
    7.4342550340571356E-01 
    7.0060203908591401E-01 
    6.6048373785418113E-01 
    6.2262889816333100E-01 
    5.8467355604843874E-01 
    5.4548361141524049E-01 
    5.0547984740564078E-01 
    4.5834976167078395E-01 
    2.3211208714199849E-01 
    8.4958003286009828E-04 
    1.0227121812592630E-06 
    8.7152026099871671E-01 
    8.5965525490474359E-01 
    8.3258978369072068E-01 
    7.9756452831529079E-01 
    7.6100502877165732E-01 
    7.2348420957224091E-01 
    6.8617581108150150E-01 
    6.5020802792606602E-01 
    6.1529014244549818E-01 
    5.7961985647979530E-01 
    5.4252251451348932E-01 
    5.0423210857094958E-01 
    4.5806892888086165E-01 
    2.3521823838998043E-01 
    7.3484750060005312E-04 
    1.0079368300897862E-06 
    8.1713601537719527E-01 
    8.0835578800320362E-01 
    7.8799226187549287E-01 
    7.6099237159235189E-01 
    7.3127135329938686E-01 
    7.0095436588112281E-01 
    6.6974386429121491E-01 
    6.3819398783163717E-01 
    6.0628445876542503E-01 
    5.7355361845329011E-01 
    5.3917870552955971E-01 
    5.0309851883149570E-01 
    4.5755352377744973E-01 
    2.4988212568166443E-01 
    8.8242849098831596E-04 
    1.0271656381110235E-06 
    7.6453623000256121E-01 
    7.5841230301629636E-01 
    7.4341975254544057E-01 
    7.2346893543088908E-01 
    7.0093979022158936E-01 
    6.7686612963131365E-01 
    6.5101259110433363E-01 
    6.2387127601726966E-01 
    5.9578598680945949E-01 
    5.6663487884556063E-01 
    5.3544854152495636E-01 
    5.0229332944220995E-01 
    4.5952578524599175E-01 
    2.7280733138356417E-01 
    1.6021439575393077E-03 
    1.0280298781292385E-06 
    7.1562070961372792E-01 
    7.1139319978807847E-01 
    7.0059458794079454E-01 
    6.8615130143404413E-01 
    6.6971422031906724E-01 
    6.5099630475653247E-01 
    6.2988622656013238E-01 
    6.0732462261154307E-01 
    5.8366111011156774E-01 
    5.5853335875048837E-01 
    5.3085411250234993E-01 
    5.0034740089875429E-01 
    4.6154185280572735E-01 
    2.9397678340997302E-01 
    4.2464216123385082E-03 
    1.1912593534524964E-06 
    6.7077303987666681E-01 
    6.6794557475041461E-01 
    6.6046220329169625E-01 
    6.5016925075416598E-01 
    6.3815579755710894E-01 
    6.2384638998861885E-01 
    6.0730709813546802E-01 
    5.8930898348704441E-01 
    5.7020693554237567E-01 
    5.4935595047167207E-01 
    5.2573263437981088E-01 
    4.9823086830220470E-01 
    4.6258226385282103E-01 
    3.1682018836414949E-01 
    1.0012827773643769E-02 
    1.5178789438691965E-06 
    6.2937526384502407E-01 
    6.2761268177759344E-01 
    6.2259938774558887E-01 
    6.1525160739987139E-01 
    6.0625602618794061E-01 
    5.9576149394767519E-01 
    5.8361962010854695E-01 
    5.7015485602237326E-01 
    5.5541816851990555E-01 
    5.3903030527939111E-01 
    5.1986066210944637E-01 
    4.9650230938147744E-01 
    4.6466249462469544E-01 
    3.4386599118471628E-01 
    2.9916413928919507E-02 
    7.2017031753216508E-06 
    5.8886347933023275E-01 
    5.8794876139317398E-01 
    5.8459462110827520E-01 
    5.7952289700033466E-01 
    5.7346512505747826E-01 
    5.6652245014781177E-01 
    5.5836435643614046E-01 
    5.4915912481170226E-01 
    5.3885906984055265E-01 
    5.2701576130640104E-01 
    5.1265258576268480E-01 
    4.9436821503685674E-01 
    4.6844674615940751E-01 
    3.7910097067665144E-01 
    6.9746505724009006E-02 
    6.2825830790909419E-04 
    5.4778840208526069E-01 
    5.4741607491437660E-01 
    5.4550086152116273E-01 
    5.4254882686490924E-01 
    5.3916196901548918E-01 
    5.3540395165447263E-01 
    5.3082448498303847E-01 
    5.2567873091689155E-01 
    5.1972308780413090E-01 
    5.1247439367478731E-01 
    5.0326334383027649E-01 
    4.9055841579188553E-01 
    4.7197902343352638E-01 
    4.1462611568196639E-01 
    1.2648635461601718E-01 
    2.7495605994839540E-04 
    5.0671696327973359E-01 
    5.0669365030969504E-01 
    5.0596079084099843E-01 
    5.0454309956222165E-01 
    5.0316765401457253E-01 
    5.0227585410718656E-01 
    5.0058523864224380E-01 
    4.9894430298750531E-01 
    4.9725937799228570E-01 
    4.9466557447039788E-01 
    4.9051748082088825E-01 
    4.8401405314526846E-01 
    4.7303971608703077E-01 
    4.3945787835474925E-01 
    2.1222579051008028E-01 
    1.2070914007958750E-03 
    4.5897902823866615E-01 
    4.5918064687279536E-01 
    4.5818649400924549E-01 
    4.5776913610751413E-01 
    4.5788945448272000E-01 
    4.5880255785939494E-01 
    4.6040047220138336E-01 
    4.6229274213377053E-01 
    4.6532965768345924E-01 
    4.6918901539944008E-01 
    4.7234570784974023E-01 
    4.7305083745837828E-01 
    4.7023381289226024E-01 
    4.5079682056676473E-01 
    3.0617774579347695E-01 
    2.9976952862005909E-02 
    2.3208623432710773E-01 
    2.3263792567132088E-01 
    2.3372599560695428E-01 
    2.3470381035884960E-01 
    2.4507087459566207E-01 
    2.6594993119524424E-01 
    2.9149694573346907E-01 
    3.1449869316452528E-01 
    3.4136241996094308E-01 
    3.7793733374396971E-01 
    4.0980082862594491E-01 
    4.4033637681553972E-01 
    4.5216915717310102E-01 
    4.5139724413462495E-01 
    3.8300796776654999E-01 
    1.5304776672233511E-01 
    5.2232212173499057E-05 
    2.1554866343605647E-05 
    9.7624389871796860E-05 
    6.3065105942278774E-05 
    1.3239777842873489E-03 
    1.0976505561761968E-03 
    3.8689830225062593E-03 
    7.9597465460080792E-03 
    2.6140787219441020E-02 
    6.7553628097598378E-02 
    1.2260885185811646E-01 
    2.0428465462547102E-01 
    3.0322490091908350E-01 
    3.8183038502617717E-01 
    4.0221883145025683E-01 
    2.6141926483886063E-01 
    1.0000192186666139E-06 
    1.0000045337761206E-06 
    1.0001811061012908E-06 
    1.0001790810977415E-06 
    1.1356927749868322E-06 
    1.0132754170259922E-06 
    1.1566692571245450E-06 
    1.1772635488642240E-06 
    5.1763725634846754E-06 
    3.4493114525432760E-05 
    8.6265528721373176E-05 
    8.0524143743198782E-04 
    2.9058261492454406E-02 
    1.4846820994724885E-01 
    2.6219172168467780E-01 
    2.5617186981796303E-01 
