# vtk DataFile Version 2.0
Pressure Field Data 
ASCII 
DATASET UNSTRUCTURED_GRID 

POINTS 289 double 

    0.0000000000000000E+00     0.0000000000000000E+00     0.0000000000000000E+00 
    1.0000000000000000E+00     0.0000000000000000E+00     0.0000000000000000E+00 
    1.0000000000000000E+00     1.0000000000000000E+00     0.0000000000000000E+00 
    0.0000000000000000E+00     1.0000000000000000E+00     0.0000000000000000E+00 
    6.2499999999872928E-02     0.0000000000000000E+00     0.0000000000000000E+00 
    1.2499999999977310E-01     0.0000000000000000E+00     0.0000000000000000E+00 
    1.8749999999959341E-01     0.0000000000000000E+00     0.0000000000000000E+00 
    2.4999999999941089E-01     0.0000000000000000E+00     0.0000000000000000E+00 
    3.1249999999922851E-01     0.0000000000000000E+00     0.0000000000000000E+00 
    3.7499999999904610E-01     0.0000000000000000E+00     0.0000000000000000E+00 
    4.3749999999886358E-01     0.0000000000000000E+00     0.0000000000000000E+00 
    4.9999999999869210E-01     0.0000000000000000E+00     0.0000000000000000E+00 
    5.6249999999884603E-01     0.0000000000000000E+00     0.0000000000000000E+00 
    6.2499999999901090E-01     0.0000000000000000E+00     0.0000000000000000E+00 
    6.8749999999917577E-01     0.0000000000000000E+00     0.0000000000000000E+00 
    7.4999999999934064E-01     0.0000000000000000E+00     0.0000000000000000E+00 
    8.1249999999950551E-01     0.0000000000000000E+00     0.0000000000000000E+00 
    8.7499999999967026E-01     0.0000000000000000E+00     0.0000000000000000E+00 
    9.3749999999983513E-01     0.0000000000000000E+00     0.0000000000000000E+00 
    1.0000000000000000E+00     6.2499999999872928E-02     0.0000000000000000E+00 
    1.0000000000000000E+00     1.2499999999977310E-01     0.0000000000000000E+00 
    1.0000000000000000E+00     1.8749999999959341E-01     0.0000000000000000E+00 
    1.0000000000000000E+00     2.4999999999941089E-01     0.0000000000000000E+00 
    1.0000000000000000E+00     3.1249999999922851E-01     0.0000000000000000E+00 
    1.0000000000000000E+00     3.7499999999904610E-01     0.0000000000000000E+00 
    1.0000000000000000E+00     4.3749999999886358E-01     0.0000000000000000E+00 
    1.0000000000000000E+00     4.9999999999869210E-01     0.0000000000000000E+00 
    1.0000000000000000E+00     5.6249999999884603E-01     0.0000000000000000E+00 
    1.0000000000000000E+00     6.2499999999901090E-01     0.0000000000000000E+00 
    1.0000000000000000E+00     6.8749999999917577E-01     0.0000000000000000E+00 
    1.0000000000000000E+00     7.4999999999934064E-01     0.0000000000000000E+00 
    1.0000000000000000E+00     8.1249999999950551E-01     0.0000000000000000E+00 
    1.0000000000000000E+00     8.7499999999967026E-01     0.0000000000000000E+00 
    1.0000000000000000E+00     9.3749999999983513E-01     0.0000000000000000E+00 
    9.3749999999973976E-01     1.0000000000000000E+00     0.0000000000000000E+00 
    8.7499999999950118E-01     1.0000000000000000E+00     0.0000000000000000E+00 
    8.1249999999991318E-01     1.0000000000000000E+00     0.0000000000000000E+00 
    7.5000000000034706E-01     1.0000000000000000E+00     0.0000000000000000E+00 
    6.8750000000078049E-01     1.0000000000000000E+00     0.0000000000000000E+00 
    6.2500000000121403E-01     1.0000000000000000E+00     0.0000000000000000E+00 
    5.6250000000164757E-01     1.0000000000000000E+00     0.0000000000000000E+00 
    5.0000000000205946E-01     1.0000000000000000E+00     0.0000000000000000E+00 
    4.3750000000182099E-01     1.0000000000000000E+00     0.0000000000000000E+00 
    3.7500000000156092E-01     1.0000000000000000E+00     0.0000000000000000E+00 
    3.1250000000130068E-01     1.0000000000000000E+00     0.0000000000000000E+00 
    2.5000000000104050E-01     1.0000000000000000E+00     0.0000000000000000E+00 
    1.8750000000078040E-01     1.0000000000000000E+00     0.0000000000000000E+00 
    1.2500000000052031E-01     1.0000000000000000E+00     0.0000000000000000E+00 
    6.2500000000260125E-02     1.0000000000000000E+00     0.0000000000000000E+00 
    0.0000000000000000E+00     9.3749999999973976E-01     0.0000000000000000E+00 
    0.0000000000000000E+00     8.7499999999950118E-01     0.0000000000000000E+00 
    0.0000000000000000E+00     8.1249999999991318E-01     0.0000000000000000E+00 
    0.0000000000000000E+00     7.5000000000034706E-01     0.0000000000000000E+00 
    0.0000000000000000E+00     6.8750000000078049E-01     0.0000000000000000E+00 
    0.0000000000000000E+00     6.2500000000121403E-01     0.0000000000000000E+00 
    0.0000000000000000E+00     5.6250000000164757E-01     0.0000000000000000E+00 
    0.0000000000000000E+00     5.0000000000205946E-01     0.0000000000000000E+00 
    0.0000000000000000E+00     4.3750000000182099E-01     0.0000000000000000E+00 
    0.0000000000000000E+00     3.7500000000156092E-01     0.0000000000000000E+00 
    0.0000000000000000E+00     3.1250000000130068E-01     0.0000000000000000E+00 
    0.0000000000000000E+00     2.5000000000104050E-01     0.0000000000000000E+00 
    0.0000000000000000E+00     1.8750000000078040E-01     0.0000000000000000E+00 
    0.0000000000000000E+00     1.2500000000052031E-01     0.0000000000000000E+00 
    0.0000000000000000E+00     6.2500000000260125E-02     0.0000000000000000E+00 
    6.2499999999897131E-02     6.2500000000235922E-02     0.0000000000000000E+00 
    6.2499999999921327E-02     1.2500000000047351E-01     0.0000000000000000E+00 
    6.2499999999945530E-02     1.8750000000070621E-01     0.0000000000000000E+00 
    6.2499999999969733E-02     2.5000000000093858E-01     0.0000000000000000E+00 
    6.2499999999993928E-02     3.1250000000117117E-01     0.0000000000000000E+00 
    6.2500000000018124E-02     3.7500000000140382E-01     0.0000000000000000E+00 
    6.2500000000042327E-02     4.3750000000163619E-01     0.0000000000000000E+00 
    6.2500000000066530E-02     5.0000000000184897E-01     0.0000000000000000E+00 
    6.2500000000090733E-02     5.6250000000147260E-01     0.0000000000000000E+00 
    6.2500000000114922E-02     6.2500000000107636E-01     0.0000000000000000E+00 
    6.2500000000139125E-02     6.8750000000068034E-01     0.0000000000000000E+00 
    6.2500000000163328E-02     7.5000000000028411E-01     0.0000000000000000E+00 
    6.2500000000187531E-02     8.1249999999988787E-01     0.0000000000000000E+00 
    6.2500000000211720E-02     8.7499999999951172E-01     0.0000000000000000E+00 
    6.2500000000235922E-02     9.3749999999974565E-01     0.0000000000000000E+00 
    1.2499999999981980E-01     6.2500000000211733E-02     0.0000000000000000E+00 
    1.2499999999986650E-01     1.2500000000042691E-01     0.0000000000000000E+00 
    1.2499999999991319E-01     1.8750000000063199E-01     0.0000000000000000E+00 
    1.2499999999995989E-01     2.5000000000083678E-01     0.0000000000000000E+00 
    1.2500000000000661E-01     3.1250000000104172E-01     0.0000000000000000E+00 
    1.2500000000005329E-01     3.7500000000124661E-01     0.0000000000000000E+00 
    1.2500000000010000E-01     4.3750000000145117E-01     0.0000000000000000E+00 
    1.2500000000014669E-01     5.0000000000163858E-01     0.0000000000000000E+00 
    1.2500000000019340E-01     5.6250000000129741E-01     0.0000000000000000E+00 
    1.2500000000024011E-01     6.2500000000093847E-01     0.0000000000000000E+00 
    1.2500000000028680E-01     6.8750000000057998E-01     0.0000000000000000E+00 
    1.2500000000033351E-01     7.5000000000022127E-01     0.0000000000000000E+00 
    1.2500000000038020E-01     8.1249999999986211E-01     0.0000000000000000E+00 
    1.2500000000042691E-01     8.7499999999952238E-01     0.0000000000000000E+00 
    1.2500000000047359E-01     9.3749999999975164E-01     0.0000000000000000E+00 
    1.8749999999966760E-01     6.2500000000187531E-02     0.0000000000000000E+00 
    1.8749999999974179E-01     1.2500000000038020E-01     0.0000000000000000E+00 
    1.8749999999981601E-01     1.8750000000055780E-01     0.0000000000000000E+00 
    1.8749999999989009E-01     2.5000000000073502E-01     0.0000000000000000E+00 
    1.8749999999996431E-01     3.1250000000091221E-01     0.0000000000000000E+00 
    1.8750000000003850E-01     3.7500000000108941E-01     0.0000000000000000E+00 
    1.8750000000011269E-01     4.3750000000126649E-01     0.0000000000000000E+00 
    1.8750000000018691E-01     5.0000000000142808E-01     0.0000000000000000E+00 
    1.8750000000026110E-01     5.6250000000112244E-01     0.0000000000000000E+00 
    1.8750000000033529E-01     6.2500000000080080E-01     0.0000000000000000E+00 
    1.8750000000040951E-01     6.8750000000047962E-01     0.0000000000000000E+00 
    1.8750000000048361E-01     7.5000000000015843E-01     0.0000000000000000E+00 
    1.8750000000055780E-01     8.1249999999983680E-01     0.0000000000000000E+00 
    1.8750000000063199E-01     8.7499999999953304E-01     0.0000000000000000E+00 
    1.8750000000070621E-01     9.3749999999975764E-01     0.0000000000000000E+00 
    2.4999999999951281E-01     6.2500000000163314E-02     0.0000000000000000E+00 
    2.4999999999961461E-01     1.2500000000033351E-01     0.0000000000000000E+00 
    2.4999999999971650E-01     1.8750000000048361E-01     0.0000000000000000E+00 
    2.4999999999981831E-01     2.5000000000063310E-01     0.0000000000000000E+00 
    2.4999999999992020E-01     3.1250000000078260E-01     0.0000000000000000E+00 
    2.5000000000002198E-01     3.7500000000093209E-01     0.0000000000000000E+00 
    2.5000000000012390E-01     4.3750000000108180E-01     0.0000000000000000E+00 
    2.5000000000022571E-01     5.0000000000121769E-01     0.0000000000000000E+00 
    2.5000000000032763E-01     5.6250000000094724E-01     0.0000000000000000E+00 
    2.5000000000042938E-01     6.2500000000066314E-01     0.0000000000000000E+00 
    2.5000000000053119E-01     6.8750000000037925E-01     0.0000000000000000E+00 
[...]
CELL_DATA 256 
SCALARS Pressure double 1 
LOOKUP_TABLE default 

    2.7443946207719550E+00 
    2.6273588024784718E+00 
    2.5351302741773867E+00 
    2.4483274803049175E+00 
    2.3653019449017441E+00 
    2.2843134436367376E+00 
    2.1931224319971703E+00 
    2.1009246282922769E+00 
    2.0282222820388993E+00 
    1.9663606540550018E+00 
    1.9142693913482556E+00 
    1.8713221556510504E+00 
    1.8371547429209059E+00 
    1.8115916170468989E+00 
    1.7945647796954252E+00 
    1.7860585168856198E+00 
    2.6273732248980353E+00 
    2.5711827064774369E+00 
    2.5007685570498857E+00 
    2.4244586679130293E+00 
    2.3468830739802105E+00 
    2.2672364080861636E+00 
    2.1770811472597926E+00 
    2.0885268344049370E+00 
    2.0174461949996978E+00 
    1.9566157497528160E+00 
    1.9051554366773176E+00 
    1.8625633536693817E+00 
    1.8285685717501790E+00 
    1.8030704768245778E+00 
    1.7860569320619308E+00 
    1.7775534534622912E+00 
    2.5351591429383635E+00 
    2.5007822147297945E+00 
    2.4472488587384267E+00 
    2.3829475922216181E+00 
    2.3125918225105071E+00 
    2.2342054341882154E+00 
    2.1461637150805761E+00 
    2.0645759348315997E+00 
    1.9964736052190397E+00 
    1.9375446613624849E+00 
    1.8872220272115059E+00 
    1.8452443106523524E+00 
    1.8115234755580527E+00 
    1.7861027532766260E+00 
    1.7690795734731832E+00 
    1.7605566368568171E+00 
    2.4483500179074063E+00 
    2.4244598340627155E+00 
    2.3829218560241840E+00 
    2.3286279771953740E+00 
    2.2635979402706572E+00 
    2.1857506529010151E+00 
    2.1034963435353227E+00 
    2.0305132638344663E+00 
    1.9663882310708416E+00 
    1.9099121782757298E+00 
    1.8609936086617753E+00 
    1.8197031801781887E+00 
    1.7862141828540914E+00 
    1.7607762019375943E+00 
    1.7436476965353500E+00 
    1.7350453707420979E+00 
    2.3653307248663173E+00 
    2.3468742442827892E+00 
    2.3125640516552606E+00 
    2.2636191284366411E+00 
    2.1996678651613824E+00 
    2.1255906349155143E+00 
    2.0537467625313597E+00 
    1.9885354782977267E+00 
    1.9287018103895126E+00 
    1.8747674713084521E+00 
    1.8271805343972425E+00 
    1.7863901306237875E+00 
    1.7528870721810250E+00 
    1.7271808419817560E+00 
    1.7097423052237271E+00 
    1.7009431281740479E+00 
    2.2843642071865373E+00 
    2.2672776239176775E+00 
    2.2343060995281827E+00 
    2.1859131006906032E+00 
    2.1256883257052728E+00 
    2.0624120460323767E+00 
    2.0006122110680824E+00 
    1.9412642448551480E+00 
    1.8851620858359408E+00 
    1.8333215213076692E+00 
    1.7865980715912748E+00 
    1.7458126945211594E+00 
    1.7117913137034391E+00 
    1.6853550462708056E+00 
    1.6672497866984586E+00 
    1.6580569986953673E+00 
    2.1932554284163355E+00 
    2.1772529325739804E+00 
    2.1463835707865218E+00 
    2.1036689406962914E+00 
    2.0538439597091043E+00 
    2.0006485690858917E+00 
    1.9457150009435196E+00 
    1.8908037954337917E+00 
    1.8374089989901994E+00 
    1.7867851215698447E+00 
    1.7400993842577044E+00 
    1.6984876337359067E+00 
    1.6631323222709933E+00 
    1.6352237255505464E+00 
    1.6158727882080546E+00 
    1.6059666112751834E+00 
    2.1011750504949540E+00 
    2.0887892526111322E+00 
    2.0648096084638188E+00 
    2.0306879062957814E+00 
    1.9886654293828034E+00 
    1.9413442208539364E+00 
    1.8908424910526416E+00 
    1.8388745209555302E+00 
    1.7869246976828215E+00 
    1.7363670591094218E+00 
    1.6885669506478906E+00 
    1.6449523488658835E+00 
    1.6070712653326826E+00 
    1.5765787358258603E+00 
    1.5550957289675098E+00 
    1.5439747199195899E+00 
    2.0284948107605172E+00 
    2.0177125324317848E+00 
    1.9967117958175005E+00 
    1.9665840978627793E+00 
    1.9288571919340467E+00 
    1.8852755992604426E+00 
    1.8374848429508772E+00 
    1.7869627657986178E+00 
    1.7350870763081729E+00 
    1.6832365946674728E+00 
    1.6328890444988626E+00 
    1.5857025219534029E+00 
    1.5436354454731180E+00 
    1.5089389790526282E+00 
    1.4839803156818661E+00 
    1.4708643356162676E+00 
    1.9666519349949840E+00 
    1.9568950874385675E+00 
    1.9377996724304789E+00 
    1.9101334701481563E+00 
    1.8749518310865003E+00 
    1.8334682567884975E+00 
    1.7868979746108162E+00 
    1.7364430305081269E+00 
    1.6832747106597010E+00 
    1.6286621808707966E+00 
    1.5740723176133904E+00 
    1.5213343736465588E+00 
    1.4728248752431932E+00 
    1.4315597067289236E+00 
    1.4010316454607714E+00 
    1.3846433095794399E+00 
    1.9145799620401900E+00 
    1.9054540620362495E+00 
    1.8874994196315509E+00 
    1.8612424392491664E+00 
    1.8273967640381941E+00 
    1.7867800933583262E+00 
    1.7402472111030731E+00 
    1.6886792953503664E+00 
    1.6329649151195766E+00 
    1.5741107416066582E+00 
    1.5134072985411247E+00 
    1.4527167392277505E+00 
    1.3947507293642956E+00 
    1.3434219747382974E+00 
    1.3039178631191621E+00 
    1.2820179884132916E+00 
    1.8716514979195136E+00 
    1.8628819092128293E+00 
    1.8455441181680987E+00 
    1.8199776378125545E+00 
    1.7866347902465356E+00 
    1.7460251706729319E+00 
    1.6986670482131672E+00 
    1.6450975938965045E+00 
    1.5858119558694241E+00 
    1.5214065969402539E+00 
    1.4527512729290939E+00 
    1.3814144699403565E+00 
    1.3100906911715440E+00 
    1.2435138687687992E+00 
    1.1892547773321374E+00 
    1.1575214768339031E+00 
    1.8374998908237763E+00 
    1.8289040625926967E+00 
    1.8118420082369482E+00 
    1.7865095439443506E+00 
    1.7531548048899575E+00 
    1.7120287445028082E+00 
    1.6633382508688639E+00 
    1.6072440974107567E+00 
    1.5437732293582949E+00 
    1.4729260728140587E+00 
    1.3948146918529991E+00 
    1.3101203249683848E+00 
    1.2207085805331190E+00 
    1.1313099690381443E+00 
    1.0520966645861984E+00 
    1.0013047695701385E+00 
    1.8119470061358820E+00 
    1.8034171399274763E+00 
    1.7864338342300212E+00 
    1.7610858631774062E+00 
    1.7274648017063490E+00 
    1.6856105026831312E+00 
    1.6354490019892074E+00 
    1.5767717186193191E+00 
    1.5090975787078875E+00 
    1.4316823423304954E+00 
    1.3435080375575625E+00 
    1.2435661895506598E+00 
    1.1313330273024100E+00 
    1.0089344913960216E+00 
    8.8654031352960028E-01 
    7.9430499468833782E-01 
    1.7949225834131408E+00 
    1.7864068133531434E+00 
    1.7694150593428495E+00 
    1.7439632766789988E+00 
    1.7100337889440804E+00 
    1.6675142199665853E+00 
    1.6161079462138213E+00 
    1.5552991798931346E+00 
    1.4841500478571417E+00 
    1.4011661124312493E+00 
    1.3040167653106667E+00 
    1.1893210007795894E+00 
    1.0521345043261263E+00 
    8.8655564904504280E-01 
    6.9082013308984558E-01 
    4.9505736308652409E-01 
    1.7864092832914080E+00 
    1.7778970792409641E+00 
    1.7608869041996380E+00 
    1.7353569238708058E+00 
    1.7012317149843257E+00 
    1.6583195298157833E+00 
    1.6062003313400843E+00 
    1.5441771960432213E+00 
    1.4710337315843323E+00 
    1.3847781496167282E+00 
    1.2821189055799562E+00 
    1.1575914010352815E+00 
    1.0013478532770383E+00 
    7.9432684908048834E-01 
    4.9506466020893675E-01 
    0.0000000000000000E+00 

SCALARS Saturarion double 1 
LOOKUP_TABLE default 

    9.9999919005632765E-01 
    8.9006132201584831E-01 
    7.3401127189097037E-01 
    6.2709947512110598E-01 
    5.4916929872377107E-01 
    4.8299961888422516E-01 
    2.3926554107208137E-01 
    7.9501631296719988E-05 
    1.0000000192686470E-06 
    1.0000000000000036E-06 
    9.9999999999999995E-07 
    9.9999999999999995E-07 
    9.9999999999999995E-07 
    9.9999999999999995E-07 
    9.9999999999999995E-07 
    9.9999999999999995E-07 
    8.9004731622792810E-01 
    8.1962337035372157E-01 
    7.0016233212550816E-01 
    6.1180580467781820E-01 
    5.3796019127359851E-01 
    4.7067832300263213E-01 
    1.8560004949387418E-01 
    5.8792195962430053E-04 
    1.0082684475803596E-06 
    1.0000000044305731E-06 
    1.0000000000000012E-06 
    9.9999999999999995E-07 
    9.9999999999999995E-07 
    9.9999999999999995E-07 
    9.9999999999999995E-07 
    9.9999999999999995E-07 
    7.3400382550766363E-01 
    7.0012858454862059E-01 
    6.4167009691700228E-01 
    5.7340233741799329E-01 
    5.0983390112508808E-01 
    4.2155220910250202E-01 
    7.2829527913905429E-02 
    1.4985425182022357E-04 
    1.0030842539480701E-06 
    1.0000000000555058E-06 
    1.0000000000000002E-06 
    9.9999999999999995E-07 
    9.9999999999999995E-07 
    9.9999999999999995E-07 
    9.9999999999999995E-07 
    9.9999999999999995E-07 
    6.2697950858506912E-01 
    6.1172435469768505E-01 
    5.7311752598541055E-01 
    5.2095540213266023E-01 
    4.6017486749495273E-01 
    2.6928789178618567E-01 
    4.2869289637565769E-03 
    6.2565278883400106E-06 
    1.0000002613763731E-06 
    1.0000000000001232E-06 
    9.9999999999999995E-07 
    9.9999999999999995E-07 
    9.9999999999999995E-07 
    9.9999999999999995E-07 
    9.9999999999999995E-07 
    9.9999999999999995E-07 
    5.4914193660579724E-01 
    5.3777833405981179E-01 
    5.0961304051257350E-01 
    4.6096754131421946E-01 
    3.3516152220564954E-01 
    5.3364775349445427E-02 
    5.9539240810389750E-04 
    1.0465894642663596E-06 
    1.0000000320745241E-06 
    1.0000000000000074E-06 
    9.9999999999999995E-07 
    9.9999999999999995E-07 
    9.9999999999999995E-07 
    9.9999999999999995E-07 
    9.9999999999999995E-07 
    9.9999999999999995E-07 
    4.8350698770886053E-01 
    4.7204163931935100E-01 
    4.2423151165254647E-01 
    2.6728939216198883E-01 
    5.3846761108411773E-02 
    3.6613758076253251E-04 
    1.0354284611206305E-06 
    1.0000000219478620E-06 
    1.0000000000000150E-06 
    9.9999999999999995E-07 
    9.9999999999999995E-07 
    9.9999999999999995E-07 
    9.9999999999999995E-07 
    9.9999999999999995E-07 
    9.9999999999999995E-07 
    9.9999999999999995E-07 
    2.3865092500121224E-01 
    1.7231258441345637E-01 
    7.3798077125725753E-02 
    4.9690631323997224E-03 
    6.0063665377675321E-04 
    1.0333242816660174E-06 
    1.0000000085105114E-06 
    1.0000000000000027E-06 
    9.9999999999999995E-07 
    9.9999999999999995E-07 
    9.9999999999999995E-07 
    9.9999999999999995E-07 
    9.9999999999999995E-07 
    9.9999999999999995E-07 
    9.9999999999999995E-07 
    9.9999999999999995E-07 
    1.2704118996494456E-04 
    3.9512977442217627E-04 
    7.4457109372299505E-04 
    8.4129541319844263E-06 
    1.1024078935971808E-06 
    1.0000000255383811E-06 
    1.0000000000000029E-06 
    9.9999999999999995E-07 
    9.9999999999999995E-07 
    9.9999999999999995E-07 
    9.9999999999999995E-07 
    9.9999999999999995E-07 
    9.9999999999999995E-07 
    9.9999999999999995E-07 
    9.9999999999999995E-07 
    9.9999999999999995E-07 
    1.0004460938226488E-06 
    1.0061812347380792E-06 
    1.0050703578680212E-06 
    1.0000012221406076E-06 
    1.0000000346042719E-06 
    1.0000000000000108E-06 
    9.9999999999999995E-07 
    9.9999999999999995E-07 
    9.9999999999999995E-07 
    9.9999999999999995E-07 
    9.9999999999999995E-07 
    9.9999999999999995E-07 
    9.9999999999999995E-07 
    9.9999999999999995E-07 
    9.9999999999999995E-07 
    9.9999999999999995E-07 
    1.0000000000001450E-06 
    1.0000000009914376E-06 
    1.0000000010191138E-06 
    1.0000000000000139E-06 
    1.0000000000000057E-06 
    9.9999999999999995E-07 
    9.9999999999999995E-07 
    9.9999999999999995E-07 
    9.9999999999999995E-07 
    9.9999999999999995E-07 
    9.9999999999999995E-07 
    9.9999999999999995E-07 
    9.9999999999999995E-07 
    9.9999999999999995E-07 
    9.9999999999999995E-07 
    9.9999999999999995E-07 
    9.9999999999999995E-07 
    9.9999999999999995E-07 
    1.0000000000000004E-06 
    9.9999999999999995E-07 
    9.9999999999999995E-07 
    9.9999999999999995E-07 
    9.9999999999999995E-07 
    9.9999999999999995E-07 
    9.9999999999999995E-07 
    9.9999999999999995E-07 
    9.9999999999999995E-07 
    9.9999999999999995E-07 
    9.9999999999999995E-07 
    9.9999999999999995E-07 
    9.9999999999999995E-07 
    9.9999999999999995E-07 
    9.9999999999999995E-07 
    9.9999999999999995E-07 
    9.9999999999999995E-07 
    9.9999999999999995E-07 
    9.9999999999999995E-07 
    9.9999999999999995E-07 
    9.9999999999999995E-07 
    9.9999999999999995E-07 
    9.9999999999999995E-07 
    9.9999999999999995E-07 
    9.9999999999999995E-07 
    9.9999999999999995E-07 
    9.9999999999999995E-07 
    9.9999999999999995E-07 
    9.9999999999999995E-07 
    9.9999999999999995E-07 
    9.9999999999999995E-07 
    9.9999999999999995E-07 
    9.9999999999999995E-07 
    9.9999999999999995E-07 
    9.9999999999999995E-07 
    9.9999999999999995E-07 
    9.9999999999999995E-07 
    9.9999999999999995E-07 
    9.9999999999999995E-07 
    9.9999999999999995E-07 
    9.9999999999999995E-07 
    9.9999999999999995E-07 
    9.9999999999999995E-07 
    9.9999999999999995E-07 
    9.9999999999999995E-07 
    9.9999999999999995E-07 
    9.9999999999999995E-07 
    9.9999999999999995E-07 
    9.9999999999999995E-07 
    9.9999999999999995E-07 
    9.9999999999999995E-07 
    9.9999999999999995E-07 
    9.9999999999999995E-07 
    9.9999999999999995E-07 
    9.9999999999999995E-07 
    9.9999999999999995E-07 
    9.9999999999999995E-07 
    9.9999999999999995E-07 
    9.9999999999999995E-07 
    9.9999999999999995E-07 
    9.9999999999999995E-07 
    9.9999999999999995E-07 
    9.9999999999999995E-07 
    9.9999999999999995E-07 
    9.9999999999999995E-07 
    9.9999999999999995E-07 
    9.9999999999999995E-07 
    9.9999999999999995E-07 
    9.9999999999999995E-07 
    9.9999999999999995E-07 
    9.9999999999999995E-07 
    9.9999999999999995E-07 
    9.9999999999999995E-07 
    9.9999999999999995E-07 
    9.9999999999999995E-07 
    9.9999999999999995E-07 
    9.9999999999999995E-07 
    9.9999999999999995E-07 
    9.9999999999999995E-07 
    9.9999999999999995E-07 
    9.9999999999999995E-07 
    9.9999999999999995E-07 
    9.9999999999999995E-07 
    9.9999999999999995E-07 
    9.9999999999999995E-07 
    9.9999999999999995E-07 
    9.9999999999999995E-07 
    9.9999999999999995E-07 
    9.9999999999999995E-07 
    9.9999999999999995E-07 
    9.9999999999999995E-07 
    9.9999999999999995E-07 
    9.9999999999999995E-07 
    1.0000000411768219E-06 
