# vtk DataFile Version 2.0
Pressure Field Data 
ASCII 
DATASET UNSTRUCTURED_GRID 

POINTS 289 double 

    0.0000000000000000E+00     0.0000000000000000E+00     0.0000000000000000E+00 
    1.0000000000000000E+00     0.0000000000000000E+00     0.0000000000000000E+00 
    1.0000000000000000E+00     1.0000000000000000E+00     0.0000000000000000E+00 
    0.0000000000000000E+00     1.0000000000000000E+00     0.0000000000000000E+00 
    6.2499999999872928E-02     0.0000000000000000E+00     0.0000000000000000E+00 
    1.2499999999977310E-01     0.0000000000000000E+00     0.0000000000000000E+00 
    1.8749999999959341E-01     0.0000000000000000E+00     0.0000000000000000E+00 
    2.4999999999941089E-01     0.0000000000000000E+00     0.0000000000000000E+00 
    3.1249999999922851E-01     0.0000000000000000E+00     0.0000000000000000E+00 
    3.7499999999904610E-01     0.0000000000000000E+00     0.0000000000000000E+00 
    4.3749999999886358E-01     0.0000000000000000E+00     0.0000000000000000E+00 
    4.9999999999869210E-01     0.0000000000000000E+00     0.0000000000000000E+00 
    5.6249999999884603E-01     0.0000000000000000E+00     0.0000000000000000E+00 
    6.2499999999901090E-01     0.0000000000000000E+00     0.0000000000000000E+00 
    6.8749999999917577E-01     0.0000000000000000E+00     0.0000000000000000E+00 
    7.4999999999934064E-01     0.0000000000000000E+00     0.0000000000000000E+00 
    8.1249999999950551E-01     0.0000000000000000E+00     0.0000000000000000E+00 
    8.7499999999967026E-01     0.0000000000000000E+00     0.0000000000000000E+00 
    9.3749999999983513E-01     0.0000000000000000E+00     0.0000000000000000E+00 
    1.0000000000000000E+00     6.2499999999872928E-02     0.0000000000000000E+00 
    1.0000000000000000E+00     1.2499999999977310E-01     0.0000000000000000E+00 
    1.0000000000000000E+00     1.8749999999959341E-01     0.0000000000000000E+00 
    1.0000000000000000E+00     2.4999999999941089E-01     0.0000000000000000E+00 
    1.0000000000000000E+00     3.1249999999922851E-01     0.0000000000000000E+00 
    1.0000000000000000E+00     3.7499999999904610E-01     0.0000000000000000E+00 
    1.0000000000000000E+00     4.3749999999886358E-01     0.0000000000000000E+00 
    1.0000000000000000E+00     4.9999999999869210E-01     0.0000000000000000E+00 
    1.0000000000000000E+00     5.6249999999884603E-01     0.0000000000000000E+00 
    1.0000000000000000E+00     6.2499999999901090E-01     0.0000000000000000E+00 
    1.0000000000000000E+00     6.8749999999917577E-01     0.0000000000000000E+00 
    1.0000000000000000E+00     7.4999999999934064E-01     0.0000000000000000E+00 
    1.0000000000000000E+00     8.1249999999950551E-01     0.0000000000000000E+00 
    1.0000000000000000E+00     8.7499999999967026E-01     0.0000000000000000E+00 
    1.0000000000000000E+00     9.3749999999983513E-01     0.0000000000000000E+00 
    9.3749999999973976E-01     1.0000000000000000E+00     0.0000000000000000E+00 
    8.7499999999950118E-01     1.0000000000000000E+00     0.0000000000000000E+00 
    8.1249999999991318E-01     1.0000000000000000E+00     0.0000000000000000E+00 
    7.5000000000034706E-01     1.0000000000000000E+00     0.0000000000000000E+00 
    6.8750000000078049E-01     1.0000000000000000E+00     0.0000000000000000E+00 
    6.2500000000121403E-01     1.0000000000000000E+00     0.0000000000000000E+00 
    5.6250000000164757E-01     1.0000000000000000E+00     0.0000000000000000E+00 
    5.0000000000205946E-01     1.0000000000000000E+00     0.0000000000000000E+00 
    4.3750000000182099E-01     1.0000000000000000E+00     0.0000000000000000E+00 
    3.7500000000156092E-01     1.0000000000000000E+00     0.0000000000000000E+00 
    3.1250000000130068E-01     1.0000000000000000E+00     0.0000000000000000E+00 
    2.5000000000104050E-01     1.0000000000000000E+00     0.0000000000000000E+00 
    1.8750000000078040E-01     1.0000000000000000E+00     0.0000000000000000E+00 
    1.2500000000052031E-01     1.0000000000000000E+00     0.0000000000000000E+00 
    6.2500000000260125E-02     1.0000000000000000E+00     0.0000000000000000E+00 
    0.0000000000000000E+00     9.3749999999973976E-01     0.0000000000000000E+00 
    0.0000000000000000E+00     8.7499999999950118E-01     0.0000000000000000E+00 
    0.0000000000000000E+00     8.1249999999991318E-01     0.0000000000000000E+00 
    0.0000000000000000E+00     7.5000000000034706E-01     0.0000000000000000E+00 
    0.0000000000000000E+00     6.8750000000078049E-01     0.0000000000000000E+00 
    0.0000000000000000E+00     6.2500000000121403E-01     0.0000000000000000E+00 
    0.0000000000000000E+00     5.6250000000164757E-01     0.0000000000000000E+00 
    0.0000000000000000E+00     5.0000000000205946E-01     0.0000000000000000E+00 
    0.0000000000000000E+00     4.3750000000182099E-01     0.0000000000000000E+00 
    0.0000000000000000E+00     3.7500000000156092E-01     0.0000000000000000E+00 
    0.0000000000000000E+00     3.1250000000130068E-01     0.0000000000000000E+00 
    0.0000000000000000E+00     2.5000000000104050E-01     0.0000000000000000E+00 
    0.0000000000000000E+00     1.8750000000078040E-01     0.0000000000000000E+00 
    0.0000000000000000E+00     1.2500000000052031E-01     0.0000000000000000E+00 
    0.0000000000000000E+00     6.2500000000260125E-02     0.0000000000000000E+00 
    6.2499999999897131E-02     6.2500000000235922E-02     0.0000000000000000E+00 
    6.2499999999921327E-02     1.2500000000047351E-01     0.0000000000000000E+00 
    6.2499999999945530E-02     1.8750000000070621E-01     0.0000000000000000E+00 
    6.2499999999969733E-02     2.5000000000093858E-01     0.0000000000000000E+00 
    6.2499999999993928E-02     3.1250000000117117E-01     0.0000000000000000E+00 
    6.2500000000018124E-02     3.7500000000140382E-01     0.0000000000000000E+00 
    6.2500000000042327E-02     4.3750000000163619E-01     0.0000000000000000E+00 
    6.2500000000066530E-02     5.0000000000184897E-01     0.0000000000000000E+00 
    6.2500000000090733E-02     5.6250000000147260E-01     0.0000000000000000E+00 
    6.2500000000114922E-02     6.2500000000107636E-01     0.0000000000000000E+00 
    6.2500000000139125E-02     6.8750000000068034E-01     0.0000000000000000E+00 
    6.2500000000163328E-02     7.5000000000028411E-01     0.0000000000000000E+00 
    6.2500000000187531E-02     8.1249999999988787E-01     0.0000000000000000E+00 
    6.2500000000211720E-02     8.7499999999951172E-01     0.0000000000000000E+00 
    6.2500000000235922E-02     9.3749999999974565E-01     0.0000000000000000E+00 
    1.2499999999981980E-01     6.2500000000211733E-02     0.0000000000000000E+00 
    1.2499999999986650E-01     1.2500000000042691E-01     0.0000000000000000E+00 
    1.2499999999991319E-01     1.8750000000063199E-01     0.0000000000000000E+00 
    1.2499999999995989E-01     2.5000000000083678E-01     0.0000000000000000E+00 
    1.2500000000000661E-01     3.1250000000104172E-01     0.0000000000000000E+00 
    1.2500000000005329E-01     3.7500000000124661E-01     0.0000000000000000E+00 
    1.2500000000010000E-01     4.3750000000145117E-01     0.0000000000000000E+00 
    1.2500000000014669E-01     5.0000000000163858E-01     0.0000000000000000E+00 
    1.2500000000019340E-01     5.6250000000129741E-01     0.0000000000000000E+00 
    1.2500000000024011E-01     6.2500000000093847E-01     0.0000000000000000E+00 
    1.2500000000028680E-01     6.8750000000057998E-01     0.0000000000000000E+00 
    1.2500000000033351E-01     7.5000000000022127E-01     0.0000000000000000E+00 
    1.2500000000038020E-01     8.1249999999986211E-01     0.0000000000000000E+00 
    1.2500000000042691E-01     8.7499999999952238E-01     0.0000000000000000E+00 
    1.2500000000047359E-01     9.3749999999975164E-01     0.0000000000000000E+00 
    1.8749999999966760E-01     6.2500000000187531E-02     0.0000000000000000E+00 
    1.8749999999974179E-01     1.2500000000038020E-01     0.0000000000000000E+00 
    1.8749999999981601E-01     1.8750000000055780E-01     0.0000000000000000E+00 
    1.8749999999989009E-01     2.5000000000073502E-01     0.0000000000000000E+00 
    1.8749999999996431E-01     3.1250000000091221E-01     0.0000000000000000E+00 
    1.8750000000003850E-01     3.7500000000108941E-01     0.0000000000000000E+00 
    1.8750000000011269E-01     4.3750000000126649E-01     0.0000000000000000E+00 
    1.8750000000018691E-01     5.0000000000142808E-01     0.0000000000000000E+00 
    1.8750000000026110E-01     5.6250000000112244E-01     0.0000000000000000E+00 
    1.8750000000033529E-01     6.2500000000080080E-01     0.0000000000000000E+00 
    1.8750000000040951E-01     6.8750000000047962E-01     0.0000000000000000E+00 
    1.8750000000048361E-01     7.5000000000015843E-01     0.0000000000000000E+00 
    1.8750000000055780E-01     8.1249999999983680E-01     0.0000000000000000E+00 
    1.8750000000063199E-01     8.7499999999953304E-01     0.0000000000000000E+00 
    1.8750000000070621E-01     9.3749999999975764E-01     0.0000000000000000E+00 
    2.4999999999951281E-01     6.2500000000163314E-02     0.0000000000000000E+00 
    2.4999999999961461E-01     1.2500000000033351E-01     0.0000000000000000E+00 
    2.4999999999971650E-01     1.8750000000048361E-01     0.0000000000000000E+00 
    2.4999999999981831E-01     2.5000000000063310E-01     0.0000000000000000E+00 
    2.4999999999992020E-01     3.1250000000078260E-01     0.0000000000000000E+00 
    2.5000000000002198E-01     3.7500000000093209E-01     0.0000000000000000E+00 
    2.5000000000012390E-01     4.3750000000108180E-01     0.0000000000000000E+00 
    2.5000000000022571E-01     5.0000000000121769E-01     0.0000000000000000E+00 
    2.5000000000032763E-01     5.6250000000094724E-01     0.0000000000000000E+00 
    2.5000000000042938E-01     6.2500000000066314E-01     0.0000000000000000E+00 
    2.5000000000053119E-01     6.8750000000037925E-01     0.0000000000000000E+00 
[...]
CELL_DATA 256 
SCALARS Pressure double 1 
LOOKUP_TABLE default 

    2.6166585632532589E+00 
    2.5052910755177606E+00 
    2.4242466531138764E+00 
    2.3523352144139626E+00 
    2.2849686940691751E+00 
    2.2208473360441312E+00 
    2.1588542265687640E+00 
    2.0967322379818523E+00 
    2.0286409486210815E+00 
    1.9640377293126454E+00 
    1.9123914210242765E+00 
    1.8697001587413107E+00 
    1.8356857188732503E+00 
    1.8102140456141984E+00 
    1.7932383792352473E+00 
    1.7847552776188700E+00 
    2.5053152291205887E+00 
    2.4548738965011925E+00 
    2.3949767011231708E+00 
    2.3323637882153117E+00 
    2.2700334833422464E+00 
    2.2085527756312477E+00 
    2.1481264668470827E+00 
    2.0858527454931890E+00 
    2.0177991923935017E+00 
    1.9546889035623440E+00 
    1.9034631595998333E+00 
    1.8610388340764630E+00 
    1.8271569237866214E+00 
    1.8017313296067314E+00 
    1.7847598059960537E+00 
    1.7762748543542781E+00 
    2.4243107775823227E+00 
    2.3950155368673731E+00 
    2.3504149702412480E+00 
    2.2983467222617895E+00 
    2.2426603873974309E+00 
    2.1852745349546945E+00 
    2.1273743630339963E+00 
    2.0645727236871960E+00 
    1.9965197529510244E+00 
    1.9360945692405551E+00 
    1.8857812775403391E+00 
    1.8438647564637654E+00 
    1.8102032371951837E+00 
    1.7848273989203103E+00 
    1.7678321143372004E+00 
    1.7593210504217371E+00 
    2.3524470885552451E+00 
    2.3324487054252208E+00 
    2.2983950518411618E+00 
    2.2550452160110801E+00 
    2.2057031161660841E+00 
    2.1526670656748892E+00 
    2.0966071658140182E+00 
    2.0326369171160996E+00 
    1.9658175762991168E+00 
    1.9087323856645366E+00 
    1.8597516473526583E+00 
    1.8184626120806857E+00 
    1.7849931713615936E+00 
    1.7595759016815364E+00 
    1.7424618115676040E+00 
    1.7338650182112565E+00 
    2.2851250693708494E+00 
    2.2701689213584340E+00 
    2.2427608424365455E+00 
    2.2057517320669406E+00 
    2.1616505799774424E+00 
    2.1120893122356081E+00 
    2.0556822780774597E+00 
    1.9907030307034264E+00 
    1.9277560464426213E+00 
    1.8737042597824360E+00 
    1.8260716800099301E+00 
    1.7852626868835446E+00 
    1.7517575503460348E+00 
    1.7260558320729802E+00 
    1.7086217434885140E+00 
    1.6998234615966381E+00 
    2.2210332986756280E+00 
    2.2087535497947752E+00 
    2.1854386402595818E+00 
    2.1527721317214432E+00 
    2.1121374198539149E+00 
    2.0632448876160505E+00 
    2.0045747134735761E+00 
    1.9419236184023820E+00 
    1.8843129343309784E+00 
    1.8323665127659101E+00 
    1.7855898495338907E+00 
    1.7447752802237253E+00 
    1.7107409145983568E+00 
    1.6843000834169906E+00 
    1.6661930503630895E+00 
    1.6569982461236927E+00 
    2.1591426093060941E+00 
    2.1484573540380008E+00 
    2.1275956904485569E+00 
    2.0967069132465324E+00 
    2.0557085923203839E+00 
    2.0045498902315306E+00 
    1.9469205633093798E+00 
    1.8902634192678849E+00 
    1.8366268819202369E+00 
    1.7859011029362450E+00 
    1.7391606881440960E+00 
    1.6975186873142660E+00 
    1.6621481177719777E+00 
    1.6342325072729211E+00 
    1.6148781509213064E+00 
    1.6049693027860392E+00 
    2.0969548419294131E+00 
    2.0860179888804797E+00 
    2.0645335299311576E+00 
    2.0325301883127840E+00 
    1.9906107177120655E+00 
    1.9418436241967429E+00 
    1.8902389594227949E+00 
    1.8381268581706247E+00 
    1.7861131069773333E+00 
    1.7355014400213726E+00 
    1.6876655894986656E+00 
    1.6440307300550188E+00 
    1.6061393772271877E+00 
    1.5756426486683055E+00 
    1.5541582887804806E+00 
    1.5430363003741205E+00 
    2.0285824795302094E+00 
    2.0175907570134846E+00 
    1.9962255938305735E+00 
    1.9656515366821579E+00 
    1.9276706515448769E+00 
    1.8842519218794169E+00 
    1.8366045985666590E+00 
    1.7861090105956168E+00 
    1.7342285601848462E+00 
    1.6823646498592444E+00 
    1.6320065796864012E+00 
    1.5848151952175444E+00 
    1.5427477264444389E+00 
    1.5080536465468648E+00 
    1.4830981986460305E+00 
    1.4699843214253070E+00 
    1.9639568368947071E+00 
    1.9545528287959799E+00 
    1.9359643391067070E+00 
    1.9086722026658671E+00 
    1.8736722521923188E+00 
    1.8323450318281302E+00 
    1.7858969882478823E+00 
    1.7355071178505026E+00 
    1.6823715194835653E+00 
    1.6277771202355957E+00 
    1.5732011450810177E+00 
    1.5204756839117153E+00 
    1.4719786755364215E+00 
    1.4307251305991793E+00 
    1.4002063959793001E+00 
    1.3838236990238721E+00 
    1.9123540775101195E+00 
    1.9034109605492791E+00 
    1.8857336493200010E+00 
    1.8597295963642790E+00 
    1.8260679627265004E+00 
    1.7855973498556306E+00 
    1.7391774589711679E+00 
    1.6876873008758315E+00 
    1.6320272336455384E+00 
    1.5732145304392087E+00 
    1.5125471849285970E+00 
    1.4518873011485955E+00 
    1.3939487063817544E+00 
    1.3426435770924925E+00 
    1.3031573355905439E+00 
    1.2812662698844526E+00 
    1.8697098341179366E+00 
    1.8610441386592631E+00 
    1.8438727220833007E+00 
    1.8184807020469242E+00 
    1.7852903013631340E+00 
    1.7448095648711448E+00 
    1.6975571158833045E+00 
    1.6440706797144506E+00 
    1.5848517710821661E+00 
    1.5205035896289114E+00 
    1.4519015933762141E+00 
    1.3806109417523740E+00 
    1.3093293516817717E+00 
    1.2427897714876206E+00 
    1.1885601880105650E+00 
    1.1568428302203424E+00 
    1.8357345196813488E+00 
    1.8272038048733230E+00 
    1.8102509628381243E+00 
    1.7850444775411354E+00 
    1.7518127250587936E+00 
    1.7107987318730269E+00 
    1.6622067962466542E+00 
    1.6061968477029060E+00 
    1.5427999128225103E+00 
    1.4720211572177471E+00 
    1.3939771948343971E+00 
    1.3093434266812392E+00 
    1.2199892548564104E+00 
    1.1306443426668520E+00 
    1.0514772828030772E+00 
    1.0007142786651764E+00 
    1.8102904372940962E+00 
    1.8018062363828196E+00 
    1.7849018750907022E+00 
    1.7596509383431012E+00 
    1.7261316953856387E+00 
    1.6843761145412761E+00 
    1.6343071024331979E+00 
    1.5757138882724178E+00 
    1.5081181552763785E+00 
    1.4307792703047928E+00 
    1.3426836156439217E+00 
    1.2428154664636615E+00 
    1.1306561247542075E+00 
    1.0083323245168461E+00 
    8.8601106293733378E-01 
    7.9383135538625937E-01 
    1.7933290277016953E+00 
    1.7848491532351314E+00 
    1.7679205183437543E+00 
    1.7425495811553768E+00 
    1.7087089493427370E+00 
    1.6662791812046838E+00 
    1.6149613641477336E+00 
    1.5542366804433438E+00 
    1.4831690270279678E+00 
    1.4002667348180708E+00 
    1.3032039365516455E+00 
    1.1885929235553603E+00 
    1.0514966740650837E+00 
    8.8601910683485652E-01 
    6.9040078115254966E-01 
    4.9475808584045516E-01 
    1.7848454767904416E+00 
    1.7763642958878554E+00 
    1.7594097946357325E+00 
    1.7339530236362115E+00 
    1.6999105125391007E+00 
    1.6570838307825928E+00 
    1.6050513935587802E+00 
    1.5431130199874097E+00 
    1.4700533007842007E+00 
    1.3838824103739442E+00 
    1.2813123076250341E+00 
    1.1568761280429101E+00 
    1.0007354592500490E+00 
    7.9384232270206390E-01 
    4.9476177214704187E-01 
    0.0000000000000000E+00 

SCALARS Saturarion double 1 
LOOKUP_TABLE default 

    1.0000000620207696E+00 
    9.2307741051368553E-01 
    8.0912555306987244E-01 
    7.0517581996679302E-01 
    6.2916901759145383E-01 
    5.6594131920841884E-01 
    5.0918291895180512E-01 
    4.4513746331372445E-01 
    1.3834036811406067E-01 
    1.0000518413587147E-06 
    1.0000000000399102E-06 
    9.9999999999999995E-07 
    9.9999999999999995E-07 
    9.9999999999999995E-07 
    9.9999999999999995E-07 
    9.9999999999999995E-07 
    9.2306818638319255E-01 
    8.7428642857774330E-01 
    7.7705543368096697E-01 
    6.8756979231406723E-01 
    6.1926843666370179E-01 
    5.5826294613938054E-01 
    5.0535218571763829E-01 
    4.3628883853367745E-01 
    9.6725623145592368E-02 
    1.9510594594006241E-04 
    1.0001492809827607E-06 
    1.0000000000037078E-06 
    9.9999999999999995E-07 
    9.9999999999999995E-07 
    9.9999999999999995E-07 
    9.9999999999999995E-07 
    8.0911837547061460E-01 
    7.7704714028970734E-01 
    7.1522659505247210E-01 
    6.5522551917418248E-01 
    5.9580484857685279E-01 
    5.4048990439667788E-01 
    4.9074478093554824E-01 
    4.0012534880470635E-01 
    4.5165683717844698E-02 
    4.1240575778869100E-05 
    1.0001652527383249E-06 
    1.0000000000001569E-06 
    9.9999999999999995E-07 
    9.9999999999999995E-07 
    9.9999999999999995E-07 
    9.9999999999999995E-07 
    7.0516313722679813E-01 
    6.8753669543404416E-01 
    6.5520287667732668E-01 
    6.0991885803928003E-01 
    5.6178785553178334E-01 
    5.1495607256069287E-01 
    4.6785884525024607E-01 
    2.9347724024899535E-01 
    6.4627503420730936E-03 
    3.0455475554999482E-06 
    1.0000012841608394E-06 
    1.0000000000002026E-06 
    9.9999999999999995E-07 
    9.9999999999999995E-07 
    9.9999999999999995E-07 
    9.9999999999999995E-07 
    6.2911932622369737E-01 
    6.1921561120771418E-01 
    5.9576739457853700E-01 
    5.6152125371654760E-01 
    5.2244081679931631E-01 
    4.8034620818517926E-01 
    4.1766803661448243E-01 
    1.1837370388929307E-01 
    9.3775980828876017E-04 
    1.0807534917849190E-06 
    1.0000000092019522E-06 
    1.0000000000000014E-06 
    9.9999999999999995E-07 
    9.9999999999999995E-07 
    9.9999999999999995E-07 
    9.9999999999999995E-07 
    5.6575989228752310E-01 
    5.5808658389324073E-01 
    5.4021238769036284E-01 
    5.1490036319109567E-01 
    4.8047906939624579E-01 
    4.3295900297414569E-01 
    2.5404591935408122E-01 
    7.9944621351826402E-03 
    6.7211992089476723E-05 
    1.0028952932178996E-06 
    1.0000000000790595E-06 
    9.9999999999999995E-07 
    9.9999999999999995E-07 
    9.9999999999999995E-07 
    9.9999999999999995E-07 
    9.9999999999999995E-07 
    5.1052677105759947E-01 
    5.0519182232029547E-01 
    4.9056272468213974E-01 
    4.6809807501816536E-01 
    4.1736639232427203E-01 
    2.5321872204525570E-01 
    2.4209825529927544E-02 
    1.2512006793276656E-04 
    1.0183505077138391E-06 
    1.0000000155469257E-06 
    1.0000000000000059E-06 
    9.9999999999999995E-07 
    9.9999999999999995E-07 
    9.9999999999999995E-07 
    9.9999999999999995E-07 
    9.9999999999999995E-07 
    4.4625885991632913E-01 
    4.2993781753967558E-01 
    3.9560923575916590E-01 
    2.9522800398647225E-01 
    1.2041502769921844E-01 
    7.0280263030669471E-03 
    1.6015769338585190E-04 
    1.0040605280166012E-06 
    1.0000000002214855E-06 
    9.9999999999999995E-07 
    9.9999999999999995E-07 
    9.9999999999999995E-07 
    9.9999999999999995E-07 
    9.9999999999999995E-07 
    9.9999999999999995E-07 
    9.9999999999999995E-07 
    1.3644348949774920E-01 
    9.9981797817374138E-02 
    3.9198107397830396E-02 
    4.4844480288881777E-03 
    4.0681063859449398E-04 
    6.4165391208778708E-06 
    1.0059533602379995E-06 
    1.0000000070395245E-06 
    1.0000000000000008E-06 
    9.9999999999999995E-07 
    9.9999999999999995E-07 
    9.9999999999999995E-07 
    9.9999999999999995E-07 
    9.9999999999999995E-07 
    9.9999999999999995E-07 
    9.9999999999999995E-07 
    1.0000687995272947E-06 
    5.3058530427178260E-05 
    2.4868449680736417E-05 
    1.5105850422251434E-06 
    1.0415070798483118E-06 
    1.0000005074127585E-06 
    1.0000000067230798E-06 
    1.0000000000000019E-06 
    9.9999999999999995E-07 
    9.9999999999999995E-07 
    9.9999999999999995E-07 
    9.9999999999999995E-07 
    9.9999999999999995E-07 
    9.9999999999999995E-07 
    9.9999999999999995E-07 
    9.9999999999999995E-07 
    1.0000000000586976E-06 
    1.0012517579489226E-06 
    1.0000594595775642E-06 
    1.0000000582827650E-06 
    1.0000000014700438E-06 
    1.0000000000000114E-06 
    1.0000000000000027E-06 
    9.9999999999999995E-07 
    9.9999999999999995E-07 
    9.9999999999999995E-07 
    9.9999999999999995E-07 
    9.9999999999999995E-07 
    9.9999999999999995E-07 
    9.9999999999999995E-07 
    9.9999999999999995E-07 
    9.9999999999999995E-07 
    9.9999999999999932E-07 
    1.0000000001240911E-06 
    1.0000000000000057E-06 
    1.0000000000000012E-06 
    9.9999999999999911E-07 
    9.9999999999999995E-07 
    9.9999999999999995E-07 
    9.9999999999999995E-07 
    9.9999999999999995E-07 
    9.9999999999999995E-07 
    9.9999999999999995E-07 
    9.9999999999999995E-07 
    9.9999999999999995E-07 
    9.9999999999999995E-07 
    9.9999999999999995E-07 
    9.9999999999999995E-07 
    9.9999999999999995E-07 
    9.9999999999999995E-07 
    9.9999999999999995E-07 
    9.9999999999999995E-07 
    9.9999999999999995E-07 
    9.9999999999999995E-07 
    9.9999999999999995E-07 
    9.9999999999999995E-07 
    9.9999999999999995E-07 
    9.9999999999999995E-07 
    9.9999999999999995E-07 
    9.9999999999999995E-07 
    9.9999999999999995E-07 
    9.9999999999999995E-07 
    9.9999999999999995E-07 
    9.9999999999999995E-07 
    9.9999999999999995E-07 
    9.9999999999999995E-07 
    9.9999999999999995E-07 
    9.9999999999999995E-07 
    9.9999999999999995E-07 
    9.9999999999999995E-07 
    9.9999999999999995E-07 
    9.9999999999999995E-07 
    9.9999999999999995E-07 
    9.9999999999999995E-07 
    9.9999999999999995E-07 
    9.9999999999999995E-07 
    9.9999999999999995E-07 
    9.9999999999999995E-07 
    9.9999999999999995E-07 
    9.9999999999999995E-07 
    9.9999999999999995E-07 
    9.9999999999999995E-07 
    9.9999999999999995E-07 
    9.9999999999999995E-07 
    9.9999999999999995E-07 
    9.9999999999999995E-07 
    9.9999999999999995E-07 
    9.9999999999999995E-07 
    9.9999999999999995E-07 
    9.9999999999999995E-07 
    9.9999999999999995E-07 
    9.9999999999999995E-07 
    9.9999999999999995E-07 
    9.9999999999999995E-07 
    9.9999999999999995E-07 
    9.9999999999999995E-07 
    9.9999999999999995E-07 
    9.9999999999999995E-07 
    9.9999999999999995E-07 
    9.9999999999999995E-07 
    9.9999999999999995E-07 
    9.9999999999999995E-07 
    9.9999999999999995E-07 
    9.9999999999999995E-07 
    9.9999999999999995E-07 
    9.9999999999999995E-07 
    9.9999999999999995E-07 
    9.9999999999999995E-07 
    9.9999999999999995E-07 
    9.9999999999999995E-07 
    9.9999999999999995E-07 
    1.0000000682783926E-06 
