# vtk DataFile Version 2.0
Pressure Field Data 
ASCII 
DATASET UNSTRUCTURED_GRID 

POINTS 289 double 

    0.0000000000000000E+00     0.0000000000000000E+00     0.0000000000000000E+00 
    1.0000000000000000E+00     0.0000000000000000E+00     0.0000000000000000E+00 
    1.0000000000000000E+00     1.0000000000000000E+00     0.0000000000000000E+00 
    0.0000000000000000E+00     1.0000000000000000E+00     0.0000000000000000E+00 
    6.2499999999872928E-02     0.0000000000000000E+00     0.0000000000000000E+00 
    1.2499999999977310E-01     0.0000000000000000E+00     0.0000000000000000E+00 
    1.8749999999959341E-01     0.0000000000000000E+00     0.0000000000000000E+00 
    2.4999999999941089E-01     0.0000000000000000E+00     0.0000000000000000E+00 
    3.1249999999922851E-01     0.0000000000000000E+00     0.0000000000000000E+00 
    3.7499999999904610E-01     0.0000000000000000E+00     0.0000000000000000E+00 
    4.3749999999886358E-01     0.0000000000000000E+00     0.0000000000000000E+00 
    4.9999999999869210E-01     0.0000000000000000E+00     0.0000000000000000E+00 
    5.6249999999884603E-01     0.0000000000000000E+00     0.0000000000000000E+00 
    6.2499999999901090E-01     0.0000000000000000E+00     0.0000000000000000E+00 
    6.8749999999917577E-01     0.0000000000000000E+00     0.0000000000000000E+00 
    7.4999999999934064E-01     0.0000000000000000E+00     0.0000000000000000E+00 
    8.1249999999950551E-01     0.0000000000000000E+00     0.0000000000000000E+00 
    8.7499999999967026E-01     0.0000000000000000E+00     0.0000000000000000E+00 
    9.3749999999983513E-01     0.0000000000000000E+00     0.0000000000000000E+00 
    1.0000000000000000E+00     6.2499999999872928E-02     0.0000000000000000E+00 
    1.0000000000000000E+00     1.2499999999977310E-01     0.0000000000000000E+00 
    1.0000000000000000E+00     1.8749999999959341E-01     0.0000000000000000E+00 
    1.0000000000000000E+00     2.4999999999941089E-01     0.0000000000000000E+00 
    1.0000000000000000E+00     3.1249999999922851E-01     0.0000000000000000E+00 
    1.0000000000000000E+00     3.7499999999904610E-01     0.0000000000000000E+00 
    1.0000000000000000E+00     4.3749999999886358E-01     0.0000000000000000E+00 
    1.0000000000000000E+00     4.9999999999869210E-01     0.0000000000000000E+00 
    1.0000000000000000E+00     5.6249999999884603E-01     0.0000000000000000E+00 
    1.0000000000000000E+00     6.2499999999901090E-01     0.0000000000000000E+00 
    1.0000000000000000E+00     6.8749999999917577E-01     0.0000000000000000E+00 
    1.0000000000000000E+00     7.4999999999934064E-01     0.0000000000000000E+00 
    1.0000000000000000E+00     8.1249999999950551E-01     0.0000000000000000E+00 
    1.0000000000000000E+00     8.7499999999967026E-01     0.0000000000000000E+00 
    1.0000000000000000E+00     9.3749999999983513E-01     0.0000000000000000E+00 
    9.3749999999973976E-01     1.0000000000000000E+00     0.0000000000000000E+00 
    8.7499999999950118E-01     1.0000000000000000E+00     0.0000000000000000E+00 
    8.1249999999991318E-01     1.0000000000000000E+00     0.0000000000000000E+00 
    7.5000000000034706E-01     1.0000000000000000E+00     0.0000000000000000E+00 
    6.8750000000078049E-01     1.0000000000000000E+00     0.0000000000000000E+00 
    6.2500000000121403E-01     1.0000000000000000E+00     0.0000000000000000E+00 
    5.6250000000164757E-01     1.0000000000000000E+00     0.0000000000000000E+00 
    5.0000000000205946E-01     1.0000000000000000E+00     0.0000000000000000E+00 
    4.3750000000182099E-01     1.0000000000000000E+00     0.0000000000000000E+00 
    3.7500000000156092E-01     1.0000000000000000E+00     0.0000000000000000E+00 
    3.1250000000130068E-01     1.0000000000000000E+00     0.0000000000000000E+00 
    2.5000000000104050E-01     1.0000000000000000E+00     0.0000000000000000E+00 
    1.8750000000078040E-01     1.0000000000000000E+00     0.0000000000000000E+00 
    1.2500000000052031E-01     1.0000000000000000E+00     0.0000000000000000E+00 
    6.2500000000260125E-02     1.0000000000000000E+00     0.0000000000000000E+00 
    0.0000000000000000E+00     9.3749999999973976E-01     0.0000000000000000E+00 
    0.0000000000000000E+00     8.7499999999950118E-01     0.0000000000000000E+00 
    0.0000000000000000E+00     8.1249999999991318E-01     0.0000000000000000E+00 
    0.0000000000000000E+00     7.5000000000034706E-01     0.0000000000000000E+00 
    0.0000000000000000E+00     6.8750000000078049E-01     0.0000000000000000E+00 
    0.0000000000000000E+00     6.2500000000121403E-01     0.0000000000000000E+00 
    0.0000000000000000E+00     5.6250000000164757E-01     0.0000000000000000E+00 
    0.0000000000000000E+00     5.0000000000205946E-01     0.0000000000000000E+00 
    0.0000000000000000E+00     4.3750000000182099E-01     0.0000000000000000E+00 
    0.0000000000000000E+00     3.7500000000156092E-01     0.0000000000000000E+00 
    0.0000000000000000E+00     3.1250000000130068E-01     0.0000000000000000E+00 
    0.0000000000000000E+00     2.5000000000104050E-01     0.0000000000000000E+00 
    0.0000000000000000E+00     1.8750000000078040E-01     0.0000000000000000E+00 
    0.0000000000000000E+00     1.2500000000052031E-01     0.0000000000000000E+00 
    0.0000000000000000E+00     6.2500000000260125E-02     0.0000000000000000E+00 
    6.2499999999897131E-02     6.2500000000235922E-02     0.0000000000000000E+00 
    6.2499999999921327E-02     1.2500000000047351E-01     0.0000000000000000E+00 
    6.2499999999945530E-02     1.8750000000070621E-01     0.0000000000000000E+00 
    6.2499999999969733E-02     2.5000000000093858E-01     0.0000000000000000E+00 
    6.2499999999993928E-02     3.1250000000117117E-01     0.0000000000000000E+00 
    6.2500000000018124E-02     3.7500000000140382E-01     0.0000000000000000E+00 
    6.2500000000042327E-02     4.3750000000163619E-01     0.0000000000000000E+00 
    6.2500000000066530E-02     5.0000000000184897E-01     0.0000000000000000E+00 
    6.2500000000090733E-02     5.6250000000147260E-01     0.0000000000000000E+00 
    6.2500000000114922E-02     6.2500000000107636E-01     0.0000000000000000E+00 
    6.2500000000139125E-02     6.8750000000068034E-01     0.0000000000000000E+00 
    6.2500000000163328E-02     7.5000000000028411E-01     0.0000000000000000E+00 
    6.2500000000187531E-02     8.1249999999988787E-01     0.0000000000000000E+00 
    6.2500000000211720E-02     8.7499999999951172E-01     0.0000000000000000E+00 
    6.2500000000235922E-02     9.3749999999974565E-01     0.0000000000000000E+00 
    1.2499999999981980E-01     6.2500000000211733E-02     0.0000000000000000E+00 
    1.2499999999986650E-01     1.2500000000042691E-01     0.0000000000000000E+00 
    1.2499999999991319E-01     1.8750000000063199E-01     0.0000000000000000E+00 
    1.2499999999995989E-01     2.5000000000083678E-01     0.0000000000000000E+00 
    1.2500000000000661E-01     3.1250000000104172E-01     0.0000000000000000E+00 
    1.2500000000005329E-01     3.7500000000124661E-01     0.0000000000000000E+00 
    1.2500000000010000E-01     4.3750000000145117E-01     0.0000000000000000E+00 
    1.2500000000014669E-01     5.0000000000163858E-01     0.0000000000000000E+00 
    1.2500000000019340E-01     5.6250000000129741E-01     0.0000000000000000E+00 
    1.2500000000024011E-01     6.2500000000093847E-01     0.0000000000000000E+00 
    1.2500000000028680E-01     6.8750000000057998E-01     0.0000000000000000E+00 
    1.2500000000033351E-01     7.5000000000022127E-01     0.0000000000000000E+00 
    1.2500000000038020E-01     8.1249999999986211E-01     0.0000000000000000E+00 
    1.2500000000042691E-01     8.7499999999952238E-01     0.0000000000000000E+00 
    1.2500000000047359E-01     9.3749999999975164E-01     0.0000000000000000E+00 
    1.8749999999966760E-01     6.2500000000187531E-02     0.0000000000000000E+00 
    1.8749999999974179E-01     1.2500000000038020E-01     0.0000000000000000E+00 
    1.8749999999981601E-01     1.8750000000055780E-01     0.0000000000000000E+00 
    1.8749999999989009E-01     2.5000000000073502E-01     0.0000000000000000E+00 
    1.8749999999996431E-01     3.1250000000091221E-01     0.0000000000000000E+00 
    1.8750000000003850E-01     3.7500000000108941E-01     0.0000000000000000E+00 
    1.8750000000011269E-01     4.3750000000126649E-01     0.0000000000000000E+00 
    1.8750000000018691E-01     5.0000000000142808E-01     0.0000000000000000E+00 
    1.8750000000026110E-01     5.6250000000112244E-01     0.0000000000000000E+00 
    1.8750000000033529E-01     6.2500000000080080E-01     0.0000000000000000E+00 
    1.8750000000040951E-01     6.8750000000047962E-01     0.0000000000000000E+00 
    1.8750000000048361E-01     7.5000000000015843E-01     0.0000000000000000E+00 
    1.8750000000055780E-01     8.1249999999983680E-01     0.0000000000000000E+00 
    1.8750000000063199E-01     8.7499999999953304E-01     0.0000000000000000E+00 
    1.8750000000070621E-01     9.3749999999975764E-01     0.0000000000000000E+00 
    2.4999999999951281E-01     6.2500000000163314E-02     0.0000000000000000E+00 
    2.4999999999961461E-01     1.2500000000033351E-01     0.0000000000000000E+00 
    2.4999999999971650E-01     1.8750000000048361E-01     0.0000000000000000E+00 
    2.4999999999981831E-01     2.5000000000063310E-01     0.0000000000000000E+00 
    2.4999999999992020E-01     3.1250000000078260E-01     0.0000000000000000E+00 
    2.5000000000002198E-01     3.7500000000093209E-01     0.0000000000000000E+00 
    2.5000000000012390E-01     4.3750000000108180E-01     0.0000000000000000E+00 
    2.5000000000022571E-01     5.0000000000121769E-01     0.0000000000000000E+00 
    2.5000000000032763E-01     5.6250000000094724E-01     0.0000000000000000E+00 
    2.5000000000042938E-01     6.2500000000066314E-01     0.0000000000000000E+00 
    2.5000000000053119E-01     6.8750000000037925E-01     0.0000000000000000E+00 
[...]
CELL_DATA 256 
SCALARS Pressure double 1 
LOOKUP_TABLE default 

    2.6590019736092327E+00 
    2.5461174643240287E+00 
    2.4621048617771004E+00 
    2.3861308647532047E+00 
    2.3144541430203605E+00 
    2.2459542264115178E+00 
    2.1794058257124815E+00 
    2.1047739843431827E+00 
    2.0276599970480902E+00 
    1.9660988483193353E+00 
    1.9142303751035452E+00 
    1.8714365248594242E+00 
    1.8373693436986773E+00 
    1.8118684490190682E+00 
    1.7948767136172614E+00 
    1.7863861645424188E+00 
    2.5461277763900001E+00 
    2.4941358618946996E+00 
    2.4313822546679633E+00 
    2.3650266538517815E+00 
    2.2985185621080864E+00 
    2.2326770557431099E+00 
    2.1670441233296067E+00 
    2.0926649599888996E+00 
    2.0169504484127656E+00 
    1.9564326241022791E+00 
    1.9051818777822798E+00 
    1.8627257178212291E+00 
    1.8288174023646468E+00 
    1.8033726392454386E+00 
    1.7863889002232518E+00 
    1.7778977997157410E+00 
    2.4621230627458126E+00 
    2.4313892117691358E+00 
    2.3843059133589772E+00 
    2.3288638538402973E+00 
    2.2691978399696597E+00 
    2.2074608741768897E+00 
    2.1425178881604139E+00 
    2.0684757014426900E+00 
    1.9962709712597946E+00 
    1.9375652573486755E+00 
    1.8873846060458546E+00 
    1.8454969319520145E+00 
    1.8118334534840514E+00 
    1.7864485039861830E+00 
    1.7694451038719481E+00 
    1.7609293353626487E+00 
    2.3861400675460587E+00 
    2.3650240104307421E+00 
    2.3288620091663783E+00 
    2.2824963929803901E+00 
    2.2294237815269144E+00 
    2.1717249140885135E+00 
    2.1064258908448203E+00 
    2.0335638316379776E+00 
    1.9667804567778995E+00 
    1.9102509926541400E+00 
    1.8613413032546211E+00 
    1.8200712294263182E+00 
    1.7866004273844065E+00 
    1.7611756765569662E+00 
    1.7440544851764817E+00 
    1.7354533968962049E+00 
    2.3144153078662688E+00 
    2.2984646129115602E+00 
    2.2691565604945652E+00 
    2.2294111298986929E+00 
    2.1815675689516683E+00 
    2.1255497981014133E+00 
    2.0591089934994509E+00 
    1.9904825307269449E+00 
    1.9295506027004827E+00 
    1.8753791501036017E+00 
    1.8276982346622890E+00 
    1.7868684985183214E+00 
    1.7533481540151079E+00 
    1.7276337773113160E+00 
    1.7101904664643726E+00 
    1.7013870663804969E+00 
    2.2458795464359729E+00 
    2.2325868019156534E+00 
    2.2074100189550734E+00 
    2.1717474258209695E+00 
    2.1255865560673746E+00 
    2.0680896117484959E+00 
    2.0038659545506841E+00 
    1.9424749040896661E+00 
    1.8860948797946377E+00 
    1.8340623622749834E+00 
    1.7872254716684337E+00 
    1.7463732394553262E+00 
    1.7123125856927017E+00 
    1.6858526770793865E+00 
    1.6677328625112988E+00 
    1.6585313147609166E+00 
    2.1795449673500795E+00 
    2.1671575600999482E+00 
    2.1426591700649937E+00 
    2.1066214517656419E+00 
    2.0592473050963949E+00 
    2.0039286312646358E+00 
    1.9472954804211440E+00 
    1.8919537160547493E+00 
    1.8383551561692777E+00 
    1.7875770201680572E+00 
    1.7407832569123785E+00 
    1.6990981187878951E+00 
    1.6636940266235605E+00 
    1.6357534660791502E+00 
    1.6163823606527583E+00 
    1.6064648103691310E+00 
    2.1051727471109256E+00 
    2.0930545539611201E+00 
    2.0688684811170761E+00 
    2.0339181183435082E+00 
    1.9906982363440264E+00 
    1.9425997752146298E+00 
    1.8920112538677039E+00 
    1.8399120651006966E+00 
    1.7878297099862563E+00 
    1.7371570495928592E+00 
    1.6892653035574148E+00 
    1.6455818781111817E+00 
    1.6076507448324591E+00 
    1.5771234052313152E+00 
    1.5556181120353889E+00 
    1.5444852608237365E+00 
    2.0280246090616982E+00 
    2.0173359575828571E+00 
    1.9966853750983935E+00 
    1.9671487467882631E+00 
    1.9298040513737291E+00 
    1.8862673272123904E+00 
    1.8384633245968895E+00 
    1.7878810730489836E+00 
    1.7359258075804513E+00 
    1.6839949132641172E+00 
    1.6335754501747866E+00 
    1.5863293356396746E+00 
    1.5442153998846107E+00 
    1.5094843791436421E+00 
    1.4845030305853386E+00 
    1.4713755896877820E+00 
    1.9664952716526836E+00 
    1.9568336570409079E+00 
    1.9379603745396103E+00 
    1.9106011066847990E+00 
    1.8756551055625574E+00 
    1.8342708435631547E+00 
    1.7877282002748629E+00 
    1.7372540430211985E+00 
    1.6840416191011904E+00 
    1.6293754610079423E+00 
    1.5747320092064103E+00 
    1.5219446417066305E+00 
    1.4733931476021489E+00 
    1.4320947014630752E+00 
    1.4015434834263678E+00 
    1.3851434850127426E+00 
    1.9146374809447149E+00 
    1.9055822789870644E+00 
    1.8877673107207735E+00 
    1.8616869583636777E+00 
    1.8279917150868052E+00 
    1.7874643446832832E+00 
    1.7409696743466936E+00 
    1.6894017168514481E+00 
    1.6336642379304265E+00 
    1.5747754912790650E+00 
    1.5140342714146289E+00 
    1.4533040107379194E+00 
    1.3953006313251686E+00 
    1.3439397500862758E+00 
    1.3044114806509146E+00 
    1.2824973305275360E+00 
    1.8718500941312297E+00 
    1.8631292185274815E+00 
    1.8458804086820404E+00 
    1.8204224978642962E+00 
    1.7871777375182036E+00 
    1.7466360654250488E+00 
    1.6993137493438615E+00 
    1.6457515696909784E+00 
    1.5864538302295237E+00 
    1.5220249501379555E+00 
    1.4533415967698202E+00 
    1.3819696541500537E+00 
    1.3106095745228685E+00 
    1.2439987004136162E+00 
    1.1897121501815595E+00 
    1.1579617802632711E+00 
    1.8377876939793991E+00 
    1.8292251701140705E+00 
    1.8122215545657410E+00 
    1.7869595809327576E+00 
    1.7536709070851795E+00 
    1.7125945040133068E+00 
    1.6639333200091271E+00 
    1.6078473533631013E+00 
    1.5443690221047315E+00 
    1.4735040616604831E+00 
    1.3953697312486164E+00 
    1.3106414403852746E+00 
    1.2211907343370982E+00 
    1.1317517355207112E+00 
    1.0525027995016842E+00 
    1.0016877673996021E+00 
    1.8122890350443603E+00 
    1.8037830088159355E+00 
    1.7868402460732169E+00 
    1.7615409488756339E+00 
    1.7279663867165034E+00 
    1.6861484349966900E+00 
    1.6360098705205182E+00 
    1.5773394246803776E+00 
    1.5096591811941356E+00 
    1.4322282212822464E+00 
    1.3440325605216257E+00 
    1.2440549617359844E+00 
    1.1317765098474784E+00 
    1.0093258623335792E+00 
    8.8687985848945727E-01 
    7.9460710020898362E-01 
    1.7952951315517867E+00 
    1.7867977425637491E+00 
    1.7698364860935918E+00 
    1.7444213305943292E+00 
    1.7105271689774695E+00 
    1.6680353961227912E+00 
    1.6166475942529992E+00 
    1.5558444253089210E+00 
    1.4846894770232208E+00 
    1.4016899765434918E+00 
    1.3045185376528774E+00 
    1.1897836702392344E+00 
    1.0525436482342245E+00 
    8.8689644292875780E-01 
    6.9108082147329397E-01 
    4.9524311492156814E-01 
    1.7867961512062640E+00 
    1.7782990436072004E+00 
    1.7613142121348440E+00 
    1.7358150861099024E+00 
    1.7017200493562197E+00 
    1.6588316129213660E+00 
    1.6067289249008496E+00 
    1.5447113439981541E+00 
    1.4715627247264584E+00 
    1.3852916244989975E+00 
    1.2826075903626564E+00 
    1.1580379406723045E+00 
    1.0017346343407372E+00 
    7.9463088209785593E-01 
    4.9525106597998064E-01 
    0.0000000000000000E+00 

SCALARS Saturarion double 1 
LOOKUP_TABLE default 

    1.0000000798479831E+00 
    9.1396583571291168E-01 
    7.8815439099389939E-01 
    6.7995528240315128E-01 
    6.0555629785161647E-01 
    5.3972362633849991E-01 
    4.8363593458666210E-01 
    3.0876715923021508E-01 
    2.1260702397195158E-03 
    1.0000001181653095E-06 
    1.0000000000000226E-06 
    9.9999999999999995E-07 
    9.9999999999999995E-07 
    9.9999999999999995E-07 
    9.9999999999999995E-07 
    9.9999999999999995E-07 
    9.1395590791356374E-01 
    8.5933179381351577E-01 
    7.5409280005545742E-01 
    6.6360967442358121E-01 
    5.9494304754009586E-01 
    5.3229784167547578E-01 
    4.7483547195330505E-01 
    2.6428543198905452E-01 
    8.4142639911959018E-04 
    1.0520129687285653E-06 
    1.0000000220441728E-06 
    1.0000000000000019E-06 
    9.9999999999999995E-07 
    9.9999999999999995E-07 
    9.9999999999999995E-07 
    9.9999999999999995E-07 
    7.8815520928613747E-01 
    7.5408511020658309E-01 
    6.9286438498422898E-01 
    6.3126141462674135E-01 
    5.6971969756429741E-01 
    5.1354896277875173E-01 
    4.5253396762177667E-01 
    1.7552457277234032E-01 
    1.2552683746565711E-03 
    1.1295899009097485E-06 
    1.0000000245897046E-06 
    1.0000000000000033E-06 
    9.9999999999999995E-07 
    9.9999999999999995E-07 
    9.9999999999999995E-07 
    9.9999999999999995E-07 
    6.7993469923709415E-01 
    6.6356235363255900E-01 
    6.3124655743235258E-01 
    5.8305553628718998E-01 
    5.3448828994936282E-01 
    4.8474574755061378E-01 
    3.9437568434639880E-01 
    5.0378894675392950E-02 
    3.5342778314726418E-04 
    1.0019571502361495E-06 
    1.0000000001411859E-06 
    9.9999999999999995E-07 
    9.9999999999999995E-07 
    9.9999999999999995E-07 
    9.9999999999999995E-07 
    9.9999999999999995E-07 
    6.0544082855979586E-01 
    5.9485116669032689E-01 
    5.6948870377238658E-01 
    5.3385714417196739E-01 
    4.9204666049511669E-01 
    4.3836859296588926E-01 
    2.1019800892544963E-01 
    1.6046119602951443E-03 
    1.3887314021211864E-06 
    1.0000000808559508E-06 
    9.9999999999999318E-07 
    9.9999999999999995E-07 
    9.9999999999999995E-07 
    9.9999999999999995E-07 
    9.9999999999999995E-07 
    9.9999999999999995E-07 
    5.3990215524307039E-01 
    5.3247691095716265E-01 
    5.1433860146720223E-01 
    4.8579480547222759E-01 
    4.3851819006040021E-01 
    2.8853729358860369E-01 
    2.4054407762007353E-02 
    1.7843588754998011E-04 
    1.0094049224671398E-06 
    1.0000000013872121E-06 
    1.0000000000000014E-06 
    9.9999999999999995E-07 
    9.9999999999999995E-07 
    9.9999999999999995E-07 
    9.9999999999999995E-07 
    9.9999999999999995E-07 
    4.8587225420761415E-01 
    4.7754098081451174E-01 
    4.5574861318930882E-01 
    3.9411059045767849E-01 
    2.1096845159385097E-01 
    2.4176031133627925E-02 
    3.8175483223480327E-05 
    1.0040475933070189E-06 
    1.0000000010204862E-06 
    1.0000000000000012E-06 
    9.9999999999999995E-07 
    9.9999999999999995E-07 
    9.9999999999999995E-07 
    9.9999999999999995E-07 
    9.9999999999999995E-07 
    9.9999999999999995E-07 
    3.0687235503991356E-01 
    2.5646734710784319E-01 
    1.6291990692290184E-01 
    5.0844105566370902E-02 
    1.6623173314500811E-03 
    1.7586210023470548E-04 
    1.0039651953273688E-06 
    1.0000000003452110E-06 
    9.9999999999999995E-07 
    9.9999999999999995E-07 
    9.9999999999999995E-07 
    9.9999999999999995E-07 
    9.9999999999999995E-07 
    9.9999999999999995E-07 
    9.9999999999999995E-07 
    9.9999999999999995E-07 
    1.9508484286218464E-03 
    2.4747841388083377E-04 
    3.2278672710930227E-04 
    9.1052208554883997E-05 
    1.4548441665705946E-06 
    1.0092665076994478E-06 
    1.0000000010866181E-06 
    1.0000000000000002E-06 
    9.9999999999999995E-07 
    9.9999999999999995E-07 
    9.9999999999999995E-07 
    9.9999999999999995E-07 
    9.9999999999999995E-07 
    9.9999999999999995E-07 
    9.9999999999999995E-07 
    9.9999999999999995E-07 
    1.0000002473864995E-06 
    1.0057028798022041E-06 
    1.0324372193643005E-06 
    1.0008323907368414E-06 
    1.0000000311755213E-06 
    1.0000000011808568E-06 
    1.0000000000000008E-06 
    9.9999999999999995E-07 
    9.9999999999999995E-07 
    9.9999999999999995E-07 
    9.9999999999999995E-07 
    9.9999999999999995E-07 
    9.9999999999999995E-07 
    9.9999999999999995E-07 
    9.9999999999999995E-07 
    9.9999999999999995E-07 
    1.0000000000000470E-06 
    1.0000000008035441E-06 
    1.0000000004989513E-06 
    1.0000000000001694E-06 
    9.9999999999999868E-07 
    1.0000000000000006E-06 
    9.9999999999999995E-07 
    9.9999999999999995E-07 
    9.9999999999999995E-07 
    9.9999999999999995E-07 
    9.9999999999999995E-07 
    9.9999999999999995E-07 
    9.9999999999999995E-07 
    9.9999999999999995E-07 
    9.9999999999999995E-07 
    9.9999999999999995E-07 
    9.9999999999999995E-07 
    1.0000000000000004E-06 
    1.0000000000000002E-06 
    9.9999999999999995E-07 
    9.9999999999999995E-07 
    9.9999999999999995E-07 
    9.9999999999999995E-07 
    9.9999999999999995E-07 
    9.9999999999999995E-07 
    9.9999999999999995E-07 
    9.9999999999999995E-07 
    9.9999999999999995E-07 
    9.9999999999999995E-07 
    9.9999999999999995E-07 
    9.9999999999999995E-07 
    9.9999999999999995E-07 
    9.9999999999999995E-07 
    9.9999999999999995E-07 
    9.9999999999999995E-07 
    9.9999999999999995E-07 
    9.9999999999999995E-07 
    9.9999999999999995E-07 
    9.9999999999999995E-07 
    9.9999999999999995E-07 
    9.9999999999999995E-07 
    9.9999999999999995E-07 
    9.9999999999999995E-07 
    9.9999999999999995E-07 
    9.9999999999999995E-07 
    9.9999999999999995E-07 
    9.9999999999999995E-07 
    9.9999999999999995E-07 
    9.9999999999999995E-07 
    9.9999999999999995E-07 
    9.9999999999999995E-07 
    9.9999999999999995E-07 
    9.9999999999999995E-07 
    9.9999999999999995E-07 
    9.9999999999999995E-07 
    9.9999999999999995E-07 
    9.9999999999999995E-07 
    9.9999999999999995E-07 
    9.9999999999999995E-07 
    9.9999999999999995E-07 
    9.9999999999999995E-07 
    9.9999999999999995E-07 
    9.9999999999999995E-07 
    9.9999999999999995E-07 
    9.9999999999999995E-07 
    9.9999999999999995E-07 
    9.9999999999999995E-07 
    9.9999999999999995E-07 
    9.9999999999999995E-07 
    9.9999999999999995E-07 
    9.9999999999999995E-07 
    9.9999999999999995E-07 
    9.9999999999999995E-07 
    9.9999999999999995E-07 
    9.9999999999999995E-07 
    9.9999999999999995E-07 
    9.9999999999999995E-07 
    9.9999999999999995E-07 
    9.9999999999999995E-07 
    9.9999999999999995E-07 
    9.9999999999999995E-07 
    9.9999999999999995E-07 
    9.9999999999999995E-07 
    9.9999999999999995E-07 
    9.9999999999999995E-07 
    9.9999999999999995E-07 
    9.9999999999999995E-07 
    9.9999999999999995E-07 
    9.9999999999999995E-07 
    9.9999999999999995E-07 
    9.9999999999999995E-07 
    9.9999999999999995E-07 
    9.9999999999999995E-07 
    9.9999999999999995E-07 
    9.9999999999999995E-07 
    1.0000000583563213E-06 
