# vtk DataFile Version 2.0
Pressure Field Data 
ASCII 
DATASET UNSTRUCTURED_GRID 

POINTS 289 double 

    0.0000000000000000E+00     0.0000000000000000E+00     0.0000000000000000E+00 
    1.0000000000000000E+00     0.0000000000000000E+00     0.0000000000000000E+00 
    1.0000000000000000E+00     1.0000000000000000E+00     0.0000000000000000E+00 
    0.0000000000000000E+00     1.0000000000000000E+00     0.0000000000000000E+00 
    6.2499999999872928E-02     0.0000000000000000E+00     0.0000000000000000E+00 
    1.2499999999977310E-01     0.0000000000000000E+00     0.0000000000000000E+00 
    1.8749999999959341E-01     0.0000000000000000E+00     0.0000000000000000E+00 
    2.4999999999941089E-01     0.0000000000000000E+00     0.0000000000000000E+00 
    3.1249999999922851E-01     0.0000000000000000E+00     0.0000000000000000E+00 
    3.7499999999904610E-01     0.0000000000000000E+00     0.0000000000000000E+00 
    4.3749999999886358E-01     0.0000000000000000E+00     0.0000000000000000E+00 
    4.9999999999869210E-01     0.0000000000000000E+00     0.0000000000000000E+00 
    5.6249999999884603E-01     0.0000000000000000E+00     0.0000000000000000E+00 
    6.2499999999901090E-01     0.0000000000000000E+00     0.0000000000000000E+00 
    6.8749999999917577E-01     0.0000000000000000E+00     0.0000000000000000E+00 
    7.4999999999934064E-01     0.0000000000000000E+00     0.0000000000000000E+00 
    8.1249999999950551E-01     0.0000000000000000E+00     0.0000000000000000E+00 
    8.7499999999967026E-01     0.0000000000000000E+00     0.0000000000000000E+00 
    9.3749999999983513E-01     0.0000000000000000E+00     0.0000000000000000E+00 
    1.0000000000000000E+00     6.2499999999872928E-02     0.0000000000000000E+00 
    1.0000000000000000E+00     1.2499999999977310E-01     0.0000000000000000E+00 
    1.0000000000000000E+00     1.8749999999959341E-01     0.0000000000000000E+00 
    1.0000000000000000E+00     2.4999999999941089E-01     0.0000000000000000E+00 
    1.0000000000000000E+00     3.1249999999922851E-01     0.0000000000000000E+00 
    1.0000000000000000E+00     3.7499999999904610E-01     0.0000000000000000E+00 
    1.0000000000000000E+00     4.3749999999886358E-01     0.0000000000000000E+00 
    1.0000000000000000E+00     4.9999999999869210E-01     0.0000000000000000E+00 
    1.0000000000000000E+00     5.6249999999884603E-01     0.0000000000000000E+00 
    1.0000000000000000E+00     6.2499999999901090E-01     0.0000000000000000E+00 
    1.0000000000000000E+00     6.8749999999917577E-01     0.0000000000000000E+00 
    1.0000000000000000E+00     7.4999999999934064E-01     0.0000000000000000E+00 
    1.0000000000000000E+00     8.1249999999950551E-01     0.0000000000000000E+00 
    1.0000000000000000E+00     8.7499999999967026E-01     0.0000000000000000E+00 
    1.0000000000000000E+00     9.3749999999983513E-01     0.0000000000000000E+00 
    9.3749999999973976E-01     1.0000000000000000E+00     0.0000000000000000E+00 
    8.7499999999950118E-01     1.0000000000000000E+00     0.0000000000000000E+00 
    8.1249999999991318E-01     1.0000000000000000E+00     0.0000000000000000E+00 
    7.5000000000034706E-01     1.0000000000000000E+00     0.0000000000000000E+00 
    6.8750000000078049E-01     1.0000000000000000E+00     0.0000000000000000E+00 
    6.2500000000121403E-01     1.0000000000000000E+00     0.0000000000000000E+00 
    5.6250000000164757E-01     1.0000000000000000E+00     0.0000000000000000E+00 
    5.0000000000205946E-01     1.0000000000000000E+00     0.0000000000000000E+00 
    4.3750000000182099E-01     1.0000000000000000E+00     0.0000000000000000E+00 
    3.7500000000156092E-01     1.0000000000000000E+00     0.0000000000000000E+00 
    3.1250000000130068E-01     1.0000000000000000E+00     0.0000000000000000E+00 
    2.5000000000104050E-01     1.0000000000000000E+00     0.0000000000000000E+00 
    1.8750000000078040E-01     1.0000000000000000E+00     0.0000000000000000E+00 
    1.2500000000052031E-01     1.0000000000000000E+00     0.0000000000000000E+00 
    6.2500000000260125E-02     1.0000000000000000E+00     0.0000000000000000E+00 
    0.0000000000000000E+00     9.3749999999973976E-01     0.0000000000000000E+00 
    0.0000000000000000E+00     8.7499999999950118E-01     0.0000000000000000E+00 
    0.0000000000000000E+00     8.1249999999991318E-01     0.0000000000000000E+00 
    0.0000000000000000E+00     7.5000000000034706E-01     0.0000000000000000E+00 
    0.0000000000000000E+00     6.8750000000078049E-01     0.0000000000000000E+00 
    0.0000000000000000E+00     6.2500000000121403E-01     0.0000000000000000E+00 
    0.0000000000000000E+00     5.6250000000164757E-01     0.0000000000000000E+00 
    0.0000000000000000E+00     5.0000000000205946E-01     0.0000000000000000E+00 
    0.0000000000000000E+00     4.3750000000182099E-01     0.0000000000000000E+00 
    0.0000000000000000E+00     3.7500000000156092E-01     0.0000000000000000E+00 
    0.0000000000000000E+00     3.1250000000130068E-01     0.0000000000000000E+00 
    0.0000000000000000E+00     2.5000000000104050E-01     0.0000000000000000E+00 
    0.0000000000000000E+00     1.8750000000078040E-01     0.0000000000000000E+00 
    0.0000000000000000E+00     1.2500000000052031E-01     0.0000000000000000E+00 
    0.0000000000000000E+00     6.2500000000260125E-02     0.0000000000000000E+00 
    6.2499999999897131E-02     6.2500000000235922E-02     0.0000000000000000E+00 
    6.2499999999921327E-02     1.2500000000047351E-01     0.0000000000000000E+00 
    6.2499999999945530E-02     1.8750000000070621E-01     0.0000000000000000E+00 
    6.2499999999969733E-02     2.5000000000093858E-01     0.0000000000000000E+00 
    6.2499999999993928E-02     3.1250000000117117E-01     0.0000000000000000E+00 
    6.2500000000018124E-02     3.7500000000140382E-01     0.0000000000000000E+00 
    6.2500000000042327E-02     4.3750000000163619E-01     0.0000000000000000E+00 
    6.2500000000066530E-02     5.0000000000184897E-01     0.0000000000000000E+00 
    6.2500000000090733E-02     5.6250000000147260E-01     0.0000000000000000E+00 
    6.2500000000114922E-02     6.2500000000107636E-01     0.0000000000000000E+00 
    6.2500000000139125E-02     6.8750000000068034E-01     0.0000000000000000E+00 
    6.2500000000163328E-02     7.5000000000028411E-01     0.0000000000000000E+00 
    6.2500000000187531E-02     8.1249999999988787E-01     0.0000000000000000E+00 
    6.2500000000211720E-02     8.7499999999951172E-01     0.0000000000000000E+00 
    6.2500000000235922E-02     9.3749999999974565E-01     0.0000000000000000E+00 
    1.2499999999981980E-01     6.2500000000211733E-02     0.0000000000000000E+00 
    1.2499999999986650E-01     1.2500000000042691E-01     0.0000000000000000E+00 
    1.2499999999991319E-01     1.8750000000063199E-01     0.0000000000000000E+00 
    1.2499999999995989E-01     2.5000000000083678E-01     0.0000000000000000E+00 
    1.2500000000000661E-01     3.1250000000104172E-01     0.0000000000000000E+00 
    1.2500000000005329E-01     3.7500000000124661E-01     0.0000000000000000E+00 
    1.2500000000010000E-01     4.3750000000145117E-01     0.0000000000000000E+00 
    1.2500000000014669E-01     5.0000000000163858E-01     0.0000000000000000E+00 
    1.2500000000019340E-01     5.6250000000129741E-01     0.0000000000000000E+00 
    1.2500000000024011E-01     6.2500000000093847E-01     0.0000000000000000E+00 
    1.2500000000028680E-01     6.8750000000057998E-01     0.0000000000000000E+00 
    1.2500000000033351E-01     7.5000000000022127E-01     0.0000000000000000E+00 
    1.2500000000038020E-01     8.1249999999986211E-01     0.0000000000000000E+00 
    1.2500000000042691E-01     8.7499999999952238E-01     0.0000000000000000E+00 
    1.2500000000047359E-01     9.3749999999975164E-01     0.0000000000000000E+00 
    1.8749999999966760E-01     6.2500000000187531E-02     0.0000000000000000E+00 
    1.8749999999974179E-01     1.2500000000038020E-01     0.0000000000000000E+00 
    1.8749999999981601E-01     1.8750000000055780E-01     0.0000000000000000E+00 
    1.8749999999989009E-01     2.5000000000073502E-01     0.0000000000000000E+00 
    1.8749999999996431E-01     3.1250000000091221E-01     0.0000000000000000E+00 
    1.8750000000003850E-01     3.7500000000108941E-01     0.0000000000000000E+00 
    1.8750000000011269E-01     4.3750000000126649E-01     0.0000000000000000E+00 
    1.8750000000018691E-01     5.0000000000142808E-01     0.0000000000000000E+00 
    1.8750000000026110E-01     5.6250000000112244E-01     0.0000000000000000E+00 
    1.8750000000033529E-01     6.2500000000080080E-01     0.0000000000000000E+00 
    1.8750000000040951E-01     6.8750000000047962E-01     0.0000000000000000E+00 
    1.8750000000048361E-01     7.5000000000015843E-01     0.0000000000000000E+00 
    1.8750000000055780E-01     8.1249999999983680E-01     0.0000000000000000E+00 
    1.8750000000063199E-01     8.7499999999953304E-01     0.0000000000000000E+00 
    1.8750000000070621E-01     9.3749999999975764E-01     0.0000000000000000E+00 
    2.4999999999951281E-01     6.2500000000163314E-02     0.0000000000000000E+00 
    2.4999999999961461E-01     1.2500000000033351E-01     0.0000000000000000E+00 
    2.4999999999971650E-01     1.8750000000048361E-01     0.0000000000000000E+00 
    2.4999999999981831E-01     2.5000000000063310E-01     0.0000000000000000E+00 
    2.4999999999992020E-01     3.1250000000078260E-01     0.0000000000000000E+00 
    2.5000000000002198E-01     3.7500000000093209E-01     0.0000000000000000E+00 
    2.5000000000012390E-01     4.3750000000108180E-01     0.0000000000000000E+00 
    2.5000000000022571E-01     5.0000000000121769E-01     0.0000000000000000E+00 
    2.5000000000032763E-01     5.6250000000094724E-01     0.0000000000000000E+00 
    2.5000000000042938E-01     6.2500000000066314E-01     0.0000000000000000E+00 
    2.5000000000053119E-01     6.8750000000037925E-01     0.0000000000000000E+00 
[...]
CELL_DATA 256 
SCALARS Pressure double 1 
LOOKUP_TABLE default 

    2.3704606539152602E+00 
    2.2627002668771312E+00 
    2.1910169005073716E+00 
    2.1344007929869537E+00 
    2.0918109250666621E+00 
    2.0560651361339639E+00 
    2.0195943151480757E+00 
    1.9853261103977944E+00 
    1.9544548868002904E+00 
    1.9266884657216932E+00 
    1.9012899847834372E+00 
    1.8787813459976181E+00 
    1.8592332443334783E+00 
    1.8423739479456001E+00 
    1.8288383373380528E+00 
    1.8218726381759738E+00 
    2.2628237204898465E+00 
    2.2178950330056697E+00 
    2.1688360655042445E+00 
    2.1222995536282903E+00 
    2.0826891511817927E+00 
    2.0474233846671179E+00 
    2.0122069901669475E+00 
    1.9789430466692577E+00 
    1.9484738992846664E+00 
    1.9206412795507355E+00 
    1.8952361100369890E+00 
    1.8726564858249151E+00 
    1.8529688578936243E+00 
    1.8359234686538903E+00 
    1.8222239347750273E+00 
    1.8151882010229623E+00 
    2.1913673634574415E+00 
    2.1690071842265541E+00 
    2.1358199205902482E+00 
    2.0996225160289295E+00 
    2.0647572115464317E+00 
    2.0312849644855038E+00 
    1.9982077320458815E+00 
    1.9664526328363685E+00 
    1.9365349215381700E+00 
    1.9087198225975330E+00 
    1.8832607878328078E+00 
    1.8604530531706671E+00 
    1.8404406800712203E+00 
    1.8230081783004819E+00 
    1.8089746685050454E+00 
    1.8017830453096979E+00 
    2.1351565473083425E+00 
    2.1226479349895797E+00 
    2.0997208988931657E+00 
    2.0715147988806866E+00 
    2.0412769537939233E+00 
    2.0102874186346171E+00 
    1.9792208042430377E+00 
    1.9487229347371313E+00 
    1.9192647673289875E+00 
    1.8914101421814735E+00 
    1.8656203616087954E+00 
    1.8422852788992214E+00 
    1.8216543657078146E+00 
    1.8035626664389297E+00 
    1.7889797895292563E+00 
    1.7815127416819061E+00 
    2.0920086610224415E+00 
    2.0827232110538532E+00 
    2.0647599663636989E+00 
    2.0412611641259675E+00 
    2.0141863369769446E+00 
    1.9854777971924231E+00 
    1.9562553166331222E+00 
    1.9266508805986602E+00 
    1.8972757384770791E+00 
    1.8690124634184127E+00 
    1.8425311624202325E+00 
    1.8182624078832637E+00 
    1.7965835491912339E+00 
    1.7774536153994145E+00 
    1.7620093447657383E+00 
    1.7540870897570360E+00 
    2.0556261356901468E+00 
    2.0470879996158700E+00 
    2.0311368496547781E+00 
    2.0102160306388108E+00 
    1.9854499891124793E+00 
    1.9586802430160761E+00 
    1.9306632492118270E+00 
    1.9011944858193932E+00 
    1.8713069932270718E+00 
    1.8421307283358037E+00 
    1.8143797060255682E+00 
    1.7885049661831625E+00 
    1.7651392541705082E+00 
    1.7444289178117995E+00 
    1.7276669695421079E+00 
    1.7190373388744242E+00 
    2.0192623842498838E+00 
    2.0119302396235379E+00 
    1.9980385718481435E+00 
    1.9791238088990757E+00 
    1.9562047616170219E+00 
    1.9306433547544277E+00 
    1.9028413462455520E+00 
    1.8728244559657190E+00 
    1.8418697904130130E+00 
    1.8111016206471104E+00 
    1.7812495197728651E+00 
    1.7529188967224065E+00 
    1.7270473861311788E+00 
    1.7040200036470714E+00 
    1.6853180335911488E+00 
    1.6756432340077489E+00 
    1.9851672319946376E+00 
    1.9787651603870384E+00 
    1.9663056689381402E+00 
    1.9486250739147564E+00 
    1.9265979366689243E+00 
    1.9011718636955905E+00 
    1.8728177497028817E+00 
    1.8418529694687942E+00 
    1.8092447312065172E+00 
    1.7760305957165059E+00 
    1.7430921503607251E+00 
    1.7113419190294488E+00 
    1.6819175755043259E+00 
    1.6555488351886363E+00 
    1.6340351755098983E+00 
    1.6228416972924113E+00 
    1.9542955579973056E+00 
    1.9482987852291138E+00 
    1.9363950304351289E+00 
    1.9191745182001312E+00 
    1.8972351955475395E+00 
    1.8712954534558037E+00 
    1.8418669950159687E+00 
    1.8092451078528633E+00 
    1.7741460507372457E+00 
    1.7374981539082321E+00 
    1.7003285381094024E+00 
    1.6637873267126666E+00 
    1.6292978162354639E+00 
    1.5980658147953002E+00 
    1.5724035921759159E+00 
    1.5589360114409438E+00 
    1.9264395315603586E+00 
    1.9204281061332871E+00 
    1.9085796638479873E+00 
    1.8913283338033282E+00 
    1.8689803723384388E+00 
    1.8421191201055847E+00 
    1.8110928652344234E+00 
    1.7760292064087080E+00 
    1.7374999397218014E+00 
    1.6963405880785678E+00 
    1.6535631731779805E+00 
    1.6104330929569057E+00 
    1.5687272598188302E+00 
    1.5303263482753984E+00 
    1.4983757090430565E+00 
    1.4813257151956756E+00 
    1.9010802713308952E+00 
    1.8950602902884985E+00 
    1.8831440729062972E+00 
    1.8655543258611542E+00 
    1.8425039638854335E+00 
    1.8143656608208756E+00 
    1.7812361791102480E+00 
    1.7430907328314527E+00 
    1.7003338446415182E+00 
    1.6535690793631135E+00 
    1.6035767694505072E+00 
    1.5516108887252380E+00 
    1.4997470719640300E+00 
    1.4506810036798885E+00 
    1.4089042138473273E+00 
    1.3858064937833665E+00 
    1.8786315666765425E+00 
    1.8725298181804730E+00 
    1.8603677069174847E+00 
    1.8422396045066132E+00 
    1.8182478975036804E+00 
    1.7885053048330914E+00 
    1.7529224105001653E+00 
    1.7113518565149972E+00 
    1.6638010788551691E+00 
    1.6104459916430103E+00 
    1.5516172218429649E+00 
    1.4882772166566389E+00 
    1.4223877682405615E+00 
    1.3573383121707681E+00 
    1.2994941848274602E+00 
    1.2650529419046301E+00 
    1.8591347816833976E+00 
    1.8528855212107451E+00 
    1.8403855521630199E+00 
    1.8216288840925208E+00 
    1.7965826873593773E+00 
    1.7651529072787087E+00 
    1.7270663506811330E+00 
    1.6819402498919731E+00 
    1.6293214168413106E+00 
    1.5687480595997048E+00 
    1.4997603189961237E+00 
    1.4223940929522327E+00 
    1.3376646952269380E+00 
    1.2487357806822137E+00 
    1.1636513399421700E+00 
    1.1061808278489738E+00 
    1.8423082714102779E+00 
    1.8358684602486890E+00 
    1.8229730401383468E+00 
    1.8035496826227735E+00 
    1.7774602197188361E+00 
    1.7444488531208167E+00 
    1.7040459509636019E+00 
    1.6555773459952883E+00 
    1.5980937587209325E+00 
    1.5303503812866925E+00 
    1.4506969096777229E+00 
    1.3573466399994307E+00 
    1.2487374888874525E+00 
    1.1251936710614769E+00 
    9.9346851878842513E-01 
    8.8670843635573016E-01 
    1.8288008791799599E+00 
    1.8221946811287637E+00 
    1.8089599440648598E+00 
    1.7889814763030978E+00 
    1.7620263956368400E+00 
    1.7276955369583999E+00 
    1.6853513257920529E+00 
    1.6340690387948495E+00 
    1.5724351125580218E+00 
    1.4984023450921946E+00 
    1.4089215923002447E+00 
    1.2995028539743043E+00 
    1.1636516362633418E+00 
    9.9346366480880588E-01 
    7.8297858124163633E-01 
    5.5945528771909991E-01 
    1.8218452040825743E+00 
    1.8151677826682875E+00 
    1.8017743056616324E+00 
    1.7815171880060092E+00 
    1.7541046161482192E+00 
    1.7190653895341554E+00 
    1.6756752193103144E+00 
    1.6228733030339595E+00 
    1.5589653346507588E+00 
    1.4813520435028671E+00 
    1.3858262717798939E+00 
    1.2650676880680567E+00 
    1.1061891761917131E+00 
    8.8670693146238411E-01 
    5.5944845360058526E-01 
    0.0000000000000000E+00 

SCALARS Saturarion double 1 
LOOKUP_TABLE default 

    1.0000000000000000E+00 
    9.4329692640119278E-01 
    8.9577662951307502E-01 
    8.4753817346906668E-01 
    9.8662335203579954E-01 
    7.9841227805455928E-01 
    7.3021919605938312E-01 
    6.7847854194402046E-01 
    6.6087278952475781E-01 
    6.0139328816894544E-01 
    5.5098653839834300E-01 
    4.9903015798953776E-01 
    4.3460359274932264E-01 
    3.3412539933365748E-01 
    1.4377810151259965E-01 
    7.0204032688478760E-03 
    9.4328456630296820E-01 
    9.0657254886287131E-01 
    8.6510948908605578E-01 
    8.2197999028696134E-01 
    7.8843206939302124E-01 
    7.4582814865131919E-01 
    7.0277844187515304E-01 
    6.6153545992689189E-01 
    6.2359816285102154E-01 
    5.8346925818570960E-01 
    5.4082809959591238E-01 
    4.9280379201407998E-01 
    4.3034896577130161E-01 
    3.2966582561008612E-01 
    1.3681966628469072E-01 
    5.9055845310495092E-03 
    8.9572063547765035E-01 
    8.6508521469449762E-01 
    8.2924720802678431E-01 
    7.9152114575478882E-01 
    7.5536794133342566E-01 
    7.1866976713069752E-01 
    6.8189187946232421E-01 
    6.4559706983431686E-01 
    6.0964330886060147E-01 
    5.7262920977123999E-01 
    5.3283906674971271E-01 
    4.8707646049802550E-01 
    4.2626404166064136E-01 
    3.2511502938993925E-01 
    1.2988588830347580E-01 
    5.0101446748666793E-03 
    8.4738103425066358E-01 
    8.2194997059645158E-01 
    7.9155051578574309E-01 
    7.5941995233466941E-01 
    7.2720199878293745E-01 
    6.9485282282373595E-01 
    6.6235948909887388E-01 
    6.2987655998935221E-01 
    5.9703508664181348E-01 
    5.6279868031255353E-01 
    5.2551497818217352E-01 
    4.8168789913791626E-01 
    4.2266308722861001E-01 
    3.2059103487020862E-01 
    1.2351609144724029E-01 
    4.3192903887368708E-03 
    9.5585681947730150E-01 
    7.8753865595628636E-01 
    7.5520893506918718E-01 
    7.2716491292182572E-01 
    6.9943097345034200E-01 
    6.7140678148396904E-01 
    6.4275659306083965E-01 
    6.1389462085607516E-01 
    5.8436836272515325E-01 
    5.5333474680575223E-01 
    5.1879762307604960E-01 
    4.7762551317506990E-01 
    4.2018575622306098E-01 
    3.2083454079299456E-01 
    1.2668989069111555E-01 
    4.9238119597708628E-03 
    7.9344729429154048E-01 
    7.4467706103170161E-01 
    7.1836509038550933E-01 
    6.9475985211557467E-01 
    6.7137655807740459E-01 
    6.9026933936085699E-01 
    6.3564387043011727E-01 
    6.0218629383460864E-01 
    5.7310681178091383E-01 
    5.5744720753243870E-01 
    5.1612616681668977E-01 
    4.7482102768261014E-01 
    4.1891965109653362E-01 
    3.2142635567992922E-01 
    1.2890941219151789E-01 
    5.1017489288617372E-03 
    7.2747385723458424E-01 
    7.0182490938677733E-01 
    6.8155586195686080E-01 
    6.6223149800150871E-01 
    6.4270180572084368E-01 
    6.3563015946630985E-01 
    6.1086394937807820E-01 
    5.8540510486008446E-01 
    5.6025432259841068E-01 
    5.3874963977004686E-01 
    5.0831294328330789E-01 
    4.7121112296763862E-01 
    4.1844533011335533E-01 
    3.2345069274747740E-01 
    1.3369916533939530E-01 
    5.7995012737811118E-03 
    6.7678371631762391E-01 
    6.6079312880736507E-01 
    6.4527675912370785E-01 
    6.2972831305999832E-01 
    6.1381822446899104E-01 
    6.0214954571729973E-01 
    5.8538886097327736E-01 
    5.6628428106465400E-01 
    5.4583600824865652E-01 
    5.2537646963317319E-01 
    5.0005642517677307E-01 
    4.6723122305587450E-01 
    4.1871612330446151E-01 
    3.2717146087241383E-01 
    1.4296457756259753E-01 
    7.4356457773145394E-03 
    6.5223272241387098E-01 
    6.2245467090632178E-01 
    6.0926153653396786E-01 
    5.9685667149421950E-01 
    5.8426440806695301E-01 
    5.7304185852200695E-01 
    5.6021779969066388E-01 
    5.4581961205153406E-01 
    5.2994465777919342E-01 
    5.1271636003852883E-01 
    4.9170196948263700E-01 
    4.6364025316344892E-01 
    4.1997010290195508E-01 
    3.3587586753016851E-01 
    1.6383310880623658E-01 
    1.2772345388132827E-02 
    5.9745192750698295E-01 
    5.8242354175241295E-01 
    5.7222628161438227E-01 
    5.6259787284353002E-01 
    5.5320552581257498E-01 
    5.5594667612661086E-01 
    5.3824405201433512E-01 
    5.2517807969381680E-01 
    5.1263653619317073E-01 
    5.0225390067392628E-01 
    4.8344128826232757E-01 
    4.5969278621343324E-01 
    4.2189462516972687E-01 
    3.4649754290538659E-01 
    1.8949047049097686E-01 
    2.2005565535367200E-02 
    5.4884533737480545E-01 
    5.3998910722258009E-01 
    5.3244588631175327E-01 
    5.2529723369973047E-01 
    5.1865538765803176E-01 
    5.1562370994081563E-01 
    5.0794100577538348E-01 
    4.9982549582159214E-01 
    4.9156948049718080E-01 
    4.8338224806531971E-01 
    4.7126702512292590E-01 
    4.5363810734191734E-01 
    4.2328672267991191E-01 
    3.5891230555304399E-01 
    2.1983657040237645E-01 
    4.0145297434746381E-02 
    4.9774280299551560E-01 
    4.9212435500748891E-01 
    4.8668383826658362E-01 
    4.8143690309843107E-01 
    4.7745249502564130E-01 
    4.7456891393935968E-01 
    4.7095861844899767E-01 
    4.6702271700095671E-01 
    4.6348655450710263E-01 
    4.5959231762709429E-01 
    4.5358837102248717E-01 
    4.4312447370583008E-01 
    4.2185382178262387E-01 
    3.7125276203933955E-01 
    2.5343920617801868E-01 
    7.3794974281698775E-02 
    4.3366366063575140E-01 
    4.2970620410468641E-01 
    4.2580938284224024E-01 
    4.2232512079309914E-01 
    4.1992265744651519E-01 
    4.1866856277811593E-01 
    4.1820132441772784E-01 
    4.1849388088119160E-01 
    4.1978091401810574E-01 
    4.2174522958608512E-01 
    4.2318121285678573E-01 
    4.2179637009948562E-01 
    4.1221818316160663E-01 
    3.7917863002107116E-01 
    2.8786139531351851E-01 
    1.2604756360449060E-01 
    3.3301291509313141E-01 
    3.2875333171754367E-01 
    3.2437214681331206E-01 
    3.1997309401723045E-01 
    3.2029772121988820E-01 
    3.2095026384390418E-01 
    3.2302294172097240E-01 
    3.2678826583956117E-01 
    3.3554067704955021E-01 
    3.4621610858413981E-01 
    3.5868929131841126E-01 
    3.7109081248306885E-01 
    3.7908744211704970E-01 
    3.7004523520501020E-01 
    3.1337653849031688E-01 
    1.8361902664720767E-01 
    1.4207483391525319E-01 
    1.3547784200251031E-01 
    1.2884257593542828E-01 
    1.2268242260912164E-01 
    1.2582951779465168E-01 
    1.2817029579216441E-01 
    1.3307688397142753E-01 
    1.4242600764778893E-01 
    1.6332672580985028E-01 
    1.8905450333224608E-01 
    2.1948175856200886E-01 
    2.5316036865100211E-01 
    2.8766379423996163E-01 
    3.1326627955296671E-01 
    3.0578675072566330E-01 
    2.2770991941283203E-01 
    6.7053442593073770E-03 
    5.7235081716002388E-03 
    4.8938421238929903E-03 
    4.2379888401492564E-03 
    4.7881450515588828E-03 
    5.0094267675383931E-03 
    5.7220717886979503E-03 
    7.3571377215000244E-03 
    1.2621538958627080E-02 
    2.1848742332748840E-02 
    3.9966502657439076E-02 
    7.3596329300529936E-02 
    1.2588080543796576E-01 
    1.8349943969907589E-01 
    2.2765046768773195E-01 
    2.2358160128041690E-01 
