# vtk DataFile Version 2.0
Pressure Field Data 
ASCII 
DATASET UNSTRUCTURED_GRID 

POINTS 289 double 

    0.0000000000000000E+00     0.0000000000000000E+00     0.0000000000000000E+00 
    1.0000000000000000E+00     0.0000000000000000E+00     0.0000000000000000E+00 
    1.0000000000000000E+00     1.0000000000000000E+00     0.0000000000000000E+00 
    0.0000000000000000E+00     1.0000000000000000E+00     0.0000000000000000E+00 
    6.2499999999872928E-02     0.0000000000000000E+00     0.0000000000000000E+00 
    1.2499999999977310E-01     0.0000000000000000E+00     0.0000000000000000E+00 
    1.8749999999959341E-01     0.0000000000000000E+00     0.0000000000000000E+00 
    2.4999999999941089E-01     0.0000000000000000E+00     0.0000000000000000E+00 
    3.1249999999922851E-01     0.0000000000000000E+00     0.0000000000000000E+00 
    3.7499999999904610E-01     0.0000000000000000E+00     0.0000000000000000E+00 
    4.3749999999886358E-01     0.0000000000000000E+00     0.0000000000000000E+00 
    4.9999999999869210E-01     0.0000000000000000E+00     0.0000000000000000E+00 
    5.6249999999884603E-01     0.0000000000000000E+00     0.0000000000000000E+00 
    6.2499999999901090E-01     0.0000000000000000E+00     0.0000000000000000E+00 
    6.8749999999917577E-01     0.0000000000000000E+00     0.0000000000000000E+00 
    7.4999999999934064E-01     0.0000000000000000E+00     0.0000000000000000E+00 
    8.1249999999950551E-01     0.0000000000000000E+00     0.0000000000000000E+00 
    8.7499999999967026E-01     0.0000000000000000E+00     0.0000000000000000E+00 
    9.3749999999983513E-01     0.0000000000000000E+00     0.0000000000000000E+00 
    1.0000000000000000E+00     6.2499999999872928E-02     0.0000000000000000E+00 
    1.0000000000000000E+00     1.2499999999977310E-01     0.0000000000000000E+00 
    1.0000000000000000E+00     1.8749999999959341E-01     0.0000000000000000E+00 
    1.0000000000000000E+00     2.4999999999941089E-01     0.0000000000000000E+00 
    1.0000000000000000E+00     3.1249999999922851E-01     0.0000000000000000E+00 
    1.0000000000000000E+00     3.7499999999904610E-01     0.0000000000000000E+00 
    1.0000000000000000E+00     4.3749999999886358E-01     0.0000000000000000E+00 
    1.0000000000000000E+00     4.9999999999869210E-01     0.0000000000000000E+00 
    1.0000000000000000E+00     5.6249999999884603E-01     0.0000000000000000E+00 
    1.0000000000000000E+00     6.2499999999901090E-01     0.0000000000000000E+00 
    1.0000000000000000E+00     6.8749999999917577E-01     0.0000000000000000E+00 
    1.0000000000000000E+00     7.4999999999934064E-01     0.0000000000000000E+00 
    1.0000000000000000E+00     8.1249999999950551E-01     0.0000000000000000E+00 
    1.0000000000000000E+00     8.7499999999967026E-01     0.0000000000000000E+00 
    1.0000000000000000E+00     9.3749999999983513E-01     0.0000000000000000E+00 
    9.3749999999973976E-01     1.0000000000000000E+00     0.0000000000000000E+00 
    8.7499999999950118E-01     1.0000000000000000E+00     0.0000000000000000E+00 
    8.1249999999991318E-01     1.0000000000000000E+00     0.0000000000000000E+00 
    7.5000000000034706E-01     1.0000000000000000E+00     0.0000000000000000E+00 
    6.8750000000078049E-01     1.0000000000000000E+00     0.0000000000000000E+00 
    6.2500000000121403E-01     1.0000000000000000E+00     0.0000000000000000E+00 
    5.6250000000164757E-01     1.0000000000000000E+00     0.0000000000000000E+00 
    5.0000000000205946E-01     1.0000000000000000E+00     0.0000000000000000E+00 
    4.3750000000182099E-01     1.0000000000000000E+00     0.0000000000000000E+00 
    3.7500000000156092E-01     1.0000000000000000E+00     0.0000000000000000E+00 
    3.1250000000130068E-01     1.0000000000000000E+00     0.0000000000000000E+00 
    2.5000000000104050E-01     1.0000000000000000E+00     0.0000000000000000E+00 
    1.8750000000078040E-01     1.0000000000000000E+00     0.0000000000000000E+00 
    1.2500000000052031E-01     1.0000000000000000E+00     0.0000000000000000E+00 
    6.2500000000260125E-02     1.0000000000000000E+00     0.0000000000000000E+00 
    0.0000000000000000E+00     9.3749999999973976E-01     0.0000000000000000E+00 
    0.0000000000000000E+00     8.7499999999950118E-01     0.0000000000000000E+00 
    0.0000000000000000E+00     8.1249999999991318E-01     0.0000000000000000E+00 
    0.0000000000000000E+00     7.5000000000034706E-01     0.0000000000000000E+00 
    0.0000000000000000E+00     6.8750000000078049E-01     0.0000000000000000E+00 
    0.0000000000000000E+00     6.2500000000121403E-01     0.0000000000000000E+00 
    0.0000000000000000E+00     5.6250000000164757E-01     0.0000000000000000E+00 
    0.0000000000000000E+00     5.0000000000205946E-01     0.0000000000000000E+00 
    0.0000000000000000E+00     4.3750000000182099E-01     0.0000000000000000E+00 
    0.0000000000000000E+00     3.7500000000156092E-01     0.0000000000000000E+00 
    0.0000000000000000E+00     3.1250000000130068E-01     0.0000000000000000E+00 
    0.0000000000000000E+00     2.5000000000104050E-01     0.0000000000000000E+00 
    0.0000000000000000E+00     1.8750000000078040E-01     0.0000000000000000E+00 
    0.0000000000000000E+00     1.2500000000052031E-01     0.0000000000000000E+00 
    0.0000000000000000E+00     6.2500000000260125E-02     0.0000000000000000E+00 
    6.2499999999897131E-02     6.2500000000235922E-02     0.0000000000000000E+00 
    6.2499999999921327E-02     1.2500000000047351E-01     0.0000000000000000E+00 
    6.2499999999945530E-02     1.8750000000070621E-01     0.0000000000000000E+00 
    6.2499999999969733E-02     2.5000000000093858E-01     0.0000000000000000E+00 
    6.2499999999993928E-02     3.1250000000117117E-01     0.0000000000000000E+00 
    6.2500000000018124E-02     3.7500000000140382E-01     0.0000000000000000E+00 
    6.2500000000042327E-02     4.3750000000163619E-01     0.0000000000000000E+00 
    6.2500000000066530E-02     5.0000000000184897E-01     0.0000000000000000E+00 
    6.2500000000090733E-02     5.6250000000147260E-01     0.0000000000000000E+00 
    6.2500000000114922E-02     6.2500000000107636E-01     0.0000000000000000E+00 
    6.2500000000139125E-02     6.8750000000068034E-01     0.0000000000000000E+00 
    6.2500000000163328E-02     7.5000000000028411E-01     0.0000000000000000E+00 
    6.2500000000187531E-02     8.1249999999988787E-01     0.0000000000000000E+00 
    6.2500000000211720E-02     8.7499999999951172E-01     0.0000000000000000E+00 
    6.2500000000235922E-02     9.3749999999974565E-01     0.0000000000000000E+00 
    1.2499999999981980E-01     6.2500000000211733E-02     0.0000000000000000E+00 
    1.2499999999986650E-01     1.2500000000042691E-01     0.0000000000000000E+00 
    1.2499999999991319E-01     1.8750000000063199E-01     0.0000000000000000E+00 
    1.2499999999995989E-01     2.5000000000083678E-01     0.0000000000000000E+00 
    1.2500000000000661E-01     3.1250000000104172E-01     0.0000000000000000E+00 
    1.2500000000005329E-01     3.7500000000124661E-01     0.0000000000000000E+00 
    1.2500000000010000E-01     4.3750000000145117E-01     0.0000000000000000E+00 
    1.2500000000014669E-01     5.0000000000163858E-01     0.0000000000000000E+00 
    1.2500000000019340E-01     5.6250000000129741E-01     0.0000000000000000E+00 
    1.2500000000024011E-01     6.2500000000093847E-01     0.0000000000000000E+00 
    1.2500000000028680E-01     6.8750000000057998E-01     0.0000000000000000E+00 
    1.2500000000033351E-01     7.5000000000022127E-01     0.0000000000000000E+00 
    1.2500000000038020E-01     8.1249999999986211E-01     0.0000000000000000E+00 
    1.2500000000042691E-01     8.7499999999952238E-01     0.0000000000000000E+00 
    1.2500000000047359E-01     9.3749999999975164E-01     0.0000000000000000E+00 
    1.8749999999966760E-01     6.2500000000187531E-02     0.0000000000000000E+00 
    1.8749999999974179E-01     1.2500000000038020E-01     0.0000000000000000E+00 
    1.8749999999981601E-01     1.8750000000055780E-01     0.0000000000000000E+00 
    1.8749999999989009E-01     2.5000000000073502E-01     0.0000000000000000E+00 
    1.8749999999996431E-01     3.1250000000091221E-01     0.0000000000000000E+00 
    1.8750000000003850E-01     3.7500000000108941E-01     0.0000000000000000E+00 
    1.8750000000011269E-01     4.3750000000126649E-01     0.0000000000000000E+00 
    1.8750000000018691E-01     5.0000000000142808E-01     0.0000000000000000E+00 
    1.8750000000026110E-01     5.6250000000112244E-01     0.0000000000000000E+00 
    1.8750000000033529E-01     6.2500000000080080E-01     0.0000000000000000E+00 
    1.8750000000040951E-01     6.8750000000047962E-01     0.0000000000000000E+00 
    1.8750000000048361E-01     7.5000000000015843E-01     0.0000000000000000E+00 
    1.8750000000055780E-01     8.1249999999983680E-01     0.0000000000000000E+00 
    1.8750000000063199E-01     8.7499999999953304E-01     0.0000000000000000E+00 
    1.8750000000070621E-01     9.3749999999975764E-01     0.0000000000000000E+00 
    2.4999999999951281E-01     6.2500000000163314E-02     0.0000000000000000E+00 
    2.4999999999961461E-01     1.2500000000033351E-01     0.0000000000000000E+00 
    2.4999999999971650E-01     1.8750000000048361E-01     0.0000000000000000E+00 
    2.4999999999981831E-01     2.5000000000063310E-01     0.0000000000000000E+00 
    2.4999999999992020E-01     3.1250000000078260E-01     0.0000000000000000E+00 
    2.5000000000002198E-01     3.7500000000093209E-01     0.0000000000000000E+00 
    2.5000000000012390E-01     4.3750000000108180E-01     0.0000000000000000E+00 
    2.5000000000022571E-01     5.0000000000121769E-01     0.0000000000000000E+00 
    2.5000000000032763E-01     5.6250000000094724E-01     0.0000000000000000E+00 
    2.5000000000042938E-01     6.2500000000066314E-01     0.0000000000000000E+00 
    2.5000000000053119E-01     6.8750000000037925E-01     0.0000000000000000E+00 
[...]
CELL_DATA 256 
SCALARS Pressure double 1 
LOOKUP_TABLE default 

    2.4427129526944849E+00 
    2.3311522655661094E+00 
    2.2535002392309518E+00 
    2.1908158008196486E+00 
    2.1379001401669480E+00 
    2.0909862250122382E+00 
    2.0460760159090303E+00 
    2.0035520894406154E+00 
    1.9635892006501388E+00 
    1.9259318391635589E+00 
    1.8899625897969896E+00 
    1.8549375563400918E+00 
    1.8207008799322832E+00 
    1.7940106236687854E+00 
    1.7774268209027906E+00 
    1.7692071378900436E+00 
    2.3311987036836626E+00 
    2.2828455460772945E+00 
    2.2279470285247660E+00 
    2.1749301099117959E+00 
    2.1264670642161683E+00 
    2.0813321136403919E+00 
    2.0376704401286827E+00 
    1.9959857373866914E+00 
    1.9563674069239858E+00 
    1.9186856399420134E+00 
    1.8825547014519621E+00 
    1.8470914234366844E+00 
    1.8125039417731637E+00 
    1.7858280482670768E+00 
    1.7692317978346996E+00 
    1.7609900415992172E+00 
    2.2536368589642461E+00 
    2.2280205310414494E+00 
    2.1897758564409107E+00 
    2.1476060485192625E+00 
    2.1051434029715801E+00 
    2.0630342761636253E+00 
    2.0215163293163734E+00 
    1.9811066871404208E+00 
    1.9419894564443916E+00 
    1.9042936477569767E+00 
    1.8677848155574852E+00 
    1.8314066787085004E+00 
    1.7961962348893827E+00 
    1.7695304125124796E+00 
    1.7528569636737141E+00 
    1.7445440733210127E+00 
    2.1911017162784301E+00 
    2.1750827449080710E+00 
    2.1476573170269022E+00 
    2.1139085008291341E+00 
    2.0768008519330814E+00 
    2.0380810774797484E+00 
    1.9988356922814154E+00 
    1.9596634127030275E+00 
    1.9209764413422470E+00 
    1.8830886907282460E+00 
    1.8458414473134277E+00 
    1.8079590794165461E+00 
    1.7718723172576676E+00 
    1.7451480328765665E+00 
    1.7282579710100721E+00 
    1.7197950699472733E+00 
    2.1380735299631439E+00 
    2.1265495243720514E+00 
    2.1051793813737980E+00 
    2.0768113809610074E+00 
    2.0437852586370839E+00 
    2.0080489074896484E+00 
    1.9707767367518891E+00 
    1.9325203742747046E+00 
    1.8939133442700651E+00 
    1.8554190732398297E+00 
    1.8168823625036294E+00 
    1.7768015917271864E+00 
    1.7396146970668656E+00 
    1.7126706732412529E+00 
    1.6953319416358641E+00 
    1.6865958145664584E+00 
    2.0909317190538439E+00 
    2.0812905043626140E+00 
    2.0630290201461996E+00 
    2.0380850756218196E+00 
    2.0080529937116114E+00 
    1.9745391157350813E+00 
    1.9385372091211386E+00 
    1.9005684489212136E+00 
    1.8614537529864785E+00 
    1.8216931496947231E+00 
    1.7809428589517193E+00 
    1.7379204335671166E+00 
    1.6994948280622286E+00 
    1.6720110914855766E+00 
    1.6538721707097574E+00 
    1.6446770939361710E+00 
    2.0460189681105043E+00 
    2.0376294293212323E+00 
    2.0215044616272988E+00 
    1.9988372690385943E+00 
    1.9707808999610006E+00 
    1.9385392877315930E+00 
    1.9029338451346522E+00 
    1.8645271939870296E+00 
    1.8241479804654361E+00 
    1.7821786707561709E+00 
    1.7378097744667143E+00 
    1.6912274584752374E+00 
    1.6515611228785771E+00 
    1.6229627411913041E+00 
    1.6035007131608299E+00 
    1.5935547943427095E+00 
    2.0035465491379876E+00 
    1.9959724171904039E+00 
    1.9811019168437360E+00 
    1.9596686279820152E+00 
    1.9325300940102732E+00 
    1.9005772044006319E+00 
    1.8645326892307801E+00 
    1.8249389551993027E+00 
    1.7823663251650064E+00 
    1.7369449471794514E+00 
    1.6873648450394292E+00 
    1.6371817392173245E+00 
    1.5960694644336828E+00 
    1.5652536980052651E+00 
    1.5436579764139904E+00 
    1.5324925797455284E+00 
    1.9635893408573220E+00 
    1.9563600936654704E+00 
    1.9419917587313644E+00 
    1.9209886121752962E+00 
    1.8939311924726834E+00 
    1.8614712632449182E+00 
    1.8241626929707726E+00 
    1.7823748278664833E+00 
    1.7363447747065499E+00 
    1.6854313866097210E+00 
    1.6296807476249422E+00 
    1.5768602299594650E+00 
    1.5332792063142302E+00 
    1.4984374983336106E+00 
    1.4734096836339894E+00 
    1.4602687655785735E+00 
    1.9259061116968224E+00 
    1.9186708715141432E+00 
    1.9042997427179527E+00 
    1.8831077058162491E+00 
    1.8554453639836455E+00 
    1.8217192168404566E+00 
    1.7822014632112182E+00 
    1.7369620463958839E+00 
    1.6854405911515455E+00 
    1.6274123353692456E+00 
    1.5672821955274117E+00 
    1.5119066442105724E+00 
    1.4631181313103034E+00 
    1.4218106740128480E+00 
    1.3912856362994963E+00 
    1.3749100319388852E+00 
    1.8899512343023350E+00 
    1.8825537001835733E+00 
    1.8678010897369888E+00 
    1.8458697120543406E+00 
    1.8169163554219383E+00 
    1.7809750792611945E+00 
    1.7378369880737692E+00 
    1.6873892665297274E+00 
    1.6297014182207281E+00 
    1.5672961526547036E+00 
    1.5045592059124879E+00 
    1.4434808851384811E+00 
    1.3855965777062125E+00 
    1.3343814097374669E+00 
    1.2949898596475227E+00 
    1.2731611156717015E+00 
    1.8549458346178078E+00 
    1.8471067084173833E+00 
    1.8314342413319327E+00 
    1.8079966137502053E+00 
    1.7768449944714708E+00 
    1.7379648816749060E+00 
    1.6912708100591038E+00 
    1.6372260910774616E+00 
    1.5769018278897429E+00 
    1.5119388304251991E+00 
    1.4434974506729077E+00 
    1.3724705538655881E+00 
    1.3014531187806107E+00 
    1.2351789818931480E+00 
    1.1811829652996242E+00 
    1.1496107070490555E+00 
    1.8207418241286459E+00 
    1.8125500411397710E+00 
    1.7962511784179771E+00 
    1.7719351813310213E+00 
    1.7396830264299268E+00 
    1.6995655252542434E+00 
    1.6516315923778735E+00 
    1.5961382653407763E+00 
    1.5333411933186887E+00 
    1.4631676518129155E+00 
    1.3856293941911804E+00 
    1.3014692476800733E+00 
    1.2125888116320160E+00 
    1.1237186118960714E+00 
    1.0449816599923911E+00 
    9.9450133479308256E-01 
    1.7940925258804468E+00 
    1.7859117295150482E+00 
    1.7696177125305186E+00 
    1.7452385365227483E+00 
    1.7127629375193061E+00 
    1.6721030195154039E+00 
    1.6230517204753752E+00 
    1.5653376331501643E+00 
    1.4985127499138777E+00 
    1.4218732236898215E+00 
    1.3344273458790683E+00 
    1.2352083429204417E+00 
    1.1237320397612145E+00 
    1.0021377885829794E+00 
    8.8054647831661326E-01 
    7.8892083028157156E-01 
    1.7775282147233624E+00 
    1.7693328763367484E+00 
    1.7529585748492931E+00 
    1.7283599958397589E+00 
    1.6954337637729628E+00 
    1.6539727848214405E+00 
    1.6035977545883939E+00 
    1.5437491072032945E+00 
    1.4734916942016369E+00 
    1.3913550895880509E+00 
    1.2950432854147758E+00 
    1.1812203809339845E+00 
    1.0450037927748947E+00 
    8.8055566617718584E-01 
    6.8614262214212252E-01 
    4.9170305629797728E-01 
    1.7693084186652559E+00 
    1.7610910605903669E+00 
    1.7446453026292901E+00 
    1.7198962806844629E+00 
    1.6866964396122137E+00 
    1.6447764808195011E+00 
    1.5936503223126719E+00 
    1.5325817905593293E+00 
    1.4603487874208212E+00 
    1.3749777712817843E+00 
    1.2732141044293326E+00 
    1.1496489422629332E+00 
    9.9452564165955992E-01 
    7.8893342769047037E-01 
    4.9170729736065794E-01 
    0.0000000000000000E+00 

SCALARS Saturarion double 1 
LOOKUP_TABLE default 

    1.0000000000000000E+00 
    9.1971582208202141E-01 
    8.5772820208825973E-01 
    7.9809408257933778E-01 
    7.8704710351242846E-01 
    7.0541594959361797E-01 
    6.4741991561403156E-01 
    5.9682840668399828E-01 
    5.5577133818475921E-01 
    5.0191550717647226E-01 
    4.4219445636143867E-01 
    3.5861210111093478E-01 
    2.0046658201759321E-01 
    2.3480176985324973E-02 
    4.8494708318945015E-05 
    1.4047880196358942E-11 
    9.1970876394497370E-01 
    8.7153360972082206E-01 
    8.1978265395293859E-01 
    7.6830382394977226E-01 
    7.2203600166947557E-01 
    6.7398694686774707E-01 
    6.2759316704570312E-01 
    5.8271069743606563E-01 
    5.3821990979335432E-01 
    4.9028443766309626E-01 
    4.3297532529092025E-01 
    3.4798164525622954E-01 
    1.8030871876547075E-01 
    1.5923030237746209E-02 
    1.7266667299705039E-05 
    1.1138024732132436E-12 
    8.5769980441008298E-01 
    8.1976914137872936E-01 
    7.7685130889695686E-01 
    7.3316875551159066E-01 
    6.9050209119430017E-01 
    6.4858623473979737E-01 
    6.0733251388376752E-01 
    5.6647679763618408E-01 
    5.2459767482881681E-01 
    4.7883659397785022E-01 
    4.2244593117410095E-01 
    3.3411366819618743E-01 
    1.5279887178113960E-01 
    8.7777404803486177E-03 
    3.5764995290188243E-06 
    2.2214485032197911E-14 
    7.9802159012054363E-01 
    7.6828099025170649E-01 
    7.3317147309456099E-01 
    6.9657030086448102E-01 
    6.5969090259402285E-01 
    6.2298550926069429E-01 
    5.8627302354846744E-01 
    5.4910122440102538E-01 
    5.1015056275618798E-01 
    4.6652186879750662E-01 
    4.1085310778918038E-01 
    3.1706165108278045E-01 
    1.1900504769069142E-01 
    3.6902091696478807E-03 
    3.6494366458573651E-07 
    6.5509171227751453E-17 
    7.7943029948614506E-01 
    7.2144037029410590E-01 
    6.9040718598341422E-01 
    6.5967110800680995E-01 
    6.2835206801616517E-01 
    5.9652772901420970E-01 
    5.6393950896888256E-01 
    5.3043170135225381E-01 
    4.9449227003273560E-01 
    4.5309021539615668E-01 
    3.9704406235290957E-01 
    2.9208803016276014E-01 
    7.9856843374849565E-02 
    1.0181844693068632E-03 
    1.1918945496071577E-08 
    8.1265110711426135E-21 
    7.0268335393809322E-01 
    6.7344074339168436E-01 
    6.4845288242374344E-01 
    6.2294679359013450E-01 
    5.9651469219489472E-01 
    5.8213072380811692E-01 
    5.4470711120350235E-01 
    5.1200978845024425E-01 
    4.7799088355992636E-01 
    4.4087506137444427E-01 
    3.8199089750491472E-01 
    2.5806282568434336E-01 
    4.3410759874239251E-02 
    1.5504276887005336E-04 
    7.0482914852351137E-11 
    5.4879411335419660E-27 
    6.4607642118915032E-01 
    6.2717655305720510E-01 
    6.0719354775051071E-01 
    5.8622070794515102E-01 
    5.6391486856362949E-01 
    5.4469579768470722E-01 
    5.1833083470465635E-01 
    4.9037384420492741E-01 
    4.5923092594499598E-01 
    4.2165523481344874E-01 
    3.6084273062062217E-01 
    2.0335464951552193E-01 
    1.5044548983344206E-02 
    6.3999166968055791E-06 
    7.5251729157023602E-15 
    7.3251227658963339E-39 
    5.9605595426814217E-01 
    5.8238946260038404E-01 
    5.6633875287228397E-01 
    5.4903486544234137E-01 
    5.3039362404879264E-01 
    5.1198608652477007E-01 
    4.9036147431619542E-01 
    4.6612674771838869E-01 
    4.3750167351357333E-01 
    3.9951496194114283E-01 
    3.2841634773845463E-01 
    1.1654616150324787E-01 
    1.8044852465922692E-03 
    9.6522081965246482E-09 
    1.0059665064940431E-23 
    3.9819979252779151E-67 
    5.5330952553311663E-01 
    5.3779997304873850E-01 
    5.2443714497296279E-01 
    5.1006451806342779E-01 
    4.9443527356619621E-01 
    4.7794892731631267E-01 
    4.5920187100407261E-01 
    4.3748521216090580E-01 
    4.0997955861251667E-01 
    3.6783683862172412E-01 
    2.5591315298046047E-01 
    2.7271187055575265E-02 
    1.1090174332257999E-05 
    4.6555054488806423E-16 
    1.0018893386818145E-48 
   1.7703764281912934E-153 
    5.0066254605691185E-01 
    4.8990617161299704E-01 
    4.7866179784177465E-01 
    4.6641298418383897E-01 
    4.5300676229957515E-01 
    4.4057410777571648E-01 
    4.2152908842430536E-01 
    3.9944798169829138E-01 
    3.6779818256281455E-01 
    3.0131141025376895E-01 
    8.2618029637602536E-02 
    2.3659957095054687E-04 
    5.5456548406464697E-13 
    4.8279040923903334E-42 
   2.9215778652395561E-139 
    0.0000000000000000E+00 
    4.4144919689374951E-01 
    4.3263034485640667E-01 
    4.2223932228125544E-01 
    4.1069902003200254E-01 
    3.9691206214557190E-01 
    3.8180316727317759E-01 
    3.6067880840605188E-01 
    3.2825700261262114E-01 
    2.5571902462968626E-01 
    8.2530680299262069E-02 
    4.9795438932838853E-04 
    3.9826886758761352E-12 
    3.7412664034867650E-40 
   3.1400481549496648E-135 
    0.0000000000000000E+00 
    0.0000000000000000E+00 
    3.5798853018168608E-01 
    3.4755406214543061E-01 
    3.3377591992302941E-01 
    3.1675646343738151E-01 
    2.9177922946554657E-01 
    2.5770946591855370E-01 
    2.0296305068373194E-01 
    1.1622966919085820E-01 
    2.7175322945696453E-02 
    2.3585229094420448E-04 
    3.9770237650527498E-12 
    8.9433667507785281E-40 
   3.0097778021408460E-134 
    0.0000000000000000E+00 
    0.0000000000000000E+00 
    0.0000000000000000E+00 
    1.9959898252520919E-01 
    1.7961326595673249E-01 
    1.5222703599530624E-01 
    1.1853549845088596E-01 
    7.9505313496926730E-02 
    4.3181710817144045E-02 
    1.4945369207067093E-02 
    1.7899230591150125E-03 
    1.0985817234629935E-05 
    5.5071340102564906E-13 
    3.7276454316998352E-40 
   3.0055202139670534E-134 
    0.0000000000000000E+00 
    0.0000000000000000E+00 
    0.0000000000000000E+00 
    0.0000000000000000E+00 
    2.3155782671465966E-02 
    1.5729318036613222E-02 
    8.6772148960194834E-03 
    3.6476278817199111E-03 
    1.0052236458431927E-03 
    1.5281667849473821E-04 
    6.2919488827157733E-06 
    9.4530553301649490E-09 
    4.5508016170062334E-16 
    4.7525518511627417E-42 
   3.1159065633605478E-135 
    0.0000000000000000E+00 
    0.0000000000000000E+00 
    0.0000000000000000E+00 
    0.0000000000000000E+00 
    0.0000000000000000E+00 
    4.6796928690725664E-05 
    1.6748974784080778E-05 
    3.4777562081787158E-06 
    3.5488997634635912E-07 
    1.1544505136345950E-08 
    6.8025581357825471E-11 
    7.2153722711324192E-15 
    9.5546896246121209E-24 
    9.4903008884423712E-49 
   2.8268843466544539E-139 
    0.0000000000000000E+00 
    0.0000000000000000E+00 
    0.0000000000000000E+00 
    0.0000000000000000E+00 
    0.0000000000000000E+00 
    0.0000000000000000E+00 
    1.2876920479672138E-11 
    1.0379990477138211E-12 
    2.0835657961717213E-14 
    6.1403100323162977E-17 
    7.5017656091688056E-21 
    5.0339458929574409E-27 
    6.5976590501813653E-39 
    3.5077380451652269E-67 
   1.5703840587441179E-153 
    0.0000000000000000E+00 
    0.0000000000000000E+00 
    0.0000000000000000E+00 
    0.0000000000000000E+00 
    0.0000000000000000E+00 
    0.0000000000000000E+00 
    0.0000000000000000E+00 
