# vtk DataFile Version 2.0
Pressure Field Data 
ASCII 
DATASET UNSTRUCTURED_GRID 

POINTS 289 double 

    0.0000000000000000E+00     0.0000000000000000E+00     0.0000000000000000E+00 
    1.0000000000000000E+00     0.0000000000000000E+00     0.0000000000000000E+00 
    1.0000000000000000E+00     1.0000000000000000E+00     0.0000000000000000E+00 
    0.0000000000000000E+00     1.0000000000000000E+00     0.0000000000000000E+00 
    6.2499999999872928E-02     0.0000000000000000E+00     0.0000000000000000E+00 
    1.2499999999977310E-01     0.0000000000000000E+00     0.0000000000000000E+00 
    1.8749999999959341E-01     0.0000000000000000E+00     0.0000000000000000E+00 
    2.4999999999941089E-01     0.0000000000000000E+00     0.0000000000000000E+00 
    3.1249999999922851E-01     0.0000000000000000E+00     0.0000000000000000E+00 
    3.7499999999904610E-01     0.0000000000000000E+00     0.0000000000000000E+00 
    4.3749999999886358E-01     0.0000000000000000E+00     0.0000000000000000E+00 
    4.9999999999869210E-01     0.0000000000000000E+00     0.0000000000000000E+00 
    5.6249999999884603E-01     0.0000000000000000E+00     0.0000000000000000E+00 
    6.2499999999901090E-01     0.0000000000000000E+00     0.0000000000000000E+00 
    6.8749999999917577E-01     0.0000000000000000E+00     0.0000000000000000E+00 
    7.4999999999934064E-01     0.0000000000000000E+00     0.0000000000000000E+00 
    8.1249999999950551E-01     0.0000000000000000E+00     0.0000000000000000E+00 
    8.7499999999967026E-01     0.0000000000000000E+00     0.0000000000000000E+00 
    9.3749999999983513E-01     0.0000000000000000E+00     0.0000000000000000E+00 
    1.0000000000000000E+00     6.2499999999872928E-02     0.0000000000000000E+00 
    1.0000000000000000E+00     1.2499999999977310E-01     0.0000000000000000E+00 
    1.0000000000000000E+00     1.8749999999959341E-01     0.0000000000000000E+00 
    1.0000000000000000E+00     2.4999999999941089E-01     0.0000000000000000E+00 
    1.0000000000000000E+00     3.1249999999922851E-01     0.0000000000000000E+00 
    1.0000000000000000E+00     3.7499999999904610E-01     0.0000000000000000E+00 
    1.0000000000000000E+00     4.3749999999886358E-01     0.0000000000000000E+00 
    1.0000000000000000E+00     4.9999999999869210E-01     0.0000000000000000E+00 
    1.0000000000000000E+00     5.6249999999884603E-01     0.0000000000000000E+00 
    1.0000000000000000E+00     6.2499999999901090E-01     0.0000000000000000E+00 
    1.0000000000000000E+00     6.8749999999917577E-01     0.0000000000000000E+00 
    1.0000000000000000E+00     7.4999999999934064E-01     0.0000000000000000E+00 
    1.0000000000000000E+00     8.1249999999950551E-01     0.0000000000000000E+00 
    1.0000000000000000E+00     8.7499999999967026E-01     0.0000000000000000E+00 
    1.0000000000000000E+00     9.3749999999983513E-01     0.0000000000000000E+00 
    9.3749999999973976E-01     1.0000000000000000E+00     0.0000000000000000E+00 
    8.7499999999950118E-01     1.0000000000000000E+00     0.0000000000000000E+00 
    8.1249999999991318E-01     1.0000000000000000E+00     0.0000000000000000E+00 
    7.5000000000034706E-01     1.0000000000000000E+00     0.0000000000000000E+00 
    6.8750000000078049E-01     1.0000000000000000E+00     0.0000000000000000E+00 
    6.2500000000121403E-01     1.0000000000000000E+00     0.0000000000000000E+00 
    5.6250000000164757E-01     1.0000000000000000E+00     0.0000000000000000E+00 
    5.0000000000205946E-01     1.0000000000000000E+00     0.0000000000000000E+00 
    4.3750000000182099E-01     1.0000000000000000E+00     0.0000000000000000E+00 
    3.7500000000156092E-01     1.0000000000000000E+00     0.0000000000000000E+00 
    3.1250000000130068E-01     1.0000000000000000E+00     0.0000000000000000E+00 
    2.5000000000104050E-01     1.0000000000000000E+00     0.0000000000000000E+00 
    1.8750000000078040E-01     1.0000000000000000E+00     0.0000000000000000E+00 
    1.2500000000052031E-01     1.0000000000000000E+00     0.0000000000000000E+00 
    6.2500000000260125E-02     1.0000000000000000E+00     0.0000000000000000E+00 
    0.0000000000000000E+00     9.3749999999973976E-01     0.0000000000000000E+00 
    0.0000000000000000E+00     8.7499999999950118E-01     0.0000000000000000E+00 
    0.0000000000000000E+00     8.1249999999991318E-01     0.0000000000000000E+00 
    0.0000000000000000E+00     7.5000000000034706E-01     0.0000000000000000E+00 
    0.0000000000000000E+00     6.8750000000078049E-01     0.0000000000000000E+00 
    0.0000000000000000E+00     6.2500000000121403E-01     0.0000000000000000E+00 
    0.0000000000000000E+00     5.6250000000164757E-01     0.0000000000000000E+00 
    0.0000000000000000E+00     5.0000000000205946E-01     0.0000000000000000E+00 
    0.0000000000000000E+00     4.3750000000182099E-01     0.0000000000000000E+00 
    0.0000000000000000E+00     3.7500000000156092E-01     0.0000000000000000E+00 
    0.0000000000000000E+00     3.1250000000130068E-01     0.0000000000000000E+00 
    0.0000000000000000E+00     2.5000000000104050E-01     0.0000000000000000E+00 
    0.0000000000000000E+00     1.8750000000078040E-01     0.0000000000000000E+00 
    0.0000000000000000E+00     1.2500000000052031E-01     0.0000000000000000E+00 
    0.0000000000000000E+00     6.2500000000260125E-02     0.0000000000000000E+00 
    6.2499999999897131E-02     6.2500000000235922E-02     0.0000000000000000E+00 
    6.2499999999921327E-02     1.2500000000047351E-01     0.0000000000000000E+00 
    6.2499999999945530E-02     1.8750000000070621E-01     0.0000000000000000E+00 
    6.2499999999969733E-02     2.5000000000093858E-01     0.0000000000000000E+00 
    6.2499999999993928E-02     3.1250000000117117E-01     0.0000000000000000E+00 
    6.2500000000018124E-02     3.7500000000140382E-01     0.0000000000000000E+00 
    6.2500000000042327E-02     4.3750000000163619E-01     0.0000000000000000E+00 
    6.2500000000066530E-02     5.0000000000184897E-01     0.0000000000000000E+00 
    6.2500000000090733E-02     5.6250000000147260E-01     0.0000000000000000E+00 
    6.2500000000114922E-02     6.2500000000107636E-01     0.0000000000000000E+00 
    6.2500000000139125E-02     6.8750000000068034E-01     0.0000000000000000E+00 
    6.2500000000163328E-02     7.5000000000028411E-01     0.0000000000000000E+00 
    6.2500000000187531E-02     8.1249999999988787E-01     0.0000000000000000E+00 
    6.2500000000211720E-02     8.7499999999951172E-01     0.0000000000000000E+00 
    6.2500000000235922E-02     9.3749999999974565E-01     0.0000000000000000E+00 
    1.2499999999981980E-01     6.2500000000211733E-02     0.0000000000000000E+00 
    1.2499999999986650E-01     1.2500000000042691E-01     0.0000000000000000E+00 
    1.2499999999991319E-01     1.8750000000063199E-01     0.0000000000000000E+00 
    1.2499999999995989E-01     2.5000000000083678E-01     0.0000000000000000E+00 
    1.2500000000000661E-01     3.1250000000104172E-01     0.0000000000000000E+00 
    1.2500000000005329E-01     3.7500000000124661E-01     0.0000000000000000E+00 
    1.2500000000010000E-01     4.3750000000145117E-01     0.0000000000000000E+00 
    1.2500000000014669E-01     5.0000000000163858E-01     0.0000000000000000E+00 
    1.2500000000019340E-01     5.6250000000129741E-01     0.0000000000000000E+00 
    1.2500000000024011E-01     6.2500000000093847E-01     0.0000000000000000E+00 
    1.2500000000028680E-01     6.8750000000057998E-01     0.0000000000000000E+00 
    1.2500000000033351E-01     7.5000000000022127E-01     0.0000000000000000E+00 
    1.2500000000038020E-01     8.1249999999986211E-01     0.0000000000000000E+00 
    1.2500000000042691E-01     8.7499999999952238E-01     0.0000000000000000E+00 
    1.2500000000047359E-01     9.3749999999975164E-01     0.0000000000000000E+00 
    1.8749999999966760E-01     6.2500000000187531E-02     0.0000000000000000E+00 
    1.8749999999974179E-01     1.2500000000038020E-01     0.0000000000000000E+00 
    1.8749999999981601E-01     1.8750000000055780E-01     0.0000000000000000E+00 
    1.8749999999989009E-01     2.5000000000073502E-01     0.0000000000000000E+00 
    1.8749999999996431E-01     3.1250000000091221E-01     0.0000000000000000E+00 
    1.8750000000003850E-01     3.7500000000108941E-01     0.0000000000000000E+00 
    1.8750000000011269E-01     4.3750000000126649E-01     0.0000000000000000E+00 
    1.8750000000018691E-01     5.0000000000142808E-01     0.0000000000000000E+00 
    1.8750000000026110E-01     5.6250000000112244E-01     0.0000000000000000E+00 
    1.8750000000033529E-01     6.2500000000080080E-01     0.0000000000000000E+00 
    1.8750000000040951E-01     6.8750000000047962E-01     0.0000000000000000E+00 
    1.8750000000048361E-01     7.5000000000015843E-01     0.0000000000000000E+00 
    1.8750000000055780E-01     8.1249999999983680E-01     0.0000000000000000E+00 
    1.8750000000063199E-01     8.7499999999953304E-01     0.0000000000000000E+00 
    1.8750000000070621E-01     9.3749999999975764E-01     0.0000000000000000E+00 
    2.4999999999951281E-01     6.2500000000163314E-02     0.0000000000000000E+00 
    2.4999999999961461E-01     1.2500000000033351E-01     0.0000000000000000E+00 
    2.4999999999971650E-01     1.8750000000048361E-01     0.0000000000000000E+00 
    2.4999999999981831E-01     2.5000000000063310E-01     0.0000000000000000E+00 
    2.4999999999992020E-01     3.1250000000078260E-01     0.0000000000000000E+00 
    2.5000000000002198E-01     3.7500000000093209E-01     0.0000000000000000E+00 
    2.5000000000012390E-01     4.3750000000108180E-01     0.0000000000000000E+00 
    2.5000000000022571E-01     5.0000000000121769E-01     0.0000000000000000E+00 
    2.5000000000032763E-01     5.6250000000094724E-01     0.0000000000000000E+00 
    2.5000000000042938E-01     6.2500000000066314E-01     0.0000000000000000E+00 
    2.5000000000053119E-01     6.8750000000037925E-01     0.0000000000000000E+00 
[...]
CELL_DATA 256 
SCALARS Pressure double 1 
LOOKUP_TABLE default 

    2.4026091012553050E+00 
    2.2947269453093053E+00 
    2.2228585685344706E+00 
    2.1660887135923086E+00 
    2.1229292614684461E+00 
    2.0866315610369512E+00 
    2.0499187932752596E+00 
    2.0154147573464591E+00 
    1.9842561764821784E+00 
    1.9561808209290865E+00 
    1.9305051259623065E+00 
    1.9077078418246993E+00 
    1.8878326599930038E+00 
    1.8705726895724664E+00 
    1.8567763865014193E+00 
    1.8497426126807672E+00 
    2.2948438361161170E+00 
    2.2497906367611615E+00 
    2.2005192270965259E+00 
    2.1537463017842304E+00 
    2.1137039162768714E+00 
    2.0779975169885629E+00 
    2.0425125944353493E+00 
    2.0089937025054230E+00 
    1.9782367446889035E+00 
    1.9501040944503398E+00 
    1.9244151507020317E+00 
    1.9015386359264135E+00 
    1.8815157322811473E+00 
    1.8640560494318157E+00 
    1.8500913658086626E+00 
    1.8429881073595975E+00 
    2.2231909214565309E+00 
    2.2006829370231427E+00 
    2.1672840904848321E+00 
    2.1308497783387899E+00 
    2.0956688275767994E+00 
    2.0618462973875231E+00 
    2.0284704784421126E+00 
    1.9964345693429293E+00 
    1.9662263214129747E+00 
    1.9381163148095713E+00 
    1.9123602776087885E+00 
    1.8892431686581919E+00 
    1.8688813021086692E+00 
    1.8510105373942625E+00 
    1.8367025727887663E+00 
    1.8294420503874402E+00 
    2.1668048050358117E+00 
    2.1540816383678298E+00 
    2.1309470335303384E+00 
    2.1025246957761037E+00 
    2.0720224133673852E+00 
    2.0407368239099948E+00 
    2.0093777439567506E+00 
    1.9785912017359173E+00 
    1.9488409374766482E+00 
    1.9206868335630560E+00 
    1.8945887271356072E+00 
    1.8709319109356073E+00 
    1.8499323797925389E+00 
    1.8313725263447620E+00 
    1.8164996582067754E+00 
    1.8089572909478322E+00 
    2.1231415638841216E+00 
    2.1137553589112326E+00 
    2.0956814481649264E+00 
    2.0720120180170722E+00 
    2.0447281603340617E+00 
    2.0157624249490151E+00 
    1.9862483564341105E+00 
    1.9563537677167455E+00 
    1.9266886420295348E+00 
    1.8981207074487527E+00 
    1.8713182495155352E+00 
    1.8467115911575687E+00 
    1.8246402591475948E+00 
    1.8050065246565123E+00 
    1.7892467322234740E+00 
    1.7812376455180099E+00 
    2.0862460339063462E+00 
    2.0777033311316093E+00 
    2.0617198930864973E+00 
    2.0406775164727478E+00 
    2.0157399326982350E+00 
    1.9887258998565087E+00 
    1.9604182529641692E+00 
    1.9306699501223130E+00 
    1.9004976788735026E+00 
    1.8710099896944616E+00 
    1.8429240142171714E+00 
    1.8166961991343344E+00 
    1.7929138382432070E+00 
    1.7716558938655560E+00 
    1.7545392985894794E+00 
    1.7458053099874367E+00 
    2.0496230483372564E+00 
    2.0422679837495905E+00 
    2.0283246800914707E+00 
    2.0092963894429823E+00 
    1.9862069869755314E+00 
    1.9604022706549091E+00 
    1.9323202225003109E+00 
    1.9020324641473423E+00 
    1.8707912111186531E+00 
    1.8397003258451949E+00 
    1.8094975233869151E+00 
    1.7807954824669261E+00 
    1.7544803696676607E+00 
    1.7308523391854096E+00 
    1.7117388258081327E+00 
    1.7019266293882149E+00 
    2.0152810293830221E+00 
    2.0088417142270014E+00 
    1.9963102438848048E+00 
    1.9785105926549491E+00 
    1.9563123307963246E+00 
    1.9306539035468955E+00 
    1.9020287042853981E+00 
    1.8707842046614127E+00 
    1.8378746980940668E+00 
    1.8043204864615825E+00 
    1.7710089960486697E+00 
    1.7388568635958368E+00 
    1.7089504810765785E+00 
    1.6819186880822805E+00 
    1.6599085279525816E+00 
    1.6485168481304666E+00 
    1.9841248609647630E+00 
    1.9780893283115375E+00 
    1.9661102665963421E+00 
    1.9487692401126628E+00 
    1.9266606415737273E+00 
    1.9004940789868630E+00 
    1.8707937463989377E+00 
    1.8378777653760798E+00 
    1.8024534945443249E+00 
    1.7654405239745437E+00 
    1.7278704724039846E+00 
    1.6908893467816923E+00 
    1.6558662314017225E+00 
    1.6238966754667608E+00 
    1.5976075785623098E+00 
    1.5838526781139783E+00 
    1.9559672592960964E+00 
    1.9499227878186867E+00 
    1.9380017163589633E+00 
    1.9206248607129739E+00 
    1.8981027605872514E+00 
    1.8710091189613054E+00 
    1.8397004686209260E+00 
    1.8043248702241792E+00 
    1.7654450332672855E+00 
    1.7238926506516636E+00 
    1.6806788584171630E+00 
    1.6370596225995320E+00 
    1.5947567547016537E+00 
    1.5555283213035105E+00 
    1.5227661868885556E+00 
    1.5053319173526494E+00 
    1.9303287346344897E+00 
    1.9242697667786053E+00 
    1.9122691513448984E+00 
    1.8945434517215709E+00 
    1.8713073583395168E+00 
    1.8429237301834707E+00 
    1.8094959624958618E+00 
    1.7710158309159656E+00 
    1.7278807355737900E+00 
    1.6806869689210329E+00 
    1.6302083199125224E+00 
    1.5776889706016557E+00 
    1.5251517851725092E+00 
    1.4751552165247854E+00 
    1.4323544326537980E+00 
    1.4088307173058587E+00 
    1.9075884589812404E+00 
    1.9014403592654558E+00 
    1.8891827785273458E+00 
    1.8709073681493369E+00 
    1.8467145482736869E+00 
    1.8167112119436486E+00 
    1.7808112256719912E+00 
    1.7388760849190730E+00 
    1.6909094808487122E+00 
    1.6370763274956435E+00 
    1.5776969480444090E+00 
    1.5137205569690237E+00 
    1.4470557838887348E+00 
    1.3809501736532837E+00 
    1.3218959015874001E+00 
    1.2871749331924862E+00 
    1.8877622027546330E+00 
    1.8814590040126251E+00 
    1.8688502437417702E+00 
    1.8499278767483152E+00 
    1.8246572183208765E+00 
    1.7929424863308714E+00 
    1.7545117302663533E+00 
    1.7089828848810245E+00 
    1.6558969233788690E+00 
    1.5947822182661846E+00 
    1.5251676196445063E+00 
    1.4470630796960402E+00 
    1.3614101132719101E+00 
    1.2712189833180572E+00 
    1.1846769244724811E+00 
    1.1271781902565039E+00 
    1.8705334813292414E+00 
    1.8640265149775919E+00 
    1.8509989642980413E+00 
    1.8313805680946598E+00 
    1.8050313493323498E+00 
    1.7716913033628359E+00 
    1.7308910889915048E+00 
    1.6819573502554077E+00 
    1.6239321478539503E+00 
    1.5555574142823794E+00 
    1.4751740083372298E+00 
    1.3809596824453365E+00 
    1.2712209194325905E+00 
    1.1460092918673186E+00 
    1.0121042045589974E+00 
    9.0486741254681269E-01 
    1.8567660613595685E+00 
    1.8500882783269657E+00 
    1.8367123029403229E+00 
    1.8165235573637908E+00 
    1.7892834116857748E+00 
    1.7545848390182148E+00 
    1.7117865445811649E+00 
    1.6599544162636191E+00 
    1.5976485858027758E+00 
    1.5227995672869625E+00 
    1.4323758692811119E+00 
    1.3219064324176883E+00 
    1.1846781826558594E+00 
    1.0121003917324469E+00 
    7.9763405510815732E-01 
    5.7087982322015884E-01 
    1.8497419095765382E+00 
    1.8429934677143123E+00 
    1.8294575408034013E+00 
    1.8089839999892872E+00 
    1.7812749925448006E+00 
    1.7458505432326106E+00 
    1.7019734674223941E+00 
    1.6485612014560329E+00 
    1.5838921127532606E+00 
    1.5053650148231401E+00 
    1.4088539774834978E+00 
    1.2871906594667450E+00 
    1.1271876643789365E+00 
    9.0486923789143536E-01 
    5.7087707949122479E-01 
    0.0000000000000000E+00 

SCALARS Saturarion double 1 
LOOKUP_TABLE default 

    1.0000000000000000E+00 
    9.4241797103136438E-01 
    8.9431614316046359E-01 
    8.4559044037669939E-01 
    9.6977592012046399E-01 
    7.9435216617594917E-01 
    7.2663576838440658E-01 
    6.7503758160908534E-01 
    6.5514746905554766E-01 
    5.9713625280630578E-01 
    5.4689727420551348E-01 
    4.9458064615449787E-01 
    4.2897284833617155E-01 
    3.2501304579065621E-01 
    1.3048534795970543E-01 
    5.2378672624935783E-03 
    9.4240601475739050E-01 
    9.0523726196965526E-01 
    8.6334834824172124E-01 
    8.1986519443310790E-01 
    7.8576004477779027E-01 
    7.4282902915648430E-01 
    6.9965305501455366E-01 
    6.5830716646622933E-01 
    6.2011245872022924E-01 
    5.7982567599289447E-01 
    5.3693270421930794E-01 
    4.8839305755002627E-01 
    4.2463564562266487E-01 
    3.2021201591216192E-01 
    1.2329243454078605E-01 
    4.3297202747404721E-03 
    8.9426225804850035E-01 
    8.6332488945279529E-01 
    8.2718923784143239E-01 
    7.8921237986240556E-01 
    7.5276509260377122E-01 
    7.1582158904940485E-01 
    6.7886289444366166E-01 
    6.4241337060659531E-01 
    6.0627949052297325E-01 
    5.6905514759150744E-01 
    5.2896015426091836E-01 
    4.8262690516502843E-01 
    4.2042336462084839E-01 
    3.1523106854716981E-01 
    1.1603686262590784E-01 
    3.5908616680871788E-03 
    8.4543981831685822E-01 
    8.1983555446284118E-01 
    7.8923949955444261E-01 
    7.5691769188660452E-01 
    7.2449435127298401E-01 
    6.9195663086870052E-01 
    6.5930024885555882E-01 
    6.2666083264820205E-01 
    5.9364536047857497E-01 
    5.5919424439749144E-01 
    5.2159236671734732E-01 
    4.7716016834012642E-01 
    4.1667107928656988E-01 
    3.1017935765710292E-01 
    1.0924294008221348E-01 
    3.0133962849318774E-03 
    9.4153370842575457E-01 
    7.8483979134443094E-01 
    7.5260528560577078E-01 
    7.2445767446886955E-01 
    6.9657426751939533E-01 
    6.6839610064082167E-01 
    6.3960748913167798E-01 
    6.1060162226924175E-01 
    5.8090608544915079E-01 
    5.4965718888031367E-01 
    5.1480307067271736E-01 
    4.7302155971643173E-01 
    4.1403577699443633E-01 
    3.1016198208791806E-01 
    1.1191084071327767E-01 
    3.3974540570707421E-03 
    7.8933917348671756E-01 
    7.4170209825515054E-01 
    7.1552624047836511E-01 
    6.9186710849231392E-01 
    6.6836715203194486E-01 
    6.8410563803676394E-01 
    6.3171546697303449E-01 
    5.9859038002880915E-01 
    5.6946931120935917E-01 
    5.5244623686849725E-01 
    5.1169406840513376E-01 
    4.7001538923426683E-01 
    4.1256405477644131E-01 
    3.1035713964251327E-01 
    1.1308124553435324E-01 
    3.4374737637096102E-03 
    7.2394113533336657E-01 
    6.9872918817269380E-01 
    6.7853949869980734E-01 
    6.5917764314617422E-01 
    6.3955510818810568E-01 
    6.3170190300548401E-01 
    6.0708732920436914E-01 
    5.8166919871977663E-01 
    5.5645808161173616E-01 
    5.3442497076711692E-01 
    5.0385558837067757E-01 
    4.6623692257032878E-01 
    4.1187787741275556E-01 
    3.1194791169242742E-01 
    1.1674312247200408E-01 
    3.8345496787926775E-03 
    6.7339113965766717E-01 
    6.5759061715883393E-01 
    6.4210538989174271E-01 
    6.2651874130991336E-01 
    6.1052847863892024E-01 
    5.9855494372830531E-01 
    5.8165344104457251E-01 
    5.6245891071388343E-01 
    5.4190415308371331E-01 
    5.2115861445380918E-01 
    4.9553014799451189E-01 
    4.6209642037978788E-01 
    4.1196078326030872E-01 
    3.1527625852948626E-01 
    1.2478586931509859E-01 
    4.8622067241481408E-03 
    6.4711805976901604E-01 
    6.1901909317548554E-01 
    6.0591325173598665E-01 
    5.9347427487859727E-01 
    5.8080649012944319E-01 
    5.6940692310142238E-01 
    5.5642274615363074E-01 
    5.4188817911005505E-01 
    5.2586982712870323E-01 
    5.0840821832580874E-01 
    4.8705887867061520E-01 
    4.5837331057341252E-01 
    4.1308015085463068E-01 
    3.2402222266102554E-01 
    1.4525443031579180E-01 
    8.5675395357633979E-03 
    5.9339383141931712E-01 
    5.7882616620746885E-01 
    5.6866939728480770E-01 
    5.5900153839165212E-01 
    5.4953309931912675E-01 
    5.5108679518033743E-01 
    5.3396121381380024E-01 
    5.2097319935452580E-01 
    5.0833305495058756E-01 
    4.9746658388622395E-01 
    4.7849585402466743E-01 
    4.5422152583684505E-01 
    4.1489007525070909E-01 
    3.3482671193116614E-01 
    1.7047715592230128E-01 
    1.5070982428843005E-02 
    5.4485187707540417E-01 
    5.3613075291687129E-01 
    5.2858348802402988E-01 
    5.2138274971970411E-01 
    5.1466547002226426E-01 
    5.1122887778623616E-01 
    5.0350673534308710E-01 
    4.9531207026669455E-01 
    4.8693350511257455E-01 
    4.7843990193404934E-01 
    4.6605454542627045E-01 
    4.4790125543746651E-01 
    4.1615125782501811E-01 
    3.4753849549650684E-01 
    2.0095722829078094E-01 
    2.8413161978104298E-02 
    4.9334716311714577E-01 
    4.8774061082428333E-01 
    4.8224821957078562E-01 
    4.7691647141699339E-01 
    4.7285231562902785E-01 
    4.6977339418505959E-01 
    4.6599487363113451E-01 
    4.6189645753440350E-01 
    4.5822587801417841E-01 
    4.5412493998446835E-01 
    4.4785312243017228E-01 
    4.3692241982714691E-01 
    4.1446013740776555E-01 
    3.6020172377215087E-01 
    2.3521608398175281E-01 
    5.4805998918923952E-02 
    4.2806070626852372E-01 
    4.2400856453645763E-01 
    4.1997702976607509E-01 
    4.1633695852462871E-01 
    4.1377376569151625E-01 
    4.1231450552264154E-01 
    4.1163609561558479E-01 
    4.1174078968409511E-01 
    4.1289280688239421E-01 
    4.1474185524111312E-01 
    4.1604607855862374E-01 
    4.1440231529866250E-01 
    4.0402059196148354E-01 
    3.6818309238858776E-01 
    2.7040794214522917E-01 
    1.0051799592123319E-01 
    3.2390524558903716E-01 
    3.1930013234519455E-01 
    3.1448570376807644E-01 
    3.0955659278164338E-01 
    3.0962009934790063E-01 
    3.0987505352766020E-01 
    3.1151336744713626E-01 
    3.1488589474823087E-01 
    3.2368118098548349E-01 
    3.3454069856362006E-01 
    3.4731174047932811E-01 
    3.6003654699235899E-01 
    3.6808973668656120E-01 
    3.5768384336742842E-01 
    2.9609529484294933E-01 
    1.5662797175339191E-01 
    1.2888814045990529E-01 
    1.2204183084316941E-01 
    1.1507098291656345E-01 
    1.0847605902867272E-01 
    1.1111990726425509E-01 
    1.1240534648993356E-01 
    1.1617100463654159E-01 
    1.2428373445458916E-01 
    1.4477165891319749E-01 
    1.7005636984072828E-01 
    2.0061230424199708E-01 
    2.3494408780590273E-01 
    2.7021538801775802E-01 
    2.9598858113920312E-01 
    2.8625712952970050E-01 
    2.0032138909807204E-01 
    5.0034987475018481E-03 
    4.1950006418642275E-03 
    3.5060831172397488E-03 
    2.9553557686199301E-03 
    3.3043381899974284E-03 
    3.3743901566092699E-03 
    3.7815900867114332E-03 
    4.8081261408910508E-03 
    8.4634009671604171E-03 
    1.4957142368666057E-02 
    2.8275418248052794E-02 
    5.4640053068780794E-02 
    1.0036528276419822E-01 
    1.5651708215235569E-01 
    2.0026994419239980E-01 
    1.9186436061049103E-01 
