# vtk DataFile Version 2.0
Pressure Field Data 
ASCII 
DATASET UNSTRUCTURED_GRID 

POINTS 289 double 

    0.0000000000000000E+00     0.0000000000000000E+00     0.0000000000000000E+00 
    1.0000000000000000E+00     0.0000000000000000E+00     0.0000000000000000E+00 
    1.0000000000000000E+00     1.0000000000000000E+00     0.0000000000000000E+00 
    0.0000000000000000E+00     1.0000000000000000E+00     0.0000000000000000E+00 
    6.2499999999872928E-02     0.0000000000000000E+00     0.0000000000000000E+00 
    1.2499999999977310E-01     0.0000000000000000E+00     0.0000000000000000E+00 
    1.8749999999959341E-01     0.0000000000000000E+00     0.0000000000000000E+00 
    2.4999999999941089E-01     0.0000000000000000E+00     0.0000000000000000E+00 
    3.1249999999922851E-01     0.0000000000000000E+00     0.0000000000000000E+00 
    3.7499999999904610E-01     0.0000000000000000E+00     0.0000000000000000E+00 
    4.3749999999886358E-01     0.0000000000000000E+00     0.0000000000000000E+00 
    4.9999999999869210E-01     0.0000000000000000E+00     0.0000000000000000E+00 
    5.6249999999884603E-01     0.0000000000000000E+00     0.0000000000000000E+00 
    6.2499999999901090E-01     0.0000000000000000E+00     0.0000000000000000E+00 
    6.8749999999917577E-01     0.0000000000000000E+00     0.0000000000000000E+00 
    7.4999999999934064E-01     0.0000000000000000E+00     0.0000000000000000E+00 
    8.1249999999950551E-01     0.0000000000000000E+00     0.0000000000000000E+00 
    8.7499999999967026E-01     0.0000000000000000E+00     0.0000000000000000E+00 
    9.3749999999983513E-01     0.0000000000000000E+00     0.0000000000000000E+00 
    1.0000000000000000E+00     6.2499999999872928E-02     0.0000000000000000E+00 
    1.0000000000000000E+00     1.2499999999977310E-01     0.0000000000000000E+00 
    1.0000000000000000E+00     1.8749999999959341E-01     0.0000000000000000E+00 
    1.0000000000000000E+00     2.4999999999941089E-01     0.0000000000000000E+00 
    1.0000000000000000E+00     3.1249999999922851E-01     0.0000000000000000E+00 
    1.0000000000000000E+00     3.7499999999904610E-01     0.0000000000000000E+00 
    1.0000000000000000E+00     4.3749999999886358E-01     0.0000000000000000E+00 
    1.0000000000000000E+00     4.9999999999869210E-01     0.0000000000000000E+00 
    1.0000000000000000E+00     5.6249999999884603E-01     0.0000000000000000E+00 
    1.0000000000000000E+00     6.2499999999901090E-01     0.0000000000000000E+00 
    1.0000000000000000E+00     6.8749999999917577E-01     0.0000000000000000E+00 
    1.0000000000000000E+00     7.4999999999934064E-01     0.0000000000000000E+00 
    1.0000000000000000E+00     8.1249999999950551E-01     0.0000000000000000E+00 
    1.0000000000000000E+00     8.7499999999967026E-01     0.0000000000000000E+00 
    1.0000000000000000E+00     9.3749999999983513E-01     0.0000000000000000E+00 
    9.3749999999973976E-01     1.0000000000000000E+00     0.0000000000000000E+00 
    8.7499999999950118E-01     1.0000000000000000E+00     0.0000000000000000E+00 
    8.1249999999991318E-01     1.0000000000000000E+00     0.0000000000000000E+00 
    7.5000000000034706E-01     1.0000000000000000E+00     0.0000000000000000E+00 
    6.8750000000078049E-01     1.0000000000000000E+00     0.0000000000000000E+00 
    6.2500000000121403E-01     1.0000000000000000E+00     0.0000000000000000E+00 
    5.6250000000164757E-01     1.0000000000000000E+00     0.0000000000000000E+00 
    5.0000000000205946E-01     1.0000000000000000E+00     0.0000000000000000E+00 
    4.3750000000182099E-01     1.0000000000000000E+00     0.0000000000000000E+00 
    3.7500000000156092E-01     1.0000000000000000E+00     0.0000000000000000E+00 
    3.1250000000130068E-01     1.0000000000000000E+00     0.0000000000000000E+00 
    2.5000000000104050E-01     1.0000000000000000E+00     0.0000000000000000E+00 
    1.8750000000078040E-01     1.0000000000000000E+00     0.0000000000000000E+00 
    1.2500000000052031E-01     1.0000000000000000E+00     0.0000000000000000E+00 
    6.2500000000260125E-02     1.0000000000000000E+00     0.0000000000000000E+00 
    0.0000000000000000E+00     9.3749999999973976E-01     0.0000000000000000E+00 
    0.0000000000000000E+00     8.7499999999950118E-01     0.0000000000000000E+00 
    0.0000000000000000E+00     8.1249999999991318E-01     0.0000000000000000E+00 
    0.0000000000000000E+00     7.5000000000034706E-01     0.0000000000000000E+00 
    0.0000000000000000E+00     6.8750000000078049E-01     0.0000000000000000E+00 
    0.0000000000000000E+00     6.2500000000121403E-01     0.0000000000000000E+00 
    0.0000000000000000E+00     5.6250000000164757E-01     0.0000000000000000E+00 
    0.0000000000000000E+00     5.0000000000205946E-01     0.0000000000000000E+00 
    0.0000000000000000E+00     4.3750000000182099E-01     0.0000000000000000E+00 
    0.0000000000000000E+00     3.7500000000156092E-01     0.0000000000000000E+00 
    0.0000000000000000E+00     3.1250000000130068E-01     0.0000000000000000E+00 
    0.0000000000000000E+00     2.5000000000104050E-01     0.0000000000000000E+00 
    0.0000000000000000E+00     1.8750000000078040E-01     0.0000000000000000E+00 
    0.0000000000000000E+00     1.2500000000052031E-01     0.0000000000000000E+00 
    0.0000000000000000E+00     6.2500000000260125E-02     0.0000000000000000E+00 
    6.2499999999897131E-02     6.2500000000235922E-02     0.0000000000000000E+00 
    6.2499999999921327E-02     1.2500000000047351E-01     0.0000000000000000E+00 
    6.2499999999945530E-02     1.8750000000070621E-01     0.0000000000000000E+00 
    6.2499999999969733E-02     2.5000000000093858E-01     0.0000000000000000E+00 
    6.2499999999993928E-02     3.1250000000117117E-01     0.0000000000000000E+00 
    6.2500000000018124E-02     3.7500000000140382E-01     0.0000000000000000E+00 
    6.2500000000042327E-02     4.3750000000163619E-01     0.0000000000000000E+00 
    6.2500000000066530E-02     5.0000000000184897E-01     0.0000000000000000E+00 
    6.2500000000090733E-02     5.6250000000147260E-01     0.0000000000000000E+00 
    6.2500000000114922E-02     6.2500000000107636E-01     0.0000000000000000E+00 
    6.2500000000139125E-02     6.8750000000068034E-01     0.0000000000000000E+00 
    6.2500000000163328E-02     7.5000000000028411E-01     0.0000000000000000E+00 
    6.2500000000187531E-02     8.1249999999988787E-01     0.0000000000000000E+00 
    6.2500000000211720E-02     8.7499999999951172E-01     0.0000000000000000E+00 
    6.2500000000235922E-02     9.3749999999974565E-01     0.0000000000000000E+00 
    1.2499999999981980E-01     6.2500000000211733E-02     0.0000000000000000E+00 
    1.2499999999986650E-01     1.2500000000042691E-01     0.0000000000000000E+00 
    1.2499999999991319E-01     1.8750000000063199E-01     0.0000000000000000E+00 
    1.2499999999995989E-01     2.5000000000083678E-01     0.0000000000000000E+00 
    1.2500000000000661E-01     3.1250000000104172E-01     0.0000000000000000E+00 
    1.2500000000005329E-01     3.7500000000124661E-01     0.0000000000000000E+00 
    1.2500000000010000E-01     4.3750000000145117E-01     0.0000000000000000E+00 
    1.2500000000014669E-01     5.0000000000163858E-01     0.0000000000000000E+00 
    1.2500000000019340E-01     5.6250000000129741E-01     0.0000000000000000E+00 
    1.2500000000024011E-01     6.2500000000093847E-01     0.0000000000000000E+00 
    1.2500000000028680E-01     6.8750000000057998E-01     0.0000000000000000E+00 
    1.2500000000033351E-01     7.5000000000022127E-01     0.0000000000000000E+00 
    1.2500000000038020E-01     8.1249999999986211E-01     0.0000000000000000E+00 
    1.2500000000042691E-01     8.7499999999952238E-01     0.0000000000000000E+00 
    1.2500000000047359E-01     9.3749999999975164E-01     0.0000000000000000E+00 
    1.8749999999966760E-01     6.2500000000187531E-02     0.0000000000000000E+00 
    1.8749999999974179E-01     1.2500000000038020E-01     0.0000000000000000E+00 
    1.8749999999981601E-01     1.8750000000055780E-01     0.0000000000000000E+00 
    1.8749999999989009E-01     2.5000000000073502E-01     0.0000000000000000E+00 
    1.8749999999996431E-01     3.1250000000091221E-01     0.0000000000000000E+00 
    1.8750000000003850E-01     3.7500000000108941E-01     0.0000000000000000E+00 
    1.8750000000011269E-01     4.3750000000126649E-01     0.0000000000000000E+00 
    1.8750000000018691E-01     5.0000000000142808E-01     0.0000000000000000E+00 
    1.8750000000026110E-01     5.6250000000112244E-01     0.0000000000000000E+00 
    1.8750000000033529E-01     6.2500000000080080E-01     0.0000000000000000E+00 
    1.8750000000040951E-01     6.8750000000047962E-01     0.0000000000000000E+00 
    1.8750000000048361E-01     7.5000000000015843E-01     0.0000000000000000E+00 
    1.8750000000055780E-01     8.1249999999983680E-01     0.0000000000000000E+00 
    1.8750000000063199E-01     8.7499999999953304E-01     0.0000000000000000E+00 
    1.8750000000070621E-01     9.3749999999975764E-01     0.0000000000000000E+00 
    2.4999999999951281E-01     6.2500000000163314E-02     0.0000000000000000E+00 
    2.4999999999961461E-01     1.2500000000033351E-01     0.0000000000000000E+00 
    2.4999999999971650E-01     1.8750000000048361E-01     0.0000000000000000E+00 
    2.4999999999981831E-01     2.5000000000063310E-01     0.0000000000000000E+00 
    2.4999999999992020E-01     3.1250000000078260E-01     0.0000000000000000E+00 
    2.5000000000002198E-01     3.7500000000093209E-01     0.0000000000000000E+00 
    2.5000000000012390E-01     4.3750000000108180E-01     0.0000000000000000E+00 
    2.5000000000022571E-01     5.0000000000121769E-01     0.0000000000000000E+00 
    2.5000000000032763E-01     5.6250000000094724E-01     0.0000000000000000E+00 
    2.5000000000042938E-01     6.2500000000066314E-01     0.0000000000000000E+00 
    2.5000000000053119E-01     6.8750000000037925E-01     0.0000000000000000E+00 
[...]
CELL_DATA 256 
SCALARS Pressure double 1 
LOOKUP_TABLE default 

    2.7528606362420658E+00 
    2.6277242964472891E+00 
    2.5275931695423934E+00 
    2.4401207806227045E+00 
    2.3585949302754861E+00 
    2.2789188258564637E+00 
    2.1973777263326211E+00 
    2.1103527918914513E+00 
    2.0291649124561775E+00 
    1.9650367505321462E+00 
    1.9128038927629507E+00 
    1.8697819149470947E+00 
    1.8355742433977322E+00 
    1.8099908900009545E+00 
    1.7929553285998157E+00 
    1.7844463669158663E+00 
    2.6277488340869479E+00 
    2.5676654255427600E+00 
    2.4928695533004159E+00 
    2.4165362874331979E+00 
    2.3402502059136645E+00 
    2.2629207542346035E+00 
    2.1818022220890585E+00 
    2.0953736204861402E+00 
    2.0172975092444418E+00 
    1.9551821113658117E+00 
    1.9036336034413459E+00 
    1.8609923009893461E+00 
    1.8269710256287506E+00 
    1.8014600638280527E+00 
    1.7844417565401396E+00 
    1.7759380541914072E+00 
    2.5276539357184289E+00 
    2.4929020635669770E+00 
    2.4385238473211870E+00 
    2.3747272918590872E+00 
    2.3055193504974594E+00 
    2.2315814305391282E+00 
    2.1507912491337735E+00 
    2.0672856025642807E+00 
    1.9951571473905840E+00 
    1.9359393953548254E+00 
    1.8856110065977354E+00 
    1.8436253937962157E+00 
    1.8099005706445950E+00 
    1.7844793871191831E+00 
    1.7674581853273417E+00 
    1.7589385287050165E+00 
    2.4402228455544295E+00 
    2.4165996159569643E+00 
    2.3747556353751005E+00 
    2.3205798899705719E+00 
    2.2575394234063828E+00 
    2.1858802911947692E+00 
    2.1063560632998004E+00 
    2.0298432575010654E+00 
    1.9645161541996685E+00 
    1.9081566164194370E+00 
    1.8592986797253765E+00 
    1.8180384357637955E+00 
    1.7845679292473053E+00 
    1.7591427215128290E+00 
    1.7420235807352806E+00 
    1.7334281127814877E+00 
    2.3586946099285742E+00 
    2.3403191216980592E+00 
    2.3055645753699521E+00 
    2.2575611115821919E+00 
    2.1978195269869989E+00 
    2.1273847943187287E+00 
    2.0537598837488282E+00 
    1.9865593506532415E+00 
    1.9267425969880860E+00 
    1.8729408781191663E+00 
    1.8254356778511081E+00 
    1.7846970872074792E+00 
    1.7512286713996028E+00 
    1.7255461444148918E+00 
    1.7081235223051490E+00 
    1.6993342169665020E+00 
    2.2789844225931133E+00 
    2.2629809044550804E+00 
    2.2316348703707800E+00 
    2.1859183892633673E+00 
    2.1274048851056775E+00 
    2.0623497887320568E+00 
    1.9987801142517887E+00 
    1.9391602607226754E+00 
    1.8832024384890595E+00 
    1.8314774579666582E+00 
    1.7848376866561120E+00 
    1.7441135409509225E+00 
    1.7101364026218742E+00 
    1.6837316855036035E+00 
    1.6656477946267803E+00 
    1.6564674740163952E+00 
    2.1974491314351821E+00 
    2.1818716546452470E+00 
    2.1508571991889043E+00 
    2.1064122331979793E+00 
    2.0538009523956213E+00 
    1.9988022825183305E+00 
    1.9435608590070710E+00 
    1.8887655161472940E+00 
    1.8354827968934668E+00 
    1.7849566902791822E+00 
    1.7383511547362469E+00 
    1.6968031784518667E+00 
    1.6614971031478791E+00 
    1.6336250151649170E+00 
    1.6142990492183651E+00 
    1.6044070655977136E+00 
    2.1104486720874935E+00 
    2.0954705153549105E+00 
    2.0673810932248133E+00 
    2.0299296333000751E+00 
    1.9866291500560473E+00 
    1.9392097874545668E+00 
    1.8887920375944711E+00 
    1.8369123932014741E+00 
    1.7850518428942641E+00 
    1.7345783560299668E+00 
    1.6868534065796346E+00 
    1.6433027299030512E+00 
    1.6054737265166714E+00 
    1.5750211468643813E+00 
    1.5535656037205710E+00 
    1.5424595403967518E+00 
    2.0293121920565675E+00 
    2.0174430050212702E+00 
    1.9952944545197837E+00 
    1.9646381487878934E+00 
    1.9268442716854979E+00 
    1.8832821816195071E+00 
    1.8355402830663257E+00 
    1.7850826852039052E+00 
    1.7332791107381518E+00 
    1.6815021049847445E+00 
    1.6312249833409374E+00 
    1.5841020907057903E+00 
    1.5420895596870685E+00 
    1.5074365845183699E+00 
    1.4825083439619580E+00 
    1.4694083414764412E+00 
    1.9652357171085768E+00 
    1.9553728624594127E+00 
    1.9361165700370422E+00 
    1.9083154736601111E+00 
    1.8730779084579563E+00 
    1.8315913705257620E+00 
    1.7850493562112413E+00 
    1.7346436154350933E+00 
    1.6815360459311175E+00 
    1.6269897300326572E+00 
    1.5724667188461172E+00 
    1.5197930557723458E+00 
    1.4713415487071257E+00 
    1.4301250071459706E+00 
    1.3996324538671707E+00 
    1.3832628219231260E+00 
    1.9130423952996161E+00 
    1.9038636059163558E+00 
    1.8858271448249608E+00 
    1.8594964809797394E+00 
    1.8256119620726219E+00 
    1.7849906568113385E+00 
    1.7384797583248859E+00 
    1.6869543061846191E+00 
    1.6312951787108476E+00 
    1.5725031821599131E+00 
    1.5118640857855312E+00 
    1.4512397504949199E+00 
    1.3933374294750824E+00 
    1.3420651641131915E+00 
    1.3026046532563389E+00 
    1.2807299750726242E+00 
    1.8700550954147976E+00 
    1.8612574712130023E+00 
    1.8438770427028139E+00 
    1.8182718113459739E+00 
    1.7849086247893504E+00 
    1.7443010626305537E+00 
    1.6969655537915314E+00 
    1.6434371956053775E+00 
    1.5842054900523992E+00 
    1.5198624483104810E+00 
    1.4512734659752209E+00 
    1.3800101777578424E+00 
    1.3087610862291654E+00 
    1.2422546619962680E+00 
    1.1880531512700976E+00 
    1.1563546457980034E+00 
    1.8358749419766371E+00 
    1.8272641845978415E+00 
    1.8101805738681809E+00 
    1.7848298806214509E+00 
    1.7514689063903031E+00 
    1.7103526389111867E+00 
    1.6616882093080083E+00 
    1.6056368428414403E+00 
    1.5422215898745026E+00 
    1.4714397344660006E+00 
    1.3934001426136202E+00 
    1.3087902110738978E+00 
    1.2194699678108207E+00 
    1.1301642818302893E+00 
    1.0510335194197080E+00 
    1.0002950540153144E+00 
    1.8103096854945411E+00 
    1.8017717855732622E+00 
    1.7847784246415985E+00 
    1.7594242499666226E+00 
    1.7258065693608537E+00 
    1.6839686482976461E+00 
    1.6338371151597599E+00 
    1.5752052820368461E+00 
    1.5075897090864043E+00 
    1.4302444563760439E+00 
    1.3421495592060937E+00 
    1.2423060329315212E+00 
    1.1301869169204581E+00 
    1.0079149884042848E+00 
    8.8564738557032774E-01 
    7.9350628713902205E-01 
    1.7932808588488669E+00 
    1.7847607213514627E+00 
    1.7677651292684062E+00 
    1.7423138611785158E+00 
    1.7083935707543951E+00 
    1.6658950747229027E+00 
    1.6145217246840768E+00 
    1.5537604539380623E+00 
    1.4826724898134738E+00 
    1.3997632564051263E+00 
    1.3027012891054068E+00 
    1.1881179230498611E+00 
    1.0510705175864128E+00 
    8.8566235157199658E-01 
    6.9012804769932801E-01 
    4.9456211602649797E-01 
    1.7847659946884920E+00 
    1.7762517164342613E+00 
    1.7592409832285594E+00 
    1.7337148592012162E+00 
    1.6996016277703392E+00 
    1.6567128339189656E+00 
    1.6046278917651349E+00 
    1.5426527874368254E+00 
    1.4695713927823015E+00 
    1.3833931117955227E+00 
    1.2808278716933366E+00 
    1.1564226057953719E+00 
    1.0003369478524429E+00 
    7.9352752290262518E-01 
    4.9456919759706519E-01 
    0.0000000000000000E+00 

SCALARS Saturarion double 1 
LOOKUP_TABLE default 

    1.0000000000000000E+00 
    8.3977350711250753E-01 
    7.4034970519265531E-01 
    6.5480730017429312E-01 
    5.8243640233277549E-01 
    5.0553008647307429E-01 
    4.2171396434033226E-01 
    2.9809778798720737E-01 
    8.6794169285135864E-02 
    1.3139444143764351E-03 
    1.7152481273381397E-08 
    6.5776731682934175E-21 
    2.6792081871820390E-52 
   1.0679576812157823E-131 
    0.0000000000000000E+00 
    0.0000000000000000E+00 
    8.3976868736529842E-01 
    7.6210193321796593E-01 
    6.8634895167995547E-01 
    6.1559170030797294E-01 
    5.4761703605177448E-01 
    4.7776945942973398E-01 
    3.9315487768999918E-01 
    2.4639338035218283E-01 
    3.8550184921345931E-02 
    1.1163607411018008E-04 
    2.2423095493969451E-11 
    1.2288327721775759E-28 
    4.2985149673004415E-73 
   5.5536979293726271E-188 
    0.0000000000000000E+00 
    0.0000000000000000E+00 
    7.4033458976485766E-01 
    6.8634015383853419E-01 
    6.2743474972357249E-01 
    5.6875738913334495E-01 
    5.0802366569309287E-01 
    4.4047108088643849E-01 
    3.4531787979651740E-01 
    1.4657950559949895E-01 
    5.2862292258206017E-03 
    3.7413993370107748E-07 
    3.3973063028260644E-18 
    2.0391483865313102E-47 
   5.9482609442398399E-125 
    0.0000000000000000E+00 
    0.0000000000000000E+00 
    0.0000000000000000E+00 
    6.5477562131158618E-01 
    6.1557147287659453E-01 
    5.6874775339839168E-01 
    5.1849093139107516E-01 
    4.6197041092733854E-01 
    3.8944109158501611E-01 
    2.4975806520984428E-01 
    3.1492234770561151E-02 
    3.5781864623751903E-05 
    2.5099750622666230E-13 
    1.3053937510776847E-35 
    1.2587429124938395E-96 
   4.5941969773674871E-265 
    0.0000000000000000E+00 
    0.0000000000000000E+00 
    0.0000000000000000E+00 
    5.8160601749397334E-01 
    5.4751428455947571E-01 
    5.0799595295486943E-01 
    4.6195958237267382E-01 
    4.0279608768323033E-01 
    2.9944342473011432E-01 
    7.3397189613712041E-02 
    3.5354092219056600E-04 
    5.9993748994567443E-11 
    4.3159007908265380E-30 
    3.6812194575688860E-84 
   7.9734171215144943E-238 
    0.0000000000000000E+00 
    0.0000000000000000E+00 
    0.0000000000000000E+00 
    0.0000000000000000E+00 
    5.0515570710212521E-01 
    4.7766965081386736E-01 
    4.4042872405482048E-01 
    3.8941233784601526E-01 
    2.9941692296291345E-01 
    9.5243274940676734E-02 
    8.7103708110611105E-04 
    4.6720845841755163E-10 
    3.4350778560431408E-28 
    3.6871297388191446E-80 
   1.6410511604072673E-229 
    0.0000000000000000E+00 
    0.0000000000000000E+00 
    0.0000000000000000E+00 
    0.0000000000000000E+00 
    0.0000000000000000E+00 
    4.2148975793187116E-01 
    3.9304172624226230E-01 
    3.4523206859577027E-01 
    2.4965861127683708E-01 
    7.3339563001828714E-02 
    8.7034010429992356E-04 
    7.7717156182158048E-10 
    1.2495712149924329E-27 
    5.4990779867781917E-79 
   4.1354483217937818E-227 
    0.0000000000000000E+00 
    0.0000000000000000E+00 
    0.0000000000000000E+00 
    0.0000000000000000E+00 
    0.0000000000000000E+00 
    0.0000000000000000E+00 
    2.9784446716987140E-01 
    2.4617727899695602E-01 
    1.4640006195653030E-01 
    3.1433213219874898E-02 
    3.5259758793256809E-04 
    4.6595989713762905E-10 
    1.2474081460347203E-27 
    1.0023389505582991E-78 
   1.8177913669732173E-226 
    0.0000000000000000E+00 
    0.0000000000000000E+00 
    0.0000000000000000E+00 
    0.0000000000000000E+00 
    0.0000000000000000E+00 
    0.0000000000000000E+00 
    0.0000000000000000E+00 
    8.6535260052742091E-02 
    3.8426737462643225E-02 
    5.2650536531179196E-03 
    3.5592025217063925E-05 
    5.9584070151156710E-11 
    3.4123724308065078E-28 
    5.4719971906713636E-79 
   1.8128570404023235E-226 
    0.0000000000000000E+00 
    0.0000000000000000E+00 
    0.0000000000000000E+00 
    0.0000000000000000E+00 
    0.0000000000000000E+00 
    0.0000000000000000E+00 
    0.0000000000000000E+00 
    0.0000000000000000E+00 
    1.3044012623910969E-03 
    1.1072291167686600E-04 
    3.7041084692374225E-07 
    2.4772579605752547E-13 
    4.2455695326981256E-30 
    3.6309906524432716E-80 
   4.0887074023570237E-227 
    0.0000000000000000E+00 
    0.0000000000000000E+00 
    0.0000000000000000E+00 
    0.0000000000000000E+00 
    0.0000000000000000E+00 
    0.0000000000000000E+00 
    0.0000000000000000E+00 
    0.0000000000000000E+00 
    0.0000000000000000E+00 
    1.6864749042924144E-08 
    2.1996401385408655E-11 
    3.3167516155431546E-18 
    1.2648634765348428E-35 
    3.5449376287004254E-84 
   1.5865027804183722E-229 
    0.0000000000000000E+00 
    0.0000000000000000E+00 
    0.0000000000000000E+00 
    0.0000000000000000E+00 
    0.0000000000000000E+00 
    0.0000000000000000E+00 
    0.0000000000000000E+00 
    0.0000000000000000E+00 
    0.0000000000000000E+00 
    0.0000000000000000E+00 
    6.3274802829095969E-21 
    1.1755429312819623E-28 
    1.9271027044681400E-47 
    1.1678678089157095E-96 
   7.3229372990131769E-238 
    0.0000000000000000E+00 
    0.0000000000000000E+00 
    0.0000000000000000E+00 
    0.0000000000000000E+00 
    0.0000000000000000E+00 
    0.0000000000000000E+00 
    0.0000000000000000E+00 
    0.0000000000000000E+00 
    0.0000000000000000E+00 
    0.0000000000000000E+00 
    0.0000000000000000E+00 
    2.4545125384687139E-52 
    3.8838119565058195E-73 
   5.2039941532315802E-125 
   3.8549269449386736E-265 
    0.0000000000000000E+00 
    0.0000000000000000E+00 
    0.0000000000000000E+00 
    0.0000000000000000E+00 
    0.0000000000000000E+00 
    0.0000000000000000E+00 
    0.0000000000000000E+00 
    0.0000000000000000E+00 
    0.0000000000000000E+00 
    0.0000000000000000E+00 
    0.0000000000000000E+00 
    0.0000000000000000E+00 
   8.7798801725420992E-132 
   4.4084620266965569E-188 
    0.0000000000000000E+00 
    0.0000000000000000E+00 
    0.0000000000000000E+00 
    0.0000000000000000E+00 
    0.0000000000000000E+00 
    0.0000000000000000E+00 
    0.0000000000000000E+00 
    0.0000000000000000E+00 
    0.0000000000000000E+00 
    0.0000000000000000E+00 
    0.0000000000000000E+00 
    0.0000000000000000E+00 
    0.0000000000000000E+00 
    0.0000000000000000E+00 
    0.0000000000000000E+00 
    0.0000000000000000E+00 
    0.0000000000000000E+00 
    0.0000000000000000E+00 
    0.0000000000000000E+00 
    0.0000000000000000E+00 
    0.0000000000000000E+00 
    0.0000000000000000E+00 
    0.0000000000000000E+00 
    0.0000000000000000E+00 
    0.0000000000000000E+00 
    0.0000000000000000E+00 
    0.0000000000000000E+00 
    0.0000000000000000E+00 
    0.0000000000000000E+00 
    0.0000000000000000E+00 
    0.0000000000000000E+00 
    0.0000000000000000E+00 
    0.0000000000000000E+00 
    0.0000000000000000E+00 
    0.0000000000000000E+00 
    0.0000000000000000E+00 
    0.0000000000000000E+00 
    0.0000000000000000E+00 
    0.0000000000000000E+00 
    0.0000000000000000E+00 
    0.0000000000000000E+00 
    0.0000000000000000E+00 
    0.0000000000000000E+00 
    0.0000000000000000E+00 
    0.0000000000000000E+00 
    0.0000000000000000E+00 
