# vtk DataFile Version 2.0
Pressure Field Data 
ASCII 
DATASET UNSTRUCTURED_GRID 

POINTS 289 double 

    0.0000000000000000E+00     0.0000000000000000E+00     0.0000000000000000E+00 
    1.0000000000000000E+00     0.0000000000000000E+00     0.0000000000000000E+00 
    1.0000000000000000E+00     1.0000000000000000E+00     0.0000000000000000E+00 
    0.0000000000000000E+00     1.0000000000000000E+00     0.0000000000000000E+00 
    6.2499999999872928E-02     0.0000000000000000E+00     0.0000000000000000E+00 
    1.2499999999977310E-01     0.0000000000000000E+00     0.0000000000000000E+00 
    1.8749999999959341E-01     0.0000000000000000E+00     0.0000000000000000E+00 
    2.4999999999941089E-01     0.0000000000000000E+00     0.0000000000000000E+00 
    3.1249999999922851E-01     0.0000000000000000E+00     0.0000000000000000E+00 
    3.7499999999904610E-01     0.0000000000000000E+00     0.0000000000000000E+00 
    4.3749999999886358E-01     0.0000000000000000E+00     0.0000000000000000E+00 
    4.9999999999869210E-01     0.0000000000000000E+00     0.0000000000000000E+00 
    5.6249999999884603E-01     0.0000000000000000E+00     0.0000000000000000E+00 
    6.2499999999901090E-01     0.0000000000000000E+00     0.0000000000000000E+00 
    6.8749999999917577E-01     0.0000000000000000E+00     0.0000000000000000E+00 
    7.4999999999934064E-01     0.0000000000000000E+00     0.0000000000000000E+00 
    8.1249999999950551E-01     0.0000000000000000E+00     0.0000000000000000E+00 
    8.7499999999967026E-01     0.0000000000000000E+00     0.0000000000000000E+00 
    9.3749999999983513E-01     0.0000000000000000E+00     0.0000000000000000E+00 
    1.0000000000000000E+00     6.2499999999872928E-02     0.0000000000000000E+00 
    1.0000000000000000E+00     1.2499999999977310E-01     0.0000000000000000E+00 
    1.0000000000000000E+00     1.8749999999959341E-01     0.0000000000000000E+00 
    1.0000000000000000E+00     2.4999999999941089E-01     0.0000000000000000E+00 
    1.0000000000000000E+00     3.1249999999922851E-01     0.0000000000000000E+00 
    1.0000000000000000E+00     3.7499999999904610E-01     0.0000000000000000E+00 
    1.0000000000000000E+00     4.3749999999886358E-01     0.0000000000000000E+00 
    1.0000000000000000E+00     4.9999999999869210E-01     0.0000000000000000E+00 
    1.0000000000000000E+00     5.6249999999884603E-01     0.0000000000000000E+00 
    1.0000000000000000E+00     6.2499999999901090E-01     0.0000000000000000E+00 
    1.0000000000000000E+00     6.8749999999917577E-01     0.0000000000000000E+00 
    1.0000000000000000E+00     7.4999999999934064E-01     0.0000000000000000E+00 
    1.0000000000000000E+00     8.1249999999950551E-01     0.0000000000000000E+00 
    1.0000000000000000E+00     8.7499999999967026E-01     0.0000000000000000E+00 
    1.0000000000000000E+00     9.3749999999983513E-01     0.0000000000000000E+00 
    9.3749999999973976E-01     1.0000000000000000E+00     0.0000000000000000E+00 
    8.7499999999950118E-01     1.0000000000000000E+00     0.0000000000000000E+00 
    8.1249999999991318E-01     1.0000000000000000E+00     0.0000000000000000E+00 
    7.5000000000034706E-01     1.0000000000000000E+00     0.0000000000000000E+00 
    6.8750000000078049E-01     1.0000000000000000E+00     0.0000000000000000E+00 
    6.2500000000121403E-01     1.0000000000000000E+00     0.0000000000000000E+00 
    5.6250000000164757E-01     1.0000000000000000E+00     0.0000000000000000E+00 
    5.0000000000205946E-01     1.0000000000000000E+00     0.0000000000000000E+00 
    4.3750000000182099E-01     1.0000000000000000E+00     0.0000000000000000E+00 
    3.7500000000156092E-01     1.0000000000000000E+00     0.0000000000000000E+00 
    3.1250000000130068E-01     1.0000000000000000E+00     0.0000000000000000E+00 
    2.5000000000104050E-01     1.0000000000000000E+00     0.0000000000000000E+00 
    1.8750000000078040E-01     1.0000000000000000E+00     0.0000000000000000E+00 
    1.2500000000052031E-01     1.0000000000000000E+00     0.0000000000000000E+00 
    6.2500000000260125E-02     1.0000000000000000E+00     0.0000000000000000E+00 
    0.0000000000000000E+00     9.3749999999973976E-01     0.0000000000000000E+00 
    0.0000000000000000E+00     8.7499999999950118E-01     0.0000000000000000E+00 
    0.0000000000000000E+00     8.1249999999991318E-01     0.0000000000000000E+00 
    0.0000000000000000E+00     7.5000000000034706E-01     0.0000000000000000E+00 
    0.0000000000000000E+00     6.8750000000078049E-01     0.0000000000000000E+00 
    0.0000000000000000E+00     6.2500000000121403E-01     0.0000000000000000E+00 
    0.0000000000000000E+00     5.6250000000164757E-01     0.0000000000000000E+00 
    0.0000000000000000E+00     5.0000000000205946E-01     0.0000000000000000E+00 
    0.0000000000000000E+00     4.3750000000182099E-01     0.0000000000000000E+00 
    0.0000000000000000E+00     3.7500000000156092E-01     0.0000000000000000E+00 
    0.0000000000000000E+00     3.1250000000130068E-01     0.0000000000000000E+00 
    0.0000000000000000E+00     2.5000000000104050E-01     0.0000000000000000E+00 
    0.0000000000000000E+00     1.8750000000078040E-01     0.0000000000000000E+00 
    0.0000000000000000E+00     1.2500000000052031E-01     0.0000000000000000E+00 
    0.0000000000000000E+00     6.2500000000260125E-02     0.0000000000000000E+00 
    6.2499999999897131E-02     6.2500000000235922E-02     0.0000000000000000E+00 
    6.2499999999921327E-02     1.2500000000047351E-01     0.0000000000000000E+00 
    6.2499999999945530E-02     1.8750000000070621E-01     0.0000000000000000E+00 
    6.2499999999969733E-02     2.5000000000093858E-01     0.0000000000000000E+00 
    6.2499999999993928E-02     3.1250000000117117E-01     0.0000000000000000E+00 
    6.2500000000018124E-02     3.7500000000140382E-01     0.0000000000000000E+00 
    6.2500000000042327E-02     4.3750000000163619E-01     0.0000000000000000E+00 
    6.2500000000066530E-02     5.0000000000184897E-01     0.0000000000000000E+00 
    6.2500000000090733E-02     5.6250000000147260E-01     0.0000000000000000E+00 
    6.2500000000114922E-02     6.2500000000107636E-01     0.0000000000000000E+00 
    6.2500000000139125E-02     6.8750000000068034E-01     0.0000000000000000E+00 
    6.2500000000163328E-02     7.5000000000028411E-01     0.0000000000000000E+00 
    6.2500000000187531E-02     8.1249999999988787E-01     0.0000000000000000E+00 
    6.2500000000211720E-02     8.7499999999951172E-01     0.0000000000000000E+00 
    6.2500000000235922E-02     9.3749999999974565E-01     0.0000000000000000E+00 
    1.2499999999981980E-01     6.2500000000211733E-02     0.0000000000000000E+00 
    1.2499999999986650E-01     1.2500000000042691E-01     0.0000000000000000E+00 
    1.2499999999991319E-01     1.8750000000063199E-01     0.0000000000000000E+00 
    1.2499999999995989E-01     2.5000000000083678E-01     0.0000000000000000E+00 
    1.2500000000000661E-01     3.1250000000104172E-01     0.0000000000000000E+00 
    1.2500000000005329E-01     3.7500000000124661E-01     0.0000000000000000E+00 
    1.2500000000010000E-01     4.3750000000145117E-01     0.0000000000000000E+00 
    1.2500000000014669E-01     5.0000000000163858E-01     0.0000000000000000E+00 
    1.2500000000019340E-01     5.6250000000129741E-01     0.0000000000000000E+00 
    1.2500000000024011E-01     6.2500000000093847E-01     0.0000000000000000E+00 
    1.2500000000028680E-01     6.8750000000057998E-01     0.0000000000000000E+00 
    1.2500000000033351E-01     7.5000000000022127E-01     0.0000000000000000E+00 
    1.2500000000038020E-01     8.1249999999986211E-01     0.0000000000000000E+00 
    1.2500000000042691E-01     8.7499999999952238E-01     0.0000000000000000E+00 
    1.2500000000047359E-01     9.3749999999975164E-01     0.0000000000000000E+00 
    1.8749999999966760E-01     6.2500000000187531E-02     0.0000000000000000E+00 
    1.8749999999974179E-01     1.2500000000038020E-01     0.0000000000000000E+00 
    1.8749999999981601E-01     1.8750000000055780E-01     0.0000000000000000E+00 
    1.8749999999989009E-01     2.5000000000073502E-01     0.0000000000000000E+00 
    1.8749999999996431E-01     3.1250000000091221E-01     0.0000000000000000E+00 
    1.8750000000003850E-01     3.7500000000108941E-01     0.0000000000000000E+00 
    1.8750000000011269E-01     4.3750000000126649E-01     0.0000000000000000E+00 
    1.8750000000018691E-01     5.0000000000142808E-01     0.0000000000000000E+00 
    1.8750000000026110E-01     5.6250000000112244E-01     0.0000000000000000E+00 
    1.8750000000033529E-01     6.2500000000080080E-01     0.0000000000000000E+00 
    1.8750000000040951E-01     6.8750000000047962E-01     0.0000000000000000E+00 
    1.8750000000048361E-01     7.5000000000015843E-01     0.0000000000000000E+00 
    1.8750000000055780E-01     8.1249999999983680E-01     0.0000000000000000E+00 
    1.8750000000063199E-01     8.7499999999953304E-01     0.0000000000000000E+00 
    1.8750000000070621E-01     9.3749999999975764E-01     0.0000000000000000E+00 
    2.4999999999951281E-01     6.2500000000163314E-02     0.0000000000000000E+00 
    2.4999999999961461E-01     1.2500000000033351E-01     0.0000000000000000E+00 
    2.4999999999971650E-01     1.8750000000048361E-01     0.0000000000000000E+00 
    2.4999999999981831E-01     2.5000000000063310E-01     0.0000000000000000E+00 
    2.4999999999992020E-01     3.1250000000078260E-01     0.0000000000000000E+00 
    2.5000000000002198E-01     3.7500000000093209E-01     0.0000000000000000E+00 
    2.5000000000012390E-01     4.3750000000108180E-01     0.0000000000000000E+00 
    2.5000000000022571E-01     5.0000000000121769E-01     0.0000000000000000E+00 
    2.5000000000032763E-01     5.6250000000094724E-01     0.0000000000000000E+00 
    2.5000000000042938E-01     6.2500000000066314E-01     0.0000000000000000E+00 
    2.5000000000053119E-01     6.8750000000037925E-01     0.0000000000000000E+00 
[...]
CELL_DATA 256 
SCALARS Pressure double 1 
LOOKUP_TABLE default 

    3.0751123210874960E+00 
    2.9221597828263244E+00 
    2.7586246700351382E+00 
    2.5848305010735815E+00 
    2.4185505229068163E+00 
    2.2895814830917507E+00 
    2.1869000185974787E+00 
    2.1004142573916837E+00 
    2.0269948840044694E+00 
    1.9647178693198477E+00 
    1.9123836842547257E+00 
    1.8692890748418889E+00 
    1.8350341506765206E+00 
    1.8094211182537356E+00 
    1.7923690023563599E+00 
    1.7838538335990650E+00 
    2.9221700013385381E+00 
    2.8329662771692825E+00 
    2.6945779507587417E+00 
    2.5342648049110434E+00 
    2.3861560983120418E+00 
    2.2684674045305684E+00 
    2.1708179225226232E+00 
    2.0874245552226935E+00 
    2.0159258229583417E+00 
    1.9548231924596242E+00 
    1.9031884137790085E+00 
    1.8604837517263713E+00 
    1.8264194384254997E+00 
    1.8008806002423794E+00 
    1.7838469486084294E+00 
    1.7753397294459601E+00 
    2.7586531371623599E+00 
    2.6945959565394224E+00 
    2.5806633167092046E+00 
    2.4496559266016242E+00 
    2.3312644011105390E+00 
    2.2295798726520424E+00 
    2.1405747083755848E+00 
    2.0626063638223124E+00 
    1.9945198788243148E+00 
    1.9355246184101591E+00 
    1.8851306939394727E+00 
    1.8430954310373289E+00 
    1.8093349748761609E+00 
    1.7838898889847337E+00 
    1.7668557753578125E+00 
    1.7583352611872956E+00 
    2.5848861249363004E+00 
    2.5343110979097845E+00 
    2.4496844275067700E+00 
    2.3557774717917668E+00 
    2.2642166515104396E+00 
    2.1782755427018579E+00 
    2.0993720622390293E+00 
    2.0279702715165535E+00 
    1.9640896468082398E+00 
    1.9076892676278465E+00 
    1.8587836694829076E+00 
    1.8174873507907239E+00 
    1.7839897509580769E+00 
    1.7585456797145360E+00 
    1.7414163601089394E+00 
    1.7328219721564115E+00 
    2.4186493524561512E+00 
    2.3862431152267694E+00 
    2.3313304158795991E+00 
    2.2642526377700221E+00 
    2.1921081968556142E+00 
    2.1199906685661007E+00 
    2.0507402256585854E+00 
    1.9858766514014274E+00 
    1.9262454950688388E+00 
    1.8724218722796246E+00 
    1.8248901136186315E+00 
    1.7841291832058932E+00 
    1.7506426311520662E+00 
    1.7249469738431051E+00 
    1.7075172543292827E+00 
    1.6987302889055551E+00 
    2.2897252387793934E+00 
    2.2685973011096436E+00 
    2.2296861850510070E+00 
    2.1783505796519376E+00 
    2.1200294118274807E+00 
    2.0588940712244077E+00 
    1.9977868176345668E+00 
    1.9386114764509370E+00 
    1.8826568461830460E+00 
    1.8309238275168771E+00 
    1.7842706221762086E+00 
    1.7435352120347676E+00 
    1.7095481120397789E+00 
    1.6831364051139401E+00 
    1.6650498687530619E+00 
    1.6558738835508604E+00 
    2.1870851994024942E+00 
    2.1709889477645778E+00 
    2.1407211646620632E+00 
    2.0994859691309884E+00 
    2.0508169604222681E+00 
    1.9978255440920953E+00 
    1.9429953650310736E+00 
    1.8881992054942707E+00 
    1.8349138969916945E+00 
    1.7843815961747307E+00 
    1.7377717812731412E+00 
    1.6962197669559869E+00 
    1.6609105820196510E+00 
    1.6330366560180924E+00 
    1.6137111674248437E+00 
    1.6038245300734484E+00 
    2.1006426451718547E+00 
    2.0876384854865777E+00 
    2.0627949401545527E+00 
    2.0281255183054943E+00 
    1.9859943417242658E+00 
    1.9386911596259300E+00 
    1.8882403954052149E+00 
    1.8363456726018199E+00 
    1.7844775537537616E+00 
    1.7339998484240005E+00 
    1.6862753372023798E+00 
    1.6427276346063140E+00 
    1.6049013670659524E+00 
    1.5744508941866553E+00 
    1.5529972121321256E+00 
    1.5418952545182580E+00 
    2.0272679912384519E+00 
    2.0161843432648396E+00 
    1.9947524625443862E+00 
    1.9642884302410106E+00 
    1.9264062372757500E+00 
    1.8827793764930238E+00 
    1.8349999100201888E+00 
    1.7845226488859853E+00 
    1.7327091590509749E+00 
    1.6809291980356074E+00 
    1.6306569980807513E+00 
    1.5835418487142878E+00 
    1.5415364619526122E+00 
    1.5068891575667613E+00 
    1.4819644613193030E+00 
    1.4688674085615094E+00 
    1.9650369088504775E+00 
    1.9551269325924288E+00 
    1.9358028959736713E+00 
    1.9079343470328696E+00 
    1.8726291932288921E+00 
    1.8310929039699333E+00 
    1.7845165539491814E+00 
    1.7340934885342063E+00 
    1.6809772890607007E+00 
    1.6264305596085895E+00 
    1.5719137342816600E+00 
    1.5192503229620911E+00 
    1.4708087801834411E+00 
    1.4296015175563968E+00 
    1.3991159905393555E+00 
    1.3827501408483531E+00 
    1.9127464194123138E+00 
    1.9035369051261029E+00 
    1.8854554162689139E+00 
    1.8590773583203608E+00 
    1.8251484100833244E+00 
    1.7844918571914652E+00 
    1.7379558687788472E+00 
    1.6864182136597616E+00 
    1.6307554328312226E+00 
    1.5719643817942692E+00 
    1.5113269742060951E+00 
    1.4507107621675772E+00 
    1.3928198200365882E+00 
    1.3415597739165455E+00 
    1.3021101410672762E+00 
    1.2802447894827982E+00 
    1.8696905236271670E+00 
    1.8608723613993996E+00 
    1.8434621000930589E+00 
    1.8178247859156020E+00 
    1.7844325117687432E+00 
    1.7438020411557280E+00 
    1.6964491149954213E+00 
    1.6429159886119258E+00 
    1.5836855094311488E+00 
    1.5193460602346478E+00 
    1.4507570979486635E+00 
    1.3795063699809000E+00 
    1.3082738610261686E+00 
    1.2417859484519089E+00 
    1.1876012217184135E+00 
    1.1559162160125762E+00 
    1.8354659604690271E+00 
    1.8268396582841977E+00 
    1.8097348215501519E+00 
    1.7843619839912774E+00 
    1.7509821800799570E+00 
    1.7098521250034204E+00 
    1.6611777917413695E+00 
    1.6051279388681405E+00 
    1.5417186435930299E+00 
    1.4709434584592758E+00 
    1.3929054472041820E+00 
    1.3083133704481085E+00 
    1.2190178639287348E+00 
    1.1297416595344296E+00 
    1.0506390057882080E+00 
    9.9992106691887239E-01 
    1.8098721589610376E+00 
    1.8013211642713742E+00 
    1.7843115213298388E+00 
    1.7589413531611717E+00 
    1.7253116049087363E+00 
    1.6834668525683287E+00 
    1.6333312131224436E+00 
    1.5747052838907303E+00 
    1.5070995605687849E+00 
    1.4297647745878437E+00 
    1.3416746223472729E+00 
    1.2418555032621950E+00 
    1.1297722290186956E+00 
    1.0075460911774006E+00 
    8.8532605679381848E-01 
    7.9321944253187360E-01 
    1.7928259873979004E+00 
    1.7842944512086096E+00 
    1.7672857321996149E+00 
    1.7418220353865173E+00 
    1.7078935457612385E+00 
    1.6653933085872812E+00 
    1.6140194600689817E+00 
    1.5532658633872918E+00 
    1.4821897498485932E+00 
    1.3992946185391129E+00 
    1.3022416105838657E+00 
    1.1876890167084913E+00 
    1.0506890747098692E+00 
    8.8534631706935962E-01 
    6.8989002602665772E-01 
    4.9439227596932550E-01 
    1.7843021032037323E+00 
    1.7757793924952965E+00 
    1.7587586435331308E+00 
    1.7332225707069135E+00 
    1.6991029452460087E+00 
    1.6562148264585537E+00 
    1.6041304636496025E+00 
    1.5421619864614355E+00 
    1.4690915585325115E+00 
    1.3829284924215866E+00 
    1.2803784078224367E+00 
    1.1560087610413030E+00 
    9.9997806456847094E-01 
    7.9324834047854398E-01 
    4.9440191952718460E-01 
    0.0000000000000000E+00 

SCALARS Saturarion double 1 
LOOKUP_TABLE default 

    1.0000000000000000E+00 
    6.8887237566530179E-01 
    5.3117632147267191E-01 
    3.7162957019133247E-01 
    1.3009017642559501E-01 
    2.9107500738874042E-03 
    4.9693065280706465E-08 
    3.8069954040205066E-21 
    9.6833727895936693E-59 
   2.6965087497066883E-173 
    0.0000000000000000E+00 
    0.0000000000000000E+00 
    0.0000000000000000E+00 
    0.0000000000000000E+00 
    0.0000000000000000E+00 
    0.0000000000000000E+00 
    6.8886721347497892E-01 
    5.7306785475489330E-01 
    4.4894669312522212E-01 
    2.6098742477108489E-01 
    2.7214858819455592E-02 
    1.5923343865541594E-05 
    6.8043840727689866E-15 
    1.2607061429723652E-43 
   1.3171347949741026E-138 
    0.0000000000000000E+00 
    0.0000000000000000E+00 
    0.0000000000000000E+00 
    0.0000000000000000E+00 
    0.0000000000000000E+00 
    0.0000000000000000E+00 
    0.0000000000000000E+00 
    5.3116091684145250E-01 
    4.4893566946352653E-01 
    3.0865394043323291E-01 
    5.4929974103925597E-02 
    8.9124866948008224E-05 
    2.6331885112735092E-13 
    2.1938202277231484E-40 
   4.6845067310727150E-132 
    0.0000000000000000E+00 
    0.0000000000000000E+00 
    0.0000000000000000E+00 
    0.0000000000000000E+00 
    0.0000000000000000E+00 
    0.0000000000000000E+00 
    0.0000000000000000E+00 
    0.0000000000000000E+00 
    3.7158931093145442E-01 
    2.6094279898083461E-01 
    5.4917212602204162E-02 
    1.2964080634983782E-04 
    6.7051123326532342E-13 
    1.5073513677326961E-39 
   2.2936980010193644E-130 
    0.0000000000000000E+00 
    0.0000000000000000E+00 
    0.0000000000000000E+00 
    0.0000000000000000E+00 
    0.0000000000000000E+00 
    0.0000000000000000E+00 
    0.0000000000000000E+00 
    0.0000000000000000E+00 
    0.0000000000000000E+00 
    1.3001816220854343E-01 
    2.7195045184302186E-02 
    8.9049822645320117E-05 
    6.7010920634739638E-13 
    2.3131431481314080E-39 
   6.5748539979116262E-130 
    0.0000000000000000E+00 
    0.0000000000000000E+00 
    0.0000000000000000E+00 
    0.0000000000000000E+00 
    0.0000000000000000E+00 
    0.0000000000000000E+00 
    0.0000000000000000E+00 
    0.0000000000000000E+00 
    0.0000000000000000E+00 
    0.0000000000000000E+00 
    2.9071204984723077E-03 
    1.5893041446567676E-05 
    2.6276931409689879E-13 
    1.5046360631440702E-39 
   6.5671556832379805E-130 
    0.0000000000000000E+00 
    0.0000000000000000E+00 
    0.0000000000000000E+00 
    0.0000000000000000E+00 
    0.0000000000000000E+00 
    0.0000000000000000E+00 
    0.0000000000000000E+00 
    0.0000000000000000E+00 
    0.0000000000000000E+00 
    0.0000000000000000E+00 
    0.0000000000000000E+00 
    4.9543817521836744E-08 
    6.7741925375880421E-15 
    2.1835234715272802E-40 
   2.2842056807409625E-130 
    0.0000000000000000E+00 
    0.0000000000000000E+00 
    0.0000000000000000E+00 
    0.0000000000000000E+00 
    0.0000000000000000E+00 
    0.0000000000000000E+00 
    0.0000000000000000E+00 
    0.0000000000000000E+00 
    0.0000000000000000E+00 
    0.0000000000000000E+00 
    0.0000000000000000E+00 
    0.0000000000000000E+00 
    3.7798411775633786E-21 
    1.2483467163791208E-43 
   4.6376101562051241E-132 
    0.0000000000000000E+00 
    0.0000000000000000E+00 
    0.0000000000000000E+00 
    0.0000000000000000E+00 
    0.0000000000000000E+00 
    0.0000000000000000E+00 
    0.0000000000000000E+00 
    0.0000000000000000E+00 
    0.0000000000000000E+00 
    0.0000000000000000E+00 
    0.0000000000000000E+00 
    0.0000000000000000E+00 
    0.0000000000000000E+00 
    9.5248510828865584E-59 
   1.2901414813559221E-138 
    0.0000000000000000E+00 
    0.0000000000000000E+00 
    0.0000000000000000E+00 
    0.0000000000000000E+00 
    0.0000000000000000E+00 
    0.0000000000000000E+00 
    0.0000000000000000E+00 
    0.0000000000000000E+00 
    0.0000000000000000E+00 
    0.0000000000000000E+00 
    0.0000000000000000E+00 
    0.0000000000000000E+00 
    0.0000000000000000E+00 
    0.0000000000000000E+00 
   2.6021937833764780E-173 
    0.0000000000000000E+00 
    0.0000000000000000E+00 
    0.0000000000000000E+00 
    0.0000000000000000E+00 
    0.0000000000000000E+00 
    0.0000000000000000E+00 
    0.0000000000000000E+00 
    0.0000000000000000E+00 
    0.0000000000000000E+00 
    0.0000000000000000E+00 
    0.0000000000000000E+00 
    0.0000000000000000E+00 
    0.0000000000000000E+00 
    0.0000000000000000E+00 
    0.0000000000000000E+00 
    0.0000000000000000E+00 
    0.0000000000000000E+00 
    0.0000000000000000E+00 
    0.0000000000000000E+00 
    0.0000000000000000E+00 
    0.0000000000000000E+00 
    0.0000000000000000E+00 
    0.0000000000000000E+00 
    0.0000000000000000E+00 
    0.0000000000000000E+00 
    0.0000000000000000E+00 
    0.0000000000000000E+00 
    0.0000000000000000E+00 
    0.0000000000000000E+00 
    0.0000000000000000E+00 
    0.0000000000000000E+00 
    0.0000000000000000E+00 
    0.0000000000000000E+00 
    0.0000000000000000E+00 
    0.0000000000000000E+00 
    0.0000000000000000E+00 
    0.0000000000000000E+00 
    0.0000000000000000E+00 
    0.0000000000000000E+00 
    0.0000000000000000E+00 
    0.0000000000000000E+00 
    0.0000000000000000E+00 
    0.0000000000000000E+00 
    0.0000000000000000E+00 
    0.0000000000000000E+00 
    0.0000000000000000E+00 
    0.0000000000000000E+00 
    0.0000000000000000E+00 
    0.0000000000000000E+00 
    0.0000000000000000E+00 
    0.0000000000000000E+00 
    0.0000000000000000E+00 
    0.0000000000000000E+00 
    0.0000000000000000E+00 
    0.0000000000000000E+00 
    0.0000000000000000E+00 
    0.0000000000000000E+00 
    0.0000000000000000E+00 
    0.0000000000000000E+00 
    0.0000000000000000E+00 
    0.0000000000000000E+00 
    0.0000000000000000E+00 
    0.0000000000000000E+00 
    0.0000000000000000E+00 
    0.0000000000000000E+00 
    0.0000000000000000E+00 
    0.0000000000000000E+00 
    0.0000000000000000E+00 
    0.0000000000000000E+00 
    0.0000000000000000E+00 
    0.0000000000000000E+00 
    0.0000000000000000E+00 
    0.0000000000000000E+00 
    0.0000000000000000E+00 
    0.0000000000000000E+00 
    0.0000000000000000E+00 
    0.0000000000000000E+00 
    0.0000000000000000E+00 
    0.0000000000000000E+00 
    0.0000000000000000E+00 
    0.0000000000000000E+00 
    0.0000000000000000E+00 
    0.0000000000000000E+00 
    0.0000000000000000E+00 
    0.0000000000000000E+00 
    0.0000000000000000E+00 
    0.0000000000000000E+00 
    0.0000000000000000E+00 
    0.0000000000000000E+00 
    0.0000000000000000E+00 
    0.0000000000000000E+00 
    0.0000000000000000E+00 
    0.0000000000000000E+00 
    0.0000000000000000E+00 
    0.0000000000000000E+00 
    0.0000000000000000E+00 
    0.0000000000000000E+00 
    0.0000000000000000E+00 
    0.0000000000000000E+00 
    0.0000000000000000E+00 
    0.0000000000000000E+00 
    0.0000000000000000E+00 
    0.0000000000000000E+00 
    0.0000000000000000E+00 
    0.0000000000000000E+00 
    0.0000000000000000E+00 
    0.0000000000000000E+00 
    0.0000000000000000E+00 
    0.0000000000000000E+00 
    0.0000000000000000E+00 
    0.0000000000000000E+00 
