# vtk DataFile Version 2.0
Pressure Field Data 
ASCII 
DATASET UNSTRUCTURED_GRID 

POINTS 289 double 

    0.0000000000000000E+00     0.0000000000000000E+00     0.0000000000000000E+00 
    1.0000000000000000E+00     0.0000000000000000E+00     0.0000000000000000E+00 
    1.0000000000000000E+00     1.0000000000000000E+00     0.0000000000000000E+00 
    0.0000000000000000E+00     1.0000000000000000E+00     0.0000000000000000E+00 
    6.2499999999872928E-02     0.0000000000000000E+00     0.0000000000000000E+00 
    1.2499999999977310E-01     0.0000000000000000E+00     0.0000000000000000E+00 
    1.8749999999959341E-01     0.0000000000000000E+00     0.0000000000000000E+00 
    2.4999999999941089E-01     0.0000000000000000E+00     0.0000000000000000E+00 
    3.1249999999922851E-01     0.0000000000000000E+00     0.0000000000000000E+00 
    3.7499999999904610E-01     0.0000000000000000E+00     0.0000000000000000E+00 
    4.3749999999886358E-01     0.0000000000000000E+00     0.0000000000000000E+00 
    4.9999999999869210E-01     0.0000000000000000E+00     0.0000000000000000E+00 
    5.6249999999884603E-01     0.0000000000000000E+00     0.0000000000000000E+00 
    6.2499999999901090E-01     0.0000000000000000E+00     0.0000000000000000E+00 
    6.8749999999917577E-01     0.0000000000000000E+00     0.0000000000000000E+00 
    7.4999999999934064E-01     0.0000000000000000E+00     0.0000000000000000E+00 
    8.1249999999950551E-01     0.0000000000000000E+00     0.0000000000000000E+00 
    8.7499999999967026E-01     0.0000000000000000E+00     0.0000000000000000E+00 
    9.3749999999983513E-01     0.0000000000000000E+00     0.0000000000000000E+00 
    1.0000000000000000E+00     6.2499999999872928E-02     0.0000000000000000E+00 
    1.0000000000000000E+00     1.2499999999977310E-01     0.0000000000000000E+00 
    1.0000000000000000E+00     1.8749999999959341E-01     0.0000000000000000E+00 
    1.0000000000000000E+00     2.4999999999941089E-01     0.0000000000000000E+00 
    1.0000000000000000E+00     3.1249999999922851E-01     0.0000000000000000E+00 
    1.0000000000000000E+00     3.7499999999904610E-01     0.0000000000000000E+00 
    1.0000000000000000E+00     4.3749999999886358E-01     0.0000000000000000E+00 
    1.0000000000000000E+00     4.9999999999869210E-01     0.0000000000000000E+00 
    1.0000000000000000E+00     5.6249999999884603E-01     0.0000000000000000E+00 
    1.0000000000000000E+00     6.2499999999901090E-01     0.0000000000000000E+00 
    1.0000000000000000E+00     6.8749999999917577E-01     0.0000000000000000E+00 
    1.0000000000000000E+00     7.4999999999934064E-01     0.0000000000000000E+00 
    1.0000000000000000E+00     8.1249999999950551E-01     0.0000000000000000E+00 
    1.0000000000000000E+00     8.7499999999967026E-01     0.0000000000000000E+00 
    1.0000000000000000E+00     9.3749999999983513E-01     0.0000000000000000E+00 
    9.3749999999973976E-01     1.0000000000000000E+00     0.0000000000000000E+00 
    8.7499999999950118E-01     1.0000000000000000E+00     0.0000000000000000E+00 
    8.1249999999991318E-01     1.0000000000000000E+00     0.0000000000000000E+00 
    7.5000000000034706E-01     1.0000000000000000E+00     0.0000000000000000E+00 
    6.8750000000078049E-01     1.0000000000000000E+00     0.0000000000000000E+00 
    6.2500000000121403E-01     1.0000000000000000E+00     0.0000000000000000E+00 
    5.6250000000164757E-01     1.0000000000000000E+00     0.0000000000000000E+00 
    5.0000000000205946E-01     1.0000000000000000E+00     0.0000000000000000E+00 
    4.3750000000182099E-01     1.0000000000000000E+00     0.0000000000000000E+00 
    3.7500000000156092E-01     1.0000000000000000E+00     0.0000000000000000E+00 
    3.1250000000130068E-01     1.0000000000000000E+00     0.0000000000000000E+00 
    2.5000000000104050E-01     1.0000000000000000E+00     0.0000000000000000E+00 
    1.8750000000078040E-01     1.0000000000000000E+00     0.0000000000000000E+00 
    1.2500000000052031E-01     1.0000000000000000E+00     0.0000000000000000E+00 
    6.2500000000260125E-02     1.0000000000000000E+00     0.0000000000000000E+00 
    0.0000000000000000E+00     9.3749999999973976E-01     0.0000000000000000E+00 
    0.0000000000000000E+00     8.7499999999950118E-01     0.0000000000000000E+00 
    0.0000000000000000E+00     8.1249999999991318E-01     0.0000000000000000E+00 
    0.0000000000000000E+00     7.5000000000034706E-01     0.0000000000000000E+00 
    0.0000000000000000E+00     6.8750000000078049E-01     0.0000000000000000E+00 
    0.0000000000000000E+00     6.2500000000121403E-01     0.0000000000000000E+00 
    0.0000000000000000E+00     5.6250000000164757E-01     0.0000000000000000E+00 
    0.0000000000000000E+00     5.0000000000205946E-01     0.0000000000000000E+00 
    0.0000000000000000E+00     4.3750000000182099E-01     0.0000000000000000E+00 
    0.0000000000000000E+00     3.7500000000156092E-01     0.0000000000000000E+00 
    0.0000000000000000E+00     3.1250000000130068E-01     0.0000000000000000E+00 
    0.0000000000000000E+00     2.5000000000104050E-01     0.0000000000000000E+00 
    0.0000000000000000E+00     1.8750000000078040E-01     0.0000000000000000E+00 
    0.0000000000000000E+00     1.2500000000052031E-01     0.0000000000000000E+00 
    0.0000000000000000E+00     6.2500000000260125E-02     0.0000000000000000E+00 
    6.2499999999897131E-02     6.2500000000235922E-02     0.0000000000000000E+00 
    6.2499999999921327E-02     1.2500000000047351E-01     0.0000000000000000E+00 
    6.2499999999945530E-02     1.8750000000070621E-01     0.0000000000000000E+00 
    6.2499999999969733E-02     2.5000000000093858E-01     0.0000000000000000E+00 
    6.2499999999993928E-02     3.1250000000117117E-01     0.0000000000000000E+00 
    6.2500000000018124E-02     3.7500000000140382E-01     0.0000000000000000E+00 
    6.2500000000042327E-02     4.3750000000163619E-01     0.0000000000000000E+00 
    6.2500000000066530E-02     5.0000000000184897E-01     0.0000000000000000E+00 
    6.2500000000090733E-02     5.6250000000147260E-01     0.0000000000000000E+00 
    6.2500000000114922E-02     6.2500000000107636E-01     0.0000000000000000E+00 
    6.2500000000139125E-02     6.8750000000068034E-01     0.0000000000000000E+00 
    6.2500000000163328E-02     7.5000000000028411E-01     0.0000000000000000E+00 
    6.2500000000187531E-02     8.1249999999988787E-01     0.0000000000000000E+00 
    6.2500000000211720E-02     8.7499999999951172E-01     0.0000000000000000E+00 
    6.2500000000235922E-02     9.3749999999974565E-01     0.0000000000000000E+00 
    1.2499999999981980E-01     6.2500000000211733E-02     0.0000000000000000E+00 
    1.2499999999986650E-01     1.2500000000042691E-01     0.0000000000000000E+00 
    1.2499999999991319E-01     1.8750000000063199E-01     0.0000000000000000E+00 
    1.2499999999995989E-01     2.5000000000083678E-01     0.0000000000000000E+00 
    1.2500000000000661E-01     3.1250000000104172E-01     0.0000000000000000E+00 
    1.2500000000005329E-01     3.7500000000124661E-01     0.0000000000000000E+00 
    1.2500000000010000E-01     4.3750000000145117E-01     0.0000000000000000E+00 
    1.2500000000014669E-01     5.0000000000163858E-01     0.0000000000000000E+00 
    1.2500000000019340E-01     5.6250000000129741E-01     0.0000000000000000E+00 
    1.2500000000024011E-01     6.2500000000093847E-01     0.0000000000000000E+00 
    1.2500000000028680E-01     6.8750000000057998E-01     0.0000000000000000E+00 
    1.2500000000033351E-01     7.5000000000022127E-01     0.0000000000000000E+00 
    1.2500000000038020E-01     8.1249999999986211E-01     0.0000000000000000E+00 
    1.2500000000042691E-01     8.7499999999952238E-01     0.0000000000000000E+00 
    1.2500000000047359E-01     9.3749999999975164E-01     0.0000000000000000E+00 
    1.8749999999966760E-01     6.2500000000187531E-02     0.0000000000000000E+00 
    1.8749999999974179E-01     1.2500000000038020E-01     0.0000000000000000E+00 
    1.8749999999981601E-01     1.8750000000055780E-01     0.0000000000000000E+00 
    1.8749999999989009E-01     2.5000000000073502E-01     0.0000000000000000E+00 
    1.8749999999996431E-01     3.1250000000091221E-01     0.0000000000000000E+00 
    1.8750000000003850E-01     3.7500000000108941E-01     0.0000000000000000E+00 
    1.8750000000011269E-01     4.3750000000126649E-01     0.0000000000000000E+00 
    1.8750000000018691E-01     5.0000000000142808E-01     0.0000000000000000E+00 
    1.8750000000026110E-01     5.6250000000112244E-01     0.0000000000000000E+00 
    1.8750000000033529E-01     6.2500000000080080E-01     0.0000000000000000E+00 
    1.8750000000040951E-01     6.8750000000047962E-01     0.0000000000000000E+00 
    1.8750000000048361E-01     7.5000000000015843E-01     0.0000000000000000E+00 
    1.8750000000055780E-01     8.1249999999983680E-01     0.0000000000000000E+00 
    1.8750000000063199E-01     8.7499999999953304E-01     0.0000000000000000E+00 
    1.8750000000070621E-01     9.3749999999975764E-01     0.0000000000000000E+00 
    2.4999999999951281E-01     6.2500000000163314E-02     0.0000000000000000E+00 
    2.4999999999961461E-01     1.2500000000033351E-01     0.0000000000000000E+00 
    2.4999999999971650E-01     1.8750000000048361E-01     0.0000000000000000E+00 
    2.4999999999981831E-01     2.5000000000063310E-01     0.0000000000000000E+00 
    2.4999999999992020E-01     3.1250000000078260E-01     0.0000000000000000E+00 
    2.5000000000002198E-01     3.7500000000093209E-01     0.0000000000000000E+00 
    2.5000000000012390E-01     4.3750000000108180E-01     0.0000000000000000E+00 
    2.5000000000022571E-01     5.0000000000121769E-01     0.0000000000000000E+00 
    2.5000000000032763E-01     5.6250000000094724E-01     0.0000000000000000E+00 
    2.5000000000042938E-01     6.2500000000066314E-01     0.0000000000000000E+00 
    2.5000000000053119E-01     6.8750000000037925E-01     0.0000000000000000E+00 
[...]
CELL_DATA 256 
SCALARS Pressure double 1 
LOOKUP_TABLE default 

    2.8404467817507961E+00 
    2.7092902880926109E+00 
    2.5981105326695340E+00 
    2.4973929784351530E+00 
    2.3997727439449323E+00 
    2.2994082810996987E+00 
    2.1928213573757831E+00 
    2.0982202020620644E+00 
    2.0240472083644279E+00 
    1.9619651948140517E+00 
    1.9097692509605886E+00 
    1.8667744398677726E+00 
    1.8325917840214621E+00 
    1.8070297525344965E+00 
    1.7900103346360301E+00 
    1.7815108331895191E+00 
    2.7093105547871277E+00 
    2.6437554026630687E+00 
    2.5588887467233259E+00 
    2.4696245732355746E+00 
    2.3769886430163498E+00 
    2.2776778735526868E+00 
    2.1741099790878815E+00 
    2.0848571562261897E+00 
    2.0130741895405011E+00 
    1.9521257885916856E+00 
    1.9006095318471361E+00 
    1.8579945380729652E+00 
    1.8239974383942681E+00 
    1.7985070638023626E+00 
    1.7815047181145216E+00 
    1.7730120449404241E+00 
    2.5981594148460796E+00 
    2.5589154122860824E+00 
    2.4956743271947013E+00 
    2.4192346131010782E+00 
    2.3325968026484416E+00 
    2.2358228424679645E+00 
    2.1404611362241761E+00 
    2.0598761492327742E+00 
    1.9918120078090420E+00 
    1.9329154575096033E+00 
    1.8826115130918482E+00 
    1.8406507999986450E+00 
    1.8069495971794673E+00 
    1.7815487047608463E+00 
    1.7645435658163249E+00 
    1.7560362179644204E+00 
    2.4974760013507198E+00 
    2.4696799367131290E+00 
    2.4192618447182790E+00 
    2.3516715867447400E+00 
    2.2694519194867810E+00 
    2.1799412713770008E+00 
    2.0973199189464102E+00 
    2.0253538245080747E+00 
    1.9615101854406403E+00 
    1.9051731487319856E+00 
    1.8563349213539095E+00 
    1.8150995547954207E+00 
    1.7816533624005999E+00 
    1.7562490259444077E+00 
    1.7391463076611113E+00 
    1.7305639226521623E+00 
    2.3998662322901123E+00 
    2.3770593609527508E+00 
    2.3326464011423220E+00 
    2.2694779486784480E+00 
    2.1942331624252684E+00 
    2.1184279226177365E+00 
    2.0482276214578850E+00 
    1.9833637232620773E+00 
    1.9237652103212906E+00 
    1.8699912025189267E+00 
    1.8225139930180787E+00 
    1.7818050794002238E+00 
    1.7483641781703110E+00 
    1.7227047868115055E+00 
    1.7052998742982797E+00 
    1.6965242182513880E+00 
    2.2994934296412683E+00 
    2.2777579108846102E+00 
    2.2358955811524748E+00 
    2.1799972267554297E+00 
    2.1184590308069078E+00 
    2.0564060156179593E+00 
    1.9953179610687357E+00 
    1.9361713315150948E+00 
    1.8802557663248629E+00 
    1.8285698722774741E+00 
    1.7819666608248614E+00 
    1.7412791596917487E+00 
    1.7073347882975463E+00 
    1.6809574989451943E+00 
    1.6628947069621083E+00 
    1.6537296530369612E+00 
    2.1929430178070830E+00 
    2.1742292661120315E+00 
    2.1405722267623739E+00 
    2.0974115052384583E+00 
    2.0482913970592502E+00 
    1.9953507593646491E+00 
    1.9405685877402776E+00 
    1.8858180146072874E+00 
    1.8325806519967394E+00 
    1.7820992641467748E+00 
    1.7355398645727780E+00 
    1.6940359168910157E+00 
    1.6587694230356234E+00 
    1.6309302210464014E+00 
    1.6116290052128999E+00 
    1.6017538031591367E+00 
    2.0984001081503991E+00 
    2.0850295221541901E+00 
    2.0600322085063376E+00 
    2.0254850026812732E+00 
    1.9834648276928879E+00 
    1.9362408516519873E+00 
    1.8858544393958312E+00 
    1.8340178520328376E+00 
    1.7822064406779077E+00 
    1.7317852379581229E+00 
    1.6841152222929401E+00 
    1.6406182923510273E+00 
    1.6028374387788626E+00 
    1.5724244655248962E+00 
    1.5509976023724685E+00 
    1.5399089386145499E+00 
    2.0242787101169193E+00 
    2.0132949575760750E+00 
    1.9920123626391539E+00 
    1.9616831731450537E+00 
    1.9239065311403036E+00 
    1.8803646022202023E+00 
    1.8326578165226486E+00 
    1.7822472600973940E+00 
    1.7304984044994931E+00 
    1.6787816111076637E+00 
    1.6285696246286632E+00 
    1.5815109481244836E+00 
    1.5395567731864022E+00 
    1.5049524482791010E+00 
    1.4800591711535847E+00 
    1.4669784430323005E+00 
    1.9622447148397701E+00 
    1.9523925707239145E+00 
    1.9331610512215291E+00 
    1.9053907987685310E+00 
    1.8701765669871233E+00 
    1.8287220597795222E+00 
    1.7822216288116297E+00 
    1.7318706319633019E+00 
    1.6788256785516988E+00 
    1.6243491302742961E+00 
    1.5699006879590358E+00 
    1.5173026268988985E+00 
    1.4689216667401219E+00 
    1.4277662911187101E+00 
    1.3973194080254554E+00 
    1.3809743043440588E+00 
    1.9100931440543165E+00 
    1.9009211672352193E+00 
    1.8829028182635632E+00 
    1.8565995234084036E+00 
    1.8227478191044038E+00 
    1.7821678901277604E+00 
    1.7357079984287433E+00 
    1.6842462619107317E+00 
    1.6286602638617285E+00 
    1.5699475051562142E+00 
    1.5093898799387455E+00 
    1.4488520147296080E+00 
    1.3910354107814911E+00 
    1.3398410898831858E+00 
    1.3004419043832272E+00 
    1.2786038234033681E+00 
    1.8671375296144137E+00 
    1.8583464439327624E+00 
    1.8409836029564788E+00 
    1.8154067084474825E+00 
    1.7820820143656451E+00 
    1.7415234616318478E+00 
    1.6942465447226109E+00 
    1.6407918341213161E+00 
    1.5816437436307802E+00 
    1.5173913757647119E+00 
    1.4488950594601711E+00 
    1.3777375822871900E+00 
    1.3065975126205385E+00 
    1.2401953921367019E+00 
    1.1860802790286618E+00 
    1.1544352049451119E+00 
    1.8329856876482997E+00 
    1.8243811231740841E+00 
    1.8073152637697494E+00 
    1.7819944184053200E+00 
    1.7486758893937417E+00 
    1.7076144267251099E+00 
    1.6590157888475301E+00 
    1.6030468800676352E+00 
    1.5397256155058618E+00 
    1.4690467591449150E+00 
    1.3911150822181744E+00 
    1.3066343265749234E+00 
    1.2174548908033376E+00 
    1.1282936440577835E+00 
    1.0492924095372829E+00 
    9.9863898723203592E-01 
    1.8074433994386851E+00 
    1.7989113719983998E+00 
    1.7819360586834032E+00 
    1.7566129940320667E+00 
    1.7230406620434258E+00 
    1.6812623428480633E+00 
    1.6312024577821735E+00 
    1.5726600612928883E+00 
    1.5051476944580251E+00 
    1.4279180446022381E+00 
    1.3399479849654328E+00 
    1.2402601940829012E+00 
    1.1283221309544698E+00 
    1.0062526813860848E+00 
    8.8418888910301097E-01 
    7.9220030846222700E-01 
    1.7904305599452819E+00 
    1.7819164211844001E+00 
    1.7649394299792618E+00 
    1.7395201740804498E+00 
    1.7056470434931712E+00 
    1.6632119475309395E+00 
    1.6119142013142664E+00 
    1.5512465333782999E+00 
    1.4802682543428296E+00 
    1.3974854151673861E+00 
    1.3005642075467065E+00 
    1.1861620087750440E+00 
    1.0493390226577355E+00 
    8.8420774208959430E-01 
    6.8900111730399505E-01 
    4.9375510850794618E-01 
    1.7819232108359138E+00 
    1.7734166512519929E+00 
    1.7564260798613374E+00 
    1.7309331110980126E+00 
    1.6968679907488131E+00 
    1.6540445077176942E+00 
    1.6020367160228994E+00 
    1.5401559573424639E+00 
    1.4671863149915916E+00 
    1.3811398775427126E+00 
    1.2787279660349740E+00 
    1.1545212264311555E+00 
    9.9869196902780144E-01 
    7.9222716346406152E-01 
    4.9376406782778282E-01 
    0.0000000000000000E+00 

SCALARS Saturarion double 1 
LOOKUP_TABLE default 

    1.0000000000000000E+00 
    8.0527811492307122E-01 
    6.9276578532623079E-01 
    5.9753648957133376E-01 
    5.1170762496870847E-01 
    4.1279646782069312E-01 
    2.6219664850256869E-01 
    4.8060439784908038E-02 
    2.1419652168603890E-04 
    1.2890187646149961E-10 
    1.4894865968812912E-26 
    2.3621180204807890E-67 
   1.9604363178827258E-172 
    0.0000000000000000E+00 
    0.0000000000000000E+00 
    0.0000000000000000E+00 
    8.0527321676846608E-01 
    7.1786917269003092E-01 
    6.3388933285634785E-01 
    5.5465127584376750E-01 
    4.7285144964577147E-01 
    3.7169639534209276E-01 
    1.8378456020012296E-01 
    1.1977939711351049E-02 
    3.7856026486734637E-06 
    2.1939210196749745E-15 
    1.4455843566400008E-39 
   3.9291625026461429E-103 
   1.0766497438662664E-271 
    0.0000000000000000E+00 
    0.0000000000000000E+00 
    0.0000000000000000E+00 
    6.9275107858760865E-01 
    6.3388037887382698E-01 
    5.6866984637228202E-01 
    5.0093084671127652E-01 
    4.2064389607147529E-01 
    2.9363320480539040E-01 
    6.2588813808513610E-02 
    3.0865463668616359E-04 
    1.1717030151093029E-10 
    5.5486412670340086E-28 
    5.2504026211932201E-75 
   3.3119312539983304E-204 
    0.0000000000000000E+00 
    0.0000000000000000E+00 
    0.0000000000000000E+00 
    0.0000000000000000E+00 
    5.9750621557509420E-01 
    5.5462923601752434E-01 
    5.0091832341392251E-01 
    4.3684847388027392E-01 
    3.3921652785982914E-01 
    1.2503516282738120E-01 
    2.1860665833648017E-03 
    1.3572786525757162E-08 
    4.0143857051991445E-23 
    7.1388023446279626E-64 
   1.0603713002770945E-179 
    0.0000000000000000E+00 
    0.0000000000000000E+00 
    0.0000000000000000E+00 
    0.0000000000000000E+00 
    0.0000000000000000E+00 
    5.1123347876496905E-01 
    4.7278116313044438E-01 
    4.2061598136785355E-01 
    3.3919882071140200E-01 
    1.5538086809290150E-01 
    4.9652776247825353E-03 
    9.1071249115790978E-08 
    2.3138872193114660E-21 
    3.3597011575036008E-60 
   3.4989730708556443E-172 
    0.0000000000000000E+00 
    0.0000000000000000E+00 
    0.0000000000000000E+00 
    0.0000000000000000E+00 
    0.0000000000000000E+00 
    0.0000000000000000E+00 
    4.1258100703394052E-01 
    3.7161480628919408E-01 
    2.9356528060986614E-01 
    1.2497680475198696E-01 
    4.9624073965578094E-03 
    1.4385860476996103E-07 
    7.3746647276263186E-21 
    3.7686462169556787E-59 
   4.7407711531343101E-170 
    0.0000000000000000E+00 
    0.0000000000000000E+00 
    0.0000000000000000E+00 
    0.0000000000000000E+00 
    0.0000000000000000E+00 
    0.0000000000000000E+00 
    0.0000000000000000E+00 
    2.6200489249066622E-01 
    1.8364143437639979E-01 
    6.2515218983239113E-02 
    2.1820989757709219E-03 
    9.0883765081463582E-08 
    7.3639420907713240E-21 
    6.4794851643854036E-59 
   1.7881547168877169E-169 
    0.0000000000000000E+00 
    0.0000000000000000E+00 
    0.0000000000000000E+00 
    0.0000000000000000E+00 
    0.0000000000000000E+00 
    0.0000000000000000E+00 
    0.0000000000000000E+00 
    0.0000000000000000E+00 
    4.7948010981735796E-02 
    1.1946282967558895E-02 
    3.0753885493979425E-04 
    1.3506526650313133E-08 
    2.3016269668832385E-21 
    3.7524483963754967E-59 
   1.7836146188881971E-169 
    0.0000000000000000E+00 
    0.0000000000000000E+00 
    0.0000000000000000E+00 
    0.0000000000000000E+00 
    0.0000000000000000E+00 
    0.0000000000000000E+00 
    0.0000000000000000E+00 
    0.0000000000000000E+00 
    0.0000000000000000E+00 
    2.1286048921718807E-04 
    3.7596613004861694E-06 
    1.1608006512913639E-10 
    3.9663224719426950E-23 
    3.3183249685940362E-60 
   4.6935268755491272E-170 
    0.0000000000000000E+00 
    0.0000000000000000E+00 
    0.0000000000000000E+00 
    0.0000000000000000E+00 
    0.0000000000000000E+00 
    0.0000000000000000E+00 
    0.0000000000000000E+00 
    0.0000000000000000E+00 
    0.0000000000000000E+00 
    0.0000000000000000E+00 
    1.2722296459781605E-10 
    2.1592693121601100E-15 
    5.4247577759011396E-28 
    6.9421822626536114E-64 
   3.4042317346545924E-172 
    0.0000000000000000E+00 
    0.0000000000000000E+00 
    0.0000000000000000E+00 
    0.0000000000000000E+00 
    0.0000000000000000E+00 
    0.0000000000000000E+00 
    0.0000000000000000E+00 
    0.0000000000000000E+00 
    0.0000000000000000E+00 
    0.0000000000000000E+00 
    0.0000000000000000E+00 
    1.4477099943833132E-26 
    1.3935113539015841E-39 
    4.9751179840603072E-75 
   9.9654285584298721E-180 
    0.0000000000000000E+00 
    0.0000000000000000E+00 
    0.0000000000000000E+00 
    0.0000000000000000E+00 
    0.0000000000000000E+00 
    0.0000000000000000E+00 
    0.0000000000000000E+00 
    0.0000000000000000E+00 
    0.0000000000000000E+00 
    0.0000000000000000E+00 
    0.0000000000000000E+00 
    0.0000000000000000E+00 
    2.2198272238510281E-67 
   3.6090087373916125E-103 
   2.9220974194354069E-204 
    0.0000000000000000E+00 
    0.0000000000000000E+00 
    0.0000000000000000E+00 
    0.0000000000000000E+00 
    0.0000000000000000E+00 
    0.0000000000000000E+00 
    0.0000000000000000E+00 
    0.0000000000000000E+00 
    0.0000000000000000E+00 
    0.0000000000000000E+00 
    0.0000000000000000E+00 
    0.0000000000000000E+00 
    0.0000000000000000E+00 
   1.7115518485769311E-172 
   8.8276317679024491E-272 
    0.0000000000000000E+00 
    0.0000000000000000E+00 
    0.0000000000000000E+00 
    0.0000000000000000E+00 
    0.0000000000000000E+00 
    0.0000000000000000E+00 
    0.0000000000000000E+00 
    0.0000000000000000E+00 
    0.0000000000000000E+00 
    0.0000000000000000E+00 
    0.0000000000000000E+00 
    0.0000000000000000E+00 
    0.0000000000000000E+00 
    0.0000000000000000E+00 
    0.0000000000000000E+00 
    0.0000000000000000E+00 
    0.0000000000000000E+00 
    0.0000000000000000E+00 
    0.0000000000000000E+00 
    0.0000000000000000E+00 
    0.0000000000000000E+00 
    0.0000000000000000E+00 
    0.0000000000000000E+00 
    0.0000000000000000E+00 
    0.0000000000000000E+00 
    0.0000000000000000E+00 
    0.0000000000000000E+00 
    0.0000000000000000E+00 
    0.0000000000000000E+00 
    0.0000000000000000E+00 
    0.0000000000000000E+00 
    0.0000000000000000E+00 
    0.0000000000000000E+00 
    0.0000000000000000E+00 
    0.0000000000000000E+00 
    0.0000000000000000E+00 
    0.0000000000000000E+00 
    0.0000000000000000E+00 
    0.0000000000000000E+00 
    0.0000000000000000E+00 
    0.0000000000000000E+00 
    0.0000000000000000E+00 
    0.0000000000000000E+00 
    0.0000000000000000E+00 
    0.0000000000000000E+00 
    0.0000000000000000E+00 
    0.0000000000000000E+00 
    0.0000000000000000E+00 
    0.0000000000000000E+00 
    0.0000000000000000E+00 
    0.0000000000000000E+00 
    0.0000000000000000E+00 
    0.0000000000000000E+00 
    0.0000000000000000E+00 
    0.0000000000000000E+00 
    0.0000000000000000E+00 
    0.0000000000000000E+00 
    0.0000000000000000E+00 
    0.0000000000000000E+00 
    0.0000000000000000E+00 
    0.0000000000000000E+00 
    0.0000000000000000E+00 
