# vtk DataFile Version 2.0
Pressure Field Data 
ASCII 
DATASET UNSTRUCTURED_GRID 

POINTS 289 double 

    0.0000000000000000E+00     0.0000000000000000E+00     0.0000000000000000E+00 
    1.0000000000000000E+00     0.0000000000000000E+00     0.0000000000000000E+00 
    1.0000000000000000E+00     1.0000000000000000E+00     0.0000000000000000E+00 
    0.0000000000000000E+00     1.0000000000000000E+00     0.0000000000000000E+00 
    6.2499999999872928E-02     0.0000000000000000E+00     0.0000000000000000E+00 
    1.2499999999977310E-01     0.0000000000000000E+00     0.0000000000000000E+00 
    1.8749999999959341E-01     0.0000000000000000E+00     0.0000000000000000E+00 
    2.4999999999941089E-01     0.0000000000000000E+00     0.0000000000000000E+00 
    3.1249999999922851E-01     0.0000000000000000E+00     0.0000000000000000E+00 
    3.7499999999904610E-01     0.0000000000000000E+00     0.0000000000000000E+00 
    4.3749999999886358E-01     0.0000000000000000E+00     0.0000000000000000E+00 
    4.9999999999869210E-01     0.0000000000000000E+00     0.0000000000000000E+00 
    5.6249999999884603E-01     0.0000000000000000E+00     0.0000000000000000E+00 
    6.2499999999901090E-01     0.0000000000000000E+00     0.0000000000000000E+00 
    6.8749999999917577E-01     0.0000000000000000E+00     0.0000000000000000E+00 
    7.4999999999934064E-01     0.0000000000000000E+00     0.0000000000000000E+00 
    8.1249999999950551E-01     0.0000000000000000E+00     0.0000000000000000E+00 
    8.7499999999967026E-01     0.0000000000000000E+00     0.0000000000000000E+00 
    9.3749999999983513E-01     0.0000000000000000E+00     0.0000000000000000E+00 
    1.0000000000000000E+00     6.2499999999872928E-02     0.0000000000000000E+00 
    1.0000000000000000E+00     1.2499999999977310E-01     0.0000000000000000E+00 
    1.0000000000000000E+00     1.8749999999959341E-01     0.0000000000000000E+00 
    1.0000000000000000E+00     2.4999999999941089E-01     0.0000000000000000E+00 
    1.0000000000000000E+00     3.1249999999922851E-01     0.0000000000000000E+00 
    1.0000000000000000E+00     3.7499999999904610E-01     0.0000000000000000E+00 
    1.0000000000000000E+00     4.3749999999886358E-01     0.0000000000000000E+00 
    1.0000000000000000E+00     4.9999999999869210E-01     0.0000000000000000E+00 
    1.0000000000000000E+00     5.6249999999884603E-01     0.0000000000000000E+00 
    1.0000000000000000E+00     6.2499999999901090E-01     0.0000000000000000E+00 
    1.0000000000000000E+00     6.8749999999917577E-01     0.0000000000000000E+00 
    1.0000000000000000E+00     7.4999999999934064E-01     0.0000000000000000E+00 
    1.0000000000000000E+00     8.1249999999950551E-01     0.0000000000000000E+00 
    1.0000000000000000E+00     8.7499999999967026E-01     0.0000000000000000E+00 
    1.0000000000000000E+00     9.3749999999983513E-01     0.0000000000000000E+00 
    9.3749999999973976E-01     1.0000000000000000E+00     0.0000000000000000E+00 
    8.7499999999950118E-01     1.0000000000000000E+00     0.0000000000000000E+00 
    8.1249999999991318E-01     1.0000000000000000E+00     0.0000000000000000E+00 
    7.5000000000034706E-01     1.0000000000000000E+00     0.0000000000000000E+00 
    6.8750000000078049E-01     1.0000000000000000E+00     0.0000000000000000E+00 
    6.2500000000121403E-01     1.0000000000000000E+00     0.0000000000000000E+00 
    5.6250000000164757E-01     1.0000000000000000E+00     0.0000000000000000E+00 
    5.0000000000205946E-01     1.0000000000000000E+00     0.0000000000000000E+00 
    4.3750000000182099E-01     1.0000000000000000E+00     0.0000000000000000E+00 
    3.7500000000156092E-01     1.0000000000000000E+00     0.0000000000000000E+00 
    3.1250000000130068E-01     1.0000000000000000E+00     0.0000000000000000E+00 
    2.5000000000104050E-01     1.0000000000000000E+00     0.0000000000000000E+00 
    1.8750000000078040E-01     1.0000000000000000E+00     0.0000000000000000E+00 
    1.2500000000052031E-01     1.0000000000000000E+00     0.0000000000000000E+00 
    6.2500000000260125E-02     1.0000000000000000E+00     0.0000000000000000E+00 
    0.0000000000000000E+00     9.3749999999973976E-01     0.0000000000000000E+00 
    0.0000000000000000E+00     8.7499999999950118E-01     0.0000000000000000E+00 
    0.0000000000000000E+00     8.1249999999991318E-01     0.0000000000000000E+00 
    0.0000000000000000E+00     7.5000000000034706E-01     0.0000000000000000E+00 
    0.0000000000000000E+00     6.8750000000078049E-01     0.0000000000000000E+00 
    0.0000000000000000E+00     6.2500000000121403E-01     0.0000000000000000E+00 
    0.0000000000000000E+00     5.6250000000164757E-01     0.0000000000000000E+00 
    0.0000000000000000E+00     5.0000000000205946E-01     0.0000000000000000E+00 
    0.0000000000000000E+00     4.3750000000182099E-01     0.0000000000000000E+00 
    0.0000000000000000E+00     3.7500000000156092E-01     0.0000000000000000E+00 
    0.0000000000000000E+00     3.1250000000130068E-01     0.0000000000000000E+00 
    0.0000000000000000E+00     2.5000000000104050E-01     0.0000000000000000E+00 
    0.0000000000000000E+00     1.8750000000078040E-01     0.0000000000000000E+00 
    0.0000000000000000E+00     1.2500000000052031E-01     0.0000000000000000E+00 
    0.0000000000000000E+00     6.2500000000260125E-02     0.0000000000000000E+00 
    6.2499999999897131E-02     6.2500000000235922E-02     0.0000000000000000E+00 
    6.2499999999921327E-02     1.2500000000047351E-01     0.0000000000000000E+00 
    6.2499999999945530E-02     1.8750000000070621E-01     0.0000000000000000E+00 
    6.2499999999969733E-02     2.5000000000093858E-01     0.0000000000000000E+00 
    6.2499999999993928E-02     3.1250000000117117E-01     0.0000000000000000E+00 
    6.2500000000018124E-02     3.7500000000140382E-01     0.0000000000000000E+00 
    6.2500000000042327E-02     4.3750000000163619E-01     0.0000000000000000E+00 
    6.2500000000066530E-02     5.0000000000184897E-01     0.0000000000000000E+00 
    6.2500000000090733E-02     5.6250000000147260E-01     0.0000000000000000E+00 
    6.2500000000114922E-02     6.2500000000107636E-01     0.0000000000000000E+00 
    6.2500000000139125E-02     6.8750000000068034E-01     0.0000000000000000E+00 
    6.2500000000163328E-02     7.5000000000028411E-01     0.0000000000000000E+00 
    6.2500000000187531E-02     8.1249999999988787E-01     0.0000000000000000E+00 
    6.2500000000211720E-02     8.7499999999951172E-01     0.0000000000000000E+00 
    6.2500000000235922E-02     9.3749999999974565E-01     0.0000000000000000E+00 
    1.2499999999981980E-01     6.2500000000211733E-02     0.0000000000000000E+00 
    1.2499999999986650E-01     1.2500000000042691E-01     0.0000000000000000E+00 
    1.2499999999991319E-01     1.8750000000063199E-01     0.0000000000000000E+00 
    1.2499999999995989E-01     2.5000000000083678E-01     0.0000000000000000E+00 
    1.2500000000000661E-01     3.1250000000104172E-01     0.0000000000000000E+00 
    1.2500000000005329E-01     3.7500000000124661E-01     0.0000000000000000E+00 
    1.2500000000010000E-01     4.3750000000145117E-01     0.0000000000000000E+00 
    1.2500000000014669E-01     5.0000000000163858E-01     0.0000000000000000E+00 
    1.2500000000019340E-01     5.6250000000129741E-01     0.0000000000000000E+00 
    1.2500000000024011E-01     6.2500000000093847E-01     0.0000000000000000E+00 
    1.2500000000028680E-01     6.8750000000057998E-01     0.0000000000000000E+00 
    1.2500000000033351E-01     7.5000000000022127E-01     0.0000000000000000E+00 
    1.2500000000038020E-01     8.1249999999986211E-01     0.0000000000000000E+00 
    1.2500000000042691E-01     8.7499999999952238E-01     0.0000000000000000E+00 
    1.2500000000047359E-01     9.3749999999975164E-01     0.0000000000000000E+00 
    1.8749999999966760E-01     6.2500000000187531E-02     0.0000000000000000E+00 
    1.8749999999974179E-01     1.2500000000038020E-01     0.0000000000000000E+00 
    1.8749999999981601E-01     1.8750000000055780E-01     0.0000000000000000E+00 
    1.8749999999989009E-01     2.5000000000073502E-01     0.0000000000000000E+00 
    1.8749999999996431E-01     3.1250000000091221E-01     0.0000000000000000E+00 
    1.8750000000003850E-01     3.7500000000108941E-01     0.0000000000000000E+00 
    1.8750000000011269E-01     4.3750000000126649E-01     0.0000000000000000E+00 
    1.8750000000018691E-01     5.0000000000142808E-01     0.0000000000000000E+00 
    1.8750000000026110E-01     5.6250000000112244E-01     0.0000000000000000E+00 
    1.8750000000033529E-01     6.2500000000080080E-01     0.0000000000000000E+00 
    1.8750000000040951E-01     6.8750000000047962E-01     0.0000000000000000E+00 
    1.8750000000048361E-01     7.5000000000015843E-01     0.0000000000000000E+00 
    1.8750000000055780E-01     8.1249999999983680E-01     0.0000000000000000E+00 
    1.8750000000063199E-01     8.7499999999953304E-01     0.0000000000000000E+00 
    1.8750000000070621E-01     9.3749999999975764E-01     0.0000000000000000E+00 
    2.4999999999951281E-01     6.2500000000163314E-02     0.0000000000000000E+00 
    2.4999999999961461E-01     1.2500000000033351E-01     0.0000000000000000E+00 
    2.4999999999971650E-01     1.8750000000048361E-01     0.0000000000000000E+00 
    2.4999999999981831E-01     2.5000000000063310E-01     0.0000000000000000E+00 
    2.4999999999992020E-01     3.1250000000078260E-01     0.0000000000000000E+00 
    2.5000000000002198E-01     3.7500000000093209E-01     0.0000000000000000E+00 
    2.5000000000012390E-01     4.3750000000108180E-01     0.0000000000000000E+00 
    2.5000000000022571E-01     5.0000000000121769E-01     0.0000000000000000E+00 
    2.5000000000032763E-01     5.6250000000094724E-01     0.0000000000000000E+00 
    2.5000000000042938E-01     6.2500000000066314E-01     0.0000000000000000E+00 
    2.5000000000053119E-01     6.8750000000037925E-01     0.0000000000000000E+00 
[...]
CELL_DATA 256 
SCALARS Pressure double 1 
LOOKUP_TABLE default 

    2.4137712050343780E+00 
    2.3029896905007115E+00 
    2.2265681527783836E+00 
    2.1651816066936500E+00 
    2.1139698943432288E+00 
    2.0689781928951470E+00 
    2.0257819540625039E+00 
    1.9849862588114973E+00 
    1.9469254485785916E+00 
    1.9113907133980494E+00 
    1.8778730718516465E+00 
    1.8460356078249167E+00 
    1.8149336934237330E+00 
    1.7887431987925613E+00 
    1.7720785957699248E+00 
    1.7640006052790651E+00 
    2.3030422748096293E+00 
    2.2553617903017060E+00 
    2.2015990188641168E+00 
    2.1498408137241962E+00 
    2.1029378448907297E+00 
    2.0595814703236353E+00 
    2.0176080027177492E+00 
    1.9776690531462124E+00 
    1.9399620215765923E+00 
    1.9044094388167438E+00 
    1.8707856743291003E+00 
    1.8386651229318729E+00 
    1.8070895605674038E+00 
    1.7807271685516122E+00 
    1.7640403907500368E+00 
    1.7559268944841431E+00 
    2.2267227646653742E+00 
    2.2016812291704735E+00 
    2.1643612534869163E+00 
    2.1233281321907786E+00 
    2.0822954589449951E+00 
    2.0418011805819751E+00 
    2.0019392298414820E+00 
    1.9632933297367403E+00 
    1.9260957174167592E+00 
    1.8905575881948666E+00 
    1.8566643183401181E+00 
    1.8239230155002268E+00 
    1.7914592222304391E+00 
    1.7647568748245772E+00 
    1.7479676727708331E+00 
    1.7397546745987496E+00 
    2.1655095383232377E+00 
    2.1500125276196660E+00 
    2.1233845353151990E+00 
    2.0907014015923737E+00 
    2.0549089032738368E+00 
    2.0176640327370863E+00 
    1.9800295524858367E+00 
    1.9426170011282806E+00 
    1.9058605263012329E+00 
    1.8701791069796276E+00 
    1.8356986300826543E+00 
    1.8018575525901743E+00 
    1.7680777831095131E+00 
    1.7408330695201257E+00 
    1.7237859638966488E+00 
    1.7153806670590015E+00 
    2.1141532194686135E+00 
    2.1030205731355482E+00 
    2.0823293761771295E+00 
    2.0549170221162356E+00 
    2.0230512961394824E+00 
    1.9886874915258388E+00 
    1.9530090084317915E+00 
    1.9165065104571049E+00 
    1.8798433658110871E+00 
    1.8436317012688610E+00 
    1.8080915271840181E+00 
    1.7724635634037225E+00 
    1.7368842897926047E+00 
    1.7088719016631178E+00 
    1.6913413576300231E+00 
    1.6826146167395928E+00 
    2.0688915096091711E+00 
    2.0595145061231555E+00 
    2.0417824965224574E+00 
    2.0176605912597623E+00 
    1.9886883534900746E+00 
    1.9565123119871040E+00 
    1.9220909949092753E+00 
    1.8858573991412126E+00 
    1.8487228152753636E+00 
    1.8113958351211064E+00 
    1.7740698021601575E+00 
    1.7356888644653019E+00 
    1.6977551507735094E+00 
    1.6687022011249144E+00 
    1.6503658853528598E+00 
    1.6411387036916465E+00 
    2.0256956774846051E+00 
    2.0175425613351283E+00 
    2.0019110276439411E+00 
    1.9800207946276014E+00 
    1.9530074100687849E+00 
    1.9220906325980649E+00 
    1.8880379916674108E+00 
    1.8513802342206636E+00 
    1.8130843789180517E+00 
    1.7738195231074798E+00 
    1.7337260637048575E+00 
    1.6914132986055357E+00 
    1.6505656512281022E+00 
    1.6200794890198664E+00 
    1.6004325328845330E+00 
    1.5904273320893871E+00 
    1.9849625304456917E+00 
    1.9776365875142139E+00 
    1.9632720606988583E+00 
    1.9426103390939260E+00 
    1.9165089658674468E+00 
    1.8858622808399241E+00 
    1.8513840335322469E+00 
    1.8136408012716168E+00 
    1.7733581194611827E+00 
    1.7311393406940774E+00 
    1.6869405784688469E+00 
    1.6394287240256626E+00 
    1.5952738632295533E+00 
    1.5627189219970181E+00 
    1.5409513463295383E+00 
    1.5297174143836187E+00 
    1.9469050844338589E+00 
    1.9399334093585006E+00 
    1.9260801685060083E+00 
    1.9058598484146139E+00 
    1.8798534714690212E+00 
    1.8487359489309052E+00 
    1.8130961444330134E+00 
    1.7733651208847170E+00 
    1.7300678339150410E+00 
    1.6836024104803042E+00 
    1.6332771999872679E+00 
    1.5794476934154758E+00 
    1.5318973627764449E+00 
    1.4961271250297892E+00 
    1.4709730669091552E+00 
    1.4577779337937482E+00 
    1.9113359544064696E+00 
    1.9043689095951717E+00 
    1.8905442314650676E+00 
    1.8701840824823959E+00 
    1.8436489548431358E+00 
    1.8114157633554668E+00 
    1.7738371448706947E+00 
    1.7311533008731723E+00 
    1.6836104681703929E+00 
    1.6309936616753500E+00 
    1.5725209061494763E+00 
    1.5127595125499853E+00 
    1.4610888582560513E+00 
    1.4196189939521759E+00 
    1.3890483788804591E+00 
    1.3726499365008538E+00 
    1.8778346714779033E+00 
    1.8707605140349088E+00 
    1.8566612681355332E+00 
    1.8357119528130916E+00 
    1.8081146952714517E+00 
    1.7740942330682594E+00 
    1.7337472432812524E+00 
    1.6869594099791703E+00 
    1.6332912101295327E+00 
    1.5725293788489982E+00 
    1.5066998628932431E+00 
    1.4421525387247787E+00 
    1.3834657420868994E+00 
    1.3323008371803746E+00 
    1.2929291593299863E+00 
    1.2711091386874727E+00 
    1.8460206768133549E+00 
    1.8386590011653283E+00 
    1.8239321887735429E+00 
    1.8018791205130851E+00 
    1.7724923944826618E+00 
    1.7357190469346011E+00 
    1.6914415816722927E+00 
    1.6394562382508833E+00 
    1.5794738210078281E+00 
    1.5127826411878864E+00 
    1.4421659366173503E+00 
    1.3703194216905987E+00 
    1.2994220961891330E+00 
    1.2332411289237810E+00 
    1.1793113335034535E+00 
    1.1477764163771267E+00 
    1.8149421433390496E+00 
    1.8071046687555903E+00 
    1.7914857664854469E+00 
    1.7681145541807861E+00 
    1.7369281782718859E+00 
    1.6978029698224109E+00 
    1.6506154182689063E+00 
    1.5953248427603899E+00 
    1.5319462459988158E+00 
    1.4611311297147243E+00 
    1.3834950155177987E+00 
    1.2994367010293848E+00 
    1.2106886916578876E+00 
    1.1219507842353387E+00 
    1.0433289909226418E+00 
    9.9292254977527528E-01 
    1.7887913842055307E+00 
    1.7807786098969602E+00 
    1.7648144934891083E+00 
    1.7408967809777496E+00 
    1.7089404405448425E+00 
    1.6687738704983526E+00 
    1.6201520433100023E+00 
    1.5627901245494944E+00 
    1.4961926468362228E+00 
    1.4196745479146564E+00 
    1.3323422296145140E+00 
    1.2332679065160597E+00 
    1.1219631307177600E+00 
    1.0005575439071572E+00 
    8.7915482119913879E-01 
    7.8767163797799711E-01 
    1.7721526697531986E+00 
    1.7641148388751202E+00 
    1.7480441058279508E+00 
    1.7238647167769603E+00 
    1.6914221691847411E+00 
    1.6504481546456933E+00 
    1.6005140459743645E+00 
    1.5410298496623300E+00 
    1.4710451841987091E+00 
    1.3891104846433409E+00 
    1.2929774715831652E+00 
    1.1793455085926661E+00 
    1.0433493559738962E+00 
    8.7916331673708026E-01 
    6.8505812230045593E-01 
    4.9092554522108822E-01 
    1.7640754057490011E+00 
    1.7560019813009018E+00 
    1.7398312103159859E+00 
    1.7154589081814104E+00 
    1.6826944313815029E+00 
    1.6412199253007649E+00 
    1.5905073799025642E+00 
    1.5297938983834327E+00 
    1.4578478766565934E+00 
    1.3727100720008920E+00 
    1.2711566932776226E+00 
    1.1478110598925664E+00 
    9.9294473154839857E-01 
    7.8768318929490044E-01 
    4.9092944085254719E-01 
    0.0000000000000000E+00 

SCALARS Saturarion double 1 
LOOKUP_TABLE default 

    1.0000000000000000E+00 
    9.2447564178303854E-01 
    8.6523534312778849E-01 
    8.0766664334313154E-01 
    8.1055439116504169E-01 
    7.2131425631724333E-01 
    6.6223513226689346E-01 
    6.1194705635726809E-01 
    5.7388903358006815E-01 
    5.2100306685784714E-01 
    4.6527178098262978E-01 
    3.9364671414437546E-01 
    2.6940868624198960E-01 
    6.8991485170790484E-02 
    9.1482588515293822E-04 
    1.7273463536524007E-08 
    9.2446799087092757E-01 
    8.7847961115596929E-01 
    8.2862930041671279E-01 
    7.7866020493416455E-01 
    7.3442543250532610E-01 
    6.8724772529088030E-01 
    6.4160734539495246E-01 
    5.9763986528634550E-01 
    5.5463910881784728E-01 
    5.0897626842623067E-01 
    4.5653587793494199E-01 
    3.8539401428529063E-01 
    2.5572949989993432E-01 
    5.5775812066612043E-02 
    4.9605263175864006E-04 
    3.8762571551427038E-09 
    8.6520385148302736E-01 
    8.2861454616629882E-01 
    7.8698192389337185E-01 
    7.4437722125342221E-01 
    7.0281661132862250E-01 
    6.6182248089456752E-01 
    6.2146924014896443E-01 
    5.8165480186207985E-01 
    5.4126162627803687E-01 
    4.9803213735127272E-01 
    4.4719124795133203E-01 
    3.7546611916064238E-01 
    2.3749608651598994E-01 
    4.0873896017165873E-02 
    2.0506768358028989E-04 
    4.4641101526610880E-10 
    8.0758479507302550E-01 
    7.7863621153133877E-01 
    7.4438242857801973E-01 
    7.0859206891377635E-01 
    6.7254361662609496E-01 
    6.3664894620832868E-01 
    6.0081067726287996E-01 
    5.6473383240402331E-01 
    5.2738642297569993E-01 
    4.8658043650465838E-01 
    4.3734069313311008E-01 
    3.6433163738173868E-01 
    2.1451680299798651E-01 
    2.6488353845073115E-02 
    6.1462066691969861E-05 
    2.2999421968253833E-11 
    8.0102585134543380E-01 
    7.3374261398979057E-01 
    7.0270847752813759E-01 
    6.7252104459739925E-01 
    6.4188747016217185E-01 
    6.1081433808610686E-01 
    5.7909199330707639E-01 
    5.4672888496189520E-01 
    5.1257444953333209E-01 
    4.7447465702291364E-01 
    4.2655738576810226E-01 
    3.5119494095650600E-01 
    1.8447387475725968E-01 
    1.5125835177062313E-02 
    1.2935485401163526E-05 
    4.2634136996469727E-13 
    7.1812231830699169E-01 
    6.8661211384249266E-01 
    6.6166702057015925E-01 
    6.3660399121162892E-01 
    6.1079955203875802E-01 
    6.0053568857816597E-01 
    5.6174205297806401E-01 
    5.2958974025565908E-01 
    4.9738310764349347E-01 
    4.6505594202051220E-01 
    4.1587589104886807E-01 
    3.3531650782120670E-01 
    1.4791450734019654E-01 
    6.7001868791021595E-03 
    1.4459758468690948E-06 
    1.4938173455522387E-15 
    6.6067417240022364E-01 
    6.4112078405773576E-01 
    6.2130714264485176E-01 
    6.0075041670869844E-01 
    5.7906455952173852E-01 
    5.6173010885069619E-01 
    5.3605755056034454E-01 
    5.0922376244591960E-01 
    4.8038534084750095E-01 
    4.4812122035533586E-01 
    4.0187580976562320E-01 
    3.1415109936875640E-01 
    1.0495200205055744E-01 
    2.0656615077105068E-03 
    5.8019808743661461E-08 
    2.1943089164679840E-19 
    6.1104851175164077E-01 
    5.9726681794732817E-01 
    5.8149631782570654E-01 
    5.6465935824926272E-01 
    5.4668760454194720E-01 
    5.2956502679796902E-01 
    5.0921134463102979E-01 
    4.8672703048725469E-01 
    4.6131111121120633E-01 
    4.3070106013640702E-01 
    3.8510150288876094E-01 
    2.8290878098491978E-01 
    5.8168799025157883E-02 
    2.9664412673614359E-04 
    2.1396980649507239E-10 
    1.3467311724804005E-26 
    5.7078912372628920E-01 
    5.5413792434278264E-01 
    5.4107858459201053E-01 
    5.2729238251590616E-01 
    5.1251438778969416E-01 
    4.9734050152632170E-01 
    4.8035736406775875E-01 
    4.6129631196478033E-01 
    4.3883271020750042E-01 
    4.0962869350567271E-01 
    3.6068647888653144E-01 
    2.1897926924892955E-01 
    1.6682840670347771E-02 
    5.3817004423575557E-06 
    9.7452795285342315E-16 
    5.8771881689006299E-44 
    5.1945304469455422E-01 
    5.0853038515721605E-01 
    4.9783763325378472E-01 
    4.8646645572922820E-01 
    4.7439098543686470E-01 
    4.6465695307015392E-01 
    4.4796407488297935E-01 
    4.3062895069112872E-01 
    4.0959499538372690E-01 
    3.8030146281815230E-01 
    3.1588509541042253E-01 
    9.7617011380362231E-02 
    6.9709892355787097E-04 
    1.3144770578602133E-10 
    6.4134738353980518E-32 
   8.5413636415703356E-102 
    4.6438501178578678E-01 
    4.5615021562529773E-01 
    4.4697717762749301E-01 
    4.3719346631674766E-01 
    4.2643935874657907E-01 
    4.1567418937099376E-01 
    4.0171933590042075E-01 
    3.8498603613358434E-01 
    3.6059512903477514E-01 
    3.1580891288679330E-01 
    1.6384440634529249E-01 
    4.1048038972295014E-03 
    7.7879097843861547E-09 
    4.9396709141444492E-28 
    1.7203258219357526E-93 
   1.8997416961370939E-318 
    3.9299107452565368E-01 
    3.8497932942644369E-01 
    3.7516610942396927E-01 
    3.6408513945356608E-01 
    3.5096957041918742E-01 
    3.3506608274794825E-01 
    3.1388698460018855E-01 
    2.8262451082504070E-01 
    2.1865723806582871E-01 
    9.7426675541755201E-02 
    4.0997362592346690E-03 
    1.8341753507272783E-08 
    4.6551268110442447E-27 
    2.6663050070632362E-91 
   1.1411187932247082E-313 
    0.0000000000000000E+00 
    2.6857705943800098E-01 
    2.5505294127108191E-01 
    2.3691721224970250E-01 
    2.1399286946370821E-01 
    1.8398505930001882E-01 
    1.4746073335096069E-01 
    1.0457052812991055E-01 
    5.7918876549738027E-02 
    1.6595132966222066E-02 
    6.9333160961733691E-04 
    7.7620897680003914E-09 
    4.6490768905488377E-27 
    7.0126959102923710E-91 
   1.5340716169279178E-312 
    0.0000000000000000E+00 
    0.0000000000000000E+00 
    6.8279689554871348E-02 
    5.5269533970413738E-02 
    4.0532122283012617E-02 
    2.6271754142447507E-02 
    1.4991524824921259E-02 
    6.6364603849965054E-03 
    2.0440336056058513E-03 
    2.9317057335622761E-04 
    5.3094299399495652E-06 
    1.2973254272383759E-10 
    4.9051010756192426E-28 
    2.6582696082117693E-91 
   1.5324403560372661E-312 
    0.0000000000000000E+00 
    0.0000000000000000E+00 
    0.0000000000000000E+00 
    8.8879240326088303E-04 
    4.8406129223631798E-04 
    2.0064361114699718E-04 
    6.0199052250090597E-05 
    1.2638820027264213E-05 
    1.4121114654905822E-06 
    5.6554203849944603E-08 
    2.0787860903253451E-10 
    9.4240610064271079E-16 
    6.2334835938696313E-32 
    1.6953932481539730E-93 
   1.1335164114584158E-313 
    0.0000000000000000E+00 
    0.0000000000000000E+00 
    0.0000000000000000E+00 
    0.0000000000000000E+00 
    1.6066492241177479E-08 
    3.6602189357114546E-09 
    4.2466535467380911E-10 
    2.1935578889802118E-11 
    4.0214444823838917E-13 
    1.4119499277583626E-15 
    2.0644167011679170E-19 
    1.2561772705695912E-26 
    5.4013316801806676E-44 
   8.0416294768880626E-102 
   1.8402957176294751E-318 
    0.0000000000000000E+00 
    0.0000000000000000E+00 
    0.0000000000000000E+00 
    0.0000000000000000E+00 
    0.0000000000000000E+00 
