# vtk DataFile Version 2.0
Pressure Field Data 
ASCII 
DATASET UNSTRUCTURED_GRID 

POINTS 289 double 

    0.0000000000000000E+00     0.0000000000000000E+00     0.0000000000000000E+00 
    1.0000000000000000E+00     0.0000000000000000E+00     0.0000000000000000E+00 
    1.0000000000000000E+00     1.0000000000000000E+00     0.0000000000000000E+00 
    0.0000000000000000E+00     1.0000000000000000E+00     0.0000000000000000E+00 
    6.2499999999872928E-02     0.0000000000000000E+00     0.0000000000000000E+00 
    1.2499999999977310E-01     0.0000000000000000E+00     0.0000000000000000E+00 
    1.8749999999959341E-01     0.0000000000000000E+00     0.0000000000000000E+00 
    2.4999999999941089E-01     0.0000000000000000E+00     0.0000000000000000E+00 
    3.1249999999922851E-01     0.0000000000000000E+00     0.0000000000000000E+00 
    3.7499999999904610E-01     0.0000000000000000E+00     0.0000000000000000E+00 
    4.3749999999886358E-01     0.0000000000000000E+00     0.0000000000000000E+00 
    4.9999999999869210E-01     0.0000000000000000E+00     0.0000000000000000E+00 
    5.6249999999884603E-01     0.0000000000000000E+00     0.0000000000000000E+00 
    6.2499999999901090E-01     0.0000000000000000E+00     0.0000000000000000E+00 
    6.8749999999917577E-01     0.0000000000000000E+00     0.0000000000000000E+00 
    7.4999999999934064E-01     0.0000000000000000E+00     0.0000000000000000E+00 
    8.1249999999950551E-01     0.0000000000000000E+00     0.0000000000000000E+00 
    8.7499999999967026E-01     0.0000000000000000E+00     0.0000000000000000E+00 
    9.3749999999983513E-01     0.0000000000000000E+00     0.0000000000000000E+00 
    1.0000000000000000E+00     6.2499999999872928E-02     0.0000000000000000E+00 
    1.0000000000000000E+00     1.2499999999977310E-01     0.0000000000000000E+00 
    1.0000000000000000E+00     1.8749999999959341E-01     0.0000000000000000E+00 
    1.0000000000000000E+00     2.4999999999941089E-01     0.0000000000000000E+00 
    1.0000000000000000E+00     3.1249999999922851E-01     0.0000000000000000E+00 
    1.0000000000000000E+00     3.7499999999904610E-01     0.0000000000000000E+00 
    1.0000000000000000E+00     4.3749999999886358E-01     0.0000000000000000E+00 
    1.0000000000000000E+00     4.9999999999869210E-01     0.0000000000000000E+00 
    1.0000000000000000E+00     5.6249999999884603E-01     0.0000000000000000E+00 
    1.0000000000000000E+00     6.2499999999901090E-01     0.0000000000000000E+00 
    1.0000000000000000E+00     6.8749999999917577E-01     0.0000000000000000E+00 
    1.0000000000000000E+00     7.4999999999934064E-01     0.0000000000000000E+00 
    1.0000000000000000E+00     8.1249999999950551E-01     0.0000000000000000E+00 
    1.0000000000000000E+00     8.7499999999967026E-01     0.0000000000000000E+00 
    1.0000000000000000E+00     9.3749999999983513E-01     0.0000000000000000E+00 
    9.3749999999973976E-01     1.0000000000000000E+00     0.0000000000000000E+00 
    8.7499999999950118E-01     1.0000000000000000E+00     0.0000000000000000E+00 
    8.1249999999991318E-01     1.0000000000000000E+00     0.0000000000000000E+00 
    7.5000000000034706E-01     1.0000000000000000E+00     0.0000000000000000E+00 
    6.8750000000078049E-01     1.0000000000000000E+00     0.0000000000000000E+00 
    6.2500000000121403E-01     1.0000000000000000E+00     0.0000000000000000E+00 
    5.6250000000164757E-01     1.0000000000000000E+00     0.0000000000000000E+00 
    5.0000000000205946E-01     1.0000000000000000E+00     0.0000000000000000E+00 
    4.3750000000182099E-01     1.0000000000000000E+00     0.0000000000000000E+00 
    3.7500000000156092E-01     1.0000000000000000E+00     0.0000000000000000E+00 
    3.1250000000130068E-01     1.0000000000000000E+00     0.0000000000000000E+00 
    2.5000000000104050E-01     1.0000000000000000E+00     0.0000000000000000E+00 
    1.8750000000078040E-01     1.0000000000000000E+00     0.0000000000000000E+00 
    1.2500000000052031E-01     1.0000000000000000E+00     0.0000000000000000E+00 
    6.2500000000260125E-02     1.0000000000000000E+00     0.0000000000000000E+00 
    0.0000000000000000E+00     9.3749999999973976E-01     0.0000000000000000E+00 
    0.0000000000000000E+00     8.7499999999950118E-01     0.0000000000000000E+00 
    0.0000000000000000E+00     8.1249999999991318E-01     0.0000000000000000E+00 
    0.0000000000000000E+00     7.5000000000034706E-01     0.0000000000000000E+00 
    0.0000000000000000E+00     6.8750000000078049E-01     0.0000000000000000E+00 
    0.0000000000000000E+00     6.2500000000121403E-01     0.0000000000000000E+00 
    0.0000000000000000E+00     5.6250000000164757E-01     0.0000000000000000E+00 
    0.0000000000000000E+00     5.0000000000205946E-01     0.0000000000000000E+00 
    0.0000000000000000E+00     4.3750000000182099E-01     0.0000000000000000E+00 
    0.0000000000000000E+00     3.7500000000156092E-01     0.0000000000000000E+00 
    0.0000000000000000E+00     3.1250000000130068E-01     0.0000000000000000E+00 
    0.0000000000000000E+00     2.5000000000104050E-01     0.0000000000000000E+00 
    0.0000000000000000E+00     1.8750000000078040E-01     0.0000000000000000E+00 
    0.0000000000000000E+00     1.2500000000052031E-01     0.0000000000000000E+00 
    0.0000000000000000E+00     6.2500000000260125E-02     0.0000000000000000E+00 
    6.2499999999897131E-02     6.2500000000235922E-02     0.0000000000000000E+00 
    6.2499999999921327E-02     1.2500000000047351E-01     0.0000000000000000E+00 
    6.2499999999945530E-02     1.8750000000070621E-01     0.0000000000000000E+00 
    6.2499999999969733E-02     2.5000000000093858E-01     0.0000000000000000E+00 
    6.2499999999993928E-02     3.1250000000117117E-01     0.0000000000000000E+00 
    6.2500000000018124E-02     3.7500000000140382E-01     0.0000000000000000E+00 
    6.2500000000042327E-02     4.3750000000163619E-01     0.0000000000000000E+00 
    6.2500000000066530E-02     5.0000000000184897E-01     0.0000000000000000E+00 
    6.2500000000090733E-02     5.6250000000147260E-01     0.0000000000000000E+00 
    6.2500000000114922E-02     6.2500000000107636E-01     0.0000000000000000E+00 
    6.2500000000139125E-02     6.8750000000068034E-01     0.0000000000000000E+00 
    6.2500000000163328E-02     7.5000000000028411E-01     0.0000000000000000E+00 
    6.2500000000187531E-02     8.1249999999988787E-01     0.0000000000000000E+00 
    6.2500000000211720E-02     8.7499999999951172E-01     0.0000000000000000E+00 
    6.2500000000235922E-02     9.3749999999974565E-01     0.0000000000000000E+00 
    1.2499999999981980E-01     6.2500000000211733E-02     0.0000000000000000E+00 
    1.2499999999986650E-01     1.2500000000042691E-01     0.0000000000000000E+00 
    1.2499999999991319E-01     1.8750000000063199E-01     0.0000000000000000E+00 
    1.2499999999995989E-01     2.5000000000083678E-01     0.0000000000000000E+00 
    1.2500000000000661E-01     3.1250000000104172E-01     0.0000000000000000E+00 
    1.2500000000005329E-01     3.7500000000124661E-01     0.0000000000000000E+00 
    1.2500000000010000E-01     4.3750000000145117E-01     0.0000000000000000E+00 
    1.2500000000014669E-01     5.0000000000163858E-01     0.0000000000000000E+00 
    1.2500000000019340E-01     5.6250000000129741E-01     0.0000000000000000E+00 
    1.2500000000024011E-01     6.2500000000093847E-01     0.0000000000000000E+00 
    1.2500000000028680E-01     6.8750000000057998E-01     0.0000000000000000E+00 
    1.2500000000033351E-01     7.5000000000022127E-01     0.0000000000000000E+00 
    1.2500000000038020E-01     8.1249999999986211E-01     0.0000000000000000E+00 
    1.2500000000042691E-01     8.7499999999952238E-01     0.0000000000000000E+00 
    1.2500000000047359E-01     9.3749999999975164E-01     0.0000000000000000E+00 
    1.8749999999966760E-01     6.2500000000187531E-02     0.0000000000000000E+00 
    1.8749999999974179E-01     1.2500000000038020E-01     0.0000000000000000E+00 
    1.8749999999981601E-01     1.8750000000055780E-01     0.0000000000000000E+00 
    1.8749999999989009E-01     2.5000000000073502E-01     0.0000000000000000E+00 
    1.8749999999996431E-01     3.1250000000091221E-01     0.0000000000000000E+00 
    1.8750000000003850E-01     3.7500000000108941E-01     0.0000000000000000E+00 
    1.8750000000011269E-01     4.3750000000126649E-01     0.0000000000000000E+00 
    1.8750000000018691E-01     5.0000000000142808E-01     0.0000000000000000E+00 
    1.8750000000026110E-01     5.6250000000112244E-01     0.0000000000000000E+00 
    1.8750000000033529E-01     6.2500000000080080E-01     0.0000000000000000E+00 
    1.8750000000040951E-01     6.8750000000047962E-01     0.0000000000000000E+00 
    1.8750000000048361E-01     7.5000000000015843E-01     0.0000000000000000E+00 
    1.8750000000055780E-01     8.1249999999983680E-01     0.0000000000000000E+00 
    1.8750000000063199E-01     8.7499999999953304E-01     0.0000000000000000E+00 
    1.8750000000070621E-01     9.3749999999975764E-01     0.0000000000000000E+00 
    2.4999999999951281E-01     6.2500000000163314E-02     0.0000000000000000E+00 
    2.4999999999961461E-01     1.2500000000033351E-01     0.0000000000000000E+00 
    2.4999999999971650E-01     1.8750000000048361E-01     0.0000000000000000E+00 
    2.4999999999981831E-01     2.5000000000063310E-01     0.0000000000000000E+00 
    2.4999999999992020E-01     3.1250000000078260E-01     0.0000000000000000E+00 
    2.5000000000002198E-01     3.7500000000093209E-01     0.0000000000000000E+00 
    2.5000000000012390E-01     4.3750000000108180E-01     0.0000000000000000E+00 
    2.5000000000022571E-01     5.0000000000121769E-01     0.0000000000000000E+00 
    2.5000000000032763E-01     5.6250000000094724E-01     0.0000000000000000E+00 
    2.5000000000042938E-01     6.2500000000066314E-01     0.0000000000000000E+00 
    2.5000000000053119E-01     6.8750000000037925E-01     0.0000000000000000E+00 
[...]
CELL_DATA 256 
SCALARS Pressure double 1 
LOOKUP_TABLE default 

    2.4541004623319886E+00 
    2.3422260879598866E+00 
    2.2640751514734330E+00 
    2.2008595398759296E+00 
    2.1472730807365266E+00 
    2.0996023982788952E+00 
    2.0539971954349943E+00 
    2.0107611160958125E+00 
    1.9700088587054845E+00 
    1.9314562105875235E+00 
    1.8944155691223430E+00 
    1.8579488559893225E+00 
    1.8227772650310989E+00 
    1.7961130049228731E+00 
    1.7795124669481881E+00 
    1.7712477728294103E+00 
    2.3422705098165388E+00 
    2.2936471380939891E+00 
    2.2382916094506551E+00 
    2.1847657798489633E+00 
    2.1356814921947351E+00 
    2.0898408908112822E+00 
    2.0454950979404747E+00 
    2.0030922540223530E+00 
    1.9626811063376000E+00 
    1.9241002128218212E+00 
    1.8868707277547712E+00 
    1.8498895219738329E+00 
    1.8144552681490940E+00 
    1.7878835224244358E+00 
    1.7712687874447437E+00 
    1.7629855980856184E+00 
    2.2642057954679573E+00 
    2.2383621355456635E+00 
    2.1997479643461606E+00 
    2.1571190555458144E+00 
    2.1140826173814400E+00 
    2.0713281149180611E+00 
    2.0291388017110323E+00 
    1.9880052205073446E+00 
    1.9480917416303176E+00 
    1.9094833386766905E+00 
    1.8718251854721568E+00 
    1.8338175375874577E+00 
    1.7979285929650843E+00 
    1.7714902415465139E+00 
    1.7547991108854131E+00 
    1.7464529539700751E+00 
    2.2011313638043153E+00 
    2.1849117168315133E+00 
    2.1571683640461021E+00 
    2.1229899696452605E+00 
    2.0853546337597484E+00 
    2.0460410977983243E+00 
    2.0061400632609931E+00 
    1.9662453373932089E+00 
    1.9267553420528523E+00 
    1.8879271457691091E+00 
    1.8494465392475055E+00 
    1.8098523426193160E+00 
    1.7733421281957940E+00 
    1.7469719695544583E+00 
    1.7300687131941299E+00 
    1.7215839343969912E+00 
    2.1474419759448060E+00 
    2.1357629040157526E+00 
    2.1141187144409783E+00 
    2.0853656877042073E+00 
    2.0518702906575799E+00 
    2.0155760108072127E+00 
    1.9776545198463327E+00 
    1.9386770980017201E+00 
    1.8992536817450150E+00 
    1.8597637791895028E+00 
    1.8198188066227245E+00 
    1.7780567750186087E+00 
    1.7408279437247309E+00 
    1.7143310834779302E+00 
    1.6969878573779580E+00 
    1.6882427303516192E+00 
    2.0995570786594073E+00 
    2.0898064804142020E+00 
    2.0713264870094470E+00 
    2.0460470093231122E+00 
    2.0155808717457893E+00 
    1.9815217551864457E+00 
    1.9448762464413809E+00 
    1.9061887803428790E+00 
    1.8662297797085805E+00 
    1.8253749573291393E+00 
    1.7828811822629429E+00 
    1.7384241105487510E+00 
    1.7004912537594217E+00 
    1.6734870097111503E+00 
    1.6553638558823656E+00 
    1.6461729610071791E+00 
    2.0539485887693396E+00 
    2.0454610233619110E+00 
    2.0291313616770510E+00 
    2.0061442651239338E+00 
    1.9776600191107048E+00 
    1.9448788510423101E+00 
    1.9086365261271390E+00 
    1.8694949162111494E+00 
    1.8282121436619638E+00 
    1.7849914864677763E+00 
    1.7385322954569047E+00 
    1.6911577573696432E+00 
    1.6524871045173664E+00 
    1.6242618841571783E+00 
    1.6048363848037850E+00 
    1.5949037537379303E+00 
    2.0107604191267332E+00 
    2.0030841415174239E+00 
    1.9880048425680652E+00 
    1.9662534976798023E+00 
    1.9386883934717827E+00 
    1.9061982517097706E+00 
    1.8695007032039683E+00 
    1.8291093467080168E+00 
    1.7854924873693465E+00 
    1.7383703676561042E+00 
    1.6867589987801366E+00 
    1.6370432321535864E+00 
    1.5971086261257417E+00 
    1.5664261435744598E+00 
    1.5448600476960523E+00 
    1.5337076690988893E+00 
    1.9700145828905382E+00 
    1.9626796373398221E+00 
    1.9480987407074641E+00 
    1.9267705908872594E+00 
    1.8992730376856073E+00 
    1.8662479398348564E+00 
    1.8282273350850913E+00 
    1.7855011958672657E+00 
    1.7380940305655330E+00 
    1.6850871269916248E+00 
    1.6285052870997074E+00 
    1.5771187003103020E+00 
    1.5343288570650258E+00 
    1.4995046235416198E+00 
    1.4744943397112424E+00 
    1.4613627949471517E+00 
    1.9314387530881800E+00 
    1.9240926444889312E+00 
    1.9094945808175614E+00 
    1.8879495281383480E+00 
    1.8597918127016899E+00 
    1.8254020728984557E+00 
    1.7850152936307917E+00 
    1.7383876490459769E+00 
    1.6850964569054676E+00 
    1.6259938322517205E+00 
    1.5667567110903644E+00 
    1.5125949765733084E+00 
    1.4640373089029668E+00 
    1.4227683298325178E+00 
    1.3922607632142394E+00 
    1.3758921379527018E+00 
    1.8944116694747950E+00 
    1.8868763646972588E+00 
    1.8718466163484062E+00 
    1.8494783747685730E+00 
    1.8198546996720113E+00 
    1.7829147873183739E+00 
    1.7385619209764507E+00 
    1.6867860431383068E+00 
    1.6285288603131578E+00 
    1.5667727111981187E+00 
    1.5049028521314647E+00 
    1.4442858825890170E+00 
    1.3864457794080220E+00 
    1.3352509066308340E+00 
    1.2958660500687029E+00 
    1.2740382964051584E+00 
    1.8579634459401659E+00 
    1.8499110297381094E+00 
    1.8338510132852590E+00 
    1.8098954173484478E+00 
    1.7781052338317938E+00 
    1.7384739210219622E+00 
    1.6912077131988483E+00 
    1.6370931824101007E+00 
    1.5771639938188386E+00 
    1.5126294733217249E+00 
    1.4443031163183002E+00 
    1.3732747343952227E+00 
    1.3022558882343269E+00 
    1.2359734411992476E+00 
    1.1819652260742177E+00 
    1.1503835820185209E+00 
    1.8228288930585457E+00 
    1.8145116004678745E+00 
    1.7979930068191057E+00 
    1.7734136523193305E+00 
    1.7409039992717839E+00 
    1.7005688250694238E+00 
    1.6525637216654365E+00 
    1.5971817745670678E+00 
    1.5343933555997131E+00 
    1.4640885609131249E+00 
    1.3864795833376395E+00 
    1.3022724199120592E+00 
    1.2133519427997579E+00 
    1.1244416879496379E+00 
    1.0456667178010222E+00 
    9.9516032392289278E-01 
    1.7962054874045343E+00 
    1.7879771573034431E+00 
    1.7715864678580546E+00 
    1.7470702208270317E+00 
    1.7144298233412441E+00 
    1.6735842006194825E+00 
    1.6243552243199344E+00 
    1.5665135630860836E+00 
    1.4995824355421190E+00 
    1.4228326866425163E+00 
    1.3352980116788109E+00 
    1.2360034488109510E+00 
    1.1244553780118294E+00 
    1.0027872340591990E+00 
    8.8112204695187046E-01 
    7.8943976772813063E-01 
    1.7796222684877614E+00 
    1.7713780542183759E+00 
    1.7549084165435138E+00 
    1.7301777482215210E+00 
    1.6970958504131963E+00 
    1.6554696849144797E+00 
    1.6049377402405844E+00 
    1.5449546135033951E+00 
    1.4745789510343357E+00 
    1.3923321012976142E+00 
    1.2959207640934498E+00 
    1.1820034391415175E+00 
    1.0456892747515243E+00 
    8.8113139741989599E-01 
    6.8659149566196287E-01 
    4.9202547312668754E-01 
    1.7713572146162546E+00 
    1.7630946083284402E+00 
    1.7465617473119051E+00 
    1.7216920964638449E+00 
    1.6883495281343230E+00 
    1.6462775707092294E+00 
    1.5950036120519551E+00 
    1.5338003491965295E+00 
    1.4614454875729939E+00 
    1.3759618574831702E+00 
    1.2740926733270370E+00 
    1.1504227171823715E+00 
    9.9518515316402012E-01 
    7.8945261812820922E-01 
    4.9202979705929256E-01 
    0.0000000000000000E+00 

SCALARS Saturarion double 1 
LOOKUP_TABLE default 

    1.0000000000000000E+00 
    9.1793934913142905E-01 
    8.5494625568106952E-01 
    7.9456601826612139E-01 
    7.7919917404456129E-01 
    6.9978104938678132E-01 
    6.4205959038764160E-01 
    5.9129166822988832E-01 
    5.4918255336017185E-01 
    4.9476588022276008E-01 
    4.3316098127520347E-01 
    3.4377663043339418E-01 
    1.7208700474266364E-01 
    1.3845255115255528E-02 
    1.1992154756202981E-05 
    4.5357676206028421E-13 
    9.1793247726070626E-01 
    8.6895639596683882E-01 
    8.1651589165842631E-01 
    7.6449244643481096E-01 
    7.1752778574328768E-01 
    6.6915547237745565E-01 
    6.2246433928874789E-01 
    5.7721232555711655E-01 
    5.3211898048265771E-01 
    4.8319442996637302E-01 
    4.2364034888422653E-01 
    3.3181000346598294E-01 
    1.5001809793806001E-01 
    8.5722329575297976E-03 
    3.4232367354445594E-06 
    2.0501294996065570E-14 
    8.5491883523101309E-01 
    8.1650277163665008E-01 
    7.7312110582299431E-01 
    7.2904934529367382E-01 
    6.8598865681784882E-01 
    6.4373464086597387E-01 
    6.0213692287953524E-01 
    5.6086631311153257E-01 
    5.1836885758062545E-01 
    4.7149388823253291E-01 
    4.1249010770835925E-01 
    3.1564843583505969E-01 
    1.2049190487810808E-01 
    4.0626223034115365E-03 
    4.8617649876843250E-07 
    1.5131112362198225E-16 
    7.9449647611023977E-01 
    7.6446999262508875E-01 
    7.2905129825022419E-01 
    6.9215613154331157E-01 
    6.5497497601480248E-01 
    6.1796786485989286E-01 
    5.8091684648573361E-01 
    5.4330282661340235E-01 
    5.0367206585157487E-01 
    4.5877006273415721E-01 
    3.9995036877917672E-01 
    2.9482924703790436E-01 
    8.5958818767351952E-02 
    1.3423112186256134E-03 
    2.6308319423365959E-08 
    7.6418449081206800E-20 
    7.7215602451117771E-01 
    7.1696149681670207E-01 
    6.8589821040496879E-01 
    6.5495609725330184E-01 
    6.2338232810586824E-01 
    5.9127250700295009E-01 
    5.5834105722182281E-01 
    5.2435967540721728E-01 
    4.8764246716180293E-01 
    4.4472058027983152E-01 
    3.8453524321114113E-01 
    2.6264206674946666E-01 
    4.9813437568511525E-02 
    2.4571054353297986E-04 
    2.8660548491353983E-10 
    4.6356472830501028E-25 
    6.9719877482754811E-01 
    6.6863854456703908E-01 
    6.4360845158866975E-01 
    6.1793111346171758E-01 
    5.9125999776470461E-01 
    5.7551613453795392E-01 
    5.3844764479965035E-01 
    5.0543852300356529E-01 
    4.7055904897399381E-01 
    4.3127625370061373E-01 
    3.6682426334824936E-01 
    2.1708083503260295E-01 
    2.1009428483453742E-02 
    1.8654517028733569E-05 
    2.3059077031419548E-13 
    7.5375906838857533E-34 
    6.4078785988818932E-01 
    6.2207044459007366E-01 
    6.0200532170650789E-01 
    5.8086696795001114E-01 
    5.5831722420345242E-01 
    5.3843652226191530E-01 
    5.1174347231380124E-01 
    4.8324339958270346E-01 
    4.5095411693023812E-01 
    4.1062377303651382E-01 
    3.4034116094730743E-01 
    1.4605959773504537E-01 
    4.3984447294627155E-03 
    1.8549118402591993E-07 
    2.5565625147713723E-19 
    7.6863181055055347E-52 
    5.9056050927778747E-01 
    5.7690774085134933E-01 
    5.6073466900239577E-01 
    5.4323887804861493E-01 
    5.2432244940849326E-01 
    5.0541501674387301E-01 
    4.8323094311624343E-01 
    4.5815617063770619E-01 
    4.2783176916352306E-01 
    3.8540640104605572E-01 
    2.9333229213259221E-01 
    5.7942622846147457E-02 
    1.6547338775688557E-04 
    6.4080774128971614E-12 
    1.7750412376901766E-33 
    8.0177093638156220E-98 
    5.4691834537388062E-01 
    5.3172402133078089E-01 
    5.1821509853927017E-01 
    5.0358820492451395E-01 
    4.8758607038772445E-01 
    4.7051689782665435E-01 
    4.5092428504364068E-01 
    4.2781437109577930E-01 
    3.9731681848404699E-01 
    3.4536431744455515E-01 
    1.7508836633779423E-01 
    4.7705597959392040E-03 
    3.4569729107882306E-08 
    1.8906716160584826E-24 
    1.0938114254078139E-76 
   4.2877461205922860E-246 
    4.9360320903117705E-01 
    4.8283640053490667E-01 
    4.7132452907948857E-01 
    4.5866191302949355E-01 
    4.4463618023010809E-01 
    4.3100465344815625E-01 
    4.1050509376497002E-01 
    3.8533789332142337E-01 
    3.4531864639828991E-01 
    2.3476970910604728E-01 
    1.8761123586074204E-02 
    1.0078977682519392E-06 
    3.2316148182834603E-21 
    9.2465249566351619E-70 
   1.5186746418473200E-231 
    0.0000000000000000E+00 
    4.3245727567424530E-01 
    4.2330579855659300E-01 
    4.1228328740165232E-01 
    3.9979086082229859E-01 
    3.8439462984085931E-01 
    3.6663343970418200E-01 
    3.4016078382871856E-01 
    2.9312843540179462E-01 
    1.7486261119197283E-01 
    1.8738248905776678E-02 
    2.1720971803468361E-06 
    2.3747796002123387E-20 
    7.4022308572262224E-68 
   1.6792889127536012E-227 
    0.0000000000000000E+00 
    0.0000000000000000E+00 
    3.4315431135714575E-01 
    3.3136974063413227E-01 
    3.1528868513822378E-01 
    2.9449185748782458E-01 
    2.6229221118999690E-01 
    2.1668692365183737E-01 
    1.4568259925056418E-01 
    5.7738750000926216E-02 
    4.7492208983406746E-03 
    1.0045796380332904E-06 
    2.3711185693037235E-20 
    1.7721388284189928E-67 
   1.6112612817055376E-226 
    0.0000000000000000E+00 
    0.0000000000000000E+00 
    0.0000000000000000E+00 
    1.7123730978385610E-01 
    1.4935439255831684E-01 
    1.1996937906702615E-01 
    8.5560577236156385E-02 
    4.9552614722567508E-02 
    2.0874395273155828E-02 
    4.3631996625063630E-03 
    1.6380779215861762E-04 
    3.4189918674059969E-08 
    3.2070544135203939E-21 
    7.3749517977292273E-68 
   1.6089332440396482E-226 
    0.0000000000000000E+00 
    0.0000000000000000E+00 
    0.0000000000000000E+00 
    0.0000000000000000E+00 
    1.3633517528732845E-02 
    8.4569238922737669E-03 
    4.0107826413519837E-03 
    1.3247777367473832E-03 
    2.4213486069860963E-04 
    1.8341125411920889E-05 
    1.8172429185149595E-07 
    6.2474495692955312E-12 
    1.8412548319270781E-24 
    9.0986568515943831E-70 
   1.6661118536387739E-227 
    0.0000000000000000E+00 
    0.0000000000000000E+00 
    0.0000000000000000E+00 
    0.0000000000000000E+00 
    0.0000000000000000E+00 
    1.1538332672888210E-05 
    3.3119393999384086E-06 
    4.7141085406280139E-07 
    2.5491297644258321E-08 
    2.7638098335607984E-10 
    2.2116860458373807E-13 
    2.4280083450952327E-19 
    1.6667251336920694E-33 
    1.0320497365986783E-76 
   1.4682397082819564E-231 
    0.0000000000000000E+00 
    0.0000000000000000E+00 
    0.0000000000000000E+00 
    0.0000000000000000E+00 
    0.0000000000000000E+00 
    0.0000000000000000E+00 
    4.1306276613928065E-13 
    1.8992166868831794E-14 
    1.4095176819039288E-16 
    7.0990714360747773E-20 
    4.2328242398057413E-25 
    6.7963681103066972E-34 
    6.7738868873313244E-52 
    6.8748757047503390E-98 
   3.7787776911599130E-246 
    0.0000000000000000E+00 
    0.0000000000000000E+00 
    0.0000000000000000E+00 
    0.0000000000000000E+00 
    0.0000000000000000E+00 
    0.0000000000000000E+00 
    0.0000000000000000E+00 
