# vtk DataFile Version 2.0
Pressure Field Data 
ASCII 
DATASET UNSTRUCTURED_GRID 

POINTS 289 double 

    0.0000000000000000E+00     0.0000000000000000E+00     0.0000000000000000E+00 
    1.0000000000000000E+00     0.0000000000000000E+00     0.0000000000000000E+00 
    1.0000000000000000E+00     1.0000000000000000E+00     0.0000000000000000E+00 
    0.0000000000000000E+00     1.0000000000000000E+00     0.0000000000000000E+00 
    6.2499999999872928E-02     0.0000000000000000E+00     0.0000000000000000E+00 
    1.2499999999977310E-01     0.0000000000000000E+00     0.0000000000000000E+00 
    1.8749999999959341E-01     0.0000000000000000E+00     0.0000000000000000E+00 
    2.4999999999941089E-01     0.0000000000000000E+00     0.0000000000000000E+00 
    3.1249999999922851E-01     0.0000000000000000E+00     0.0000000000000000E+00 
    3.7499999999904610E-01     0.0000000000000000E+00     0.0000000000000000E+00 
    4.3749999999886358E-01     0.0000000000000000E+00     0.0000000000000000E+00 
    4.9999999999869210E-01     0.0000000000000000E+00     0.0000000000000000E+00 
    5.6249999999884603E-01     0.0000000000000000E+00     0.0000000000000000E+00 
    6.2499999999901090E-01     0.0000000000000000E+00     0.0000000000000000E+00 
    6.8749999999917577E-01     0.0000000000000000E+00     0.0000000000000000E+00 
    7.4999999999934064E-01     0.0000000000000000E+00     0.0000000000000000E+00 
    8.1249999999950551E-01     0.0000000000000000E+00     0.0000000000000000E+00 
    8.7499999999967026E-01     0.0000000000000000E+00     0.0000000000000000E+00 
    9.3749999999983513E-01     0.0000000000000000E+00     0.0000000000000000E+00 
    1.0000000000000000E+00     6.2499999999872928E-02     0.0000000000000000E+00 
    1.0000000000000000E+00     1.2499999999977310E-01     0.0000000000000000E+00 
    1.0000000000000000E+00     1.8749999999959341E-01     0.0000000000000000E+00 
    1.0000000000000000E+00     2.4999999999941089E-01     0.0000000000000000E+00 
    1.0000000000000000E+00     3.1249999999922851E-01     0.0000000000000000E+00 
    1.0000000000000000E+00     3.7499999999904610E-01     0.0000000000000000E+00 
    1.0000000000000000E+00     4.3749999999886358E-01     0.0000000000000000E+00 
    1.0000000000000000E+00     4.9999999999869210E-01     0.0000000000000000E+00 
    1.0000000000000000E+00     5.6249999999884603E-01     0.0000000000000000E+00 
    1.0000000000000000E+00     6.2499999999901090E-01     0.0000000000000000E+00 
    1.0000000000000000E+00     6.8749999999917577E-01     0.0000000000000000E+00 
    1.0000000000000000E+00     7.4999999999934064E-01     0.0000000000000000E+00 
    1.0000000000000000E+00     8.1249999999950551E-01     0.0000000000000000E+00 
    1.0000000000000000E+00     8.7499999999967026E-01     0.0000000000000000E+00 
    1.0000000000000000E+00     9.3749999999983513E-01     0.0000000000000000E+00 
    9.3749999999973976E-01     1.0000000000000000E+00     0.0000000000000000E+00 
    8.7499999999950118E-01     1.0000000000000000E+00     0.0000000000000000E+00 
    8.1249999999991318E-01     1.0000000000000000E+00     0.0000000000000000E+00 
    7.5000000000034706E-01     1.0000000000000000E+00     0.0000000000000000E+00 
    6.8750000000078049E-01     1.0000000000000000E+00     0.0000000000000000E+00 
    6.2500000000121403E-01     1.0000000000000000E+00     0.0000000000000000E+00 
    5.6250000000164757E-01     1.0000000000000000E+00     0.0000000000000000E+00 
    5.0000000000205946E-01     1.0000000000000000E+00     0.0000000000000000E+00 
    4.3750000000182099E-01     1.0000000000000000E+00     0.0000000000000000E+00 
    3.7500000000156092E-01     1.0000000000000000E+00     0.0000000000000000E+00 
    3.1250000000130068E-01     1.0000000000000000E+00     0.0000000000000000E+00 
    2.5000000000104050E-01     1.0000000000000000E+00     0.0000000000000000E+00 
    1.8750000000078040E-01     1.0000000000000000E+00     0.0000000000000000E+00 
    1.2500000000052031E-01     1.0000000000000000E+00     0.0000000000000000E+00 
    6.2500000000260125E-02     1.0000000000000000E+00     0.0000000000000000E+00 
    0.0000000000000000E+00     9.3749999999973976E-01     0.0000000000000000E+00 
    0.0000000000000000E+00     8.7499999999950118E-01     0.0000000000000000E+00 
    0.0000000000000000E+00     8.1249999999991318E-01     0.0000000000000000E+00 
    0.0000000000000000E+00     7.5000000000034706E-01     0.0000000000000000E+00 
    0.0000000000000000E+00     6.8750000000078049E-01     0.0000000000000000E+00 
    0.0000000000000000E+00     6.2500000000121403E-01     0.0000000000000000E+00 
    0.0000000000000000E+00     5.6250000000164757E-01     0.0000000000000000E+00 
    0.0000000000000000E+00     5.0000000000205946E-01     0.0000000000000000E+00 
    0.0000000000000000E+00     4.3750000000182099E-01     0.0000000000000000E+00 
    0.0000000000000000E+00     3.7500000000156092E-01     0.0000000000000000E+00 
    0.0000000000000000E+00     3.1250000000130068E-01     0.0000000000000000E+00 
    0.0000000000000000E+00     2.5000000000104050E-01     0.0000000000000000E+00 
    0.0000000000000000E+00     1.8750000000078040E-01     0.0000000000000000E+00 
    0.0000000000000000E+00     1.2500000000052031E-01     0.0000000000000000E+00 
    0.0000000000000000E+00     6.2500000000260125E-02     0.0000000000000000E+00 
    6.2499999999897131E-02     6.2500000000235922E-02     0.0000000000000000E+00 
    6.2499999999921327E-02     1.2500000000047351E-01     0.0000000000000000E+00 
    6.2499999999945530E-02     1.8750000000070621E-01     0.0000000000000000E+00 
    6.2499999999969733E-02     2.5000000000093858E-01     0.0000000000000000E+00 
    6.2499999999993928E-02     3.1250000000117117E-01     0.0000000000000000E+00 
    6.2500000000018124E-02     3.7500000000140382E-01     0.0000000000000000E+00 
    6.2500000000042327E-02     4.3750000000163619E-01     0.0000000000000000E+00 
    6.2500000000066530E-02     5.0000000000184897E-01     0.0000000000000000E+00 
    6.2500000000090733E-02     5.6250000000147260E-01     0.0000000000000000E+00 
    6.2500000000114922E-02     6.2500000000107636E-01     0.0000000000000000E+00 
    6.2500000000139125E-02     6.8750000000068034E-01     0.0000000000000000E+00 
    6.2500000000163328E-02     7.5000000000028411E-01     0.0000000000000000E+00 
    6.2500000000187531E-02     8.1249999999988787E-01     0.0000000000000000E+00 
    6.2500000000211720E-02     8.7499999999951172E-01     0.0000000000000000E+00 
    6.2500000000235922E-02     9.3749999999974565E-01     0.0000000000000000E+00 
    1.2499999999981980E-01     6.2500000000211733E-02     0.0000000000000000E+00 
    1.2499999999986650E-01     1.2500000000042691E-01     0.0000000000000000E+00 
    1.2499999999991319E-01     1.8750000000063199E-01     0.0000000000000000E+00 
    1.2499999999995989E-01     2.5000000000083678E-01     0.0000000000000000E+00 
    1.2500000000000661E-01     3.1250000000104172E-01     0.0000000000000000E+00 
    1.2500000000005329E-01     3.7500000000124661E-01     0.0000000000000000E+00 
    1.2500000000010000E-01     4.3750000000145117E-01     0.0000000000000000E+00 
    1.2500000000014669E-01     5.0000000000163858E-01     0.0000000000000000E+00 
    1.2500000000019340E-01     5.6250000000129741E-01     0.0000000000000000E+00 
    1.2500000000024011E-01     6.2500000000093847E-01     0.0000000000000000E+00 
    1.2500000000028680E-01     6.8750000000057998E-01     0.0000000000000000E+00 
    1.2500000000033351E-01     7.5000000000022127E-01     0.0000000000000000E+00 
    1.2500000000038020E-01     8.1249999999986211E-01     0.0000000000000000E+00 
    1.2500000000042691E-01     8.7499999999952238E-01     0.0000000000000000E+00 
    1.2500000000047359E-01     9.3749999999975164E-01     0.0000000000000000E+00 
    1.8749999999966760E-01     6.2500000000187531E-02     0.0000000000000000E+00 
    1.8749999999974179E-01     1.2500000000038020E-01     0.0000000000000000E+00 
    1.8749999999981601E-01     1.8750000000055780E-01     0.0000000000000000E+00 
    1.8749999999989009E-01     2.5000000000073502E-01     0.0000000000000000E+00 
    1.8749999999996431E-01     3.1250000000091221E-01     0.0000000000000000E+00 
    1.8750000000003850E-01     3.7500000000108941E-01     0.0000000000000000E+00 
    1.8750000000011269E-01     4.3750000000126649E-01     0.0000000000000000E+00 
    1.8750000000018691E-01     5.0000000000142808E-01     0.0000000000000000E+00 
    1.8750000000026110E-01     5.6250000000112244E-01     0.0000000000000000E+00 
    1.8750000000033529E-01     6.2500000000080080E-01     0.0000000000000000E+00 
    1.8750000000040951E-01     6.8750000000047962E-01     0.0000000000000000E+00 
    1.8750000000048361E-01     7.5000000000015843E-01     0.0000000000000000E+00 
    1.8750000000055780E-01     8.1249999999983680E-01     0.0000000000000000E+00 
    1.8750000000063199E-01     8.7499999999953304E-01     0.0000000000000000E+00 
    1.8750000000070621E-01     9.3749999999975764E-01     0.0000000000000000E+00 
    2.4999999999951281E-01     6.2500000000163314E-02     0.0000000000000000E+00 
    2.4999999999961461E-01     1.2500000000033351E-01     0.0000000000000000E+00 
    2.4999999999971650E-01     1.8750000000048361E-01     0.0000000000000000E+00 
    2.4999999999981831E-01     2.5000000000063310E-01     0.0000000000000000E+00 
    2.4999999999992020E-01     3.1250000000078260E-01     0.0000000000000000E+00 
    2.5000000000002198E-01     3.7500000000093209E-01     0.0000000000000000E+00 
    2.5000000000012390E-01     4.3750000000108180E-01     0.0000000000000000E+00 
    2.5000000000022571E-01     5.0000000000121769E-01     0.0000000000000000E+00 
    2.5000000000032763E-01     5.6250000000094724E-01     0.0000000000000000E+00 
    2.5000000000042938E-01     6.2500000000066314E-01     0.0000000000000000E+00 
    2.5000000000053119E-01     6.8750000000037925E-01     0.0000000000000000E+00 
[...]
CELL_DATA 256 
SCALARS Pressure double 1 
LOOKUP_TABLE default 

    2.4227606218597213E+00 
    2.3117415293433745E+00 
    2.2349458220815408E+00 
    2.1731666046634799E+00 
    2.1214284707252307E+00 
    2.0758434908462764E+00 
    2.0321261603905687E+00 
    1.9908087182702323E+00 
    1.9521749484935125E+00 
    1.9160049532835042E+00 
    1.8817648414768167E+00 
    1.8490045415371263E+00 
    1.8168500910417873E+00 
    1.7904166638459966E+00 
    1.7737873519892302E+00 
    1.7656591842036369E+00 
    2.3117920795276770E+00 
    2.2639060502324444E+00 
    2.2097964174996449E+00 
    2.1576549295581193E+00 
    2.1102733004667389E+00 
    2.0663702930885872E+00 
    2.0238832181793169E+00 
    1.9834167662374702E+00 
    1.9451340665318169E+00 
    1.9089452056155503E+00 
    1.8745850386826415E+00 
    1.8415050928999177E+00 
    1.8088934248042174E+00 
    1.7823373684008066E+00 
    1.7656931650828096E+00 
    1.7575342607274924E+00 
    2.2350944841532119E+00 
    2.2098757888951623E+00 
    2.1722725065327380E+00 
    2.1308934627410605E+00 
    2.0894242520939939E+00 
    2.0484355004302417E+00 
    2.0080697585689538E+00 
    1.9688904666224574E+00 
    1.9311148475368312E+00 
    1.8949326263061976E+00 
    1.8602736554371451E+00 
    1.8264965751406028E+00 
    1.7930425165280526E+00 
    1.7662453442897050E+00 
    1.7495129652807608E+00 
    1.7412641940150464E+00 
    2.1734806532814659E+00 
    2.1578205033942659E+00 
    2.1309483079957858E+00 
    2.0979409538602960E+00 
    2.0617470564416398E+00 
    2.0240522934627125E+00 
    1.9859291214248878E+00 
    1.9479847504592771E+00 
    1.9106473697177453E+00 
    1.8743080238833774E+00 
    1.8390191488210617E+00 
    1.8040161379264643E+00 
    1.7693360539448517E+00 
    1.7421501049100088E+00 
    1.7251817010508044E+00 
    1.7167556981127394E+00 
    2.1216091626968949E+00 
    2.1103564964414754E+00 
    2.0894592029150640E+00 
    2.0617561493255310E+00 
    2.0295377915316353E+00 
    1.9947580594212413E+00 
    1.9585972403885630E+00 
    1.9215653396193919E+00 
    1.8843193625946351E+00 
    1.8474311695061894E+00 
    1.8110227126570664E+00 
    1.7740606330080082E+00 
    1.7377419309232187E+00 
    1.7099925004887808E+00 
    1.6925629897697130E+00 
    1.6838340389360422E+00 
    2.0757684105192000E+00 
    2.0663125154383493E+00 
    2.0484218063535966E+00 
    2.0240516723693500E+00 
    1.9947601711291170E+00 
    1.9621804290411538E+00 
    1.9272814549937602E+00 
    1.8905268185924404E+00 
    1.8528043254391153E+00 
    1.8147682830731937E+00 
    1.7764898461349168E+00 
    1.7366083421070686E+00 
    1.6982114820531047E+00 
    1.6696416496519919E+00 
    1.6514130749441795E+00 
    1.6422002020274182E+00 
    2.0320504393621128E+00 
    2.0238266703799841E+00 
    2.0080476233036659E+00 
    1.9859242917018458E+00 
    1.9585978924051919E+00 
    1.9272820645210234E+00 
    1.8927628445151223E+00 
    1.8555853727538245E+00 
    1.8166790947838021E+00 
    1.7766441230994778E+00 
    1.7354316579351652E+00 
    1.6915530268790586E+00 
    1.6507051985540195E+00 
    1.6208861543011386E+00 
    1.6013270636111216E+00 
    1.5913451096998430E+00 
    1.9907918674012293E+00 
    1.9833914434060504E+00 
    1.9688753776624046E+00 
    1.9479826336958568E+00 
    1.9215706816795262E+00 
    1.8905333038296210E+00 
    1.8555898850526298E+00 
    1.8173041814879032E+00 
    1.7763645193789763E+00 
    1.7332611982374306E+00 
    1.6875318913780004E+00 
    1.6386301959984131E+00 
    1.5952144958885373E+00 
    1.5634279167213341E+00 
    1.5417233872915903E+00 
    1.5305145669853120E+00 
    1.9521622564516754E+00 
    1.9451133593083931E+00 
    1.9311060039940888E+00 
    1.9106516532999360E+00 
    1.8843326298529079E+00 
    1.8528193655044729E+00 
    1.8166921133055662E+00 
    1.7763721447694627E+00 
    1.7323389277823060E+00 
    1.6847773581107270E+00 
    1.6325227187073839E+00 
    1.5781427699982011E+00 
    1.5319529159138443E+00 
    1.4967502848500738E+00 
    1.4716512239454838E+00 
    1.4584794400460337E+00 
    1.9159607918245796E+00 
    1.9089141483195582E+00 
    1.8949265573356211E+00 
    1.8743183929898317E+00 
    1.8474520919197082E+00 
    1.8147908421913053E+00 
    1.7766638396528307E+00 
    1.7332764667779370E+00 
    1.6847859121242135E+00 
    1.6305101263664448E+00 
    1.5704309253949837E+00 
    1.5117602415044056E+00 
    1.4615092066186188E+00 
    1.4202016685530690E+00 
    1.3896635037563394E+00 
    1.3732790203541057E+00 
    1.8817365018542842E+00 
    1.8745688826371787E+00 
    1.8602778406945180E+00 
    1.8390381274936420E+00 
    1.8110502136569289E+00 
    1.7765177635665592E+00 
    1.7354553394294303E+00 
    1.6875521536877978E+00 
    1.6325383345509592E+00 
    1.5704412402353707E+00 
    1.5049404749510724E+00 
    1.4421049630773304E+00 
    1.3840643524631941E+00 
    1.3328749866724676E+00 
    1.2934997691935064E+00 
    1.2716796265754176E+00 
    1.8489984835113609E+00 
    1.8415070559481079E+00 
    1.8265124768096166E+00 
    1.8040431997719757E+00 
    1.7740942470967933E+00 
    1.7366432977664503E+00 
    1.6915860432257002E+00 
    1.6386624520946103E+00 
    1.5781744445936243E+00 
    1.5117874945083665E+00 
    1.4421196492672701E+00 
    1.3709596266490292E+00 
    1.3000038942955152E+00 
    1.2337852260857256E+00 
    1.1798337476191234E+00 
    1.1482879538557114E+00 
    1.8168695550705836E+00 
    1.8089190563349935E+00 
    1.7930786547772826E+00 
    1.7693815210841182E+00 
    1.7377940021804823E+00 
    1.6982673164742135E+00 
    1.6507624615201728E+00 
    1.5952718354404563E+00 
    1.5320071422495520E+00 
    1.4615548693434586E+00 
    1.3840949627357413E+00 
    1.3000190919770043E+00 
    1.2112288379239178E+00 
    1.1224487665126173E+00 
    1.0437921490648345E+00 
    9.9336411977436156E-01 
    1.7904764199681509E+00 
    1.7823999286495820E+00 
    1.7663132678054836E+00 
    1.7422232085315159E+00 
    1.7100695462774542E+00 
    1.6697209078978283E+00 
    1.6209651114504691E+00 
    1.5635039645357440E+00 
    1.4968194712236988E+00 
    1.4202600046930207E+00 
    1.3329181809529940E+00 
    1.2338130398617073E+00 
    1.1224615532348121E+00 
    1.0010019695432766E+00 
    8.7954528128854836E-01 
    7.8802160624829831E-01 
    1.7738710528159529E+00 
    1.7657769602692170E+00 
    1.7495982048567136E+00 
    1.7252685899328981E+00 
    1.6926512053876741E+00 
    1.6515019596360641E+00 
    1.6014143440076996E+00 
    1.5418066538912187E+00 
    1.4717271353477357E+00 
    1.3897284978470668E+00 
    1.2935501174094204E+00 
    1.1798692289687973E+00 
    1.0438132359324872E+00 
    8.7955406258322777E-01 
    6.8536237623379848E-01 
    4.9114352761444052E-01 
    1.7657432767163193E+00 
    1.7576184170871687E+00 
    1.7413493511716700E+00 
    1.7168419697883459E+00 
    1.6839211913958629E+00 
    1.6422879651990079E+00 
    1.5914308664488981E+00 
    1.5305958361809224E+00 
    1.4585532413935098E+00 
    1.3733421071122052E+00 
    1.2717293192610279E+00 
    1.1483240279206077E+00 
    9.9338715762851926E-01 
    7.8803358288392122E-01 
    4.9114756428340434E-01 
    0.0000000000000000E+00 

SCALARS Saturarion double 1 
LOOKUP_TABLE default 

    1.0000000000000000E+00 
    9.2299646049464090E-01 
    8.6289384597296581E-01 
    8.0467248721683227E-01 
    8.0282080990382698E-01 
    7.1623859502837839E-01 
    6.5755389281625309E-01 
    6.0719919614610651E-01 
    5.6817629685653936E-01 
    5.1506934314049846E-01 
    4.5824879654356204E-01 
    3.8339506355248532E-01 
    2.4943808919873409E-01 
    5.1687957678903447E-02 
    4.0777070524716189E-04 
    2.4605626992413117E-09 
    9.2298900982255461E-01 
    8.7631456125324148E-01 
    8.2586504183950371E-01 
    7.7541854576021341E-01 
    7.3052409367479532E-01 
    6.8307387613110293E-01 
    6.3720608469329754E-01 
    5.9296561719089724E-01 
    5.4951889209401128E-01 
    5.0320346702061192E-01 
    4.4940768216258947E-01 
    3.7455458706591421E-01 
    2.3378186332983453E-01 
    3.9928204993037106E-02 
    1.9812987117013382E-04 
    4.2281432541348742E-10 
    8.6286339740501683E-01 
    8.2585070515173398E-01 
    7.8381181638886410E-01 
    7.4086642508730982E-01 
    6.9895343697226742E-01 
    6.5766975354994484E-01 
    6.1703941552231034E-01 
    5.7691144478125955E-01 
    5.3608051653268174E-01 
    4.9212734424569271E-01 
    4.3975626238700150E-01 
    3.6366955617471103E-01 
    2.1252695470444144E-01 
    2.7207874740834987E-02 
    6.8629813974387617E-05 
    3.1368396373885859E-11 
    8.0459379665947417E-01 
    7.7539493210614252E-01 
    7.4087077731725726E-01 
    7.0482460902940158E-01 
    6.6851390987643122E-01 
    6.3236629851215964E-01 
    5.9626073995253781E-01 
    5.5985637749507500E-01 
    5.2204137232258341E-01 
    4.8043827180313126E-01 
    4.2946078192312992E-01 
    3.5117762041209183E-01 
    1.8547862606812149E-01 
    1.5813082316698396E-02 
    1.5753219106445061E-05 
    8.1512393636354110E-13 
    7.9395107989466285E-01 
    7.2986968432014099E-01 
    6.9884962102269288E-01 
    6.6849225386818767E-01 
    6.3764489356914966E-01 
    6.0633979961528628E-01 
    5.7435574044076054E-01 
    5.4165432364459354E-01 
    5.0698651748163615E-01 
    4.6796346313237941E-01 
    4.1789240443142200E-01 
    3.3532309651357861E-01 
    1.5042531208917595E-01 
    7.5163276650330752E-03 
    2.0950836553746920E-06 
    4.5674836996920499E-15 
    7.1319858898079702E-01 
    6.8246791431095621E-01 
    6.5752166312629057E-01 
    6.3232344909001548E-01 
    6.0632561412613240E-01 
    5.9470427079450106E-01 
    5.5639971582011893E-01 
    5.2412154153207668E-01 
    4.9141945580192786E-01 
    4.5772690069212707E-01 
    4.0613184285248494E-01 
    3.1553977683470819E-01 
    1.1026887437833627E-01 
    2.5931837762466878E-03 
    1.2238343775849698E-07 
    2.5322793566232882E-18 
    6.5606474309702423E-01 
    6.3674281387452192E-01 
    6.1688508964855671E-01 
    5.9620319054953108E-01 
    5.7432928126132965E-01 
    5.5638797951650065E-01 
    5.3052722394618623E-01 
    5.0339114532753670E-01 
    4.7393760477449193E-01 
    4.4027018249571997E-01 
    3.9060067353538247E-01 
    2.8740363438447725E-01 
    6.7156455921142125E-02 
    5.2017994849130281E-04 
    1.4317566925642015E-09 
    9.0170705416536598E-24 
    6.0634245125506048E-01 
    5.9260989964091171E-01 
    5.7675987368089865E-01 
    5.5978470500139288E-01 
    5.4161419077963358E-01 
    5.2409721560512523E-01 
    5.0337878327900221E-01 
    4.8041604075802136E-01 
    4.5416789549268538E-01 
    4.2176414388168082E-01 
    3.7096641967954291E-01 
    2.4118552108221522E-01 
    2.7347882755828203E-02 
    3.0339153015543584E-05 
    3.3500255129064697E-13 
    6.6046150982288986E-35 
    5.6529256633354619E-01 
    5.4904542873146134E-01 
    5.3590522632479543E-01 
    5.2195017568673019E-01 
    5.0692763913974070E-01 
    4.9137722934103750E-01 
    4.7390944475862945E-01 
    4.5415269842894995E-01 
    4.3044957827341124E-01 
    3.9843476685514645E-01 
    3.3924559517108199E-01 
    1.4850389218889376E-01 
    3.7615439339326452E-03 
    6.0401729551853463E-08 
    6.4488972023578445E-22 
    5.4845764070498693E-64 
    5.1362113591061354E-01 
    5.0278094518064853E-01 
    4.9193984367960719E-01 
    4.8032637462333633E-01 
    4.6788024548950524E-01 
    4.5736143693731707E-01 
    4.4012434963025943E-01 
    4.2169484349260389E-01 
    3.9840078835986298E-01 
    3.6305614872094749E-01 
    2.6686454270830817E-01 
    3.4362563027745568E-02 
    1.7180506747853936E-05 
    4.4262584094430922E-16 
    6.9736086243778310E-51 
   1.1718845953545679E-167 
    4.5741119789515194E-01 
    4.4903678931672408E-01 
    4.3954576012731172E-01 
    4.2931250760677886E-01 
    4.1777113502958996E-01 
    4.0593725528769248E-01 
    3.9044602208348778E-01 
    3.7084488478756411E-01 
    3.3913786782595040E-01 
    2.6675476519767360E-01 
    6.4705587231491932E-02 
    1.1007353431681712E-04 
    2.9969347924764488E-14 
    6.3838611611730359E-47 
   2.8503098015100331E-159 
    0.0000000000000000E+00 
    3.8275392924562079E-01 
    3.7413913516559166E-01 
    3.6336099335679373E-01 
    3.5091699468855964E-01 
    3.3507682338540062E-01 
    3.1526429202246609E-01 
    2.8710119427539410E-01 
    2.4084418439410440E-01 
    1.4819241308137582E-01 
    3.4279839170435325E-02 
    1.0992112037992386E-04 
    7.1249120068433576E-14 
    6.0836192493747253E-46 
   4.4449161082712925E-157 
    0.0000000000000000E+00 
    0.0000000000000000E+00 
    2.4858781405598376E-01 
    2.3308793956533805E-01 
    2.1193361517933290E-01 
    1.8494838012618578E-01 
    1.4995202904642579E-01 
    1.0986519287593358E-01 
    6.6862032453963341E-02 
    2.7201302288186666E-02 
    3.7376569781366756E-03 
    1.7072017967238471E-05 
    2.9869082569715697E-14 
    6.0756638192258050E-46 
   1.1701618834524713E-156 
    0.0000000000000000E+00 
    0.0000000000000000E+00 
    0.0000000000000000E+00 
    5.1102407282494107E-02 
    3.9529930345972068E-02 
    2.6955929731058002E-02 
    1.5668446618111762E-02 
    7.4412147143764883E-03 
    2.5651836437301147E-03 
    5.1386389767173679E-04 
    2.9914202978733477E-05 
    5.9434851331903856E-08 
    4.3652312333979447E-16 
    6.3386670580372059E-47 
   4.4306241973782233E-157 
    0.0000000000000000E+00 
    0.0000000000000000E+00 
    0.0000000000000000E+00 
    0.0000000000000000E+00 
    3.9539228698880869E-04 
    1.9300723235672141E-04 
    6.7031061416166602E-05 
    1.5399248614679631E-05 
    2.0422439229560605E-06 
    1.1915784716959156E-07 
    1.3897150298452664E-09 
    3.2367939662896506E-13 
    6.1936959163626532E-22 
    6.7707012566241272E-51 
   2.8060594520610077E-159 
    0.0000000000000000E+00 
    0.0000000000000000E+00 
    0.0000000000000000E+00 
    0.0000000000000000E+00 
    0.0000000000000000E+00 
    2.2791534613943011E-09 
    3.9776096048698740E-10 
    2.9723562825154036E-11 
    7.7388364611353583E-13 
    4.2839550396544596E-15 
    2.3749745008420410E-18 
    8.3950947203395778E-24 
    6.0624819401319850E-35 
    4.9768252940464422E-64 
   1.0975016432577195E-167 
    0.0000000000000000E+00 
    0.0000000000000000E+00 
    0.0000000000000000E+00 
    0.0000000000000000E+00 
    0.0000000000000000E+00 
    0.0000000000000000E+00 
