# vtk DataFile Version 2.0
Pressure Field Data 
ASCII 
DATASET UNSTRUCTURED_GRID 

POINTS 289 double 

    0.0000000000000000E+00     0.0000000000000000E+00     0.0000000000000000E+00 
    1.0000000000000000E+00     0.0000000000000000E+00     0.0000000000000000E+00 
    1.0000000000000000E+00     1.0000000000000000E+00     0.0000000000000000E+00 
    0.0000000000000000E+00     1.0000000000000000E+00     0.0000000000000000E+00 
    6.2499999999872928E-02     0.0000000000000000E+00     0.0000000000000000E+00 
    1.2499999999977310E-01     0.0000000000000000E+00     0.0000000000000000E+00 
    1.8749999999959341E-01     0.0000000000000000E+00     0.0000000000000000E+00 
    2.4999999999941089E-01     0.0000000000000000E+00     0.0000000000000000E+00 
    3.1249999999922851E-01     0.0000000000000000E+00     0.0000000000000000E+00 
    3.7499999999904610E-01     0.0000000000000000E+00     0.0000000000000000E+00 
    4.3749999999886358E-01     0.0000000000000000E+00     0.0000000000000000E+00 
    4.9999999999869210E-01     0.0000000000000000E+00     0.0000000000000000E+00 
    5.6249999999884603E-01     0.0000000000000000E+00     0.0000000000000000E+00 
    6.2499999999901090E-01     0.0000000000000000E+00     0.0000000000000000E+00 
    6.8749999999917577E-01     0.0000000000000000E+00     0.0000000000000000E+00 
    7.4999999999934064E-01     0.0000000000000000E+00     0.0000000000000000E+00 
    8.1249999999950551E-01     0.0000000000000000E+00     0.0000000000000000E+00 
    8.7499999999967026E-01     0.0000000000000000E+00     0.0000000000000000E+00 
    9.3749999999983513E-01     0.0000000000000000E+00     0.0000000000000000E+00 
    1.0000000000000000E+00     6.2499999999872928E-02     0.0000000000000000E+00 
    1.0000000000000000E+00     1.2499999999977310E-01     0.0000000000000000E+00 
    1.0000000000000000E+00     1.8749999999959341E-01     0.0000000000000000E+00 
    1.0000000000000000E+00     2.4999999999941089E-01     0.0000000000000000E+00 
    1.0000000000000000E+00     3.1249999999922851E-01     0.0000000000000000E+00 
    1.0000000000000000E+00     3.7499999999904610E-01     0.0000000000000000E+00 
    1.0000000000000000E+00     4.3749999999886358E-01     0.0000000000000000E+00 
    1.0000000000000000E+00     4.9999999999869210E-01     0.0000000000000000E+00 
    1.0000000000000000E+00     5.6249999999884603E-01     0.0000000000000000E+00 
    1.0000000000000000E+00     6.2499999999901090E-01     0.0000000000000000E+00 
    1.0000000000000000E+00     6.8749999999917577E-01     0.0000000000000000E+00 
    1.0000000000000000E+00     7.4999999999934064E-01     0.0000000000000000E+00 
    1.0000000000000000E+00     8.1249999999950551E-01     0.0000000000000000E+00 
    1.0000000000000000E+00     8.7499999999967026E-01     0.0000000000000000E+00 
    1.0000000000000000E+00     9.3749999999983513E-01     0.0000000000000000E+00 
    9.3749999999973976E-01     1.0000000000000000E+00     0.0000000000000000E+00 
    8.7499999999950118E-01     1.0000000000000000E+00     0.0000000000000000E+00 
    8.1249999999991318E-01     1.0000000000000000E+00     0.0000000000000000E+00 
    7.5000000000034706E-01     1.0000000000000000E+00     0.0000000000000000E+00 
    6.8750000000078049E-01     1.0000000000000000E+00     0.0000000000000000E+00 
    6.2500000000121403E-01     1.0000000000000000E+00     0.0000000000000000E+00 
    5.6250000000164757E-01     1.0000000000000000E+00     0.0000000000000000E+00 
    5.0000000000205946E-01     1.0000000000000000E+00     0.0000000000000000E+00 
    4.3750000000182099E-01     1.0000000000000000E+00     0.0000000000000000E+00 
    3.7500000000156092E-01     1.0000000000000000E+00     0.0000000000000000E+00 
    3.1250000000130068E-01     1.0000000000000000E+00     0.0000000000000000E+00 
    2.5000000000104050E-01     1.0000000000000000E+00     0.0000000000000000E+00 
    1.8750000000078040E-01     1.0000000000000000E+00     0.0000000000000000E+00 
    1.2500000000052031E-01     1.0000000000000000E+00     0.0000000000000000E+00 
    6.2500000000260125E-02     1.0000000000000000E+00     0.0000000000000000E+00 
    0.0000000000000000E+00     9.3749999999973976E-01     0.0000000000000000E+00 
    0.0000000000000000E+00     8.7499999999950118E-01     0.0000000000000000E+00 
    0.0000000000000000E+00     8.1249999999991318E-01     0.0000000000000000E+00 
    0.0000000000000000E+00     7.5000000000034706E-01     0.0000000000000000E+00 
    0.0000000000000000E+00     6.8750000000078049E-01     0.0000000000000000E+00 
    0.0000000000000000E+00     6.2500000000121403E-01     0.0000000000000000E+00 
    0.0000000000000000E+00     5.6250000000164757E-01     0.0000000000000000E+00 
    0.0000000000000000E+00     5.0000000000205946E-01     0.0000000000000000E+00 
    0.0000000000000000E+00     4.3750000000182099E-01     0.0000000000000000E+00 
    0.0000000000000000E+00     3.7500000000156092E-01     0.0000000000000000E+00 
    0.0000000000000000E+00     3.1250000000130068E-01     0.0000000000000000E+00 
    0.0000000000000000E+00     2.5000000000104050E-01     0.0000000000000000E+00 
    0.0000000000000000E+00     1.8750000000078040E-01     0.0000000000000000E+00 
    0.0000000000000000E+00     1.2500000000052031E-01     0.0000000000000000E+00 
    0.0000000000000000E+00     6.2500000000260125E-02     0.0000000000000000E+00 
    6.2499999999897131E-02     6.2500000000235922E-02     0.0000000000000000E+00 
    6.2499999999921327E-02     1.2500000000047351E-01     0.0000000000000000E+00 
    6.2499999999945530E-02     1.8750000000070621E-01     0.0000000000000000E+00 
    6.2499999999969733E-02     2.5000000000093858E-01     0.0000000000000000E+00 
    6.2499999999993928E-02     3.1250000000117117E-01     0.0000000000000000E+00 
    6.2500000000018124E-02     3.7500000000140382E-01     0.0000000000000000E+00 
    6.2500000000042327E-02     4.3750000000163619E-01     0.0000000000000000E+00 
    6.2500000000066530E-02     5.0000000000184897E-01     0.0000000000000000E+00 
    6.2500000000090733E-02     5.6250000000147260E-01     0.0000000000000000E+00 
    6.2500000000114922E-02     6.2500000000107636E-01     0.0000000000000000E+00 
    6.2500000000139125E-02     6.8750000000068034E-01     0.0000000000000000E+00 
    6.2500000000163328E-02     7.5000000000028411E-01     0.0000000000000000E+00 
    6.2500000000187531E-02     8.1249999999988787E-01     0.0000000000000000E+00 
    6.2500000000211720E-02     8.7499999999951172E-01     0.0000000000000000E+00 
    6.2500000000235922E-02     9.3749999999974565E-01     0.0000000000000000E+00 
    1.2499999999981980E-01     6.2500000000211733E-02     0.0000000000000000E+00 
    1.2499999999986650E-01     1.2500000000042691E-01     0.0000000000000000E+00 
    1.2499999999991319E-01     1.8750000000063199E-01     0.0000000000000000E+00 
    1.2499999999995989E-01     2.5000000000083678E-01     0.0000000000000000E+00 
    1.2500000000000661E-01     3.1250000000104172E-01     0.0000000000000000E+00 
    1.2500000000005329E-01     3.7500000000124661E-01     0.0000000000000000E+00 
    1.2500000000010000E-01     4.3750000000145117E-01     0.0000000000000000E+00 
    1.2500000000014669E-01     5.0000000000163858E-01     0.0000000000000000E+00 
    1.2500000000019340E-01     5.6250000000129741E-01     0.0000000000000000E+00 
    1.2500000000024011E-01     6.2500000000093847E-01     0.0000000000000000E+00 
    1.2500000000028680E-01     6.8750000000057998E-01     0.0000000000000000E+00 
    1.2500000000033351E-01     7.5000000000022127E-01     0.0000000000000000E+00 
    1.2500000000038020E-01     8.1249999999986211E-01     0.0000000000000000E+00 
    1.2500000000042691E-01     8.7499999999952238E-01     0.0000000000000000E+00 
    1.2500000000047359E-01     9.3749999999975164E-01     0.0000000000000000E+00 
    1.8749999999966760E-01     6.2500000000187531E-02     0.0000000000000000E+00 
    1.8749999999974179E-01     1.2500000000038020E-01     0.0000000000000000E+00 
    1.8749999999981601E-01     1.8750000000055780E-01     0.0000000000000000E+00 
    1.8749999999989009E-01     2.5000000000073502E-01     0.0000000000000000E+00 
    1.8749999999996431E-01     3.1250000000091221E-01     0.0000000000000000E+00 
    1.8750000000003850E-01     3.7500000000108941E-01     0.0000000000000000E+00 
    1.8750000000011269E-01     4.3750000000126649E-01     0.0000000000000000E+00 
    1.8750000000018691E-01     5.0000000000142808E-01     0.0000000000000000E+00 
    1.8750000000026110E-01     5.6250000000112244E-01     0.0000000000000000E+00 
    1.8750000000033529E-01     6.2500000000080080E-01     0.0000000000000000E+00 
    1.8750000000040951E-01     6.8750000000047962E-01     0.0000000000000000E+00 
    1.8750000000048361E-01     7.5000000000015843E-01     0.0000000000000000E+00 
    1.8750000000055780E-01     8.1249999999983680E-01     0.0000000000000000E+00 
    1.8750000000063199E-01     8.7499999999953304E-01     0.0000000000000000E+00 
    1.8750000000070621E-01     9.3749999999975764E-01     0.0000000000000000E+00 
    2.4999999999951281E-01     6.2500000000163314E-02     0.0000000000000000E+00 
    2.4999999999961461E-01     1.2500000000033351E-01     0.0000000000000000E+00 
    2.4999999999971650E-01     1.8750000000048361E-01     0.0000000000000000E+00 
    2.4999999999981831E-01     2.5000000000063310E-01     0.0000000000000000E+00 
    2.4999999999992020E-01     3.1250000000078260E-01     0.0000000000000000E+00 
    2.5000000000002198E-01     3.7500000000093209E-01     0.0000000000000000E+00 
    2.5000000000012390E-01     4.3750000000108180E-01     0.0000000000000000E+00 
    2.5000000000022571E-01     5.0000000000121769E-01     0.0000000000000000E+00 
    2.5000000000032763E-01     5.6250000000094724E-01     0.0000000000000000E+00 
    2.5000000000042938E-01     6.2500000000066314E-01     0.0000000000000000E+00 
    2.5000000000053119E-01     6.8750000000037925E-01     0.0000000000000000E+00 
[...]
CELL_DATA 256 
SCALARS Pressure double 1 
LOOKUP_TABLE default 

    3.1585292094804114E+00 
    2.9930128984478013E+00 
    2.7866331729223828E+00 
    2.5776004639505761E+00 
    2.4149821088644927E+00 
    2.2905773680859212E+00 
    2.1876676605364391E+00 
    2.1010472530825517E+00 
    2.0275485788265124E+00 
    1.9652195636239873E+00 
    1.9128515560575461E+00 
    1.8697334624911548E+00 
    1.8354621403207383E+00 
    1.8098380170483892E+00 
    1.7927791900978121E+00 
    1.7842609096801965E+00 
    2.9930227669358622E+00 
    2.8860155425635141E+00 
    2.7062927645720514E+00 
    2.5272198142424673E+00 
    2.3848466785063271E+00 
    2.2692075344397549E+00 
    2.1714680070923338E+00 
    2.0880014811426690E+00 
    2.0164495969165475E+00 
    1.9553085476704011E+00 
    1.9036464737594552E+00 
    1.8609215003317754E+00 
    1.8268424341820921E+00 
    1.8012933637817743E+00 
    1.7842534788303279E+00 
    1.7757434939581596E+00 
    2.7866635715875785E+00 
    2.7063133726393875E+00 
    2.5762112218024140E+00 
    2.4462587973268404E+00 
    2.3313087961269869E+00 
    2.2300347337209314E+00 
    2.1410799253373249E+00 
    2.0631067635324873E+00 
    1.9950005633514234E+00 
    1.9359843571149857E+00 
    1.8855723729896967E+00 
    1.8435216595170891E+00 
    1.8097490941766305E+00 
    1.7842952510896366E+00 
    1.7672557417109551E+00 
    1.7587329288026232E+00 
    2.5776679805859652E+00 
    2.5272750359978575E+00 
    2.4462910995309635E+00 
    2.3552356693442249E+00 
    2.2643571678849699E+00 
    2.1786082519329830E+00 
    2.0997861452151443E+00 
    2.0284095305220813E+00 
    1.9645302297064338E+00 
    1.9081222740804473E+00 
    1.8592064407722146E+00 
    1.8178993070676470E+00 
    1.7843923421605423E+00 
    1.7589411512968864E+00 
    1.7418073561052747E+00 
    1.7332110954308744E+00 
    2.4150932115753836E+00 
    2.3849421320334403E+00 
    2.3313795172585126E+00 
    2.2643951018340505E+00 
    2.1923403807503337E+00 
    2.1203135386204073E+00 
    2.0511183032235354E+00 
    1.9862799522160752E+00 
    1.9266567027067867E+00 
    1.8728319672316260E+00 
    1.8252944033191172E+00 
    1.7845259391477206E+00 
    1.7510322191016503E+00 
    1.7253308409361172E+00 
    1.7078974096278234E+00 
    1.6991088531565082E+00 
    2.2907283341183624E+00 
    2.2693437657555755E+00 
    2.2301458368410398E+00 
    2.1786862282475536E+00 
    2.1203535754723499E+00 
    2.0592424574811705E+00 
    1.9981587607303191E+00 
    1.9389977329366217E+00 
    1.8830489576318477E+00 
    1.8313157265527809E+00 
    1.7846581688071110E+00 
    1.7439169148906426E+00 
    1.7099239663052230E+00 
    1.6835074170023356E+00 
    1.6654176540444765E+00 
    1.6562402332622650E+00 
    2.1878591026840639E+00 
    2.1716447627838034E+00 
    2.1412310325275152E+00 
    2.0999033211138953E+00 
    2.0511969478624574E+00 
    1.9981983193976580E+00 
    1.9433708806470904E+00 
    1.8885781945985582E+00 
    1.8352935922367180E+00 
    1.7847589744497387E+00 
    1.7381445153984958E+00 
    1.6965869379119181E+00 
    1.6612722375906812E+00 
    1.6333936371259485E+00 
    1.6140649264031992E+00 
    1.6041768223202080E+00 
    2.1012812400287322E+00 
    2.0882207422155412E+00 
    2.0632999004344503E+00 
    2.0285683006685304E+00 
    1.9864001053771829E+00 
    1.9390789807643376E+00 
    1.8886201276771806E+00 
    1.8367206874795625E+00 
    1.7848481565081882E+00 
    1.7343653700890924E+00 
    1.6866350037723479E+00 
    1.6430810361824935E+00 
    1.6052487304405469E+00 
    1.5747931094635561E+00 
    1.5533357559524434E+00 
    1.5422320083040479E+00 
    2.0278269310259156E+00 
    2.0167133166468831E+00 
    1.9952377380509498E+00 
    1.9647327828589547E+00 
    1.9268203466572449E+00 
    1.8831736175520890E+00 
    1.8353809961636529E+00 
    1.7848939413099798E+00 
    1.7330721695828066E+00 
    1.6812844525921085E+00 
    1.6310044859291004E+00 
    1.5838816023142828E+00 
    1.5418689519482902E+00 
    1.5072154349571600E+00 
    1.4822861765434712E+00 
    1.4691867418093032E+00 
    1.9655440351973752E+00 
    1.9556174912638078E+00 
    1.9362673355734594E+00 
    1.9083713811140353E+00 
    1.8730425750182080E+00 
    1.8314873825142406E+00 
    1.7848959149243890E+00 
    1.7344603253017887E+00 
    1.6813331740657971E+00 
    1.6267761589502225E+00 
    1.5722492750510644E+00 
    1.5195760799918716E+00 
    1.4711253631625845E+00 
    1.4299101558121017E+00 
    1.3994187138437895E+00 
    1.3830496857128156E+00 
    1.9132197914442801E+00 
    1.9040002440492338E+00 
    1.8859019495825851E+00 
    1.8595044490844954E+00 
    1.8255564421205732E+00 
    1.7848825566625344E+00 
    1.7383311808195052E+00 
    1.6867798209523388E+00 
    1.6311042069783941E+00 
    1.5723005417274649E+00 
    1.5116503908380847E+00 
    1.4510217516124670E+00 
    1.3931189214437134E+00 
    1.3418483161297192E+00 
    1.3023906601087780E+00 
    1.2805210731790302E+00 
    1.8701405726489648E+00 
    1.8613155943845283E+00 
    1.8438934557807187E+00 
    1.8182414078916673E+00 
    1.7848334116852163E+00 
    1.7441873512798178E+00 
    1.6968194041666158E+00 
    1.6432718698713624E+00 
    1.5840270607489257E+00 
    1.5196729531078710E+00 
    1.4510686698386353E+00 
    1.3798025698382814E+00 
    1.3085547870703551E+00 
    1.2420527899080631E+00 
    1.1878567936584308E+00 
    1.1561654144607314E+00 
    1.8358997329246893E+00 
    1.8272682838388588E+00 
    1.8101542715198489E+00 
    1.7847695148549430E+00 
    1.7513762485313780E+00 
    1.7102319680668925E+00 
    1.6615429602972822E+00 
    1.6054781833977776E+00 
    1.5420533591642489E+00 
    1.4712616454904113E+00 
    1.3932056135888993E+00 
    1.3085947765283552E+00 
    1.2192798605538635E+00 
    1.1299846599566747E+00 
    1.0508653646905532E+00 
    1.0001367852884298E+00 
    1.8102948966108496E+00 
    1.8017396435379964E+00 
    1.7847223550175724E+00 
    1.7593419557607068E+00 
    1.7257001723659364E+00 
    1.6838420784460628E+00 
    1.6336919405855135E+00 
    1.5750506577035917E+00 
    1.5074283902061461E+00 
    1.4300753567267841E+00 
    1.3419645524488517E+00 
    1.2421231439454121E+00 
    1.1300155522009012E+00 
    1.0077634039674011E+00 
    8.8551738736016228E-01 
    7.9339092663617017E-01 
    1.7932419766547851E+00 
    1.7847066881083231E+00 
    1.7676911946959517E+00 
    1.7422182054986723E+00 
    1.7082784503461379E+00 
    1.6657653565162782E+00 
    1.6143770416479948E+00 
    1.5536077020753849E+00 
    1.4825141862362052E+00 
    1.3995994227453699E+00 
    1.3025236286533362E+00 
    1.1879455173905031E+00 
    1.0509159120823974E+00 
    8.8553782081024524E-01 
    6.9003965147976931E-01 
    4.9449945404087314E-01 
    1.7847148585652552E+00 
    1.7761887467142692E+00 
    1.7591616899251503E+00 
    1.7336167534193598E+00 
    1.6994861628171261E+00 
    1.6565853688361543E+00 
    1.6044865221751767E+00 
    1.5425020020837770E+00 
    1.4694135823953400E+00 
    1.3832300632586787E+00 
    1.2806561516762205E+00 
    1.1562589046679763E+00 
    1.0001943242654072E+00 
    7.9342008271130149E-01 
    4.9450918141066297E-01 
    0.0000000000000000E+00 

SCALARS Saturarion double 1 
LOOKUP_TABLE default 

    1.0000000000000000E+00 
    6.2769434069349184E-01 
    4.3335264856665151E-01 
    1.7880197233404421E-01 
    6.2194293987188438E-03 
    1.4673798661564118E-07 
    8.1465809531440273E-22 
    0.0000000000000000E+00 
    0.0000000000000000E+00 
    0.0000000000000000E+00 
    0.0000000000000000E+00 
    0.0000000000000000E+00 
    0.0000000000000000E+00 
    0.0000000000000000E+00 
    0.0000000000000000E+00 
    0.0000000000000000E+00 
    6.2768884436163275E-01 
    4.9206339883810635E-01 
    2.9797082669424768E-01 
    3.2700038433350051E-02 
    1.0229756089161813E-05 
    1.5820524098635578E-17 
    0.0000000000000000E+00 
    0.0000000000000000E+00 
    0.0000000000000000E+00 
    0.0000000000000000E+00 
    0.0000000000000000E+00 
    0.0000000000000000E+00 
    0.0000000000000000E+00 
    0.0000000000000000E+00 
    0.0000000000000000E+00 
    0.0000000000000000E+00 
    4.3333421814992718E-01 
    2.9795400561259633E-01 
    4.5687357139437709E-02 
    2.4524093843282098E-05 
    9.9025097538247563E-17 
    0.0000000000000000E+00 
    0.0000000000000000E+00 
    0.0000000000000000E+00 
    0.0000000000000000E+00 
    0.0000000000000000E+00 
    0.0000000000000000E+00 
    0.0000000000000000E+00 
    0.0000000000000000E+00 
    0.0000000000000000E+00 
    0.0000000000000000E+00 
    0.0000000000000000E+00 
    1.7875905406417592E-01 
    3.2688856267048635E-02 
    2.4516870029911468E-05 
    1.4512877585189696E-16 
    0.0000000000000000E+00 
    0.0000000000000000E+00 
    0.0000000000000000E+00 
    0.0000000000000000E+00 
    0.0000000000000000E+00 
    0.0000000000000000E+00 
    0.0000000000000000E+00 
    0.0000000000000000E+00 
    0.0000000000000000E+00 
    0.0000000000000000E+00 
    0.0000000000000000E+00 
    0.0000000000000000E+00 
    6.2138739529801860E-03 
    1.0219116312758978E-05 
    9.8930479777958569E-17 
    0.0000000000000000E+00 
    0.0000000000000000E+00 
    0.0000000000000000E+00 
    0.0000000000000000E+00 
    0.0000000000000000E+00 
    0.0000000000000000E+00 
    0.0000000000000000E+00 
    0.0000000000000000E+00 
    0.0000000000000000E+00 
    0.0000000000000000E+00 
    0.0000000000000000E+00 
    0.0000000000000000E+00 
    0.0000000000000000E+00 
    1.4646741594079405E-07 
    1.5784347670515706E-17 
    0.0000000000000000E+00 
    0.0000000000000000E+00 
    0.0000000000000000E+00 
    0.0000000000000000E+00 
    0.0000000000000000E+00 
    0.0000000000000000E+00 
    0.0000000000000000E+00 
    0.0000000000000000E+00 
    0.0000000000000000E+00 
    0.0000000000000000E+00 
    0.0000000000000000E+00 
    0.0000000000000000E+00 
    0.0000000000000000E+00 
    0.0000000000000000E+00 
    8.1122218046224170E-22 
    0.0000000000000000E+00 
    0.0000000000000000E+00 
    0.0000000000000000E+00 
    0.0000000000000000E+00 
    0.0000000000000000E+00 
    0.0000000000000000E+00 
    0.0000000000000000E+00 
    0.0000000000000000E+00 
    0.0000000000000000E+00 
    0.0000000000000000E+00 
    0.0000000000000000E+00 
    0.0000000000000000E+00 
    0.0000000000000000E+00 
    0.0000000000000000E+00 
    0.0000000000000000E+00 
    0.0000000000000000E+00 
    0.0000000000000000E+00 
    0.0000000000000000E+00 
    0.0000000000000000E+00 
    0.0000000000000000E+00 
    0.0000000000000000E+00 
    0.0000000000000000E+00 
    0.0000000000000000E+00 
    0.0000000000000000E+00 
    0.0000000000000000E+00 
    0.0000000000000000E+00 
    0.0000000000000000E+00 
    0.0000000000000000E+00 
    0.0000000000000000E+00 
    0.0000000000000000E+00 
    0.0000000000000000E+00 
    0.0000000000000000E+00 
    0.0000000000000000E+00 
    0.0000000000000000E+00 
    0.0000000000000000E+00 
    0.0000000000000000E+00 
    0.0000000000000000E+00 
    0.0000000000000000E+00 
    0.0000000000000000E+00 
    0.0000000000000000E+00 
    0.0000000000000000E+00 
    0.0000000000000000E+00 
    0.0000000000000000E+00 
    0.0000000000000000E+00 
    0.0000000000000000E+00 
    0.0000000000000000E+00 
    0.0000000000000000E+00 
    0.0000000000000000E+00 
    0.0000000000000000E+00 
    0.0000000000000000E+00 
    0.0000000000000000E+00 
    0.0000000000000000E+00 
    0.0000000000000000E+00 
    0.0000000000000000E+00 
    0.0000000000000000E+00 
    0.0000000000000000E+00 
    0.0000000000000000E+00 
    0.0000000000000000E+00 
    0.0000000000000000E+00 
    0.0000000000000000E+00 
    0.0000000000000000E+00 
    0.0000000000000000E+00 
    0.0000000000000000E+00 
    0.0000000000000000E+00 
    0.0000000000000000E+00 
    0.0000000000000000E+00 
    0.0000000000000000E+00 
    0.0000000000000000E+00 
    0.0000000000000000E+00 
    0.0000000000000000E+00 
    0.0000000000000000E+00 
    0.0000000000000000E+00 
    0.0000000000000000E+00 
    0.0000000000000000E+00 
    0.0000000000000000E+00 
    0.0000000000000000E+00 
    0.0000000000000000E+00 
    0.0000000000000000E+00 
    0.0000000000000000E+00 
    0.0000000000000000E+00 
    0.0000000000000000E+00 
    0.0000000000000000E+00 
    0.0000000000000000E+00 
    0.0000000000000000E+00 
    0.0000000000000000E+00 
    0.0000000000000000E+00 
    0.0000000000000000E+00 
    0.0000000000000000E+00 
    0.0000000000000000E+00 
    0.0000000000000000E+00 
    0.0000000000000000E+00 
    0.0000000000000000E+00 
    0.0000000000000000E+00 
    0.0000000000000000E+00 
    0.0000000000000000E+00 
    0.0000000000000000E+00 
    0.0000000000000000E+00 
    0.0000000000000000E+00 
    0.0000000000000000E+00 
    0.0000000000000000E+00 
    0.0000000000000000E+00 
    0.0000000000000000E+00 
    0.0000000000000000E+00 
    0.0000000000000000E+00 
    0.0000000000000000E+00 
    0.0000000000000000E+00 
    0.0000000000000000E+00 
    0.0000000000000000E+00 
    0.0000000000000000E+00 
    0.0000000000000000E+00 
    0.0000000000000000E+00 
    0.0000000000000000E+00 
    0.0000000000000000E+00 
    0.0000000000000000E+00 
    0.0000000000000000E+00 
    0.0000000000000000E+00 
    0.0000000000000000E+00 
    0.0000000000000000E+00 
    0.0000000000000000E+00 
    0.0000000000000000E+00 
    0.0000000000000000E+00 
    0.0000000000000000E+00 
    0.0000000000000000E+00 
    0.0000000000000000E+00 
    0.0000000000000000E+00 
    0.0000000000000000E+00 
    0.0000000000000000E+00 
    0.0000000000000000E+00 
    0.0000000000000000E+00 
    0.0000000000000000E+00 
    0.0000000000000000E+00 
    0.0000000000000000E+00 
    0.0000000000000000E+00 
    0.0000000000000000E+00 
    0.0000000000000000E+00 
    0.0000000000000000E+00 
    0.0000000000000000E+00 
    0.0000000000000000E+00 
    0.0000000000000000E+00 
    0.0000000000000000E+00 
    0.0000000000000000E+00 
    0.0000000000000000E+00 
    0.0000000000000000E+00 
    0.0000000000000000E+00 
    0.0000000000000000E+00 
    0.0000000000000000E+00 
    0.0000000000000000E+00 
    0.0000000000000000E+00 
    0.0000000000000000E+00 
    0.0000000000000000E+00 
    0.0000000000000000E+00 
    0.0000000000000000E+00 
    0.0000000000000000E+00 
    0.0000000000000000E+00 
    0.0000000000000000E+00 
    0.0000000000000000E+00 
    0.0000000000000000E+00 
    0.0000000000000000E+00 
    0.0000000000000000E+00 
