# vtk DataFile Version 2.0
Pressure Field Data 
ASCII 
DATASET UNSTRUCTURED_GRID 

POINTS 289 double 

    0.0000000000000000E+00     0.0000000000000000E+00     0.0000000000000000E+00 
    1.0000000000000000E+00     0.0000000000000000E+00     0.0000000000000000E+00 
    1.0000000000000000E+00     1.0000000000000000E+00     0.0000000000000000E+00 
    0.0000000000000000E+00     1.0000000000000000E+00     0.0000000000000000E+00 
    6.2499999999872928E-02     0.0000000000000000E+00     0.0000000000000000E+00 
    1.2499999999977310E-01     0.0000000000000000E+00     0.0000000000000000E+00 
    1.8749999999959341E-01     0.0000000000000000E+00     0.0000000000000000E+00 
    2.4999999999941089E-01     0.0000000000000000E+00     0.0000000000000000E+00 
    3.1249999999922851E-01     0.0000000000000000E+00     0.0000000000000000E+00 
    3.7499999999904610E-01     0.0000000000000000E+00     0.0000000000000000E+00 
    4.3749999999886358E-01     0.0000000000000000E+00     0.0000000000000000E+00 
    4.9999999999869210E-01     0.0000000000000000E+00     0.0000000000000000E+00 
    5.6249999999884603E-01     0.0000000000000000E+00     0.0000000000000000E+00 
    6.2499999999901090E-01     0.0000000000000000E+00     0.0000000000000000E+00 
    6.8749999999917577E-01     0.0000000000000000E+00     0.0000000000000000E+00 
    7.4999999999934064E-01     0.0000000000000000E+00     0.0000000000000000E+00 
    8.1249999999950551E-01     0.0000000000000000E+00     0.0000000000000000E+00 
    8.7499999999967026E-01     0.0000000000000000E+00     0.0000000000000000E+00 
    9.3749999999983513E-01     0.0000000000000000E+00     0.0000000000000000E+00 
    1.0000000000000000E+00     6.2499999999872928E-02     0.0000000000000000E+00 
    1.0000000000000000E+00     1.2499999999977310E-01     0.0000000000000000E+00 
    1.0000000000000000E+00     1.8749999999959341E-01     0.0000000000000000E+00 
    1.0000000000000000E+00     2.4999999999941089E-01     0.0000000000000000E+00 
    1.0000000000000000E+00     3.1249999999922851E-01     0.0000000000000000E+00 
    1.0000000000000000E+00     3.7499999999904610E-01     0.0000000000000000E+00 
    1.0000000000000000E+00     4.3749999999886358E-01     0.0000000000000000E+00 
    1.0000000000000000E+00     4.9999999999869210E-01     0.0000000000000000E+00 
    1.0000000000000000E+00     5.6249999999884603E-01     0.0000000000000000E+00 
    1.0000000000000000E+00     6.2499999999901090E-01     0.0000000000000000E+00 
    1.0000000000000000E+00     6.8749999999917577E-01     0.0000000000000000E+00 
    1.0000000000000000E+00     7.4999999999934064E-01     0.0000000000000000E+00 
    1.0000000000000000E+00     8.1249999999950551E-01     0.0000000000000000E+00 
    1.0000000000000000E+00     8.7499999999967026E-01     0.0000000000000000E+00 
    1.0000000000000000E+00     9.3749999999983513E-01     0.0000000000000000E+00 
    9.3749999999973976E-01     1.0000000000000000E+00     0.0000000000000000E+00 
    8.7499999999950118E-01     1.0000000000000000E+00     0.0000000000000000E+00 
    8.1249999999991318E-01     1.0000000000000000E+00     0.0000000000000000E+00 
    7.5000000000034706E-01     1.0000000000000000E+00     0.0000000000000000E+00 
    6.8750000000078049E-01     1.0000000000000000E+00     0.0000000000000000E+00 
    6.2500000000121403E-01     1.0000000000000000E+00     0.0000000000000000E+00 
    5.6250000000164757E-01     1.0000000000000000E+00     0.0000000000000000E+00 
    5.0000000000205946E-01     1.0000000000000000E+00     0.0000000000000000E+00 
    4.3750000000182099E-01     1.0000000000000000E+00     0.0000000000000000E+00 
    3.7500000000156092E-01     1.0000000000000000E+00     0.0000000000000000E+00 
    3.1250000000130068E-01     1.0000000000000000E+00     0.0000000000000000E+00 
    2.5000000000104050E-01     1.0000000000000000E+00     0.0000000000000000E+00 
    1.8750000000078040E-01     1.0000000000000000E+00     0.0000000000000000E+00 
    1.2500000000052031E-01     1.0000000000000000E+00     0.0000000000000000E+00 
    6.2500000000260125E-02     1.0000000000000000E+00     0.0000000000000000E+00 
    0.0000000000000000E+00     9.3749999999973976E-01     0.0000000000000000E+00 
    0.0000000000000000E+00     8.7499999999950118E-01     0.0000000000000000E+00 
    0.0000000000000000E+00     8.1249999999991318E-01     0.0000000000000000E+00 
    0.0000000000000000E+00     7.5000000000034706E-01     0.0000000000000000E+00 
    0.0000000000000000E+00     6.8750000000078049E-01     0.0000000000000000E+00 
    0.0000000000000000E+00     6.2500000000121403E-01     0.0000000000000000E+00 
    0.0000000000000000E+00     5.6250000000164757E-01     0.0000000000000000E+00 
    0.0000000000000000E+00     5.0000000000205946E-01     0.0000000000000000E+00 
    0.0000000000000000E+00     4.3750000000182099E-01     0.0000000000000000E+00 
    0.0000000000000000E+00     3.7500000000156092E-01     0.0000000000000000E+00 
    0.0000000000000000E+00     3.1250000000130068E-01     0.0000000000000000E+00 
    0.0000000000000000E+00     2.5000000000104050E-01     0.0000000000000000E+00 
    0.0000000000000000E+00     1.8750000000078040E-01     0.0000000000000000E+00 
    0.0000000000000000E+00     1.2500000000052031E-01     0.0000000000000000E+00 
    0.0000000000000000E+00     6.2500000000260125E-02     0.0000000000000000E+00 
    6.2499999999897131E-02     6.2500000000235922E-02     0.0000000000000000E+00 
    6.2499999999921327E-02     1.2500000000047351E-01     0.0000000000000000E+00 
    6.2499999999945530E-02     1.8750000000070621E-01     0.0000000000000000E+00 
    6.2499999999969733E-02     2.5000000000093858E-01     0.0000000000000000E+00 
    6.2499999999993928E-02     3.1250000000117117E-01     0.0000000000000000E+00 
    6.2500000000018124E-02     3.7500000000140382E-01     0.0000000000000000E+00 
    6.2500000000042327E-02     4.3750000000163619E-01     0.0000000000000000E+00 
    6.2500000000066530E-02     5.0000000000184897E-01     0.0000000000000000E+00 
    6.2500000000090733E-02     5.6250000000147260E-01     0.0000000000000000E+00 
    6.2500000000114922E-02     6.2500000000107636E-01     0.0000000000000000E+00 
    6.2500000000139125E-02     6.8750000000068034E-01     0.0000000000000000E+00 
    6.2500000000163328E-02     7.5000000000028411E-01     0.0000000000000000E+00 
    6.2500000000187531E-02     8.1249999999988787E-01     0.0000000000000000E+00 
    6.2500000000211720E-02     8.7499999999951172E-01     0.0000000000000000E+00 
    6.2500000000235922E-02     9.3749999999974565E-01     0.0000000000000000E+00 
    1.2499999999981980E-01     6.2500000000211733E-02     0.0000000000000000E+00 
    1.2499999999986650E-01     1.2500000000042691E-01     0.0000000000000000E+00 
    1.2499999999991319E-01     1.8750000000063199E-01     0.0000000000000000E+00 
    1.2499999999995989E-01     2.5000000000083678E-01     0.0000000000000000E+00 
    1.2500000000000661E-01     3.1250000000104172E-01     0.0000000000000000E+00 
    1.2500000000005329E-01     3.7500000000124661E-01     0.0000000000000000E+00 
    1.2500000000010000E-01     4.3750000000145117E-01     0.0000000000000000E+00 
    1.2500000000014669E-01     5.0000000000163858E-01     0.0000000000000000E+00 
    1.2500000000019340E-01     5.6250000000129741E-01     0.0000000000000000E+00 
    1.2500000000024011E-01     6.2500000000093847E-01     0.0000000000000000E+00 
    1.2500000000028680E-01     6.8750000000057998E-01     0.0000000000000000E+00 
    1.2500000000033351E-01     7.5000000000022127E-01     0.0000000000000000E+00 
    1.2500000000038020E-01     8.1249999999986211E-01     0.0000000000000000E+00 
    1.2500000000042691E-01     8.7499999999952238E-01     0.0000000000000000E+00 
    1.2500000000047359E-01     9.3749999999975164E-01     0.0000000000000000E+00 
    1.8749999999966760E-01     6.2500000000187531E-02     0.0000000000000000E+00 
    1.8749999999974179E-01     1.2500000000038020E-01     0.0000000000000000E+00 
    1.8749999999981601E-01     1.8750000000055780E-01     0.0000000000000000E+00 
    1.8749999999989009E-01     2.5000000000073502E-01     0.0000000000000000E+00 
    1.8749999999996431E-01     3.1250000000091221E-01     0.0000000000000000E+00 
    1.8750000000003850E-01     3.7500000000108941E-01     0.0000000000000000E+00 
    1.8750000000011269E-01     4.3750000000126649E-01     0.0000000000000000E+00 
    1.8750000000018691E-01     5.0000000000142808E-01     0.0000000000000000E+00 
    1.8750000000026110E-01     5.6250000000112244E-01     0.0000000000000000E+00 
    1.8750000000033529E-01     6.2500000000080080E-01     0.0000000000000000E+00 
    1.8750000000040951E-01     6.8750000000047962E-01     0.0000000000000000E+00 
    1.8750000000048361E-01     7.5000000000015843E-01     0.0000000000000000E+00 
    1.8750000000055780E-01     8.1249999999983680E-01     0.0000000000000000E+00 
    1.8750000000063199E-01     8.7499999999953304E-01     0.0000000000000000E+00 
    1.8750000000070621E-01     9.3749999999975764E-01     0.0000000000000000E+00 
    2.4999999999951281E-01     6.2500000000163314E-02     0.0000000000000000E+00 
    2.4999999999961461E-01     1.2500000000033351E-01     0.0000000000000000E+00 
    2.4999999999971650E-01     1.8750000000048361E-01     0.0000000000000000E+00 
    2.4999999999981831E-01     2.5000000000063310E-01     0.0000000000000000E+00 
    2.4999999999992020E-01     3.1250000000078260E-01     0.0000000000000000E+00 
    2.5000000000002198E-01     3.7500000000093209E-01     0.0000000000000000E+00 
    2.5000000000012390E-01     4.3750000000108180E-01     0.0000000000000000E+00 
    2.5000000000022571E-01     5.0000000000121769E-01     0.0000000000000000E+00 
    2.5000000000032763E-01     5.6250000000094724E-01     0.0000000000000000E+00 
    2.5000000000042938E-01     6.2500000000066314E-01     0.0000000000000000E+00 
    2.5000000000053119E-01     6.8750000000037925E-01     0.0000000000000000E+00 
[...]
CELL_DATA 256 
SCALARS Pressure double 1 
LOOKUP_TABLE default 

    2.5146244898086416E+00 
    2.4008554362881349E+00 
    2.3196625178927759E+00 
    2.2531886939174752E+00 
    2.1957133418184824E+00 
    2.1436736865345947E+00 
    2.0938576489738612E+00 
    2.0461917654776638E+00 
    2.0004619952933762E+00 
    1.9560606239802618E+00 
    1.9115122560066700E+00 
    1.8665471560219211E+00 
    1.8297203856317246E+00 
    1.8041963840947164E+00 
    1.7873446918935256E+00 
    1.7789231935923322E+00 
    2.4008921593196932E+00 
    2.3506383668241613E+00 
    2.2925362292968674E+00 
    2.2359471992114703E+00 
    2.1832069341948701E+00 
    2.1332303122148977E+00 
    2.0847277746891892E+00 
    2.0378631358649608E+00 
    1.9924369898234169E+00 
    1.9479084236981650E+00 
    1.9027979221500066E+00 
    1.8576107617717872E+00 
    1.8211691017271285E+00 
    1.7957726045336204E+00 
    1.7789276728216641E+00 
    1.7705040518620105E+00 
    2.3197688841809985E+00 
    2.2925941116897857E+00 
    2.2517933672683461E+00 
    2.2064059088634043E+00 
    2.1599488809695355E+00 
    2.1133501963602406E+00 
    2.0670682175340476E+00 
    2.0214414108421992E+00 
    1.9764474802252201E+00 
    1.9316567321737952E+00 
    1.8854047841608983E+00 
    1.8399842969761486E+00 
    1.8042640488055421E+00 
    1.7790030723650547E+00 
    1.7621273528833723E+00 
    1.7536733634021586E+00 
    2.2534010697501605E+00 
    2.2360636598864660E+00 
    2.2064463329049913E+00 
    2.1696866966077550E+00 
    2.1288866936974933E+00 
    2.0859819632978018E+00 
    2.0420588863568567E+00 
    1.9976554157676985E+00 
    1.9529557053758482E+00 
    1.9075100219419254E+00 
    1.8595606570535173E+00 
    1.8141147088798888E+00 
    1.7792449597969491E+00 
    1.7539643646641065E+00 
    1.7369478404613901E+00 
    1.7283980182784386E+00 
    2.1958584880217056E+00 
    2.1832809814068725E+00 
    2.1599846583334790E+00 
    2.1288997509947145E+00 
    2.0925367325229209E+00 
    2.0528158937422556E+00 
    2.0108896534452536E+00 
    1.9673489200550278E+00 
    1.9224636663172965E+00 
    1.8754955062370084E+00 
    1.8255544153997358E+00 
    1.7805611477847538E+00 
    1.7463304803193931E+00 
    1.7207206504471830E+00 
    1.7033506032934955E+00 
    1.6945849459692610E+00 
    2.1436630285811877E+00 
    2.1332239276417186E+00 
    2.1133630598728512E+00 
    2.0859954070074012E+00 
    2.0528235688542198E+00 
    2.0153871592675334E+00 
    1.9747142905529882E+00 
    1.9313277538783333E+00 
    1.8853990192860035E+00 
    1.8356144604479812E+00 
    1.7839676400566074E+00 
    1.7399232057298786E+00 
    1.7056757743744557E+00 
    1.6792725987839732E+00 
    1.6611980570950635E+00 
    1.6520220505308234E+00 
    2.0938438009431888E+00 
    2.0847223019126520E+00 
    2.0670787481982327E+00 
    2.0420731470705102E+00 
    2.0108997345973552E+00 
    1.9747185642371194E+00 
    1.9343364076829526E+00 
    1.8900892867124601E+00 
    1.8415938053298517E+00 
    1.7881487741968471E+00 
    1.7361940145452923E+00 
    1.6928547552103548E+00 
    1.6574349778193211E+00 
    1.6295185562047245E+00 
    1.6101744128248250E+00 
    1.6002742781886596E+00 
    2.0462121796756252E+00 
    2.0378772808303713E+00 
    2.0214589345115126E+00 
    1.9976745644138281E+00 
    1.9673651990082328E+00 
    1.9313390380497013E+00 
    1.8900956742975323E+00 
    1.8434806421717940E+00 
    1.7907822240679350E+00 
    1.7349577890193324E+00 
    1.6838618681664188E+00 
    1.6397133281485448E+00 
    1.6017487635150156E+00 
    1.5712322308952817E+00 
    1.5497486652906465E+00 
    1.5386312611637569E+00 
    2.0004916188547739E+00 
    1.9924598978700623E+00 
    1.9764730791988343E+00 
    1.9529821144114585E+00 
    1.9224873891970620E+00 
    1.8854180298223231E+00 
    1.8416091349197703E+00 
    1.7907910836296634E+00 
    1.7348734715829812E+00 
    1.6794129913623232E+00 
    1.6280268851205768E+00 
    1.5807354206986224E+00 
    1.5386266320714277E+00 
    1.5039265531273882E+00 
    1.4789794987712608E+00 
    1.4658737793583547E+00 
    1.9560777788295300E+00 
    1.9479304472833689E+00 
    1.9316883964823237E+00 
    1.9075446888201328E+00 
    1.8755281144467422E+00 
    1.8356431811182892E+00 
    1.7881768181766560E+00 
    1.7349820473257300E+00 
    1.6794287520449160E+00 
    1.6239361878895557E+00 
    1.5693162109047598E+00 
    1.5165767051980417E+00 
    1.4680918045611753E+00 
    1.4268668482654907E+00 
    1.3963788515569175E+00 
    1.3800156629054410E+00 
    1.9115409432692678E+00 
    1.9028319637607427E+00 
    1.8854479484625875E+00 
    1.8596092560195612E+00 
    1.8256049042961695E+00 
    1.7840190403616103E+00 
    1.7362453385061558E+00 
    1.6839086201332991E+00 
    1.6280632259772443E+00 
    1.5693365095035743E+00 
    1.5087352509677956E+00 
    1.4481427161509863E+00 
    1.3902791800290213E+00 
    1.3390513665463375E+00 
    1.2996315724106162E+00 
    1.2777800997814417E+00 
    1.8666100086596018E+00 
    1.8576783806815735E+00 
    1.8400595907519259E+00 
    1.8141955381691626E+00 
    1.7806441620375120E+00 
    1.7400051785961530E+00 
    1.6929319136670236E+00 
    1.6397822796123316E+00 
    1.5807918690211760E+00 
    1.5166165324009555E+00 
    1.4481622905935696E+00 
    1.3770143465144484E+00 
    1.3058762640517734E+00 
    1.2394759429222204E+00 
    1.1853646320380307E+00 
    1.1537188296441612E+00 
    1.8298302721266326E+00 
    1.8212802468297609E+00 
    1.8043772319258133E+00 
    1.7793582637537513E+00 
    1.7464410954203979E+00 
    1.7057810271900276E+00 
    1.6575326162371573E+00 
    1.6018368264865275E+00 
    1.5387014449259568E+00 
    1.4681497182746741E+00 
    1.3903168683096687E+00 
    1.3058944014334921E+00 
    1.2167574308499789E+00 
    1.1276306024598661E+00 
    1.0486596003594015E+00 
    9.9802423349244640E-01 
    1.8043340021492340E+00 
    1.7959091129743687E+00 
    1.7791381885648174E+00 
    1.7540968280449472E+00 
    1.7208487597384727E+00 
    1.6793943861249272E+00 
    1.6296318238126213E+00 
    1.5713348963530516E+00 
    1.5040154205862792E+00 
    1.4269387747264126E+00 
    1.3391033405461266E+00 
    1.2395086179839763E+00 
    1.1276453704437881E+00 
    1.0056412813621720E+00 
    8.8364025071043983E-01 
    7.9170298618407531E-01 
    1.7874939106653343E+00 
    1.7790754563963953E+00 
    1.7622729572696483E+00 
    1.7370900401516398E+00 
    1.7034879085549210E+00 
    1.6613286615533485E+00 
    1.6102959154243590E+00 
    1.5498588410759255E+00 
    1.4790756552622901E+00 
    1.3964583665765182E+00 
    1.2996917852456875E+00 
    1.1854061892283545E+00 
    1.0486839102944572E+00 
    8.8365026391582435E-01 
    6.8855425572554130E-01 
    4.9343348099516837E-01 
    1.7790710752401311E+00 
    1.7706507914479448E+00 
    1.7538179673662466E+00 
    1.7285391784142718E+00 
    1.6947210924145610E+00 
    1.6521513999141804E+00 
    1.6003943597125370E+00 
    1.5387398032020259E+00 
    1.4659684091701444E+00 
    1.3800940700937909E+00 
    1.2778404500702309E+00 
    1.1537617750023679E+00 
    9.9805124325489902E-01 
    7.9171688038210464E-01 
    4.9343814450544071E-01 
    0.0000000000000000E+00 

SCALARS Saturarion double 1 
LOOKUP_TABLE default 

    1.0000000000000000E+00 
    9.0652318950317767E-01 
    8.3731131033751460E-01 
    7.7242157154158841E-01 
    7.3733152259252510E-01 
    6.6652978497163951E-01 
    6.0924723163735028E-01 
    5.5660289824758480E-01 
    5.0797401034799927E-01 
    4.4687984473058062E-01 
    3.6516573944060027E-01 
    2.1221805642619132E-01 
    2.7127592466852177E-02 
    5.9845720398135596E-05 
    1.3758823577905630E-11 
    9.1633371966609042E-28 
    9.0651718617180554E-01 
    8.5258455171382697E-01 
    7.9595025236879502E-01 
    7.4064384743194545E-01 
    6.8981566187677190E-01 
    6.3933185502829548E-01 
    5.9050438219132539E-01 
    5.4243287170313215E-01 
    4.9252547365714466E-01 
    4.3449010100045599E-01 
    3.5079707346037142E-01 
    1.8353797478536465E-01 
    1.5664517050628907E-02 
    1.3179401577766900E-05 
    2.8149462684490982E-13 
    3.8662694056554263E-32 
    8.3728851518824332E-01 
    7.9593894519047503E-01 
    7.4976289252378114E-01 
    7.0333690492863643E-01 
    6.5791698684143030E-01 
    6.1350439689234360E-01 
    5.6952167321743130E-01 
    5.2510048519662367E-01 
    4.7738187158200335E-01 
    4.1976722447745468E-01 
    3.3016601707418031E-01 
    1.4092616161450239E-01 
    5.9993209263304922E-03 
    9.6023914220886375E-07 
    2.8471755139009190E-16 
    4.1463415061477326E-40 
    7.7236601248644388E-01 
    7.4062305897664560E-01 
    7.0333517586469685E-01 
    6.6463925996738571E-01 
    6.2557851621588478E-01 
    5.8657969155568979E-01 
    5.4709938918385381E-01 
    5.0600169267591277E-01 
    4.6032272288316806E-01 
    4.0203572009643462E-01 
    2.9990837623879812E-01 
    8.6601543584120838E-02 
    1.1455228596278782E-03 
    1.0189790533458385E-08 
    1.2016537080498140E-21 
    8.0852874688033275E-55 
    7.3274974787186409E-01 
    6.8940142710349861E-01 
    6.5784970930655251E-01 
    6.2556410352238090E-01 
    5.9232718889315938E-01 
    5.5823902210656462E-01 
    5.2269976485477665E-01 
    4.8474516954847680E-01 
    4.4057783420473984E-01 
    3.7984176254707624E-01 
    2.5051797345508692E-01 
    3.5673223227486839E-02 
    7.1334563911208017E-05 
    4.3047935732677928E-12 
    3.6197452769114787E-31 
    3.3332735723278236E-82 
    6.6469771111683396E-01 
    6.3896274676142861E-01 
    6.1341334778179468E-01 
    5.8655182849030607E-01 
    5.5822864791638360E-01 
    5.3543535740437131E-01 
    4.9868751077647261E-01 
    4.6182128880112966E-01 
    4.1718166748090435E-01 
    3.4925092399684221E-01 
    1.6383924928960336E-01 
    5.9861488205495842E-03 
    3.2091835078162325E-07 
    4.7539431206878667E-19 
    5.1367658756389905E-52 
   1.2296925904025206E-144 
    6.0834139120446584E-01 
    5.9022304512538804E-01 
    5.6942483978510328E-01 
    5.4705981779785351E-01 
    5.2267869054456861E-01 
    4.9867671487035803E-01 
    4.6859037966196465E-01 
    4.3387060102317898E-01 
    3.8604993173715585E-01 
    2.8939749322076291E-01 
    5.3076393347413639E-02 
    1.0942150374969714E-04 
    1.2442438646343511E-12 
    6.3790671082988467E-36 
   5.0585884088642568E-105 
   2.5817442008785475E-311 
    5.5607856137289224E-01 
    5.4220842062292585E-01 
    5.2499751633451319E-01 
    5.0594660282176063E-01 
    4.8470941332750367E-01 
    4.6179629745060324E-01 
    4.3385552845369907E-01 
    3.9774784656654982E-01 
    3.3447633757326356E-01 
    1.4002398518684453E-01 
    1.9993180510799544E-03 
    2.0436033777630948E-09 
    3.8403651571408373E-28 
    4.4420222836039991E-87 
   6.0550164702526109E-272 
    0.0000000000000000E+00 
    5.0656966874272569E-01 
    4.9224177941445307E-01 
    4.7725559359160430E-01 
    4.6024363897684362E-01 
    4.4051748009206781E-01 
    4.1713013651532199E-01 
    3.8600495830144732E-01 
    3.3443764572628171E-01 
    1.8607575053709555E-01 
    6.9648847345520582E-03 
    4.2539376681536052E-08 
    2.9951517330302696E-25 
    5.7544084676709937E-81 
   2.4832390264750563E-259 
    0.0000000000000000E+00 
    0.0000000000000000E+00 
    4.4611241278702546E-01 
    4.3421588919367893E-01 
    4.1961119293848964E-01 
    4.0191446287282728E-01 
    3.7972858445875890E-01 
    3.4906285187148828E-01 
    2.8922021924776631E-01 
    1.3984957533302567E-01 
    6.9565126497717162E-03 
    8.5449319680724135E-08 
    1.8092406560420286E-24 
    2.8124010700218695E-79 
   8.4774025545005994E-256 
    0.0000000000000000E+00 
    0.0000000000000000E+00 
    0.0000000000000000E+00 
    3.6461670364186582E-01 
    3.5047038827567401E-01 
    3.2990504678950955E-01 
    2.9964292844785528E-01 
    2.5021330230704797E-01 
    1.6349786268236444E-01 
    5.2909599508801010E-02 
    1.9907138896718027E-03 
    4.2396069585351472E-08 
    1.8062193883840478E-24 
    6.2511683885201165E-79 
   6.4257619222424412E-255 
    0.0000000000000000E+00 
    0.0000000000000000E+00 
    0.0000000000000000E+00 
    0.0000000000000000E+00 
    2.1152677715107437E-01 
    1.8300293661557837E-01 
    1.4048609668177015E-01 
    8.6271494555467801E-02 
    3.5500439828982072E-02 
    5.9456986816894802E-03 
    1.0842519796156392E-04 
    2.0220740636837059E-09 
    2.9721293959224325E-25 
    2.8007208682619401E-79 
   6.4140395229231064E-255 
    0.0000000000000000E+00 
    0.0000000000000000E+00 
    0.0000000000000000E+00 
    0.0000000000000000E+00 
    0.0000000000000000E+00 
    2.6849460695958734E-02 
    1.5519100981977649E-02 
    5.9414554596952567E-03 
    1.1328272302940346E-03 
    7.0383497819800675E-05 
    3.1526982354796900E-07 
    1.2157075843650938E-12 
    3.7460748724385365E-28 
    5.6592741064359931E-81 
   8.3993196985192370E-256 
    0.0000000000000000E+00 
    0.0000000000000000E+00 
    0.0000000000000000E+00 
    0.0000000000000000E+00 
    0.0000000000000000E+00 
    0.0000000000000000E+00 
    5.8293797923341982E-05 
    1.2874103971505361E-05 
    9.3739574078085471E-07 
    9.9118794335735696E-09 
    4.1614628299866328E-12 
    4.5421057470280480E-19 
    6.0221263056864459E-36 
    4.2039497563174447E-87 
   2.3944686145911691E-259 
    0.0000000000000000E+00 
    0.0000000000000000E+00 
    0.0000000000000000E+00 
    0.0000000000000000E+00 
    0.0000000000000000E+00 
    0.0000000000000000E+00 
    0.0000000000000000E+00 
    1.2931801971269283E-11 
    2.6636217720910041E-13 
    2.6880583334832483E-16 
    1.1240083982879447E-21 
    3.3225543736691588E-31 
    4.5866399095840819E-52 
   4.4019141069203380E-105 
   5.3633956310167410E-272 
    0.0000000000000000E+00 
    0.0000000000000000E+00 
    0.0000000000000000E+00 
    0.0000000000000000E+00 
    0.0000000000000000E+00 
    0.0000000000000000E+00 
    0.0000000000000000E+00 
    0.0000000000000000E+00 
    7.9071000539639236E-28 
    3.3970428375034080E-32 
    3.6178702985191054E-40 
    6.8841350618347329E-55 
    2.6830494419039651E-82 
   9.2818898104304961E-145 
   1.8662036161380862E-311 
    0.0000000000000000E+00 
    0.0000000000000000E+00 
    0.0000000000000000E+00 
    0.0000000000000000E+00 
    0.0000000000000000E+00 
    0.0000000000000000E+00 
    0.0000000000000000E+00 
    0.0000000000000000E+00 
    0.0000000000000000E+00 
