# vtk DataFile Version 2.0
Pressure Field Data 
ASCII 
DATASET UNSTRUCTURED_GRID 

POINTS 289 double 

    0.0000000000000000E+00     0.0000000000000000E+00     0.0000000000000000E+00 
    1.0000000000000000E+00     0.0000000000000000E+00     0.0000000000000000E+00 
    1.0000000000000000E+00     1.0000000000000000E+00     0.0000000000000000E+00 
    0.0000000000000000E+00     1.0000000000000000E+00     0.0000000000000000E+00 
    6.2499999999872928E-02     0.0000000000000000E+00     0.0000000000000000E+00 
    1.2499999999977310E-01     0.0000000000000000E+00     0.0000000000000000E+00 
    1.8749999999959341E-01     0.0000000000000000E+00     0.0000000000000000E+00 
    2.4999999999941089E-01     0.0000000000000000E+00     0.0000000000000000E+00 
    3.1249999999922851E-01     0.0000000000000000E+00     0.0000000000000000E+00 
    3.7499999999904610E-01     0.0000000000000000E+00     0.0000000000000000E+00 
    4.3749999999886358E-01     0.0000000000000000E+00     0.0000000000000000E+00 
    4.9999999999869210E-01     0.0000000000000000E+00     0.0000000000000000E+00 
    5.6249999999884603E-01     0.0000000000000000E+00     0.0000000000000000E+00 
    6.2499999999901090E-01     0.0000000000000000E+00     0.0000000000000000E+00 
    6.8749999999917577E-01     0.0000000000000000E+00     0.0000000000000000E+00 
    7.4999999999934064E-01     0.0000000000000000E+00     0.0000000000000000E+00 
    8.1249999999950551E-01     0.0000000000000000E+00     0.0000000000000000E+00 
    8.7499999999967026E-01     0.0000000000000000E+00     0.0000000000000000E+00 
    9.3749999999983513E-01     0.0000000000000000E+00     0.0000000000000000E+00 
    1.0000000000000000E+00     6.2499999999872928E-02     0.0000000000000000E+00 
    1.0000000000000000E+00     1.2499999999977310E-01     0.0000000000000000E+00 
    1.0000000000000000E+00     1.8749999999959341E-01     0.0000000000000000E+00 
    1.0000000000000000E+00     2.4999999999941089E-01     0.0000000000000000E+00 
    1.0000000000000000E+00     3.1249999999922851E-01     0.0000000000000000E+00 
    1.0000000000000000E+00     3.7499999999904610E-01     0.0000000000000000E+00 
    1.0000000000000000E+00     4.3749999999886358E-01     0.0000000000000000E+00 
    1.0000000000000000E+00     4.9999999999869210E-01     0.0000000000000000E+00 
    1.0000000000000000E+00     5.6249999999884603E-01     0.0000000000000000E+00 
    1.0000000000000000E+00     6.2499999999901090E-01     0.0000000000000000E+00 
    1.0000000000000000E+00     6.8749999999917577E-01     0.0000000000000000E+00 
    1.0000000000000000E+00     7.4999999999934064E-01     0.0000000000000000E+00 
    1.0000000000000000E+00     8.1249999999950551E-01     0.0000000000000000E+00 
    1.0000000000000000E+00     8.7499999999967026E-01     0.0000000000000000E+00 
    1.0000000000000000E+00     9.3749999999983513E-01     0.0000000000000000E+00 
    9.3749999999973976E-01     1.0000000000000000E+00     0.0000000000000000E+00 
    8.7499999999950118E-01     1.0000000000000000E+00     0.0000000000000000E+00 
    8.1249999999991318E-01     1.0000000000000000E+00     0.0000000000000000E+00 
    7.5000000000034706E-01     1.0000000000000000E+00     0.0000000000000000E+00 
    6.8750000000078049E-01     1.0000000000000000E+00     0.0000000000000000E+00 
    6.2500000000121403E-01     1.0000000000000000E+00     0.0000000000000000E+00 
    5.6250000000164757E-01     1.0000000000000000E+00     0.0000000000000000E+00 
    5.0000000000205946E-01     1.0000000000000000E+00     0.0000000000000000E+00 
    4.3750000000182099E-01     1.0000000000000000E+00     0.0000000000000000E+00 
    3.7500000000156092E-01     1.0000000000000000E+00     0.0000000000000000E+00 
    3.1250000000130068E-01     1.0000000000000000E+00     0.0000000000000000E+00 
    2.5000000000104050E-01     1.0000000000000000E+00     0.0000000000000000E+00 
    1.8750000000078040E-01     1.0000000000000000E+00     0.0000000000000000E+00 
    1.2500000000052031E-01     1.0000000000000000E+00     0.0000000000000000E+00 
    6.2500000000260125E-02     1.0000000000000000E+00     0.0000000000000000E+00 
    0.0000000000000000E+00     9.3749999999973976E-01     0.0000000000000000E+00 
    0.0000000000000000E+00     8.7499999999950118E-01     0.0000000000000000E+00 
    0.0000000000000000E+00     8.1249999999991318E-01     0.0000000000000000E+00 
    0.0000000000000000E+00     7.5000000000034706E-01     0.0000000000000000E+00 
    0.0000000000000000E+00     6.8750000000078049E-01     0.0000000000000000E+00 
    0.0000000000000000E+00     6.2500000000121403E-01     0.0000000000000000E+00 
    0.0000000000000000E+00     5.6250000000164757E-01     0.0000000000000000E+00 
    0.0000000000000000E+00     5.0000000000205946E-01     0.0000000000000000E+00 
    0.0000000000000000E+00     4.3750000000182099E-01     0.0000000000000000E+00 
    0.0000000000000000E+00     3.7500000000156092E-01     0.0000000000000000E+00 
    0.0000000000000000E+00     3.1250000000130068E-01     0.0000000000000000E+00 
    0.0000000000000000E+00     2.5000000000104050E-01     0.0000000000000000E+00 
    0.0000000000000000E+00     1.8750000000078040E-01     0.0000000000000000E+00 
    0.0000000000000000E+00     1.2500000000052031E-01     0.0000000000000000E+00 
    0.0000000000000000E+00     6.2500000000260125E-02     0.0000000000000000E+00 
    6.2499999999897131E-02     6.2500000000235922E-02     0.0000000000000000E+00 
    6.2499999999921327E-02     1.2500000000047351E-01     0.0000000000000000E+00 
    6.2499999999945530E-02     1.8750000000070621E-01     0.0000000000000000E+00 
    6.2499999999969733E-02     2.5000000000093858E-01     0.0000000000000000E+00 
    6.2499999999993928E-02     3.1250000000117117E-01     0.0000000000000000E+00 
    6.2500000000018124E-02     3.7500000000140382E-01     0.0000000000000000E+00 
    6.2500000000042327E-02     4.3750000000163619E-01     0.0000000000000000E+00 
    6.2500000000066530E-02     5.0000000000184897E-01     0.0000000000000000E+00 
    6.2500000000090733E-02     5.6250000000147260E-01     0.0000000000000000E+00 
    6.2500000000114922E-02     6.2500000000107636E-01     0.0000000000000000E+00 
    6.2500000000139125E-02     6.8750000000068034E-01     0.0000000000000000E+00 
    6.2500000000163328E-02     7.5000000000028411E-01     0.0000000000000000E+00 
    6.2500000000187531E-02     8.1249999999988787E-01     0.0000000000000000E+00 
    6.2500000000211720E-02     8.7499999999951172E-01     0.0000000000000000E+00 
    6.2500000000235922E-02     9.3749999999974565E-01     0.0000000000000000E+00 
    1.2499999999981980E-01     6.2500000000211733E-02     0.0000000000000000E+00 
    1.2499999999986650E-01     1.2500000000042691E-01     0.0000000000000000E+00 
    1.2499999999991319E-01     1.8750000000063199E-01     0.0000000000000000E+00 
    1.2499999999995989E-01     2.5000000000083678E-01     0.0000000000000000E+00 
    1.2500000000000661E-01     3.1250000000104172E-01     0.0000000000000000E+00 
    1.2500000000005329E-01     3.7500000000124661E-01     0.0000000000000000E+00 
    1.2500000000010000E-01     4.3750000000145117E-01     0.0000000000000000E+00 
    1.2500000000014669E-01     5.0000000000163858E-01     0.0000000000000000E+00 
    1.2500000000019340E-01     5.6250000000129741E-01     0.0000000000000000E+00 
    1.2500000000024011E-01     6.2500000000093847E-01     0.0000000000000000E+00 
    1.2500000000028680E-01     6.8750000000057998E-01     0.0000000000000000E+00 
    1.2500000000033351E-01     7.5000000000022127E-01     0.0000000000000000E+00 
    1.2500000000038020E-01     8.1249999999986211E-01     0.0000000000000000E+00 
    1.2500000000042691E-01     8.7499999999952238E-01     0.0000000000000000E+00 
    1.2500000000047359E-01     9.3749999999975164E-01     0.0000000000000000E+00 
    1.8749999999966760E-01     6.2500000000187531E-02     0.0000000000000000E+00 
    1.8749999999974179E-01     1.2500000000038020E-01     0.0000000000000000E+00 
    1.8749999999981601E-01     1.8750000000055780E-01     0.0000000000000000E+00 
    1.8749999999989009E-01     2.5000000000073502E-01     0.0000000000000000E+00 
    1.8749999999996431E-01     3.1250000000091221E-01     0.0000000000000000E+00 
    1.8750000000003850E-01     3.7500000000108941E-01     0.0000000000000000E+00 
    1.8750000000011269E-01     4.3750000000126649E-01     0.0000000000000000E+00 
    1.8750000000018691E-01     5.0000000000142808E-01     0.0000000000000000E+00 
    1.8750000000026110E-01     5.6250000000112244E-01     0.0000000000000000E+00 
    1.8750000000033529E-01     6.2500000000080080E-01     0.0000000000000000E+00 
    1.8750000000040951E-01     6.8750000000047962E-01     0.0000000000000000E+00 
    1.8750000000048361E-01     7.5000000000015843E-01     0.0000000000000000E+00 
    1.8750000000055780E-01     8.1249999999983680E-01     0.0000000000000000E+00 
    1.8750000000063199E-01     8.7499999999953304E-01     0.0000000000000000E+00 
    1.8750000000070621E-01     9.3749999999975764E-01     0.0000000000000000E+00 
    2.4999999999951281E-01     6.2500000000163314E-02     0.0000000000000000E+00 
    2.4999999999961461E-01     1.2500000000033351E-01     0.0000000000000000E+00 
    2.4999999999971650E-01     1.8750000000048361E-01     0.0000000000000000E+00 
    2.4999999999981831E-01     2.5000000000063310E-01     0.0000000000000000E+00 
    2.4999999999992020E-01     3.1250000000078260E-01     0.0000000000000000E+00 
    2.5000000000002198E-01     3.7500000000093209E-01     0.0000000000000000E+00 
    2.5000000000012390E-01     4.3750000000108180E-01     0.0000000000000000E+00 
    2.5000000000022571E-01     5.0000000000121769E-01     0.0000000000000000E+00 
    2.5000000000032763E-01     5.6250000000094724E-01     0.0000000000000000E+00 
    2.5000000000042938E-01     6.2500000000066314E-01     0.0000000000000000E+00 
    2.5000000000053119E-01     6.8750000000037925E-01     0.0000000000000000E+00 
[...]
CELL_DATA 256 
SCALARS Pressure double 1 
LOOKUP_TABLE default 

    2.3370437892613865E+00 
    2.2294064529787532E+00 
    2.1579097588974232E+00 
    2.1014462610056346E+00 
    2.0594579078759452E+00 
    2.0242854487449558E+00 
    1.9880550282761533E+00 
    1.9540240758532776E+00 
    1.9234404839216472E+00 
    1.8959834971137526E+00 
    1.8708615050261890E+00 
    1.8486366241732222E+00 
    1.8294065774864263E+00 
    1.8129351674961016E+00 
    1.7996709672224049E+00 
    1.7927791970966409E+00 
    2.2295371370576862E+00 
    2.1847357793512350E+00 
    2.1358944819581831E+00 
    2.0896008444861298E+00 
    2.0504429054012157E+00 
    2.0156327850567641E+00 
    1.9806866862215569E+00 
    1.9476793635982339E+00 
    1.9174990059735406E+00 
    1.8899671923504859E+00 
    1.8648444669462372E+00 
    1.8425569822492300E+00 
    1.8231952798123932E+00 
    1.8065505261380852E+00 
    1.7931272006444694E+00 
    1.7861650589048363E+00 
    2.1582800229920389E+00 
    2.1360735979835477E+00 
    2.1031055429692809E+00 
    2.0671528723464703E+00 
    2.0326140199500067E+00 
    1.9995025970912916E+00 
    1.9667296085700952E+00 
    1.9352584650493976E+00 
    1.9056334328633133E+00 
    1.8781139642535400E+00 
    1.8529505440540806E+00 
    1.8304476121062128E+00 
    1.8107745048600477E+00 
    1.7937650566018370E+00 
    1.7800177021656829E+00 
    1.7729015738410181E+00 
    2.1022449460311932E+00 
    2.0899629487767846E+00 
    2.0672521802430004E+00 
    2.0392691883529928E+00 
    2.0093037861632577E+00 
    1.9786182007828994E+00 
    1.9478496153917912E+00 
    1.9176445456471094E+00 
    1.8884814468615319E+00 
    1.8609275218955514E+00 
    1.8354450805015172E+00 
    1.8124268451509853E+00 
    1.7921530153192380E+00 
    1.7745119156755209E+00 
    1.7602314256602418E+00 
    1.7528474007044390E+00 
    2.0596378892978358E+00 
    2.0504566047169561E+00 
    2.0326054757532210E+00 
    2.0092819304602672E+00 
    1.9824228232087890E+00 
    1.9539771252751554E+00 
    1.9250504360191023E+00 
    1.8957414326775361E+00 
    1.8666608208968234E+00 
    1.8387042451138689E+00 
    1.8125428835206874E+00 
    1.7886067950174251E+00 
    1.7673075606627846E+00 
    1.7486600993638692E+00 
    1.7335443154855927E+00 
    1.7257183797023119E+00 
    2.0237867165190346E+00 
    2.0152514191860336E+00 
    1.9993303246131917E+00 
    1.9785333995634380E+00 
    1.9539434310857871E+00 
    1.9274215810722191E+00 
    1.8996999609715506E+00 
    1.8705184962787857E+00 
    1.8409215908883780E+00 
    1.8120588904862467E+00 
    1.7846419475930693E+00 
    1.7591159272410088E+00 
    1.7361525186888418E+00 
    1.7159627095159831E+00 
    1.6995690467749827E+00 
    1.6910554054679561E+00 
    1.9876834736869624E+00 
    1.9803746100650044E+00 
    1.9665346569365443E+00 
    1.9477353265820878E+00 
    1.9249897036857477E+00 
    1.8996757181930437E+00 
    1.8721613048543142E+00 
    1.8424246731883573E+00 
    1.8117627412696957E+00 
    1.7813203884223909E+00 
    1.7518204316039028E+00 
    1.7238581290350692E+00 
    1.6984137327854971E+00 
    1.6759524581041612E+00 
    1.6576762106732363E+00 
    1.6481520641595444E+00 
    1.9538371667328571E+00 
    1.9474728650164013E+00 
    1.9350865441694631E+00 
    1.9175276222921924E+00 
    1.8956757031614984E+00 
    1.8704885391912871E+00 
    1.8424146968859982E+00 
    1.8117389847372678E+00 
    1.7794397321990691E+00 
    1.7465723733144325E+00 
    1.7140119641209679E+00 
    1.6826615653739569E+00 
    1.6537009721346896E+00 
    1.6279532458254367E+00 
    1.6069483865722889E+00 
    1.5959633561097275E+00 
    1.9232505641710980E+00 
    1.9172936735592596E+00 
    1.9054673789396162E+00 
    1.8883706950208985E+00 
    1.8666062267237735E+00 
    1.8409011132209885E+00 
    1.8117540679335822E+00 
    1.7794371511049658E+00 
    1.7446750334622672E+00 
    1.7084041273356303E+00 
    1.6716441750885387E+00 
    1.6355439426526686E+00 
    1.6015702218531893E+00 
    1.5710261969912656E+00 
    1.5459909274940637E+00 
    1.5328052043019702E+00 
    1.8956965143000055E+00 
    1.8897194697185462E+00 
    1.8779457918022486E+00 
    1.8608238073982641E+00 
    1.8386563815857084E+00 
    1.8120354268903898E+00 
    1.7813019735936546E+00 
    1.7465646123361942E+00 
    1.7084028602677022E+00 
    1.6676538960997500E+00 
    1.6253281962091344E+00 
    1.5826962058137151E+00 
    1.5415746575071092E+00 
    1.5039431754160675E+00 
    1.4727684777565000E+00 
    1.4560564269926284E+00 
    1.8706154193137303E+00 
    1.8646353182872140E+00 
    1.8528056703907585E+00 
    1.8353560941614699E+00 
    1.8124976198201379E+00 
    1.7846128017903924E+00 
    1.7517942031219977E+00 
    1.7140013337716664E+00 
    1.6716438652530146E+00 
    1.6253315755672706E+00 
    1.5758515544321177E+00 
    1.5244628576524837E+00 
    1.4732731601080711E+00 
    1.4250754895263813E+00 
    1.3842230117013925E+00 
    1.3614341947557298E+00 
    1.8484534093374680E+00 
    1.8423990313993408E+00 
    1.8303346768794644E+00 
    1.8123577225857392E+00 
    1.7885728514966766E+00 
    1.7590999288532148E+00 
    1.7238479703754634E+00 
    1.6826610096634365E+00 
    1.6355504087392558E+00 
    1.5827047189901864E+00 
    1.5244672802806865E+00 
    1.4618100745398854E+00 
    1.3967268576382690E+00 
    1.3326942236053390E+00 
    1.2759177234492709E+00 
    1.2416150280398026E+00 
    1.8292771405568198E+00 
    1.8230824728925437E+00 
    1.8106926463564070E+00 
    1.7921041598054794E+00 
    1.7672867777818431E+00 
    1.7361493430935429E+00 
    1.6984186944689681E+00 
    1.6537125464500391E+00 
    1.6015856406172513E+00 
    1.5415900094282540E+00 
    1.4732833282609805E+00 
    1.3967319580913107E+00 
    1.3130140380286652E+00 
    1.2253896045543733E+00 
    1.1417059761547543E+00 
    1.0843412263966496E+00 
    1.8128402000794024E+00 
    1.8064673050801565E+00 
    1.7937037793885124E+00 
    1.7744755561655079E+00 
    1.7486463845545666E+00 
    1.7159653067949261E+00 
    1.6759639489032447E+00 
    1.6279701659439632E+00 
    1.5710454446135487E+00 
    1.5039612984990167E+00 
    1.4250879141208983E+00 
    1.3327008962163736E+00 
    1.2253907605511856E+00 
    1.1036923598903698E+00 
    9.7425910112010583E-01 
    8.6842906294468103E-01 
    1.7996034122534958E+00 
    1.7930689001411049E+00 
    1.7799757840639179E+00 
    1.7602083404387772E+00 
    1.7335394065025644E+00 
    1.6995785649998927E+00 
    1.6576932450106567E+00 
    1.6069686757241766E+00 
    1.5460118382961898E+00 
    1.4727877562187974E+00 
    1.3842359770741086E+00 
    1.2759239623791192E+00 
    1.1417045889816306E+00 
    9.7425288769042506E-01 
    7.6789837123578963E-01 
    5.4805694226006518E-01 
    1.7927220007666160E+00 
    1.7861159182366624E+00 
    1.7728657829198882E+00 
    1.7528269019468357E+00 
    1.7257136350077773E+00 
    1.6910641363017416E+00 
    1.6481673356249105E+00 
    1.5959806810591108E+00 
    1.5328234318745113E+00 
    1.4560756393577809E+00 
    1.3614502893933271E+00 
    1.2416278190204404E+00 
    1.0843469036362106E+00 
    8.6842366384683078E-01 
    5.4804642811156834E-01 
    0.0000000000000000E+00 

SCALARS Saturarion double 1 
LOOKUP_TABLE default 

    1.0000000000000000E+00 
    9.4420389572822161E-01 
    8.9728748028750993E-01 
    8.4955829201999333E-01 
    1.0049507011480328E+00 
    8.0258156423131699E-01 
    7.3396282580164773E-01 
    6.8207449463662373E-01 
    6.6681932692862966E-01 
    6.0590436763651090E-01 
    5.5525555540285843E-01 
    5.0362546774052985E-01 
    4.4033467668333759E-01 
    3.4320833127623018E-01 
    1.5767253062702205E-01 
    9.2970449460213055E-03 
    9.4419108589962097E-01 
    9.0795272524297188E-01 
    8.6693262511147373E-01 
    8.2417132046324393E-01 
    7.9119239555187204E-01 
    7.4895521802157616E-01 
    7.0603952902254352E-01 
    6.6490131337209368E-01 
    6.2724378879995757E-01 
    5.8726840751521248E-01 
    5.4487049698838241E-01 
    4.9734743929710140E-01 
    4.3615073627393641E-01 
    3.3905954862142945E-01 
    1.5101621121622105E-01 
    7.9486497723541948E-03 
    8.9722913628574397E-01 
    8.6690746142834774E-01 
    8.3137908237952329E-01 
    7.9391361587384268E-01 
    7.5806890208870015E-01 
    7.2163250115381827E-01 
    6.8504483392921978E-01 
    6.4891015648787242E-01 
    6.1314288424946972E-01 
    5.7634169866439267E-01 
    5.3685505313902482E-01 
    4.9165100658746175E-01 
    4.3218036438239227E-01 
    3.3489637034545655E-01 
    1.4447635786845597E-01 
    6.8829208900693800E-03 
    8.4939387285036438E-01 
    8.2414100540766877E-01 
    7.9394564500771059E-01 
    7.6201500039739245E-01 
    7.3001305947870232E-01 
    6.9786289774912458E-01 
    6.6554024288047187E-01 
    6.3321940077397021E-01 
    6.0055652592989828E-01 
    5.6653744990174149E-01 
    5.2957036368457411E-01 
    4.8633465124065306E-01 
    4.2871644816800558E-01 
    3.3084360668694379E-01 
    1.3860551532992887E-01 
    6.0764867093844191E-03 
    9.7135267093332445E-01 
    7.9033808966262442E-01 
    7.5791178847147755E-01 
    7.2997567992038781E-01 
    7.0239841044889817E-01 
    6.7453560781412336E-01 
    6.4602962116900553E-01 
    6.1731566925542158E-01 
    5.8796220541620303E-01 
    5.5714548171893130E-01 
    5.2292252585882226E-01 
    4.8234262407250045E-01 
    4.2637941553504211E-01 
    3.3130364152061220E-01 
    1.4217799019152944E-01 
    6.9752038491836463E-03 
    7.9772127814627980E-01 
    7.4778083389260852E-01 
    7.2131794268448690E-01 
    6.9776618517862565E-01 
    6.7450398993857585E-01 
    6.9649842416270247E-01 
    6.3979118853354677E-01 
    6.0593983387738970E-01 
    5.7688399005472046E-01 
    5.6252220381448548E-01 
    5.2073079724160543E-01 
    4.7974905145637198E-01 
    4.2530085682579843E-01 
    3.3221852911582950E-01 
    1.4537207691137999E-01 
    7.3626165695384752E-03 
    7.3117090233365212E-01 
    7.0505460139131215E-01 
    6.8469509212697177E-01 
    6.6540632777562192E-01 
    6.4597219131710082E-01 
    6.3977771128572747E-01 
    6.1482482840313102E-01 
    5.8929467728658247E-01 
    5.6419379284071347E-01 
    5.4326068003004135E-01 
    5.1293801796397409E-01 
    4.7629901465570085E-01 
    4.2501675840396524E-01 
    3.3458881421412823E-01 
    1.5116438098524809E-01 
    8.4788075433421938E-03 
    6.8032914515387621E-01 
    6.6413124926815958E-01 
    6.4857642745200605E-01 
    6.3306441015354842E-01 
    6.1723570723487176E-01 
    6.0590179480963413E-01 
    5.8927795644603020E-01 
    5.7025787601650546E-01 
    5.4991119632916563E-01 
    5.2975419471712859E-01 
    5.0472560830254287E-01 
    4.7246599517364096E-01 
    4.2545211629025270E-01 
    3.3861208113688351E-01 
    1.6136438688558069E-01 
    1.0915066401409353E-02 
    6.5754967344439363E-01 
    6.2604407195613310E-01 
    6.1274402030223296E-01 
    6.0037009045732492E-01 
    5.8785347951355083E-01 
    5.7681627939420110E-01 
    5.6415599687212792E-01 
    5.4989435431859279E-01 
    5.3415981535734103E-01 
    5.1716481490222355E-01 
    4.9647218939073035E-01 
    4.6899488232235176E-01 
    4.2681727862531904E-01 
    3.4723868762664223E-01 
    1.8212723233775102E-01 
    1.8203166358847351E-02 
    6.0173846028250566E-01 
    5.8617120866028816E-01 
    5.7591986242281357E-01 
    5.6632773669945868E-01 
    5.5701064361761821E-01 
    5.6088401197991600E-01 
    5.4270729667296391E-01 
    5.2954023689662044E-01 
    5.1707956578226022E-01 
    5.0710944597561336E-01 
    4.8850290484545600E-01 
    4.6524150074190218E-01 
    4.2883155552066932E-01 
    3.5764411018661074E-01 
    2.0757392817096393E-01 
    3.0519688691152541E-02 
    5.5300789885115842E-01 
    5.4399060716547443E-01 
    5.3644362448274097E-01 
    5.2934363254820349E-01 
    5.2277511015234279E-01 
    5.2018582288921789E-01 
    5.1253842460338517E-01 
    5.0447973077025043E-01 
    4.9633170208389082E-01 
    4.8844047294134763E-01 
    4.7658611420687641E-01 
    4.5942714974869769E-01 
    4.3032129945609437E-01 
    3.6971838961226400E-01 
    2.3732628911112810E-01 
    5.3554047032045166E-02 
    5.0227875561794111E-01 
    4.9663805351033868E-01 
    4.9124281602573711E-01 
    4.8607546083221814E-01 
    4.8216528828776961E-01 
    4.7948479542204836E-01 
    4.7603426816572042E-01 
    4.7224777389579675E-01 
    4.6883416862801558E-01 
    4.6513668776855449E-01 
    4.5937557493268699E-01 
    4.4932203634848189E-01 
    4.2909049032193108E-01 
    3.8167712325562408E-01 
    2.7001797596740412E-01 
    9.2984823890683826E-02 
    4.3936349504929101E-01 
    4.3548999359885882E-01 
    4.3171588205312411E-01 
    4.2837366794336712E-01 
    4.2611460115967181E-01 
    4.2504743369076803E-01 
    4.2476968277426019E-01 
    4.2522682564471304E-01 
    4.2662553096548456E-01 
    4.2868037190387254E-01 
    4.3021497333055514E-01 
    4.2903310679123419E-01 
    4.2011767411273188E-01 
    3.8943115634846087E-01 
    3.0342841656625635E-01 
    1.4753275190134574E-01 
    3.4208922856380442E-01 
    3.3814506352353518E-01 
    3.3415504223578274E-01 
    3.3022994653508869E-01 
    3.3077190057753597E-01 
    3.3174816971144050E-01 
    3.3416729863502875E-01 
    3.3823539828162169E-01 
    3.4690903463944112E-01 
    3.5736700639814767E-01 
    3.6949875970354806E-01 
    3.8151796814456457E-01 
    3.8934180948815650E-01 
    3.8129809356344990E-01 
    3.2838056691072065E-01 
    2.0384047421832113E-01 
    1.5587002947393178E-01 
    1.4958768685869978E-01 
    1.4335862308127578E-01 
    1.3770766161423120E-01 
    1.4125465118832217E-01 
    1.4457458455901068E-01 
    1.5049600492647233E-01 
    1.6079386737525450E-01 
    1.8160188229475213E-01 
    2.0712494509389032E-01 
    2.3696157798346448E-01 
    2.6973157567903661E-01 
    3.0322522883479319E-01 
    3.2826650786067535E-01 
    3.2204363206115549E-01 
    2.4719309765678638E-01 
    8.8805019926774427E-03 
    7.7065308851948285E-03 
    6.7261523615698253E-03 
    5.9649375492668213E-03 
    6.7833943109701913E-03 
    7.2316683044569225E-03 
    8.3695210213545184E-03 
    1.0805750511000281E-02 
    1.7995359604308602E-02 
    3.0313844158173599E-02 
    5.3333582052529950E-02 
    9.2760099695980383E-02 
    1.4735445183660831E-01 
    2.0371124883965988E-01 
    2.4712622955092184E-01 
    2.4428870434262148E-01 
