# vtk DataFile Version 2.0
Pressure Field Data 
ASCII 
DATASET UNSTRUCTURED_GRID 

POINTS 289 double 

    0.0000000000000000E+00     0.0000000000000000E+00     0.0000000000000000E+00 
    1.0000000000000000E+00     0.0000000000000000E+00     0.0000000000000000E+00 
    1.0000000000000000E+00     1.0000000000000000E+00     0.0000000000000000E+00 
    0.0000000000000000E+00     1.0000000000000000E+00     0.0000000000000000E+00 
    6.2499999999872928E-02     0.0000000000000000E+00     0.0000000000000000E+00 
    1.2499999999977310E-01     0.0000000000000000E+00     0.0000000000000000E+00 
    1.8749999999959341E-01     0.0000000000000000E+00     0.0000000000000000E+00 
    2.4999999999941089E-01     0.0000000000000000E+00     0.0000000000000000E+00 
    3.1249999999922851E-01     0.0000000000000000E+00     0.0000000000000000E+00 
    3.7499999999904610E-01     0.0000000000000000E+00     0.0000000000000000E+00 
    4.3749999999886358E-01     0.0000000000000000E+00     0.0000000000000000E+00 
    4.9999999999869210E-01     0.0000000000000000E+00     0.0000000000000000E+00 
    5.6249999999884603E-01     0.0000000000000000E+00     0.0000000000000000E+00 
    6.2499999999901090E-01     0.0000000000000000E+00     0.0000000000000000E+00 
    6.8749999999917577E-01     0.0000000000000000E+00     0.0000000000000000E+00 
    7.4999999999934064E-01     0.0000000000000000E+00     0.0000000000000000E+00 
    8.1249999999950551E-01     0.0000000000000000E+00     0.0000000000000000E+00 
    8.7499999999967026E-01     0.0000000000000000E+00     0.0000000000000000E+00 
    9.3749999999983513E-01     0.0000000000000000E+00     0.0000000000000000E+00 
    1.0000000000000000E+00     6.2499999999872928E-02     0.0000000000000000E+00 
    1.0000000000000000E+00     1.2499999999977310E-01     0.0000000000000000E+00 
    1.0000000000000000E+00     1.8749999999959341E-01     0.0000000000000000E+00 
    1.0000000000000000E+00     2.4999999999941089E-01     0.0000000000000000E+00 
    1.0000000000000000E+00     3.1249999999922851E-01     0.0000000000000000E+00 
    1.0000000000000000E+00     3.7499999999904610E-01     0.0000000000000000E+00 
    1.0000000000000000E+00     4.3749999999886358E-01     0.0000000000000000E+00 
    1.0000000000000000E+00     4.9999999999869210E-01     0.0000000000000000E+00 
    1.0000000000000000E+00     5.6249999999884603E-01     0.0000000000000000E+00 
    1.0000000000000000E+00     6.2499999999901090E-01     0.0000000000000000E+00 
    1.0000000000000000E+00     6.8749999999917577E-01     0.0000000000000000E+00 
    1.0000000000000000E+00     7.4999999999934064E-01     0.0000000000000000E+00 
    1.0000000000000000E+00     8.1249999999950551E-01     0.0000000000000000E+00 
    1.0000000000000000E+00     8.7499999999967026E-01     0.0000000000000000E+00 
    1.0000000000000000E+00     9.3749999999983513E-01     0.0000000000000000E+00 
    9.3749999999973976E-01     1.0000000000000000E+00     0.0000000000000000E+00 
    8.7499999999950118E-01     1.0000000000000000E+00     0.0000000000000000E+00 
    8.1249999999991318E-01     1.0000000000000000E+00     0.0000000000000000E+00 
    7.5000000000034706E-01     1.0000000000000000E+00     0.0000000000000000E+00 
    6.8750000000078049E-01     1.0000000000000000E+00     0.0000000000000000E+00 
    6.2500000000121403E-01     1.0000000000000000E+00     0.0000000000000000E+00 
    5.6250000000164757E-01     1.0000000000000000E+00     0.0000000000000000E+00 
    5.0000000000205946E-01     1.0000000000000000E+00     0.0000000000000000E+00 
    4.3750000000182099E-01     1.0000000000000000E+00     0.0000000000000000E+00 
    3.7500000000156092E-01     1.0000000000000000E+00     0.0000000000000000E+00 
    3.1250000000130068E-01     1.0000000000000000E+00     0.0000000000000000E+00 
    2.5000000000104050E-01     1.0000000000000000E+00     0.0000000000000000E+00 
    1.8750000000078040E-01     1.0000000000000000E+00     0.0000000000000000E+00 
    1.2500000000052031E-01     1.0000000000000000E+00     0.0000000000000000E+00 
    6.2500000000260125E-02     1.0000000000000000E+00     0.0000000000000000E+00 
    0.0000000000000000E+00     9.3749999999973976E-01     0.0000000000000000E+00 
    0.0000000000000000E+00     8.7499999999950118E-01     0.0000000000000000E+00 
    0.0000000000000000E+00     8.1249999999991318E-01     0.0000000000000000E+00 
    0.0000000000000000E+00     7.5000000000034706E-01     0.0000000000000000E+00 
    0.0000000000000000E+00     6.8750000000078049E-01     0.0000000000000000E+00 
    0.0000000000000000E+00     6.2500000000121403E-01     0.0000000000000000E+00 
    0.0000000000000000E+00     5.6250000000164757E-01     0.0000000000000000E+00 
    0.0000000000000000E+00     5.0000000000205946E-01     0.0000000000000000E+00 
    0.0000000000000000E+00     4.3750000000182099E-01     0.0000000000000000E+00 
    0.0000000000000000E+00     3.7500000000156092E-01     0.0000000000000000E+00 
    0.0000000000000000E+00     3.1250000000130068E-01     0.0000000000000000E+00 
    0.0000000000000000E+00     2.5000000000104050E-01     0.0000000000000000E+00 
    0.0000000000000000E+00     1.8750000000078040E-01     0.0000000000000000E+00 
    0.0000000000000000E+00     1.2500000000052031E-01     0.0000000000000000E+00 
    0.0000000000000000E+00     6.2500000000260125E-02     0.0000000000000000E+00 
    6.2499999999897131E-02     6.2500000000235922E-02     0.0000000000000000E+00 
    6.2499999999921327E-02     1.2500000000047351E-01     0.0000000000000000E+00 
    6.2499999999945530E-02     1.8750000000070621E-01     0.0000000000000000E+00 
    6.2499999999969733E-02     2.5000000000093858E-01     0.0000000000000000E+00 
    6.2499999999993928E-02     3.1250000000117117E-01     0.0000000000000000E+00 
    6.2500000000018124E-02     3.7500000000140382E-01     0.0000000000000000E+00 
    6.2500000000042327E-02     4.3750000000163619E-01     0.0000000000000000E+00 
    6.2500000000066530E-02     5.0000000000184897E-01     0.0000000000000000E+00 
    6.2500000000090733E-02     5.6250000000147260E-01     0.0000000000000000E+00 
    6.2500000000114922E-02     6.2500000000107636E-01     0.0000000000000000E+00 
    6.2500000000139125E-02     6.8750000000068034E-01     0.0000000000000000E+00 
    6.2500000000163328E-02     7.5000000000028411E-01     0.0000000000000000E+00 
    6.2500000000187531E-02     8.1249999999988787E-01     0.0000000000000000E+00 
    6.2500000000211720E-02     8.7499999999951172E-01     0.0000000000000000E+00 
    6.2500000000235922E-02     9.3749999999974565E-01     0.0000000000000000E+00 
    1.2499999999981980E-01     6.2500000000211733E-02     0.0000000000000000E+00 
    1.2499999999986650E-01     1.2500000000042691E-01     0.0000000000000000E+00 
    1.2499999999991319E-01     1.8750000000063199E-01     0.0000000000000000E+00 
    1.2499999999995989E-01     2.5000000000083678E-01     0.0000000000000000E+00 
    1.2500000000000661E-01     3.1250000000104172E-01     0.0000000000000000E+00 
    1.2500000000005329E-01     3.7500000000124661E-01     0.0000000000000000E+00 
    1.2500000000010000E-01     4.3750000000145117E-01     0.0000000000000000E+00 
    1.2500000000014669E-01     5.0000000000163858E-01     0.0000000000000000E+00 
    1.2500000000019340E-01     5.6250000000129741E-01     0.0000000000000000E+00 
    1.2500000000024011E-01     6.2500000000093847E-01     0.0000000000000000E+00 
    1.2500000000028680E-01     6.8750000000057998E-01     0.0000000000000000E+00 
    1.2500000000033351E-01     7.5000000000022127E-01     0.0000000000000000E+00 
    1.2500000000038020E-01     8.1249999999986211E-01     0.0000000000000000E+00 
    1.2500000000042691E-01     8.7499999999952238E-01     0.0000000000000000E+00 
    1.2500000000047359E-01     9.3749999999975164E-01     0.0000000000000000E+00 
    1.8749999999966760E-01     6.2500000000187531E-02     0.0000000000000000E+00 
    1.8749999999974179E-01     1.2500000000038020E-01     0.0000000000000000E+00 
    1.8749999999981601E-01     1.8750000000055780E-01     0.0000000000000000E+00 
    1.8749999999989009E-01     2.5000000000073502E-01     0.0000000000000000E+00 
    1.8749999999996431E-01     3.1250000000091221E-01     0.0000000000000000E+00 
    1.8750000000003850E-01     3.7500000000108941E-01     0.0000000000000000E+00 
    1.8750000000011269E-01     4.3750000000126649E-01     0.0000000000000000E+00 
    1.8750000000018691E-01     5.0000000000142808E-01     0.0000000000000000E+00 
    1.8750000000026110E-01     5.6250000000112244E-01     0.0000000000000000E+00 
    1.8750000000033529E-01     6.2500000000080080E-01     0.0000000000000000E+00 
    1.8750000000040951E-01     6.8750000000047962E-01     0.0000000000000000E+00 
    1.8750000000048361E-01     7.5000000000015843E-01     0.0000000000000000E+00 
    1.8750000000055780E-01     8.1249999999983680E-01     0.0000000000000000E+00 
    1.8750000000063199E-01     8.7499999999953304E-01     0.0000000000000000E+00 
    1.8750000000070621E-01     9.3749999999975764E-01     0.0000000000000000E+00 
    2.4999999999951281E-01     6.2500000000163314E-02     0.0000000000000000E+00 
    2.4999999999961461E-01     1.2500000000033351E-01     0.0000000000000000E+00 
    2.4999999999971650E-01     1.8750000000048361E-01     0.0000000000000000E+00 
    2.4999999999981831E-01     2.5000000000063310E-01     0.0000000000000000E+00 
    2.4999999999992020E-01     3.1250000000078260E-01     0.0000000000000000E+00 
    2.5000000000002198E-01     3.7500000000093209E-01     0.0000000000000000E+00 
    2.5000000000012390E-01     4.3750000000108180E-01     0.0000000000000000E+00 
    2.5000000000022571E-01     5.0000000000121769E-01     0.0000000000000000E+00 
    2.5000000000032763E-01     5.6250000000094724E-01     0.0000000000000000E+00 
    2.5000000000042938E-01     6.2500000000066314E-01     0.0000000000000000E+00 
    2.5000000000053119E-01     6.8750000000037925E-01     0.0000000000000000E+00 
[...]
CELL_DATA 256 
SCALARS Pressure double 1 
LOOKUP_TABLE default 

    2.3469363792694038E+00 
    2.2378335217109178E+00 
    2.1640548635612293E+00 
    2.1054008733386675E+00 
    2.0582349076901347E+00 
    2.0177344973266558E+00 
    1.9782291519386070E+00 
    1.9410353761290089E+00 
    1.9069048660712506E+00 
    1.8756615906287561E+00 
    1.8468231964103279E+00 
    1.8206067258571961E+00 
    1.7967043135205030E+00 
    1.7747556847352510E+00 
    1.7587343379139748E+00 
    1.7511243881762373E+00 
    2.2379058941192089E+00 
    2.1917079864865876E+00 
    2.1404636831183259E+00 
    2.0914745212027812E+00 
    2.0481376070741213E+00 
    2.0088327039281006E+00 
    1.9705058318453097E+00 
    1.9342195906753619E+00 
    1.9004656853327273E+00 
    1.8691891521214283E+00 
    1.8402969036782435E+00 
    1.8139355546358678E+00 
    1.7897797427591127E+00 
    1.7675064087148005E+00 
    1.7513045741705524E+00 
    1.7436265134299647E+00 
    2.1642672903125852E+00 
    2.1405723355365947E+00 
    2.1053637220652455E+00 
    2.0668313414531556E+00 
    2.0289549128745072E+00 
    1.9920637194724484E+00 
    1.9557908178134842E+00 
    1.9208629818241192E+00 
    1.8876284646156563E+00 
    1.8563790976699384E+00 
    1.8273305049401711E+00 
    1.8006137519001186E+00 
    1.7759185996610227E+00 
    1.7530048735864541E+00 
    1.7364253963052698E+00 
    1.7285833627726732E+00 
    2.1058635512692954E+00 
    2.0917014586520435E+00 
    2.0668995528585250E+00 
    2.0365374496497721E+00 
    2.0036321025457502E+00 
    1.9696339929804780E+00 
    1.9354644805352033E+00 
    1.9017573455898693E+00 
    1.8689661747053727E+00 
    1.8376253835961058E+00 
    1.8081408620833552E+00 
    1.7807356216937167E+00 
    1.7551186174946234E+00 
    1.7311931054642054E+00 
    1.7139736591501935E+00 
    1.7058299718169001E+00 
    2.0584240509381235E+00 
    2.0482013253598330E+00 
    2.0289712366569757E+00 
    2.0036272473391308E+00 
    1.9742837076910318E+00 
    1.9428786982113491E+00 
    1.9105975642043673E+00 
    1.8777788389719907E+00 
    1.8450731556904612E+00 
    1.8132692004766517E+00 
    1.7829600481525059E+00 
    1.7543991705139759E+00 
    1.7273394462453526E+00 
    1.7019051442172817E+00 
    1.6836820865292355E+00 
    1.6750527320324591E+00 
    2.0175142448488081E+00 
    2.0086594537840163E+00 
    1.9919856723901417E+00 
    1.9695962374649048E+00 
    1.9428639682142117E+00 
    1.9135236143246779E+00 
    1.8824635727537378E+00 
    1.8498419151011487E+00 
    1.8166497285156724E+00 
    1.7838575441046514E+00 
    1.7521096762049568E+00 
    1.7216902212932752E+00 
    1.6924607412101511E+00 
    1.6648337030845648E+00 
    1.6451179337526118E+00 
    1.6357612959072443E+00 
    1.9780247047789374E+00 
    1.9703389097321833E+00 
    1.9556913275216821E+00 
    1.9354083281536378E+00 
    1.9105680876351443E+00 
    1.8824511336368130E+00 
    1.8516715759780678E+00 
    1.8185656384283166E+00 
    1.7842790027231161E+00 
    1.7497672212247124E+00 
    1.7157168901944837E+00 
    1.6825454124744501E+00 
    1.6502114542173938E+00 
    1.6194962741550298E+00 
    1.5976357429979025E+00 
    1.5872138003222278E+00 
    1.9409286870152715E+00 
    1.9341036144417934E+00 
    1.9207696784395396E+00 
    1.9016963492401084E+00 
    1.8777453803939237E+00 
    1.8498262531985772E+00 
    1.8185602670599696E+00 
    1.7844499856074811E+00 
    1.7483709472740097E+00 
    1.7112323673548147E+00 
    1.6738574506658621E+00 
    1.6368698755939062E+00 
    1.6002263735582796E+00 
    1.5652205679749547E+00 
    1.5403107787119552E+00 
    1.5283483320034956E+00 
    1.9067970257861271E+00 
    1.9003481946733374E+00 
    1.8875358269270950E+00 
    1.8689062299429549E+00 
    1.8450433554203460E+00 
    1.8166377602304915E+00 
    1.7842746163298333E+00 
    1.7483699993102124E+00 
    1.7095936564231666E+00 
    1.6688064257453084E+00 
    1.6269190041218977E+00 
    1.5846566127291455E+00 
    1.5419807928817033E+00 
    1.5009558479804728E+00 
    1.4717478792216430E+00 
    1.4576008538391709E+00 
    1.8754934040690507E+00 
    1.8690449305946859E+00 
    1.8562826576226492E+00 
    1.8375668245612546E+00 
    1.8132417147904420E+00 
    1.7838449453305554E+00 
    1.7497591046197412E+00 
    1.7112294406250494E+00 
    1.6688063335055052E+00 
    1.6232559735666539E+00 
    1.5753937624595415E+00 
    1.5259409120173291E+00 
    1.4747659548059340E+00 
    1.4253178936736028E+00 
    1.3900991570169150E+00 
    1.3727908290454185E+00 
    1.8466742934991491E+00 
    1.8401711443629218E+00 
    1.8272444617521542E+00 
    1.8080885074433548E+00 
    1.7829333097893783E+00 
    1.7520939761776606E+00 
    1.7157040201757068E+00 
    1.6738522941525653E+00 
    1.6269187629961055E+00 
    1.5753953037245447E+00 
    1.5198174773798188E+00 
    1.4607473608037540E+00 
    1.3976842233394975E+00 
    1.3367392593273426E+00 
    1.2930317941065765E+00 
    1.2707676521874582E+00 
    1.8204922953358567E+00 
    1.8138371631243777E+00 
    1.8005438035202266E+00 
    1.7806926150788625E+00 
    1.7543772627813765E+00 
    1.7216792514491397E+00 
    1.6825377869208729E+00 
    1.6368676160656441E+00 
    1.5846582061108501E+00 
    1.5259436889312121E+00 
    1.4607481645960465E+00 
    1.3889153284217148E+00 
    1.3099700693484158E+00 
    1.2343900374916517E+00 
    1.1778964150457694E+00 
    1.1465983169660723E+00 
    1.7966189498279350E+00 
    1.7897049932721587E+00 
    1.7758633395415060E+00 
    1.7550834978182734E+00 
    1.7273208794047268E+00 
    1.6924520780767094E+00 
    1.6502068612453995E+00 
    1.6002252297184965E+00 
    1.5419813125256301E+00 
    1.4747660980404254E+00 
    1.3976824333756050E+00 
    1.3099687146702022E+00 
    1.2134206820353668E+00 
    1.1195977735429414E+00 
    1.0409954061277598E+00 
    9.9118200736971895E-01 
    1.7746952280401587E+00 
    1.7674537942837623E+00 
    1.7529664462839125E+00 
    1.7311700493184157E+00 
    1.7018954819075740E+00 
    1.6648334193393419E+00 
    1.6195008737618972E+00 
    1.5652284357643973E+00 
    1.5009650583612266E+00 
    1.4253270176713684E+00 
    1.3367472241264031E+00 
    1.2343976795572520E+00 
    1.1196029742488007E+00 
    9.9731693707396285E-01 
    8.7690351403542377E-01 
    7.8596322591135404E-01 
    1.7587035787736391E+00 
    1.7512789473602210E+00 
    1.7364092883693618E+00 
    1.7139684074755441E+00 
    1.6836871334600434E+00 
    1.6451313260409366E+00 
    1.5976536984602945E+00 
    1.5403317051731680E+00 
    1.4717702308225502E+00 
    1.3901217672961061E+00 
    1.2930521329013425E+00 
    1.1779135477471323E+00 
    1.0410067659604720E+00 
    8.7690833130462631E-01 
    6.8336399968884243E-01 
    4.8979151113919883E-01 
    1.7511006271514584E+00 
    1.7436068249950210E+00 
    1.7285711972314344E+00 
    1.7058266388013850E+00 
    1.6750581712027690E+00 
    1.6357744583158242E+00 
    1.5872314121155566E+00 
    1.5283688151883237E+00 
    1.4576227659004741E+00 
    1.3728130400875946E+00 
    1.2707873054697068E+00 
    1.1466144036516179E+00 
    9.9119318009274904E-01 
    7.8596927856197762E-01 
    4.8979357318070660E-01 
    0.0000000000000000E+00 

SCALARS Saturarion double 1 
LOOKUP_TABLE default 

    1.0000000000000000E+00 
    9.3484892602258851E-01 
    8.8188679023118277E-01 
    8.2920078697956534E-01 
    8.7961420093556419E-01 
    7.6089487920585586E-01 
    6.9752725738257526E-01 
    6.4693844167421055E-01 
    6.1660263706842811E-01 
    5.6356241665699003E-01 
    5.1254010003135375E-01 
    4.5531775898619420E-01 
    3.7497890983957799E-01 
    2.2906762682291387E-01 
    3.7455873645513615E-02 
    1.6441827822794030E-04 
    9.3483935372738325E-01 
    8.9383422011588720E-01 
    8.4842108227647006E-01 
    8.0203315058167479E-01 
    7.6321424835299345E-01 
    7.1813737682905210E-01 
    6.7394764476374225E-01 
    6.3163457482549490E-01 
    5.9147766290098602E-01 
    5.4938257560134995E-01 
    5.0363902259106874E-01 
    4.4903393982422873E-01 
    3.6908511827311341E-01 
    2.1907514046844875E-01 
    3.1638325013117696E-02 
    1.0412683150035113E-04 
    8.8184531945664224E-01 
    8.4840242552961997E-01 
    8.0981126876119491E-01 
    7.6976179919367560E-01 
    7.3094868786262501E-01 
    6.9212864514084760E-01 
    6.5369970000263222E-01 
    6.1589934205319208E-01 
    5.7814252267038047E-01 
    5.3885679039910472E-01 
    4.9550406351157600E-01 
    4.4250648057382408E-01 
    3.6266755233863085E-01 
    2.0717059895597159E-01 
    2.5622612800350875E-02 
    5.9764372739652720E-05 
    8.2908847159823562E-01 
    8.0200624217203886E-01 
    7.6977618813739079E-01 
    7.3589687939997739E-01 
    7.0182616739799319E-01 
    6.6778084045345576E-01 
    6.3376705020308999E-01 
    5.9975907797857253E-01 
    5.6514045558832915E-01 
    5.2855962626644737E-01 
    4.8751978745388741E-01 
    4.3590872247746615E-01 
    3.5621401938838398E-01 
    1.9327876874674096E-01 
    1.9901146655493026E-02 
    3.1188609964433407E-05 
    8.6317280417248599E-01 
    7.6232286707649777E-01 
    7.3080604789352344E-01 
    7.0179568271311832E-01 
    6.7270195741779859E-01 
    6.4326276565484297E-01 
    6.1326406219440821E-01 
    5.8296198222720552E-01 
    5.5167795454341528E-01 
    5.1824917243426483E-01 
    4.7982363962227353E-01 
    4.3051671867189983E-01 
    3.5035007316380629E-01 
    1.8661245633252954E-01 
    1.7822220213425478E-02 
    2.3332745477853486E-05 
    7.5646966507717861E-01 
    7.1723979882778832E-01 
    6.9190489491008045E-01 
    6.6771539489514775E-01 
    6.4324184489917091E-01 
    6.4414749406023863E-01 
    6.0079167367390740E-01 
    5.6865166835709002E-01 
    5.3873575796165440E-01 
    5.1433223607797462E-01 
    4.7397942577648727E-01 
    4.2524864912191057E-01 
    3.4474828812224317E-01 
    1.7545290605519265E-01 
    1.4014022804020126E-02 
    1.2161460647472641E-05 
    6.9534703262360043E-01 
    6.7324711370153434E-01 
    6.5346309331299379E-01 
    6.3367936241554568E-01 
    6.1322620304248276E-01 
    6.0077879323547012E-01 
    5.7599786328171265E-01 
    5.5039096380749308E-01 
    5.2427454929078721E-01 
    4.9868407354924044E-01 
    4.6484197000140176E-01 
    4.1911137189927905E-01 
    3.3943703079256843E-01 
    1.6421778195182060E-01 
    1.1102287655364187E-02 
    6.5598893079866764E-06 
    6.4566548833742299E-01 
    6.3109927156135759E-01 
    6.1567333356616716E-01 
    5.9965554690875944E-01 
    5.8290777854835918E-01 
    5.6862268500497570E-01 
    5.5037739831116250E-01 
    5.3018834739662402E-01 
    5.0834174017210065E-01 
    4.8484639725915746E-01 
    4.5509532677387582E-01 
    4.1249236037549575E-01 
    3.3462769626962008E-01 
    1.5326144994654253E-01 
    8.7766029297669853E-03 
    3.4851395074549288E-06 
    6.1149786721889565E-01 
    5.9070305212044427E-01 
    5.7787888306546631E-01 
    5.6501454164036191E-01 
    5.5160272132881616E-01 
    5.3868620954774160E-01 
    5.2424476634199013E-01 
    5.0832753308912926E-01 
    4.9067261563692582E-01 
    4.7055761165995880E-01 
    4.4477648408133702E-01 
    4.0634119428225696E-01 
    3.3060953269955023E-01 
    1.5231691972415631E-01 
    8.5649005701526008E-03 
    2.8901932979221932E-06 
    5.6100635212460193E-01 
    5.4869050041006318E-01 
    5.3858229546743075E-01 
    5.2841570871844601E-01 
    5.1815243249512077E-01 
    5.1360168132546835E-01 
    4.9840376085760335E-01 
    4.8472932864348556E-01 
    4.7050948871616433E-01 
    4.5555997953571287E-01 
    4.3285617975509877E-01 
    3.9845532746143464E-01 
    3.2581211337331573E-01 
    1.4325753294896751E-01 
    6.3579760118204886E-03 
    1.0954592988021877E-06 
    5.1113436537304091E-01 
    5.0307868740730122E-01 
    4.9522913157553888E-01 
    4.8735593825067797E-01 
    4.7970828922566455E-01 
    4.7367640932301053E-01 
    4.6461342864530081E-01 
    4.5495075273006236E-01 
    4.4469124460882398E-01 
    4.3281583254388278E-01 
    4.1539662033850994E-01 
    3.8609823580735264E-01 
    3.1679385856868880E-01 
    1.2346917486863043E-01 
    3.4233830036503820E-03 
    1.5003267772146473E-07 
    4.5443233345333733E-01 
    4.4854392932417791E-01 
    4.4220262475899186E-01 
    4.3569616760661078E-01 
    4.3035549190567057E-01 
    4.2504718895355020E-01 
    4.1891680088215644E-01 
    4.1232959669915148E-01 
    4.0621629898010492E-01 
    3.9836576689206604E-01 
    3.8604564089880600E-01 
    3.6210582406756492E-01 
    2.9068699659923297E-01 
    7.3295475719197090E-02 
    4.7413142702794152E-04 
    2.0164175813111778E-10 
    3.7420179755476357E-01 
    3.6851333079112852E-01 
    3.6222885402317950E-01 
    3.5585759878874967E-01 
    3.5004524319500108E-01 
    3.4445444420798310E-01 
    3.3915058247488561E-01 
    3.3435846415794523E-01 
    3.3036548208384742E-01 
    3.2559878360585903E-01 
    3.1661642092954140E-01 
    2.9055795840567855E-01 
    1.6653936709883771E-01 
    6.1002343429757064E-03 
    9.0893615925551829E-08 
    7.7212396917433135E-23 
    2.2791236252439445E-01 
    2.1811253324487129E-01 
    2.0637167678566010E-01 
    1.9259984372877320E-01 
    1.8600250411557145E-01 
    1.7488957525575044E-01 
    1.6370125037264444E-01 
    1.5279414488456883E-01 
    1.5189490306709044E-01 
    1.4288267685751266E-01 
    1.2317433571748869E-01 
    7.3145447750939480E-02 
    6.0953216799121464E-03 
    2.7670801899898134E-07 
    2.0040354797209137E-21 
    5.6074340522980832E-67 
    3.6805580535566249E-02 
    3.1177423935118867E-02 
    2.5306558238319149E-02 
    1.9683728890184205E-02 
    1.7621796268988788E-02 
    1.3869966959888971E-02 
    1.0996387776049794E-02 
    8.6980968520548058E-03 
    8.4909986876529724E-03 
    6.3089905717056893E-03 
    3.4007096678118722E-03 
    4.7170280198321752E-04 
    9.0726276297657327E-08 
    2.0030991831998638E-21 
    2.3785483245085120E-66 
   3.6158853215412338E-214 
    1.5621720275733398E-04 
    1.0022008022157705E-04 
    5.7953111802419664E-05 
    3.0370300697348584E-05 
    2.2583263469393177E-05 
    1.1848386382882394E-05 
    6.4105016202663692E-06 
    3.4120619960249423E-06 
    2.8254015601657379E-06 
    1.0751276520903361E-06 
    1.4769695783759597E-07 
    1.9940052124747188E-10 
    7.6937995249540556E-23 
    5.6020124883197573E-67 
   3.6152527523446629E-214 
    0.0000000000000000E+00 
