# vtk DataFile Version 2.0
Pressure Field Data 
ASCII 
DATASET UNSTRUCTURED_GRID 

POINTS 289 double 

    0.0000000000000000E+00     0.0000000000000000E+00     0.0000000000000000E+00 
    1.0000000000000000E+00     0.0000000000000000E+00     0.0000000000000000E+00 
    1.0000000000000000E+00     1.0000000000000000E+00     0.0000000000000000E+00 
    0.0000000000000000E+00     1.0000000000000000E+00     0.0000000000000000E+00 
    6.2499999999872928E-02     0.0000000000000000E+00     0.0000000000000000E+00 
    1.2499999999977310E-01     0.0000000000000000E+00     0.0000000000000000E+00 
    1.8749999999959341E-01     0.0000000000000000E+00     0.0000000000000000E+00 
    2.4999999999941089E-01     0.0000000000000000E+00     0.0000000000000000E+00 
    3.1249999999922851E-01     0.0000000000000000E+00     0.0000000000000000E+00 
    3.7499999999904610E-01     0.0000000000000000E+00     0.0000000000000000E+00 
    4.3749999999886358E-01     0.0000000000000000E+00     0.0000000000000000E+00 
    4.9999999999869210E-01     0.0000000000000000E+00     0.0000000000000000E+00 
    5.6249999999884603E-01     0.0000000000000000E+00     0.0000000000000000E+00 
    6.2499999999901090E-01     0.0000000000000000E+00     0.0000000000000000E+00 
    6.8749999999917577E-01     0.0000000000000000E+00     0.0000000000000000E+00 
    7.4999999999934064E-01     0.0000000000000000E+00     0.0000000000000000E+00 
    8.1249999999950551E-01     0.0000000000000000E+00     0.0000000000000000E+00 
    8.7499999999967026E-01     0.0000000000000000E+00     0.0000000000000000E+00 
    9.3749999999983513E-01     0.0000000000000000E+00     0.0000000000000000E+00 
    1.0000000000000000E+00     6.2499999999872928E-02     0.0000000000000000E+00 
    1.0000000000000000E+00     1.2499999999977310E-01     0.0000000000000000E+00 
    1.0000000000000000E+00     1.8749999999959341E-01     0.0000000000000000E+00 
    1.0000000000000000E+00     2.4999999999941089E-01     0.0000000000000000E+00 
    1.0000000000000000E+00     3.1249999999922851E-01     0.0000000000000000E+00 
    1.0000000000000000E+00     3.7499999999904610E-01     0.0000000000000000E+00 
    1.0000000000000000E+00     4.3749999999886358E-01     0.0000000000000000E+00 
    1.0000000000000000E+00     4.9999999999869210E-01     0.0000000000000000E+00 
    1.0000000000000000E+00     5.6249999999884603E-01     0.0000000000000000E+00 
    1.0000000000000000E+00     6.2499999999901090E-01     0.0000000000000000E+00 
    1.0000000000000000E+00     6.8749999999917577E-01     0.0000000000000000E+00 
    1.0000000000000000E+00     7.4999999999934064E-01     0.0000000000000000E+00 
    1.0000000000000000E+00     8.1249999999950551E-01     0.0000000000000000E+00 
    1.0000000000000000E+00     8.7499999999967026E-01     0.0000000000000000E+00 
    1.0000000000000000E+00     9.3749999999983513E-01     0.0000000000000000E+00 
    9.3749999999973976E-01     1.0000000000000000E+00     0.0000000000000000E+00 
    8.7499999999950118E-01     1.0000000000000000E+00     0.0000000000000000E+00 
    8.1249999999991318E-01     1.0000000000000000E+00     0.0000000000000000E+00 
    7.5000000000034706E-01     1.0000000000000000E+00     0.0000000000000000E+00 
    6.8750000000078049E-01     1.0000000000000000E+00     0.0000000000000000E+00 
    6.2500000000121403E-01     1.0000000000000000E+00     0.0000000000000000E+00 
    5.6250000000164757E-01     1.0000000000000000E+00     0.0000000000000000E+00 
    5.0000000000205946E-01     1.0000000000000000E+00     0.0000000000000000E+00 
    4.3750000000182099E-01     1.0000000000000000E+00     0.0000000000000000E+00 
    3.7500000000156092E-01     1.0000000000000000E+00     0.0000000000000000E+00 
    3.1250000000130068E-01     1.0000000000000000E+00     0.0000000000000000E+00 
    2.5000000000104050E-01     1.0000000000000000E+00     0.0000000000000000E+00 
    1.8750000000078040E-01     1.0000000000000000E+00     0.0000000000000000E+00 
    1.2500000000052031E-01     1.0000000000000000E+00     0.0000000000000000E+00 
    6.2500000000260125E-02     1.0000000000000000E+00     0.0000000000000000E+00 
    0.0000000000000000E+00     9.3749999999973976E-01     0.0000000000000000E+00 
    0.0000000000000000E+00     8.7499999999950118E-01     0.0000000000000000E+00 
    0.0000000000000000E+00     8.1249999999991318E-01     0.0000000000000000E+00 
    0.0000000000000000E+00     7.5000000000034706E-01     0.0000000000000000E+00 
    0.0000000000000000E+00     6.8750000000078049E-01     0.0000000000000000E+00 
    0.0000000000000000E+00     6.2500000000121403E-01     0.0000000000000000E+00 
    0.0000000000000000E+00     5.6250000000164757E-01     0.0000000000000000E+00 
    0.0000000000000000E+00     5.0000000000205946E-01     0.0000000000000000E+00 
    0.0000000000000000E+00     4.3750000000182099E-01     0.0000000000000000E+00 
    0.0000000000000000E+00     3.7500000000156092E-01     0.0000000000000000E+00 
    0.0000000000000000E+00     3.1250000000130068E-01     0.0000000000000000E+00 
    0.0000000000000000E+00     2.5000000000104050E-01     0.0000000000000000E+00 
    0.0000000000000000E+00     1.8750000000078040E-01     0.0000000000000000E+00 
    0.0000000000000000E+00     1.2500000000052031E-01     0.0000000000000000E+00 
    0.0000000000000000E+00     6.2500000000260125E-02     0.0000000000000000E+00 
    6.2499999999897131E-02     6.2500000000235922E-02     0.0000000000000000E+00 
    6.2499999999921327E-02     1.2500000000047351E-01     0.0000000000000000E+00 
    6.2499999999945530E-02     1.8750000000070621E-01     0.0000000000000000E+00 
    6.2499999999969733E-02     2.5000000000093858E-01     0.0000000000000000E+00 
    6.2499999999993928E-02     3.1250000000117117E-01     0.0000000000000000E+00 
    6.2500000000018124E-02     3.7500000000140382E-01     0.0000000000000000E+00 
    6.2500000000042327E-02     4.3750000000163619E-01     0.0000000000000000E+00 
    6.2500000000066530E-02     5.0000000000184897E-01     0.0000000000000000E+00 
    6.2500000000090733E-02     5.6250000000147260E-01     0.0000000000000000E+00 
    6.2500000000114922E-02     6.2500000000107636E-01     0.0000000000000000E+00 
    6.2500000000139125E-02     6.8750000000068034E-01     0.0000000000000000E+00 
    6.2500000000163328E-02     7.5000000000028411E-01     0.0000000000000000E+00 
    6.2500000000187531E-02     8.1249999999988787E-01     0.0000000000000000E+00 
    6.2500000000211720E-02     8.7499999999951172E-01     0.0000000000000000E+00 
    6.2500000000235922E-02     9.3749999999974565E-01     0.0000000000000000E+00 
    1.2499999999981980E-01     6.2500000000211733E-02     0.0000000000000000E+00 
    1.2499999999986650E-01     1.2500000000042691E-01     0.0000000000000000E+00 
    1.2499999999991319E-01     1.8750000000063199E-01     0.0000000000000000E+00 
    1.2499999999995989E-01     2.5000000000083678E-01     0.0000000000000000E+00 
    1.2500000000000661E-01     3.1250000000104172E-01     0.0000000000000000E+00 
    1.2500000000005329E-01     3.7500000000124661E-01     0.0000000000000000E+00 
    1.2500000000010000E-01     4.3750000000145117E-01     0.0000000000000000E+00 
    1.2500000000014669E-01     5.0000000000163858E-01     0.0000000000000000E+00 
    1.2500000000019340E-01     5.6250000000129741E-01     0.0000000000000000E+00 
    1.2500000000024011E-01     6.2500000000093847E-01     0.0000000000000000E+00 
    1.2500000000028680E-01     6.8750000000057998E-01     0.0000000000000000E+00 
    1.2500000000033351E-01     7.5000000000022127E-01     0.0000000000000000E+00 
    1.2500000000038020E-01     8.1249999999986211E-01     0.0000000000000000E+00 
    1.2500000000042691E-01     8.7499999999952238E-01     0.0000000000000000E+00 
    1.2500000000047359E-01     9.3749999999975164E-01     0.0000000000000000E+00 
    1.8749999999966760E-01     6.2500000000187531E-02     0.0000000000000000E+00 
    1.8749999999974179E-01     1.2500000000038020E-01     0.0000000000000000E+00 
    1.8749999999981601E-01     1.8750000000055780E-01     0.0000000000000000E+00 
    1.8749999999989009E-01     2.5000000000073502E-01     0.0000000000000000E+00 
    1.8749999999996431E-01     3.1250000000091221E-01     0.0000000000000000E+00 
    1.8750000000003850E-01     3.7500000000108941E-01     0.0000000000000000E+00 
    1.8750000000011269E-01     4.3750000000126649E-01     0.0000000000000000E+00 
    1.8750000000018691E-01     5.0000000000142808E-01     0.0000000000000000E+00 
    1.8750000000026110E-01     5.6250000000112244E-01     0.0000000000000000E+00 
    1.8750000000033529E-01     6.2500000000080080E-01     0.0000000000000000E+00 
    1.8750000000040951E-01     6.8750000000047962E-01     0.0000000000000000E+00 
    1.8750000000048361E-01     7.5000000000015843E-01     0.0000000000000000E+00 
    1.8750000000055780E-01     8.1249999999983680E-01     0.0000000000000000E+00 
    1.8750000000063199E-01     8.7499999999953304E-01     0.0000000000000000E+00 
    1.8750000000070621E-01     9.3749999999975764E-01     0.0000000000000000E+00 
    2.4999999999951281E-01     6.2500000000163314E-02     0.0000000000000000E+00 
    2.4999999999961461E-01     1.2500000000033351E-01     0.0000000000000000E+00 
    2.4999999999971650E-01     1.8750000000048361E-01     0.0000000000000000E+00 
    2.4999999999981831E-01     2.5000000000063310E-01     0.0000000000000000E+00 
    2.4999999999992020E-01     3.1250000000078260E-01     0.0000000000000000E+00 
    2.5000000000002198E-01     3.7500000000093209E-01     0.0000000000000000E+00 
    2.5000000000012390E-01     4.3750000000108180E-01     0.0000000000000000E+00 
    2.5000000000022571E-01     5.0000000000121769E-01     0.0000000000000000E+00 
    2.5000000000032763E-01     5.6250000000094724E-01     0.0000000000000000E+00 
    2.5000000000042938E-01     6.2500000000066314E-01     0.0000000000000000E+00 
    2.5000000000053119E-01     6.8750000000037925E-01     0.0000000000000000E+00 
[...]
CELL_DATA 256 
SCALARS Pressure double 1 
LOOKUP_TABLE default 

    2.9219527393289431E+00 
    2.7843050590107850E+00 
    2.6598415341499329E+00 
    2.5421359289973031E+00 
    2.4219607256972675E+00 
    2.2949144929613459E+00 
    2.1830426278239723E+00 
    2.0958028344095712E+00 
    2.0226155504932350E+00 
    1.9605055544730929E+00 
    1.9082957900517581E+00 
    1.8652964248713526E+00 
    1.8311141769557220E+00 
    1.8055546630195551E+00 
    1.7885383005057824E+00 
    1.7800415690980154E+00 
    2.7843202252115691E+00 
    2.7124319730455313E+00 
    2.6149442933998932E+00 
    2.5084495748238078E+00 
    2.3918904133049415E+00 
    2.2704131754106496E+00 
    2.1665836749865903E+00 
    2.0829426107508793E+00 
    2.0116204873915344E+00 
    1.9506571946182631E+00 
    1.8991328933494687E+00 
    1.8565163608967874E+00 
    1.8225209097270634E+00 
    1.7970335012283647E+00 
    1.7800345883588391E+00 
    1.7715459979861223E+00 
    2.6598797538152166E+00 
    2.6149666547525090E+00 
    2.5399405100358150E+00 
    2.4450532449643831E+00 
    2.3352514392587644E+00 
    2.2275588016953183E+00 
    2.1362467389637976E+00 
    2.0583150972431206E+00 
    1.9903314245405850E+00 
    1.9314378084767794E+00 
    1.8811344389480380E+00 
    1.8391769084248255E+00 
    1.8054797372707871E+00 
    1.7800830280902011E+00 
    1.7630821147089393E+00 
    1.7545800369424724E+00 
    2.5422044786118518E+00 
    2.5084996322182000E+00 
    2.4450802156747478E+00 
    2.3586931839465644E+00 
    2.2633582754833399E+00 
    2.1745337639567603E+00 
    2.0952465165089227E+00 
    2.0238486689900990E+00 
    1.9600237036963215E+00 
    1.9036961198793063E+00 
    1.8548644449022629E+00 
    1.8136365624820641E+00 
    1.7801971286410827E+00 
    1.7547986019694157E+00 
    1.7377010028566686E+00 
    1.7291246872076969E+00 
    2.4220521459960347E+00 
    2.3919662476727983E+00 
    2.3353096933050237E+00 
    2.2633916283917430E+00 
    2.1886789229326808E+00 
    2.1160457873134768E+00 
    2.0467374240090779E+00 
    1.9818780228139350E+00 
    1.9222886889731492E+00 
    1.8685248724868320E+00 
    1.8210584134523238E+00 
    1.7803606411799342E+00 
    1.7469294463212306E+00 
    1.7212780077287020E+00 
    1.7038794595248679E+00 
    1.6951104111051254E+00 
    2.2950338985300189E+00 
    2.2705269970123712E+00 
    2.2276587953801714E+00 
    2.1746073814107496E+00 
    2.1160848191066801E+00 
    2.0549521838287652E+00 
    1.9938499475859324E+00 
    1.9347023349111712E+00 
    1.8787950091399912E+00 
    1.8271217797682602E+00 
    1.7805327949671093E+00 
    1.7398602185774332E+00 
    1.7059289336606722E+00 
    1.6795625673462116E+00 
    1.6615085494947792E+00 
    1.6523512517873873E+00 
    2.1832211106315422E+00 
    2.1667512113216310E+00 
    2.1363930046956479E+00 
    2.0953618965333938E+00 
    2.0468160141177081E+00 
    1.9938899631586995E+00 
    1.9391094671102460E+00 
    1.8843651748614954E+00 
    1.8311396368372086E+00 
    1.7806732971732748E+00 
    1.7341328470755306E+00 
    1.6926476514351034E+00 
    1.6573982894579229E+00 
    1.6295733877672949E+00 
    1.6102832406034695E+00 
    1.6004167013856996E+00 
    2.0960348410380969E+00 
    2.0831606565826490E+00 
    2.0585084361208574E+00 
    2.0240088896371762E+00 
    1.9820002551362725E+00 
    1.9347855772445102E+00 
    1.8844084289859042E+00 
    1.8325847765408212E+00 
    1.7807901574081904E+00 
    1.7303890502436368E+00 
    1.6827426749467513E+00 
    1.6392702637971313E+00 
    1.6015114876438297E+00 
    1.5711166089223623E+00 
    1.5497028784284388E+00 
    1.5386229074998161E+00 
    2.0228985676845932E+00 
    2.0118888739854270E+00 
    1.9905735611703010E+00 
    1.9602313690632589E+00 
    1.9224572124970856E+00 
    1.8789239099759567E+00 
    1.8312304583247137E+00 
    1.7808379314232921E+00 
    1.7291106512743162E+00 
    1.6774192192270792E+00 
    1.6272371640119618E+00 
    1.5802089408202635E+00 
    1.5382824502320365E+00 
    1.5037011092567842E+00 
    1.4788242182078974E+00 
    1.4657528277051950E+00 
    1.9608400891504798E+00 
    1.9509759135333897E+00 
    1.9317302602506770E+00 
    1.9039542035415207E+00 
    1.8687436621115752E+00 
    1.8273005932796185E+00 
    1.7808164056356628E+00 
    1.7304885667307706E+00 
    1.6774704335131914E+00 
    1.6230253046721217E+00 
    1.5686120447290035E+00 
    1.5160504260839969E+00 
    1.4677034499316206E+00 
    1.4265776190300843E+00 
    1.3961527851328603E+00 
    1.3798195906968751E+00 
    1.9086787695479430E+00 
    1.8995010058787207E+00 
    1.8814777952410418E+00 
    1.8551753948264014E+00 
    1.8213322767438960E+00 
    1.7807677144419258E+00 
    1.7343286314438011E+00 
    1.6828948688529213E+00 
    1.6273421875408238E+00 
    1.5686661729066513E+00 
    1.5081463343653982E+00 
    1.4476496464831143E+00 
    1.3898744609181255E+00 
    1.3387180975208621E+00 
    1.2993489583179811E+00 
    1.2775293685509699E+00 
    1.8657221762061504E+00 
    1.8569286562488301E+00 
    1.8395662065596461E+00 
    1.8139951295006271E+00 
    1.7806832545467286E+00 
    1.7401442815127997E+00 
    1.6928920720723177E+00 
    1.6394712455069107E+00 
    1.5803624378470646E+00 
    1.5161528413185308E+00 
    1.4476992344639068E+00 
    1.3765929374175478E+00 
    1.3055061671134591E+00 
    1.2391554240759235E+00 
    1.1850830790117204E+00 
    1.1534650976011467E+00 
    1.8315734135649635E+00 
    1.8229679595722794E+00 
    1.8059053245854164E+00 
    1.7805935431112223E+00 
    1.7472912617404965E+00 
    1.7062530963457676E+00 
    1.6576834480132305E+00 
    1.6017535199022188E+00 
    1.5384772538376825E+00 
    1.4678475613943829E+00 
    1.3899660939646339E+00 
    1.3055484450387906E+00 
    1.2164385980699004E+00 
    1.1273493971337134E+00 
    1.0484130935734783E+00 
    9.9780281790247616E-01 
    1.8060351234204262E+00 
    1.7975029145429144E+00 
    1.7805324215090594E+00 
    1.7552204846929911E+00 
    1.7216669550422408E+00 
    1.6799152365567604E+00 
    1.6298879713546599E+00 
    1.5713884991331628E+00 
    1.5039261332558391E+00 
    1.4267522932517527E+00 
    1.3388409818519169E+00 
    1.2392298516950833E+00 
    1.1273821166487652E+00 
    1.0054147191631977E+00 
    8.8345403428820268E-01 
    7.9154254616072028E-01 
    1.7890254593247850E+00 
    1.7805117235648777E+00 
    1.7635406524369055E+00 
    1.7381337748217296E+00 
    1.7042810325423685E+00 
    1.6618752321073782E+00 
    1.6106125906593121E+00 
    1.5499900438430587E+00 
    1.4790651501963188E+00 
    1.3963438843886955E+00 
    1.2994896300069192E+00 
    1.1851770464427804E+00 
    1.0484667050078060E+00 
    8.8347573792680567E-01 
    6.8843540008449899E-01 
    4.9335021028851106E-01 
    1.7805195012143140E+00 
    1.7720148101184670E+00 
    1.7550315777331462E+00 
    1.7295520501226025E+00 
    1.6955081080763843E+00 
    1.6527152659351332E+00 
    1.6007435091654887E+00 
    1.5389079799962533E+00 
    1.4659924998588507E+00 
    1.3800103649267477E+00 
    1.2776723377715040E+00 
    1.1535641566706076E+00 
    9.9786385073464734E-01 
    7.9157349986520431E-01 
    4.9336054172787419E-01 
    0.0000000000000000E+00 

SCALARS Saturarion double 1 
LOOKUP_TABLE default 

    1.0000000000000000E+00 
    7.6898941358095474E-01 
    6.4335533116389376E-01 
    5.3615118428590347E-01 
    4.2745051271210410E-01 
    2.6646403208839919E-01 
    4.6262511546221463E-02 
    1.7112827991945496E-04 
    5.4843935736925047E-11 
    6.9482717957660217E-28 
    5.6970737334217927E-72 
   2.4017666769119269E-188 
    0.0000000000000000E+00 
    0.0000000000000000E+00 
    0.0000000000000000E+00 
    0.0000000000000000E+00 
    7.6898447392193514E-01 
    6.7246482016624864E-01 
    5.7950700967477220E-01 
    4.8734060732033718E-01 
    3.7379194183276881E-01 
    1.6922056984246098E-01 
    7.9966702602157162E-03 
    1.0140704799299546E-06 
    3.4690702301977657E-17 
    2.9119715105410285E-45 
   8.8688510732710488E-122 
    0.0000000000000000E+00 
    0.0000000000000000E+00 
    0.0000000000000000E+00 
    0.0000000000000000E+00 
    0.0000000000000000E+00 
    6.4334091099202484E-01 
    5.7949785120027919E-01 
    5.0560124770093517E-01 
    4.1834177133705730E-01 
    2.6756248309626729E-01 
    3.7258830150385454E-02 
    5.2587596129576099E-05 
    5.0646311412603092E-13 
    2.0923972230453512E-35 
    3.4438976443508931E-99 
   1.2017413715058753E-284 
    0.0000000000000000E+00 
    0.0000000000000000E+00 
    0.0000000000000000E+00 
    0.0000000000000000E+00 
    0.0000000000000000E+00 
    5.3612098726331348E-01 
    4.8731553676667250E-01 
    4.1832389073233178E-01 
    3.0166794940195679E-01 
    6.7939636435674688E-02 
    2.5016173272817484E-04 
    1.6119639021395447E-11 
    3.2735607344901532E-32 
    1.5117098086701585E-92 
   4.7873397251742086E-271 
    0.0000000000000000E+00 
    0.0000000000000000E+00 
    0.0000000000000000E+00 
    0.0000000000000000E+00 
    0.0000000000000000E+00 
    0.0000000000000000E+00 
    4.2718355075958048E-01 
    3.7373514642405875E-01 
    2.6751432383160667E-01 
    6.7920160781953745E-02 
    3.7481258690256889E-04 
    4.5334554976353840E-11 
    2.7759362829728614E-31 
    1.1219233073251562E-90 
   2.8306123456356763E-267 
    0.0000000000000000E+00 
    0.0000000000000000E+00 
    0.0000000000000000E+00 
    0.0000000000000000E+00 
    0.0000000000000000E+00 
    0.0000000000000000E+00 
    0.0000000000000000E+00 
    2.6632791768700170E-01 
    1.6913237348898885E-01 
    3.7224371141213852E-02 
    2.4985310594378724E-04 
    4.5290891014997945E-11 
    4.5218802727162057E-31 
    3.6793962606950088E-90 
   3.2439136106302979E-266 
    0.0000000000000000E+00 
    0.0000000000000000E+00 
    0.0000000000000000E+00 
    0.0000000000000000E+00 
    0.0000000000000000E+00 
    0.0000000000000000E+00 
    0.0000000000000000E+00 
    0.0000000000000000E+00 
    4.6197875472088971E-02 
    7.9822195324514376E-03 
    5.2438917653016978E-05 
    1.6066590080335663E-11 
    2.7676613277924530E-31 
    3.6725342467817054E-90 
   5.5818059138965851E-266 
    0.0000000000000000E+00 
    0.0000000000000000E+00 
    0.0000000000000000E+00 
    0.0000000000000000E+00 
    0.0000000000000000E+00 
    0.0000000000000000E+00 
    0.0000000000000000E+00 
    0.0000000000000000E+00 
    0.0000000000000000E+00 
    1.7049546958483646E-04 
    1.0091732018664960E-06 
    5.0281321748645606E-13 
    3.2483000704384290E-32 
    1.1141137588996356E-90 
   3.2272852650456876E-266 
    0.0000000000000000E+00 
    0.0000000000000000E+00 
    0.0000000000000000E+00 
    0.0000000000000000E+00 
    0.0000000000000000E+00 
    0.0000000000000000E+00 
    0.0000000000000000E+00 
    0.0000000000000000E+00 
    0.0000000000000000E+00 
    0.0000000000000000E+00 
    5.4363633590571483E-11 
    3.4272983343356772E-17 
    2.0570034502054006E-35 
    1.4861886094060460E-92 
   2.7885957833561317E-267 
    0.0000000000000000E+00 
    0.0000000000000000E+00 
    0.0000000000000000E+00 
    0.0000000000000000E+00 
    0.0000000000000000E+00 
    0.0000000000000000E+00 
    0.0000000000000000E+00 
    0.0000000000000000E+00 
    0.0000000000000000E+00 
    0.0000000000000000E+00 
    0.0000000000000000E+00 
    6.8213574696232485E-28 
    2.8308585719454802E-45 
    3.3174571887455556E-99 
   4.6206746388283688E-271 
    0.0000000000000000E+00 
    0.0000000000000000E+00 
    0.0000000000000000E+00 
    0.0000000000000000E+00 
    0.0000000000000000E+00 
    0.0000000000000000E+00 
    0.0000000000000000E+00 
    0.0000000000000000E+00 
    0.0000000000000000E+00 
    0.0000000000000000E+00 
    0.0000000000000000E+00 
    0.0000000000000000E+00 
    5.4681821699205836E-72 
   8.3120657872409021E-122 
   1.1112862096188754E-284 
    0.0000000000000000E+00 
    0.0000000000000000E+00 
    0.0000000000000000E+00 
    0.0000000000000000E+00 
    0.0000000000000000E+00 
    0.0000000000000000E+00 
    0.0000000000000000E+00 
    0.0000000000000000E+00 
    0.0000000000000000E+00 
    0.0000000000000000E+00 
    0.0000000000000000E+00 
    0.0000000000000000E+00 
    0.0000000000000000E+00 
   2.1896703253483830E-188 
    0.0000000000000000E+00 
    0.0000000000000000E+00 
    0.0000000000000000E+00 
    0.0000000000000000E+00 
    0.0000000000000000E+00 
    0.0000000000000000E+00 
    0.0000000000000000E+00 
    0.0000000000000000E+00 
    0.0000000000000000E+00 
    0.0000000000000000E+00 
    0.0000000000000000E+00 
    0.0000000000000000E+00 
    0.0000000000000000E+00 
    0.0000000000000000E+00 
    0.0000000000000000E+00 
    0.0000000000000000E+00 
    0.0000000000000000E+00 
    0.0000000000000000E+00 
    0.0000000000000000E+00 
    0.0000000000000000E+00 
    0.0000000000000000E+00 
    0.0000000000000000E+00 
    0.0000000000000000E+00 
    0.0000000000000000E+00 
    0.0000000000000000E+00 
    0.0000000000000000E+00 
    0.0000000000000000E+00 
    0.0000000000000000E+00 
    0.0000000000000000E+00 
    0.0000000000000000E+00 
    0.0000000000000000E+00 
    0.0000000000000000E+00 
    0.0000000000000000E+00 
    0.0000000000000000E+00 
    0.0000000000000000E+00 
    0.0000000000000000E+00 
    0.0000000000000000E+00 
    0.0000000000000000E+00 
    0.0000000000000000E+00 
    0.0000000000000000E+00 
    0.0000000000000000E+00 
    0.0000000000000000E+00 
    0.0000000000000000E+00 
    0.0000000000000000E+00 
    0.0000000000000000E+00 
    0.0000000000000000E+00 
    0.0000000000000000E+00 
    0.0000000000000000E+00 
    0.0000000000000000E+00 
    0.0000000000000000E+00 
    0.0000000000000000E+00 
    0.0000000000000000E+00 
    0.0000000000000000E+00 
    0.0000000000000000E+00 
    0.0000000000000000E+00 
    0.0000000000000000E+00 
    0.0000000000000000E+00 
    0.0000000000000000E+00 
    0.0000000000000000E+00 
    0.0000000000000000E+00 
    0.0000000000000000E+00 
    0.0000000000000000E+00 
    0.0000000000000000E+00 
    0.0000000000000000E+00 
    0.0000000000000000E+00 
    0.0000000000000000E+00 
    0.0000000000000000E+00 
    0.0000000000000000E+00 
    0.0000000000000000E+00 
    0.0000000000000000E+00 
    0.0000000000000000E+00 
    0.0000000000000000E+00 
    0.0000000000000000E+00 
    0.0000000000000000E+00 
    0.0000000000000000E+00 
    0.0000000000000000E+00 
    0.0000000000000000E+00 
    0.0000000000000000E+00 
    0.0000000000000000E+00 
