# vtk DataFile Version 2.0
Pressure Field Data 
ASCII 
DATASET UNSTRUCTURED_GRID 

POINTS 289 double 

    0.0000000000000000E+00     0.0000000000000000E+00     0.0000000000000000E+00 
    1.0000000000000000E+00     0.0000000000000000E+00     0.0000000000000000E+00 
    1.0000000000000000E+00     1.0000000000000000E+00     0.0000000000000000E+00 
    0.0000000000000000E+00     1.0000000000000000E+00     0.0000000000000000E+00 
    6.2499999999872928E-02     0.0000000000000000E+00     0.0000000000000000E+00 
    1.2499999999977310E-01     0.0000000000000000E+00     0.0000000000000000E+00 
    1.8749999999959341E-01     0.0000000000000000E+00     0.0000000000000000E+00 
    2.4999999999941089E-01     0.0000000000000000E+00     0.0000000000000000E+00 
    3.1249999999922851E-01     0.0000000000000000E+00     0.0000000000000000E+00 
    3.7499999999904610E-01     0.0000000000000000E+00     0.0000000000000000E+00 
    4.3749999999886358E-01     0.0000000000000000E+00     0.0000000000000000E+00 
    4.9999999999869210E-01     0.0000000000000000E+00     0.0000000000000000E+00 
    5.6249999999884603E-01     0.0000000000000000E+00     0.0000000000000000E+00 
    6.2499999999901090E-01     0.0000000000000000E+00     0.0000000000000000E+00 
    6.8749999999917577E-01     0.0000000000000000E+00     0.0000000000000000E+00 
    7.4999999999934064E-01     0.0000000000000000E+00     0.0000000000000000E+00 
    8.1249999999950551E-01     0.0000000000000000E+00     0.0000000000000000E+00 
    8.7499999999967026E-01     0.0000000000000000E+00     0.0000000000000000E+00 
    9.3749999999983513E-01     0.0000000000000000E+00     0.0000000000000000E+00 
    1.0000000000000000E+00     6.2499999999872928E-02     0.0000000000000000E+00 
    1.0000000000000000E+00     1.2499999999977310E-01     0.0000000000000000E+00 
    1.0000000000000000E+00     1.8749999999959341E-01     0.0000000000000000E+00 
    1.0000000000000000E+00     2.4999999999941089E-01     0.0000000000000000E+00 
    1.0000000000000000E+00     3.1249999999922851E-01     0.0000000000000000E+00 
    1.0000000000000000E+00     3.7499999999904610E-01     0.0000000000000000E+00 
    1.0000000000000000E+00     4.3749999999886358E-01     0.0000000000000000E+00 
    1.0000000000000000E+00     4.9999999999869210E-01     0.0000000000000000E+00 
    1.0000000000000000E+00     5.6249999999884603E-01     0.0000000000000000E+00 
    1.0000000000000000E+00     6.2499999999901090E-01     0.0000000000000000E+00 
    1.0000000000000000E+00     6.8749999999917577E-01     0.0000000000000000E+00 
    1.0000000000000000E+00     7.4999999999934064E-01     0.0000000000000000E+00 
    1.0000000000000000E+00     8.1249999999950551E-01     0.0000000000000000E+00 
    1.0000000000000000E+00     8.7499999999967026E-01     0.0000000000000000E+00 
    1.0000000000000000E+00     9.3749999999983513E-01     0.0000000000000000E+00 
    9.3749999999973976E-01     1.0000000000000000E+00     0.0000000000000000E+00 
    8.7499999999950118E-01     1.0000000000000000E+00     0.0000000000000000E+00 
    8.1249999999991318E-01     1.0000000000000000E+00     0.0000000000000000E+00 
    7.5000000000034706E-01     1.0000000000000000E+00     0.0000000000000000E+00 
    6.8750000000078049E-01     1.0000000000000000E+00     0.0000000000000000E+00 
    6.2500000000121403E-01     1.0000000000000000E+00     0.0000000000000000E+00 
    5.6250000000164757E-01     1.0000000000000000E+00     0.0000000000000000E+00 
    5.0000000000205946E-01     1.0000000000000000E+00     0.0000000000000000E+00 
    4.3750000000182099E-01     1.0000000000000000E+00     0.0000000000000000E+00 
    3.7500000000156092E-01     1.0000000000000000E+00     0.0000000000000000E+00 
    3.1250000000130068E-01     1.0000000000000000E+00     0.0000000000000000E+00 
    2.5000000000104050E-01     1.0000000000000000E+00     0.0000000000000000E+00 
    1.8750000000078040E-01     1.0000000000000000E+00     0.0000000000000000E+00 
    1.2500000000052031E-01     1.0000000000000000E+00     0.0000000000000000E+00 
    6.2500000000260125E-02     1.0000000000000000E+00     0.0000000000000000E+00 
    0.0000000000000000E+00     9.3749999999973976E-01     0.0000000000000000E+00 
    0.0000000000000000E+00     8.7499999999950118E-01     0.0000000000000000E+00 
    0.0000000000000000E+00     8.1249999999991318E-01     0.0000000000000000E+00 
    0.0000000000000000E+00     7.5000000000034706E-01     0.0000000000000000E+00 
    0.0000000000000000E+00     6.8750000000078049E-01     0.0000000000000000E+00 
    0.0000000000000000E+00     6.2500000000121403E-01     0.0000000000000000E+00 
    0.0000000000000000E+00     5.6250000000164757E-01     0.0000000000000000E+00 
    0.0000000000000000E+00     5.0000000000205946E-01     0.0000000000000000E+00 
    0.0000000000000000E+00     4.3750000000182099E-01     0.0000000000000000E+00 
    0.0000000000000000E+00     3.7500000000156092E-01     0.0000000000000000E+00 
    0.0000000000000000E+00     3.1250000000130068E-01     0.0000000000000000E+00 
    0.0000000000000000E+00     2.5000000000104050E-01     0.0000000000000000E+00 
    0.0000000000000000E+00     1.8750000000078040E-01     0.0000000000000000E+00 
    0.0000000000000000E+00     1.2500000000052031E-01     0.0000000000000000E+00 
    0.0000000000000000E+00     6.2500000000260125E-02     0.0000000000000000E+00 
    6.2499999999897131E-02     6.2500000000235922E-02     0.0000000000000000E+00 
    6.2499999999921327E-02     1.2500000000047351E-01     0.0000000000000000E+00 
    6.2499999999945530E-02     1.8750000000070621E-01     0.0000000000000000E+00 
    6.2499999999969733E-02     2.5000000000093858E-01     0.0000000000000000E+00 
    6.2499999999993928E-02     3.1250000000117117E-01     0.0000000000000000E+00 
    6.2500000000018124E-02     3.7500000000140382E-01     0.0000000000000000E+00 
    6.2500000000042327E-02     4.3750000000163619E-01     0.0000000000000000E+00 
    6.2500000000066530E-02     5.0000000000184897E-01     0.0000000000000000E+00 
    6.2500000000090733E-02     5.6250000000147260E-01     0.0000000000000000E+00 
    6.2500000000114922E-02     6.2500000000107636E-01     0.0000000000000000E+00 
    6.2500000000139125E-02     6.8750000000068034E-01     0.0000000000000000E+00 
    6.2500000000163328E-02     7.5000000000028411E-01     0.0000000000000000E+00 
    6.2500000000187531E-02     8.1249999999988787E-01     0.0000000000000000E+00 
    6.2500000000211720E-02     8.7499999999951172E-01     0.0000000000000000E+00 
    6.2500000000235922E-02     9.3749999999974565E-01     0.0000000000000000E+00 
    1.2499999999981980E-01     6.2500000000211733E-02     0.0000000000000000E+00 
    1.2499999999986650E-01     1.2500000000042691E-01     0.0000000000000000E+00 
    1.2499999999991319E-01     1.8750000000063199E-01     0.0000000000000000E+00 
    1.2499999999995989E-01     2.5000000000083678E-01     0.0000000000000000E+00 
    1.2500000000000661E-01     3.1250000000104172E-01     0.0000000000000000E+00 
    1.2500000000005329E-01     3.7500000000124661E-01     0.0000000000000000E+00 
    1.2500000000010000E-01     4.3750000000145117E-01     0.0000000000000000E+00 
    1.2500000000014669E-01     5.0000000000163858E-01     0.0000000000000000E+00 
    1.2500000000019340E-01     5.6250000000129741E-01     0.0000000000000000E+00 
    1.2500000000024011E-01     6.2500000000093847E-01     0.0000000000000000E+00 
    1.2500000000028680E-01     6.8750000000057998E-01     0.0000000000000000E+00 
    1.2500000000033351E-01     7.5000000000022127E-01     0.0000000000000000E+00 
    1.2500000000038020E-01     8.1249999999986211E-01     0.0000000000000000E+00 
    1.2500000000042691E-01     8.7499999999952238E-01     0.0000000000000000E+00 
    1.2500000000047359E-01     9.3749999999975164E-01     0.0000000000000000E+00 
    1.8749999999966760E-01     6.2500000000187531E-02     0.0000000000000000E+00 
    1.8749999999974179E-01     1.2500000000038020E-01     0.0000000000000000E+00 
    1.8749999999981601E-01     1.8750000000055780E-01     0.0000000000000000E+00 
    1.8749999999989009E-01     2.5000000000073502E-01     0.0000000000000000E+00 
    1.8749999999996431E-01     3.1250000000091221E-01     0.0000000000000000E+00 
    1.8750000000003850E-01     3.7500000000108941E-01     0.0000000000000000E+00 
    1.8750000000011269E-01     4.3750000000126649E-01     0.0000000000000000E+00 
    1.8750000000018691E-01     5.0000000000142808E-01     0.0000000000000000E+00 
    1.8750000000026110E-01     5.6250000000112244E-01     0.0000000000000000E+00 
    1.8750000000033529E-01     6.2500000000080080E-01     0.0000000000000000E+00 
    1.8750000000040951E-01     6.8750000000047962E-01     0.0000000000000000E+00 
    1.8750000000048361E-01     7.5000000000015843E-01     0.0000000000000000E+00 
    1.8750000000055780E-01     8.1249999999983680E-01     0.0000000000000000E+00 
    1.8750000000063199E-01     8.7499999999953304E-01     0.0000000000000000E+00 
    1.8750000000070621E-01     9.3749999999975764E-01     0.0000000000000000E+00 
    2.4999999999951281E-01     6.2500000000163314E-02     0.0000000000000000E+00 
    2.4999999999961461E-01     1.2500000000033351E-01     0.0000000000000000E+00 
    2.4999999999971650E-01     1.8750000000048361E-01     0.0000000000000000E+00 
    2.4999999999981831E-01     2.5000000000063310E-01     0.0000000000000000E+00 
    2.4999999999992020E-01     3.1250000000078260E-01     0.0000000000000000E+00 
    2.5000000000002198E-01     3.7500000000093209E-01     0.0000000000000000E+00 
    2.5000000000012390E-01     4.3750000000108180E-01     0.0000000000000000E+00 
    2.5000000000022571E-01     5.0000000000121769E-01     0.0000000000000000E+00 
    2.5000000000032763E-01     5.6250000000094724E-01     0.0000000000000000E+00 
    2.5000000000042938E-01     6.2500000000066314E-01     0.0000000000000000E+00 
    2.5000000000053119E-01     6.8750000000037925E-01     0.0000000000000000E+00 
[...]
CELL_DATA 256 
SCALARS Pressure double 1 
LOOKUP_TABLE default 

    2.8800109174982751E+00 
    2.7458035427113194E+00 
    2.6285707531775535E+00 
    2.5202555796710246E+00 
    2.4128215699601876E+00 
    2.2990853118538470E+00 
    2.1868834948333586E+00 
    2.0959617794429604E+00 
    2.0227487279946073E+00 
    1.9606581585628335E+00 
    1.9084598770520844E+00 
    1.8654674565293738E+00 
    1.8312894831114548E+00 
    1.8057326038817441E+00 
    1.7887176705891941E+00 
    1.7802212755978550E+00 
    2.7458213534625364E+00 
    2.6773544910197478E+00 
    2.5868108795760918E+00 
    2.4899622236620584E+00 
    2.3868936807342820E+00 
    2.2750531203079563E+00 
    2.1689802733337951E+00 
    2.0831200855570482E+00 
    2.0117716325938773E+00 
    1.9508160408931510E+00 
    1.8992995139793774E+00 
    1.8566885123961874E+00 
    1.8226969037689871E+00 
    1.7972120398372560E+00 
    1.7802144812477521E+00 
    1.7717258234471243E+00 
    2.6286143127641912E+00 
    2.5868353949217919E+00 
    2.5184206943153979E+00 
    2.4341249553515079E+00 
    2.3362867967223067E+00 
    2.2311617697534465E+00 
    2.1370804124877667E+00 
    2.0584868953288757E+00 
    1.9904919963175167E+00 
    1.9316007181886525E+00 
    1.8813026210427999E+00 
    1.8393493695643994E+00 
    1.8056555342821810E+00 
    1.7802611748755202E+00 
    1.7632614841851633E+00 
    1.7547590124970860E+00 
    2.5203316287653901E+00 
    2.4900152573167071E+00 
    2.4341522004139011E+00 
    2.3577917792283336E+00 
    2.2666990208387472E+00 
    2.1758366618152216E+00 
    2.0953869087599792E+00 
    2.0239943399530071E+00 
    1.9601786708203011E+00 
    1.9038578003673929E+00 
    1.8550317992885299E+00 
    1.8138078548025254E+00 
    1.7803714580652539E+00 
    1.7549751038659729E+00 
    1.7378786426261510E+00 
    1.7293017704557068E+00 
    2.4129145231596332E+00 
    2.3869670838625838E+00 
    2.3363405034796951E+00 
    2.2667290579674124E+00 
    2.1900062881381643E+00 
    2.1161702228659496E+00 
    2.0468436410723760E+00 
    1.9820125779585012E+00 
    1.9224384882648748E+00 
    1.8686839795547050E+00 
    1.8212234483142626E+00 
    1.7805294422561102E+00 
    1.7471009706507059E+00 
    1.7214514215277266E+00 
    1.7040538614000353E+00 
    1.6952842051520356E+00 
    2.2991856976503562E+00 
    2.2751496556242805E+00 
    2.2312496603155418E+00 
    2.1759035198052770E+00 
    2.1162063044403525E+00 
    2.0550361252164242E+00 
    1.9939636172057538E+00 
    1.9348369904345950E+00 
    1.8789434004761845E+00 
    1.8272788347268054E+00 
    1.7806952373519385E+00 
    1.7400258426341699E+00 
    1.7060967140058891E+00 
    1.6797316753340703E+00 
    1.6616781356200006E+00 
    1.6525199951513847E+00 
    2.1870382610576042E+00 
    2.1691286439275701E+00 
    2.1372135372427632E+00 
    2.0954936078337272E+00 
    2.0469167896594112E+00 
    1.9940010162485056E+00 
    1.9392353810723031E+00 
    1.8845044558783592E+00 
    1.8312889321127201E+00 
    1.7808296333149474E+00 
    1.7342930408213195E+00 
    1.6928101353801666E+00 
    1.6575620295725697E+00 
    1.6297377462025826E+00 
    1.6104476266077277E+00 
    1.6005801165133722E+00 
    2.0961757539931862E+00 
    2.0833219521258393E+00 
    2.0586667998619763E+00 
    2.0241440844168723E+00 
    1.9821272609978482E+00 
    1.9349153865838122E+00 
    1.8845453233499447E+00 
    1.8327290994056282E+00 
    1.7809407019725061E+00 
    1.7305440512497303E+00 
    1.6828998808172251E+00 
    1.6394281036235137E+00 
    1.6016693912135729E+00 
    1.5712743591126799E+00 
    1.5498603679156850E+00 
    1.5387796341701154E+00 
    2.0230133327602253E+00 
    2.0120230822018126E+00 
    1.9907193284803375E+00 
    1.9603741047951282E+00 
    1.9225974757890283E+00 
    1.8790653202902707E+00 
    1.8313750365194388E+00 
    1.7809860919342244E+00 
    1.7292620936096545E+00 
    1.6775727634482229E+00 
    1.6273907998375796E+00 
    1.5803616225131922E+00 
    1.5384339645520333E+00 
    1.5038515408749435E+00 
    1.4789738947084921E+00 
    1.4659018542016551E+00 
    1.9609734198553386E+00 
    1.9511165957228909E+00 
    1.9318768288833228E+00 
    1.9041018369091613E+00 
    1.8688912069495733E+00 
    1.8274484791808192E+00 
    1.7809656393657112E+00 
    1.7306387558374647E+00 
    1.6776215510006911E+00 
    1.6231763228368488E+00 
    1.5687616890188119E+00 
    1.5161978267224716E+00 
    1.4678485675210073E+00 
    1.4267205471510576E+00 
    1.3962940158982204E+00 
    1.3799598682583309E+00 
    1.9088224107709606E+00 
    1.8996481072977416E+00 
    1.8816280324022319E+00 
    1.8553268246189900E+00 
    1.8214836072350311E+00 
    1.7809186682425282E+00 
    1.7344794304906472E+00 
    1.6830449130144844E+00 
    1.6274909715748909E+00 
    1.5688133596562381E+00 
    1.5082919558874690E+00 
    1.4477926019980709E+00 
    1.3900141605735399E+00 
    1.3388544813705445E+00 
    1.2994825135480859E+00 
    1.2776607566301679E+00 
    1.8658717434376522E+00 
    1.8570801521898816E+00 
    1.8397193897823596E+00 
    1.8141489253590106E+00 
    1.7808365493676304E+00 
    1.7402964375104075E+00 
    1.6930431468205740E+00 
    1.6396198474759198E+00 
    1.5805081705878243E+00 
    1.5162956672687944E+00 
    1.4478400114887529E+00 
    1.3767294187478825E+00 
    1.3056376698409828E+00 
    1.2392817582548754E+00 
    1.1852049071922499E+00 
    1.1535836111020696E+00 
    1.8317265046654496E+00 
    1.8231224390390799E+00 
    1.8060608179036282E+00 
    1.7807491532846882E+00 
    1.7474458719437653E+00 
    1.7064058692168980E+00 
    1.6578341468312607E+00 
    1.6019004922771993E+00 
    1.5386200820053335E+00 
    1.4679863313043020E+00 
    1.3901018166307657E+00 
    1.3056781319933557E+00 
    1.2165609942176687E+00 
    1.1274637215238699E+00 
    1.0485199042671633E+00 
    9.9790430390490747E-01 
    1.8061904507672926E+00 
    1.7976594481475381E+00 
    1.7806896352919501E+00 
    1.7553774762643377E+00 
    1.7218225109501659E+00 
    1.6800682680890531E+00 
    1.6300381242953277E+00 
    1.5715340978576342E+00 
    1.5040666148961190E+00 
    1.4268875744279330E+00 
    1.3389720409553412E+00 
    1.2393529770105780E+00 
    1.1274950258445788E+00 
    1.0055153642993171E+00 
    8.8354205908358041E-01 
    7.9162122678077940E-01 
    1.7891822236642911E+00 
    1.7806695453772516E+00 
    1.7636989104283527E+00 
    1.7382915970167332E+00 
    1.7044371475577518E+00 
    1.6620282083325315E+00 
    1.6107621693521770E+00 
    1.5501347331786111E+00 
    1.4792041799911408E+00 
    1.3964767298750012E+00 
    1.2996170481817895E+00 
    1.1852947786006969E+00 
    1.0485711663180970E+00 
    8.8356280243166829E-01 
    6.8850174864734759E-01 
    4.9339759084479423E-01 
    1.7806770789890622E+00 
    1.7721729813818026E+00 
    1.7551897709106752E+00 
    1.7297095507748232E+00 
    1.6956637645605690E+00 
    1.6528674824202885E+00 
    1.6008921933627820E+00 
    1.5390519555861595E+00 
    1.4661308818327379E+00 
    1.3801422009063637E+00 
    1.2777974170787312E+00 
    1.1536782945355335E+00 
    9.9796262916833411E-01 
    7.9165079934658722E-01 
    4.9340745942929681E-01 
    0.0000000000000000E+00 

SCALARS Saturarion double 1 
LOOKUP_TABLE default 

    1.0000000000000000E+00 
    7.8817432007029153E-01 
    6.6945261462093997E-01 
    5.6895623792849492E-01 
    4.7405193702005644E-01 
    3.5345253942988014E-01 
    1.4690144654321419E-01 
    6.0747651981538546E-03 
    7.3527826664846356E-07 
    5.3020247020181291E-17 
    3.3156247075385543E-43 
   5.0125484685319879E-111 
   1.2295095413746963E-287 
    0.0000000000000000E+00 
    0.0000000000000000E+00 
    0.0000000000000000E+00 
    7.8816939555638532E-01 
    6.9635852672653353E-01 
    6.0826760817508274E-01 
    5.2372723159066292E-01 
    4.3054836960149934E-01 
    2.9219329037831104E-01 
    6.4264867673184525E-02 
    4.0601242490449036E-04 
    4.1448729544916288E-10 
    6.0681599766336007E-26 
    5.1035077650984322E-68 
   1.4989884245276655E-180 
    0.0000000000000000E+00 
    0.0000000000000000E+00 
    0.0000000000000000E+00 
    0.0000000000000000E+00 
    6.6943805100970999E-01 
    6.0825855436384113E-01 
    5.3936829741247294E-01 
    4.6454036345268662E-01 
    3.6283763192522261E-01 
    1.5935538513559835E-01 
    5.6664367509148732E-03 
    2.9823386273062629E-07 
    5.8498274431560661E-19 
    3.3193499826546489E-51 
   6.1812934586204038E-141 
    0.0000000000000000E+00 
    0.0000000000000000E+00 
    0.0000000000000000E+00 
    0.0000000000000000E+00 
    0.0000000000000000E+00 
    5.6892616597010393E-01 
    5.2370394570799739E-01 
    4.6452576339332707E-01 
    3.8510967331248269E-01 
    2.2269944477904391E-01 
    1.7635534541970647E-02 
    4.6829251960245648E-06 
    3.3142361600854073E-16 
    4.0379251815870287E-45 
   4.8842238576926375E-128 
    0.0000000000000000E+00 
    0.0000000000000000E+00 
    0.0000000000000000E+00 
    0.0000000000000000E+00 
    0.0000000000000000E+00 
    0.0000000000000000E+00 
    4.7368659829868082E-01 
    4.3048705958428624E-01 
    3.6280450830350908E-01 
    2.2267069483575477E-01 
    2.4882740306374340E-02 
    1.2383815070959534E-05 
    2.6724182601459784E-15 
    2.9025482541873133E-43 
   2.8028232507122503E-124 
    0.0000000000000000E+00 
    0.0000000000000000E+00 
    0.0000000000000000E+00 
    0.0000000000000000E+00 
    0.0000000000000000E+00 
    0.0000000000000000E+00 
    0.0000000000000000E+00 
    3.5328314681875761E-01 
    2.9210488326572298E-01 
    1.5927457254095154E-01 
    1.7620638030420362E-02 
    1.2374104397950149E-05 
    4.3310833123511514E-15 
    9.4924509158853058E-43 
   3.2022683292115898E-123 
    0.0000000000000000E+00 
    0.0000000000000000E+00 
    0.0000000000000000E+00 
    0.0000000000000000E+00 
    0.0000000000000000E+00 
    0.0000000000000000E+00 
    0.0000000000000000E+00 
    0.0000000000000000E+00 
    1.4674851988518889E-01 
    6.4186861475352394E-02 
    5.6556459396962504E-03 
    4.6708794103481340E-06 
    2.6655210900529335E-15 
    9.4763603126799017E-43 
   5.5100403717316024E-123 
    0.0000000000000000E+00 
    0.0000000000000000E+00 
    0.0000000000000000E+00 
    0.0000000000000000E+00 
    0.0000000000000000E+00 
    0.0000000000000000E+00 
    0.0000000000000000E+00 
    0.0000000000000000E+00 
    0.0000000000000000E+00 
    6.0561540334366764E-03 
    4.0455987941518371E-04 
    2.9669189377873517E-07 
    3.2928016619801137E-16 
    2.8842718921742185E-43 
   3.1866763210818786E-123 
    0.0000000000000000E+00 
    0.0000000000000000E+00 
    0.0000000000000000E+00 
    0.0000000000000000E+00 
    0.0000000000000000E+00 
    0.0000000000000000E+00 
    0.0000000000000000E+00 
    0.0000000000000000E+00 
    0.0000000000000000E+00 
    0.0000000000000000E+00 
    7.2980310786574203E-07 
    4.1077446552059243E-10 
    5.7737997484312746E-19 
    3.9776017710733139E-45 
   2.7633535197007569E-124 
    0.0000000000000000E+00 
    0.0000000000000000E+00 
    0.0000000000000000E+00 
    0.0000000000000000E+00 
    0.0000000000000000E+00 
    0.0000000000000000E+00 
    0.0000000000000000E+00 
    0.0000000000000000E+00 
    0.0000000000000000E+00 
    0.0000000000000000E+00 
    0.0000000000000000E+00 
    5.2206367404381476E-17 
    5.9422272457760174E-26 
    3.2184242265269479E-51 
   4.7252060845435627E-128 
    0.0000000000000000E+00 
    0.0000000000000000E+00 
    0.0000000000000000E+00 
    0.0000000000000000E+00 
    0.0000000000000000E+00 
    0.0000000000000000E+00 
    0.0000000000000000E+00 
    0.0000000000000000E+00 
    0.0000000000000000E+00 
    0.0000000000000000E+00 
    0.0000000000000000E+00 
    0.0000000000000000E+00 
    3.2063398863141781E-43 
    4.8588387774888871E-68 
   5.7643298121960778E-141 
    0.0000000000000000E+00 
    0.0000000000000000E+00 
    0.0000000000000000E+00 
    0.0000000000000000E+00 
    0.0000000000000000E+00 
    0.0000000000000000E+00 
    0.0000000000000000E+00 
    0.0000000000000000E+00 
    0.0000000000000000E+00 
    0.0000000000000000E+00 
    0.0000000000000000E+00 
    0.0000000000000000E+00 
    0.0000000000000000E+00 
   4.6553674715693883E-111 
   1.3373176130066978E-180 
    0.0000000000000000E+00 
    0.0000000000000000E+00 
    0.0000000000000000E+00 
    0.0000000000000000E+00 
    0.0000000000000000E+00 
    0.0000000000000000E+00 
    0.0000000000000000E+00 
    0.0000000000000000E+00 
    0.0000000000000000E+00 
    0.0000000000000000E+00 
    0.0000000000000000E+00 
    0.0000000000000000E+00 
    0.0000000000000000E+00 
    0.0000000000000000E+00 
   1.0416717763150697E-287 
    0.0000000000000000E+00 
    0.0000000000000000E+00 
    0.0000000000000000E+00 
    0.0000000000000000E+00 
    0.0000000000000000E+00 
    0.0000000000000000E+00 
    0.0000000000000000E+00 
    0.0000000000000000E+00 
    0.0000000000000000E+00 
    0.0000000000000000E+00 
    0.0000000000000000E+00 
    0.0000000000000000E+00 
    0.0000000000000000E+00 
    0.0000000000000000E+00 
    0.0000000000000000E+00 
    0.0000000000000000E+00 
    0.0000000000000000E+00 
    0.0000000000000000E+00 
    0.0000000000000000E+00 
    0.0000000000000000E+00 
    0.0000000000000000E+00 
    0.0000000000000000E+00 
    0.0000000000000000E+00 
    0.0000000000000000E+00 
    0.0000000000000000E+00 
    0.0000000000000000E+00 
    0.0000000000000000E+00 
    0.0000000000000000E+00 
    0.0000000000000000E+00 
    0.0000000000000000E+00 
    0.0000000000000000E+00 
    0.0000000000000000E+00 
    0.0000000000000000E+00 
    0.0000000000000000E+00 
    0.0000000000000000E+00 
    0.0000000000000000E+00 
    0.0000000000000000E+00 
    0.0000000000000000E+00 
    0.0000000000000000E+00 
    0.0000000000000000E+00 
    0.0000000000000000E+00 
    0.0000000000000000E+00 
    0.0000000000000000E+00 
    0.0000000000000000E+00 
    0.0000000000000000E+00 
    0.0000000000000000E+00 
    0.0000000000000000E+00 
    0.0000000000000000E+00 
    0.0000000000000000E+00 
    0.0000000000000000E+00 
    0.0000000000000000E+00 
    0.0000000000000000E+00 
    0.0000000000000000E+00 
    0.0000000000000000E+00 
    0.0000000000000000E+00 
    0.0000000000000000E+00 
    0.0000000000000000E+00 
    0.0000000000000000E+00 
    0.0000000000000000E+00 
    0.0000000000000000E+00 
    0.0000000000000000E+00 
    0.0000000000000000E+00 
    0.0000000000000000E+00 
