# vtk DataFile Version 2.0
Pressure Field Data 
ASCII 
DATASET UNSTRUCTURED_GRID 

POINTS 289 double 

    0.0000000000000000E+00     0.0000000000000000E+00     0.0000000000000000E+00 
    1.0000000000000000E+00     0.0000000000000000E+00     0.0000000000000000E+00 
    1.0000000000000000E+00     1.0000000000000000E+00     0.0000000000000000E+00 
    0.0000000000000000E+00     1.0000000000000000E+00     0.0000000000000000E+00 
    6.2499999999872928E-02     0.0000000000000000E+00     0.0000000000000000E+00 
    1.2499999999977310E-01     0.0000000000000000E+00     0.0000000000000000E+00 
    1.8749999999959341E-01     0.0000000000000000E+00     0.0000000000000000E+00 
    2.4999999999941089E-01     0.0000000000000000E+00     0.0000000000000000E+00 
    3.1249999999922851E-01     0.0000000000000000E+00     0.0000000000000000E+00 
    3.7499999999904610E-01     0.0000000000000000E+00     0.0000000000000000E+00 
    4.3749999999886358E-01     0.0000000000000000E+00     0.0000000000000000E+00 
    4.9999999999869210E-01     0.0000000000000000E+00     0.0000000000000000E+00 
    5.6249999999884603E-01     0.0000000000000000E+00     0.0000000000000000E+00 
    6.2499999999901090E-01     0.0000000000000000E+00     0.0000000000000000E+00 
    6.8749999999917577E-01     0.0000000000000000E+00     0.0000000000000000E+00 
    7.4999999999934064E-01     0.0000000000000000E+00     0.0000000000000000E+00 
    8.1249999999950551E-01     0.0000000000000000E+00     0.0000000000000000E+00 
    8.7499999999967026E-01     0.0000000000000000E+00     0.0000000000000000E+00 
    9.3749999999983513E-01     0.0000000000000000E+00     0.0000000000000000E+00 
    1.0000000000000000E+00     6.2499999999872928E-02     0.0000000000000000E+00 
    1.0000000000000000E+00     1.2499999999977310E-01     0.0000000000000000E+00 
    1.0000000000000000E+00     1.8749999999959341E-01     0.0000000000000000E+00 
    1.0000000000000000E+00     2.4999999999941089E-01     0.0000000000000000E+00 
    1.0000000000000000E+00     3.1249999999922851E-01     0.0000000000000000E+00 
    1.0000000000000000E+00     3.7499999999904610E-01     0.0000000000000000E+00 
    1.0000000000000000E+00     4.3749999999886358E-01     0.0000000000000000E+00 
    1.0000000000000000E+00     4.9999999999869210E-01     0.0000000000000000E+00 
    1.0000000000000000E+00     5.6249999999884603E-01     0.0000000000000000E+00 
    1.0000000000000000E+00     6.2499999999901090E-01     0.0000000000000000E+00 
    1.0000000000000000E+00     6.8749999999917577E-01     0.0000000000000000E+00 
    1.0000000000000000E+00     7.4999999999934064E-01     0.0000000000000000E+00 
    1.0000000000000000E+00     8.1249999999950551E-01     0.0000000000000000E+00 
    1.0000000000000000E+00     8.7499999999967026E-01     0.0000000000000000E+00 
    1.0000000000000000E+00     9.3749999999983513E-01     0.0000000000000000E+00 
    9.3749999999973976E-01     1.0000000000000000E+00     0.0000000000000000E+00 
    8.7499999999950118E-01     1.0000000000000000E+00     0.0000000000000000E+00 
    8.1249999999991318E-01     1.0000000000000000E+00     0.0000000000000000E+00 
    7.5000000000034706E-01     1.0000000000000000E+00     0.0000000000000000E+00 
    6.8750000000078049E-01     1.0000000000000000E+00     0.0000000000000000E+00 
    6.2500000000121403E-01     1.0000000000000000E+00     0.0000000000000000E+00 
    5.6250000000164757E-01     1.0000000000000000E+00     0.0000000000000000E+00 
    5.0000000000205946E-01     1.0000000000000000E+00     0.0000000000000000E+00 
    4.3750000000182099E-01     1.0000000000000000E+00     0.0000000000000000E+00 
    3.7500000000156092E-01     1.0000000000000000E+00     0.0000000000000000E+00 
    3.1250000000130068E-01     1.0000000000000000E+00     0.0000000000000000E+00 
    2.5000000000104050E-01     1.0000000000000000E+00     0.0000000000000000E+00 
    1.8750000000078040E-01     1.0000000000000000E+00     0.0000000000000000E+00 
    1.2500000000052031E-01     1.0000000000000000E+00     0.0000000000000000E+00 
    6.2500000000260125E-02     1.0000000000000000E+00     0.0000000000000000E+00 
    0.0000000000000000E+00     9.3749999999973976E-01     0.0000000000000000E+00 
    0.0000000000000000E+00     8.7499999999950118E-01     0.0000000000000000E+00 
    0.0000000000000000E+00     8.1249999999991318E-01     0.0000000000000000E+00 
    0.0000000000000000E+00     7.5000000000034706E-01     0.0000000000000000E+00 
    0.0000000000000000E+00     6.8750000000078049E-01     0.0000000000000000E+00 
    0.0000000000000000E+00     6.2500000000121403E-01     0.0000000000000000E+00 
    0.0000000000000000E+00     5.6250000000164757E-01     0.0000000000000000E+00 
    0.0000000000000000E+00     5.0000000000205946E-01     0.0000000000000000E+00 
    0.0000000000000000E+00     4.3750000000182099E-01     0.0000000000000000E+00 
    0.0000000000000000E+00     3.7500000000156092E-01     0.0000000000000000E+00 
    0.0000000000000000E+00     3.1250000000130068E-01     0.0000000000000000E+00 
    0.0000000000000000E+00     2.5000000000104050E-01     0.0000000000000000E+00 
    0.0000000000000000E+00     1.8750000000078040E-01     0.0000000000000000E+00 
    0.0000000000000000E+00     1.2500000000052031E-01     0.0000000000000000E+00 
    0.0000000000000000E+00     6.2500000000260125E-02     0.0000000000000000E+00 
    6.2499999999897131E-02     6.2500000000235922E-02     0.0000000000000000E+00 
    6.2499999999921327E-02     1.2500000000047351E-01     0.0000000000000000E+00 
    6.2499999999945530E-02     1.8750000000070621E-01     0.0000000000000000E+00 
    6.2499999999969733E-02     2.5000000000093858E-01     0.0000000000000000E+00 
    6.2499999999993928E-02     3.1250000000117117E-01     0.0000000000000000E+00 
    6.2500000000018124E-02     3.7500000000140382E-01     0.0000000000000000E+00 
    6.2500000000042327E-02     4.3750000000163619E-01     0.0000000000000000E+00 
    6.2500000000066530E-02     5.0000000000184897E-01     0.0000000000000000E+00 
    6.2500000000090733E-02     5.6250000000147260E-01     0.0000000000000000E+00 
    6.2500000000114922E-02     6.2500000000107636E-01     0.0000000000000000E+00 
    6.2500000000139125E-02     6.8750000000068034E-01     0.0000000000000000E+00 
    6.2500000000163328E-02     7.5000000000028411E-01     0.0000000000000000E+00 
    6.2500000000187531E-02     8.1249999999988787E-01     0.0000000000000000E+00 
    6.2500000000211720E-02     8.7499999999951172E-01     0.0000000000000000E+00 
    6.2500000000235922E-02     9.3749999999974565E-01     0.0000000000000000E+00 
    1.2499999999981980E-01     6.2500000000211733E-02     0.0000000000000000E+00 
    1.2499999999986650E-01     1.2500000000042691E-01     0.0000000000000000E+00 
    1.2499999999991319E-01     1.8750000000063199E-01     0.0000000000000000E+00 
    1.2499999999995989E-01     2.5000000000083678E-01     0.0000000000000000E+00 
    1.2500000000000661E-01     3.1250000000104172E-01     0.0000000000000000E+00 
    1.2500000000005329E-01     3.7500000000124661E-01     0.0000000000000000E+00 
    1.2500000000010000E-01     4.3750000000145117E-01     0.0000000000000000E+00 
    1.2500000000014669E-01     5.0000000000163858E-01     0.0000000000000000E+00 
    1.2500000000019340E-01     5.6250000000129741E-01     0.0000000000000000E+00 
    1.2500000000024011E-01     6.2500000000093847E-01     0.0000000000000000E+00 
    1.2500000000028680E-01     6.8750000000057998E-01     0.0000000000000000E+00 
    1.2500000000033351E-01     7.5000000000022127E-01     0.0000000000000000E+00 
    1.2500000000038020E-01     8.1249999999986211E-01     0.0000000000000000E+00 
    1.2500000000042691E-01     8.7499999999952238E-01     0.0000000000000000E+00 
    1.2500000000047359E-01     9.3749999999975164E-01     0.0000000000000000E+00 
    1.8749999999966760E-01     6.2500000000187531E-02     0.0000000000000000E+00 
    1.8749999999974179E-01     1.2500000000038020E-01     0.0000000000000000E+00 
    1.8749999999981601E-01     1.8750000000055780E-01     0.0000000000000000E+00 
    1.8749999999989009E-01     2.5000000000073502E-01     0.0000000000000000E+00 
    1.8749999999996431E-01     3.1250000000091221E-01     0.0000000000000000E+00 
    1.8750000000003850E-01     3.7500000000108941E-01     0.0000000000000000E+00 
    1.8750000000011269E-01     4.3750000000126649E-01     0.0000000000000000E+00 
    1.8750000000018691E-01     5.0000000000142808E-01     0.0000000000000000E+00 
    1.8750000000026110E-01     5.6250000000112244E-01     0.0000000000000000E+00 
    1.8750000000033529E-01     6.2500000000080080E-01     0.0000000000000000E+00 
    1.8750000000040951E-01     6.8750000000047962E-01     0.0000000000000000E+00 
    1.8750000000048361E-01     7.5000000000015843E-01     0.0000000000000000E+00 
    1.8750000000055780E-01     8.1249999999983680E-01     0.0000000000000000E+00 
    1.8750000000063199E-01     8.7499999999953304E-01     0.0000000000000000E+00 
    1.8750000000070621E-01     9.3749999999975764E-01     0.0000000000000000E+00 
    2.4999999999951281E-01     6.2500000000163314E-02     0.0000000000000000E+00 
    2.4999999999961461E-01     1.2500000000033351E-01     0.0000000000000000E+00 
    2.4999999999971650E-01     1.8750000000048361E-01     0.0000000000000000E+00 
    2.4999999999981831E-01     2.5000000000063310E-01     0.0000000000000000E+00 
    2.4999999999992020E-01     3.1250000000078260E-01     0.0000000000000000E+00 
    2.5000000000002198E-01     3.7500000000093209E-01     0.0000000000000000E+00 
    2.5000000000012390E-01     4.3750000000108180E-01     0.0000000000000000E+00 
    2.5000000000022571E-01     5.0000000000121769E-01     0.0000000000000000E+00 
    2.5000000000032763E-01     5.6250000000094724E-01     0.0000000000000000E+00 
    2.5000000000042938E-01     6.2500000000066314E-01     0.0000000000000000E+00 
    2.5000000000053119E-01     6.8750000000037925E-01     0.0000000000000000E+00 
[...]
CELL_DATA 256 
SCALARS Pressure double 1 
LOOKUP_TABLE default 

    2.4650685020100962E+00 
    2.3528723497818347E+00 
    2.2742080948585315E+00 
    2.2104443145339245E+00 
    2.1561781681350030E+00 
    2.1077419580268479E+00 
    2.0614244174809819E+00 
    2.0174532830150125E+00 
    1.9758842510678718E+00 
    1.9363977909967800E+00 
    1.8982168881268595E+00 
    1.8602020992062516E+00 
    1.8243189357308127E+00 
    1.7978098869971229E+00 
    1.7811760085206705E+00 
    1.7728742118400151E+00 
    2.3529149785002899E+00 
    2.3040146601106675E+00 
    2.2481908229453542E+00 
    2.1941427267944689E+00 
    2.1444256099927026E+00 
    2.0978680651465056E+00 
    2.0528204986239325E+00 
    2.0096765801363250E+00 
    1.9684450363225587E+00 
    1.9289257034086462E+00 
    1.8905270225707695E+00 
    1.8519394513765313E+00 
    1.8158927322686207E+00 
    1.7895391742022273E+00 
    1.7728916178708474E+00 
    1.7645749038517657E+00 
    2.2743333485792312E+00 
    2.2482586316314057E+00 
    2.2092671882423862E+00 
    2.1661670416870247E+00 
    2.1225436220997556E+00 
    2.0791302038110819E+00 
    2.0362510314613140E+00 
    1.9943704135705900E+00 
    1.9536317065624180E+00 
    1.9140672951838071E+00 
    1.8751788108446994E+00 
    1.8355083890726245E+00 
    1.7991967835627765E+00 
    1.7730631451669889E+00 
    1.7563433240563708E+00 
    1.7479714929051606E+00 
    2.2107032571186234E+00 
    2.1942824570252739E+00 
    2.1662145087843294E+00 
    2.1315950474662850E+00 
    2.0934189271456716E+00 
    2.0534957207100999E+00 
    2.0129186944096369E+00 
    1.9722769885766660E+00 
    1.9319507996607443E+00 
    1.8921265066208937E+00 
    1.8522906089194346E+00 
    1.8110609201730692E+00 
    1.7744225483929430E+00 
    1.7484270944925018E+00 
    1.7315054560926018E+00 
    1.7230059805309759E+00 
    2.1563426468157663E+00 
    2.1445058600278579E+00 
    2.1225797597472083E+00 
    2.0934304407790183E+00 
    2.0594507271311202E+00 
    2.0225795133599722E+00 
    1.9839866375775048E+00 
    1.9442606178437880E+00 
    1.9039804308464539E+00 
    1.8634206732575933E+00 
    1.8218703700545100E+00 
    1.7786703001560935E+00 
    1.7417381862404497E+00 
    1.7156422912461622E+00 
    1.6983005238865783E+00 
    1.6895535404079485E+00 
    2.1077048225957147E+00 
    2.0978401019827695E+00 
    2.0791318378316026E+00 
    2.0535033396908537E+00 
    2.0225850468565123E+00 
    1.9879595311951679E+00 
    1.9506451429156828E+00 
    1.9112042031667791E+00 
    1.8703493320728533E+00 
    1.8283086137712448E+00 
    1.7838877316503043E+00 
    1.7384705286258286E+00 
    1.7013043223844839E+00 
    1.6746476003774871E+00 
    1.6565517302678967E+00 
    1.6473705889288321E+00 
    2.0613835352766237E+00 
    2.0527927554557577E+00 
    2.0362476029883894E+00 
    2.0129252218081590E+00 
    1.9839932704675380E+00 
    1.9506481771574931E+00 
    1.9137351930430786E+00 
    1.8738085783338954E+00 
    1.8315393395113859E+00 
    1.7868732634039544E+00 
    1.7384016823709905E+00 
    1.6909854622633560E+00 
    1.6533499373168612E+00 
    1.6253070985466584E+00 
    1.6059164012457028E+00 
    1.5959979015178918E+00 
    2.0174571344002779E+00 
    2.0096733063366274E+00 
    1.9943740433150148E+00 
    1.9722877465157198E+00 
    1.9442732199447608E+00 
    1.9112142188586598E+00 
    1.8738145687835479E+00 
    1.8325483515148928E+00 
    1.7877356897160823E+00 
    1.7386208594297523E+00 
    1.6855442675143557E+00 
    1.6369671783725264E+00 
    1.5980101640919953E+00 
    1.5673905500852499E+00 
    1.5458523909916124E+00 
    1.5347122334385259E+00 
    1.9758952685726239E+00 
    1.9684490181453442E+00 
    1.9536429839230025E+00 
    1.9319687473608962E+00 
    1.9040010170668047E+00 
    1.8703679504218842E+00 
    1.8315548296625759E+00 
    1.7877445935407408E+00 
    1.7385302144343502E+00 
    1.6834735252677810E+00 
    1.6273407386206669E+00 
    1.5775488760382685E+00 
    1.5351991063119947E+00 
    1.5004080020267183E+00 
    1.4754143412216372E+00 
    1.4622898058798126E+00 
    1.9363881412721378E+00 
    1.9289248695616457E+00 
    1.9140832567324422E+00 
    1.8921518619226381E+00 
    1.8634501930723850E+00 
    1.8283365870968640E+00 
    1.7868975202327664E+00 
    1.7386386740428650E+00 
    1.6834840110796725E+00 
    1.6244068528410689E+00 
    1.5668977730712084E+00 
    1.5134901224692596E+00 
    1.4649033621411485E+00 
    1.4236270694791771E+00 
    1.3931177699615529E+00 
    1.3767483813891053E+00 
    1.8982201815445769E+00 
    1.8905390186699946E+00 
    1.8752050145937440E+00 
    1.8523254876546924E+00 
    1.8219079740110169E+00 
    1.7839234038009737E+00 
    1.7384341544878041E+00 
    1.6855752032640317E+00 
    1.6273678331930519E+00 
    1.5669146847354372E+00 
    1.5057852065179103E+00 
    1.4451552138631436E+00 
    1.3872785132052048E+00 
    1.3360596602984958E+00 
    1.2966591682046342E+00 
    1.2748230689708016E+00 
    1.8602235722842679E+00 
    1.8519678921227856E+00 
    1.8355485033019812E+00 
    1.8111100731262952E+00 
    1.7787244621640292E+00 
    1.7385267581083999E+00 
    1.6910419168554078E+00 
    1.6370222717018632E+00 
    1.5775972553479187E+00 
    1.5135257299446283E+00 
    1.4451729065250889E+00 
    1.3741028237921740E+00 
    1.3030423449816333E+00 
    1.2367234003204028E+00 
    1.1826865753381897E+00 
    1.1510882661701527E+00 
    1.8243811949598949E+00 
    1.8159593156252594E+00 
    1.7992706868778940E+00 
    1.7745026163139443E+00 
    1.7418217828238145E+00 
    1.7013886115407124E+00 
    1.6534319579607124E+00 
    1.5980867941318664E+00 
    1.5352657255649824E+00 
    1.4649559657593307E+00 
    1.3873130900681498E+00 
    1.3030591990523797E+00 
    1.2140868851294051E+00 
    1.1251247653147749E+00 
    1.0463039960453355E+00 
    9.9576811172113344E-01 
    1.7979121803458902E+00 
    1.7896420455634761E+00 
    1.7731676434954833E+00 
    1.7485325197682637E+00 
    1.7157471104232513E+00 
    1.6747499376447734E+00 
    1.6254047220867363E+00 
    1.5674812404328855E+00 
    1.5004881172773197E+00 
    1.4236929761118635E+00 
    1.3361077478591401E+00 
    1.2367539491609980E+00 
    1.1251386753242649E+00 
    1.0033971918439177E+00 
    8.8165868660882807E-01 
    7.8992108458593868E-01 
    1.7812938883656719E+00 
    1.7730087812738786E+00 
    1.7564600754302373E+00 
    1.7316213026045404E+00 
    1.6984145547064711E+00 
    1.6566626995326386E+00 
    1.6060219719297462E+00 
    1.5459502225993671E+00 
    1.4755013442325768E+00 
    1.3931907907440151E+00 
    1.2967150065216682E+00 
    1.1827254747348754E+00 
    1.0463269145709588E+00 
    8.8166817478691772E-01 
    6.8700954007631787E-01 
    4.9232510923507156E-01 
    1.7729915290698695E+00 
    1.7646916532292813E+00 
    1.7480876392951132E+00 
    1.7231209305467785E+00 
    1.6896663917988275E+00 
    1.6474803132392672E+00 
    1.5961019575216042E+00 
    1.5348082096589315E+00 
    1.4623749716500873E+00 
    1.3768199022606802E+00 
    1.2748786819445304E+00 
    1.1511281901993364E+00 
    9.9579339335949568E-01 
    7.8993415222844021E-01 
    4.9232950404301401E-01 
    0.0000000000000000E+00 

SCALARS Saturarion double 1 
LOOKUP_TABLE default 

    1.0000000000000000E+00 
    9.1590607365418952E-01 
    8.5177547127111874E-01 
    7.9055735338902666E-01 
    7.7076054973829278E-01 
    6.9351213921018695E-01 
    6.3602511791644856E-01 
    5.8501418575288011E-01 
    5.4173258707062566E-01 
    4.8652567731532098E-01 
    4.2243520930340034E-01 
    3.2522294254391537E-01 
    1.3938223777119740E-01 
    6.9539255652236861E-03 
    2.0842585462236000E-06 
    6.4594818085828684E-15 
    9.1589939435059953E-01 
    8.6601693022488457E-01 
    8.1280035350009960E-01 
    7.6016583671217719E-01 
    7.1244118028198777E-01 
    6.6369827756323452E-01 
    6.1665530437406879E-01 
    5.7095920891287211E-01 
    5.2513612653953690E-01 
    4.7496290925774698E-01 
    4.1246365370189009E-01 
    3.1129216108418745E-01 
    1.1625132183920611E-01 
    3.8254562837601695E-03 
    4.4764522433945518E-07 
    1.3956682885854161E-16 
    8.5174906506103087E-01 
    8.1278763907773033E-01 
    7.6888553022027395E-01 
    7.2437675197434814E-01 
    6.8087605311774779E-01 
    6.3823732687134083E-01 
    5.9623863995433157E-01 
    5.5447173546638517E-01 
    5.1121315663875189E-01 
    4.6291857632083089E-01 
    4.0042843204121176E-01 
    2.9168489068405440E-01 
    8.6534854437918349E-02 
    1.4852842457410633E-03 
    3.8532055365567891E-08 
    2.6853055176774562E-19 
    7.9049087289711373E-01 
    7.6014377495442409E-01 
    7.2437791346659264E-01 
    6.8715165365064079E-01 
    6.4962958234045898E-01 
    6.1227604260489243E-01 
    5.7482680909479045E-01 
    5.3667889958081949E-01 
    4.9620022605484326E-01 
    4.4964413803896425E-01 
    3.8648364786399381E-01 
    2.6495467312779125E-01 
    5.4371206514255248E-02 
    3.5256576083113843E-04 
    8.6076950819800741E-10 
    1.1685028927550480E-23 
    7.6429302617188410E-01 
    7.1190633556653293E-01 
    6.8079039817832576E-01 
    6.4961167262252884E-01 
    6.1774622198310059E-01 
    5.8530425888153781E-01 
    5.5196287570554237E-01 
    5.1740048554461116E-01 
    4.7969595300870588E-01 
    4.3475780437947009E-01 
    3.6864633202490799E-01 
    2.2241864815670453E-01 
    2.5438189029610904E-02 
    3.6935710460035656E-05 
    2.0785053512185775E-12 
    1.0831646075311296E-30 
    6.9108872197120064E-01 
    6.6321240811911075E-01 
    6.3811868348375467E-01 
    6.1224131782531377E-01 
    5.8529227716527710E-01 
    5.6810285014555362E-01 
    5.3133130745339374E-01 
    4.9788281963448189E-01 
    4.6185902448250093E-01 
    4.1968127909393399E-01 
    3.4645867327781860E-01 
    1.6285254257131382E-01 
    7.3455136970017008E-03 
    1.0250762088143849E-06 
    8.2013286235839368E-17 
    1.8508735702800120E-43 
    6.3482980051280524E-01 
    6.1628539118394854E-01 
    5.9611470990481452E-01 
    5.7477939985919058E-01 
    5.5193982166348687E-01 
    5.3132035860508975E-01 
    5.0419653526389130E-01 
    4.7496984970096473E-01 
    4.4110518474519311E-01 
    3.9678040662501290E-01 
    3.0988484760401963E-01 
    8.4818022808743759E-02 
    7.3074524543119803E-04 
    1.0376443424219311E-09 
    7.9508465298417540E-26 
    4.5405746517058583E-71 
    5.8432678799884841E-01 
    5.7067206373653323E-01 
    5.5434667290402728E-01 
    5.3661732372710347E-01 
    5.1736400979306096E-01 
    4.9785940250915373E-01 
    4.7495721002084595E-01 
    4.4874125224485306E-01 
    4.1594022014434479E-01 
    3.6622924891083219E-01 
    2.3216369946194648E-01 
    1.8136883336843365E-02 
    4.1127043055670092E-06 
    8.1853015463265051E-17 
    7.6543428043141672E-49 
   3.3058447930220263E-146 
    5.3966894972254897E-01 
    5.2476664423197550E-01 
    5.1106618227944689E-01 
    4.9611835155458317E-01 
    4.7963985480949473E-01 
    4.6181631664986378E-01 
    4.4107414593237987E-01 
    4.1592140924283100E-01 
    3.8056622715972371E-01 
    3.0811913419693615E-01 
    7.9700799214669243E-02 
    2.5847186368439107E-04 
    2.1147007931348496E-12 
    1.8968700026717477E-38 
   5.1692562328983136E-123 
    0.0000000000000000E+00 
    4.8545447126589297E-01 
    4.7462518330316661E-01 
    4.6275425832068118E-01 
    4.4953599672949573E-01 
    4.3467141562565820E-01 
    4.1943801766073552E-01 
    3.9666700849170178E-01 
    3.6615490778040533E-01 
    3.0805548477460759E-01 
    1.2464780659120156E-01 
    1.2149079948301660E-03 
    7.4014846117452504E-11 
    4.2961819817676500E-35 
   6.4020145008273740E-116 
    0.0000000000000000E+00 
    0.0000000000000000E+00 
    4.2177240892723628E-01 
    4.1213798328149948E-01 
    4.0021913724243896E-01 
    3.8631538439562702E-01 
    3.6849198404182121E-01 
    3.4625567484963959E-01 
    3.0966923822153369E-01 
    2.3189144474032036E-01 
    7.9554180854099515E-02 
    1.2133040334695664E-03 
    1.6166007061861717E-10 
    3.2091627067427221E-34 
   5.1979956279905993E-114 
    0.0000000000000000E+00 
    0.0000000000000000E+00 
    0.0000000000000000E+00 
    3.2459483003208067E-01 
    3.1083212817842509E-01 
    2.9129497701056062E-01 
    2.6457551794591994E-01 
    2.2202708110506542E-01 
    1.6245467607468683E-01 
    8.4533362780248172E-02 
    1.8052045515024207E-02 
    2.5710423553589523E-04 
    7.3746540661505496E-11 
    3.2041519868192315E-34 
   1.2447388584982314E-113 
    0.0000000000000000E+00 
    0.0000000000000000E+00 
    0.0000000000000000E+00 
    0.0000000000000000E+00 
    1.3858674017088446E-01 
    1.1565578715784107E-01 
    8.6095995388004248E-02 
    5.4071338138852405E-02 
    2.5277431088973276E-02 
    7.2881565493300438E-03 
    7.2357422220303131E-04 
    4.0620850427970345E-06 
    2.0875626489425756E-12 
    4.2626964689092645E-35 
   5.1784323509173006E-114 
    0.0000000000000000E+00 
    0.0000000000000000E+00 
    0.0000000000000000E+00 
    0.0000000000000000E+00 
    0.0000000000000000E+00 
    6.8358566822842599E-03 
    3.7684105855617361E-03 
    1.4640590010301230E-03 
    3.4729927229779415E-04 
    3.6315941988001050E-05 
    1.0047019391076209E-06 
    1.0117328523963586E-09 
    7.9345862114336605E-17 
    1.8436672083220600E-38 
   6.2970265868611072E-116 
    0.0000000000000000E+00 
    0.0000000000000000E+00 
    0.0000000000000000E+00 
    0.0000000000000000E+00 
    0.0000000000000000E+00 
    0.0000000000000000E+00 
    1.9985942105960454E-06 
    4.3176799625056303E-07 
    3.7232639120683607E-08 
    8.3029742887556619E-10 
    1.9933949380097471E-12 
    7.7989108261022410E-17 
    7.4693056129613505E-26 
    7.0910464332741319E-49 
   4.8614885161407483E-123 
    0.0000000000000000E+00 
    0.0000000000000000E+00 
    0.0000000000000000E+00 
    0.0000000000000000E+00 
    0.0000000000000000E+00 
    0.0000000000000000E+00 
    0.0000000000000000E+00 
    5.8374656278082697E-15 
    1.2836858924182434E-16 
    2.4805886016319096E-19 
    1.0738429405790057E-23 
    9.7495494923790770E-31 
    1.6337414277436711E-43 
    3.8788748080917130E-71 
   2.7661558247653349E-146 
    0.0000000000000000E+00 
    0.0000000000000000E+00 
    0.0000000000000000E+00 
    0.0000000000000000E+00 
    0.0000000000000000E+00 
    0.0000000000000000E+00 
    0.0000000000000000E+00 
    0.0000000000000000E+00 
