# vtk DataFile Version 2.0
Pressure Field Data 
ASCII 
DATASET UNSTRUCTURED_GRID 

POINTS 289 double 

    0.0000000000000000E+00     0.0000000000000000E+00     0.0000000000000000E+00 
    1.0000000000000000E+00     0.0000000000000000E+00     0.0000000000000000E+00 
    1.0000000000000000E+00     1.0000000000000000E+00     0.0000000000000000E+00 
    0.0000000000000000E+00     1.0000000000000000E+00     0.0000000000000000E+00 
    6.2499999999872928E-02     0.0000000000000000E+00     0.0000000000000000E+00 
    1.2499999999977310E-01     0.0000000000000000E+00     0.0000000000000000E+00 
    1.8749999999959341E-01     0.0000000000000000E+00     0.0000000000000000E+00 
    2.4999999999941089E-01     0.0000000000000000E+00     0.0000000000000000E+00 
    3.1249999999922851E-01     0.0000000000000000E+00     0.0000000000000000E+00 
    3.7499999999904610E-01     0.0000000000000000E+00     0.0000000000000000E+00 
    4.3749999999886358E-01     0.0000000000000000E+00     0.0000000000000000E+00 
    4.9999999999869210E-01     0.0000000000000000E+00     0.0000000000000000E+00 
    5.6249999999884603E-01     0.0000000000000000E+00     0.0000000000000000E+00 
    6.2499999999901090E-01     0.0000000000000000E+00     0.0000000000000000E+00 
    6.8749999999917577E-01     0.0000000000000000E+00     0.0000000000000000E+00 
    7.4999999999934064E-01     0.0000000000000000E+00     0.0000000000000000E+00 
    8.1249999999950551E-01     0.0000000000000000E+00     0.0000000000000000E+00 
    8.7499999999967026E-01     0.0000000000000000E+00     0.0000000000000000E+00 
    9.3749999999983513E-01     0.0000000000000000E+00     0.0000000000000000E+00 
    1.0000000000000000E+00     6.2499999999872928E-02     0.0000000000000000E+00 
    1.0000000000000000E+00     1.2499999999977310E-01     0.0000000000000000E+00 
    1.0000000000000000E+00     1.8749999999959341E-01     0.0000000000000000E+00 
    1.0000000000000000E+00     2.4999999999941089E-01     0.0000000000000000E+00 
    1.0000000000000000E+00     3.1249999999922851E-01     0.0000000000000000E+00 
    1.0000000000000000E+00     3.7499999999904610E-01     0.0000000000000000E+00 
    1.0000000000000000E+00     4.3749999999886358E-01     0.0000000000000000E+00 
    1.0000000000000000E+00     4.9999999999869210E-01     0.0000000000000000E+00 
    1.0000000000000000E+00     5.6249999999884603E-01     0.0000000000000000E+00 
    1.0000000000000000E+00     6.2499999999901090E-01     0.0000000000000000E+00 
    1.0000000000000000E+00     6.8749999999917577E-01     0.0000000000000000E+00 
    1.0000000000000000E+00     7.4999999999934064E-01     0.0000000000000000E+00 
    1.0000000000000000E+00     8.1249999999950551E-01     0.0000000000000000E+00 
    1.0000000000000000E+00     8.7499999999967026E-01     0.0000000000000000E+00 
    1.0000000000000000E+00     9.3749999999983513E-01     0.0000000000000000E+00 
    9.3749999999973976E-01     1.0000000000000000E+00     0.0000000000000000E+00 
    8.7499999999950118E-01     1.0000000000000000E+00     0.0000000000000000E+00 
    8.1249999999991318E-01     1.0000000000000000E+00     0.0000000000000000E+00 
    7.5000000000034706E-01     1.0000000000000000E+00     0.0000000000000000E+00 
    6.8750000000078049E-01     1.0000000000000000E+00     0.0000000000000000E+00 
    6.2500000000121403E-01     1.0000000000000000E+00     0.0000000000000000E+00 
    5.6250000000164757E-01     1.0000000000000000E+00     0.0000000000000000E+00 
    5.0000000000205946E-01     1.0000000000000000E+00     0.0000000000000000E+00 
    4.3750000000182099E-01     1.0000000000000000E+00     0.0000000000000000E+00 
    3.7500000000156092E-01     1.0000000000000000E+00     0.0000000000000000E+00 
    3.1250000000130068E-01     1.0000000000000000E+00     0.0000000000000000E+00 
    2.5000000000104050E-01     1.0000000000000000E+00     0.0000000000000000E+00 
    1.8750000000078040E-01     1.0000000000000000E+00     0.0000000000000000E+00 
    1.2500000000052031E-01     1.0000000000000000E+00     0.0000000000000000E+00 
    6.2500000000260125E-02     1.0000000000000000E+00     0.0000000000000000E+00 
    0.0000000000000000E+00     9.3749999999973976E-01     0.0000000000000000E+00 
    0.0000000000000000E+00     8.7499999999950118E-01     0.0000000000000000E+00 
    0.0000000000000000E+00     8.1249999999991318E-01     0.0000000000000000E+00 
    0.0000000000000000E+00     7.5000000000034706E-01     0.0000000000000000E+00 
    0.0000000000000000E+00     6.8750000000078049E-01     0.0000000000000000E+00 
    0.0000000000000000E+00     6.2500000000121403E-01     0.0000000000000000E+00 
    0.0000000000000000E+00     5.6250000000164757E-01     0.0000000000000000E+00 
    0.0000000000000000E+00     5.0000000000205946E-01     0.0000000000000000E+00 
    0.0000000000000000E+00     4.3750000000182099E-01     0.0000000000000000E+00 
    0.0000000000000000E+00     3.7500000000156092E-01     0.0000000000000000E+00 
    0.0000000000000000E+00     3.1250000000130068E-01     0.0000000000000000E+00 
    0.0000000000000000E+00     2.5000000000104050E-01     0.0000000000000000E+00 
    0.0000000000000000E+00     1.8750000000078040E-01     0.0000000000000000E+00 
    0.0000000000000000E+00     1.2500000000052031E-01     0.0000000000000000E+00 
    0.0000000000000000E+00     6.2500000000260125E-02     0.0000000000000000E+00 
    6.2499999999897131E-02     6.2500000000235922E-02     0.0000000000000000E+00 
    6.2499999999921327E-02     1.2500000000047351E-01     0.0000000000000000E+00 
    6.2499999999945530E-02     1.8750000000070621E-01     0.0000000000000000E+00 
    6.2499999999969733E-02     2.5000000000093858E-01     0.0000000000000000E+00 
    6.2499999999993928E-02     3.1250000000117117E-01     0.0000000000000000E+00 
    6.2500000000018124E-02     3.7500000000140382E-01     0.0000000000000000E+00 
    6.2500000000042327E-02     4.3750000000163619E-01     0.0000000000000000E+00 
    6.2500000000066530E-02     5.0000000000184897E-01     0.0000000000000000E+00 
    6.2500000000090733E-02     5.6250000000147260E-01     0.0000000000000000E+00 
    6.2500000000114922E-02     6.2500000000107636E-01     0.0000000000000000E+00 
    6.2500000000139125E-02     6.8750000000068034E-01     0.0000000000000000E+00 
    6.2500000000163328E-02     7.5000000000028411E-01     0.0000000000000000E+00 
    6.2500000000187531E-02     8.1249999999988787E-01     0.0000000000000000E+00 
    6.2500000000211720E-02     8.7499999999951172E-01     0.0000000000000000E+00 
    6.2500000000235922E-02     9.3749999999974565E-01     0.0000000000000000E+00 
    1.2499999999981980E-01     6.2500000000211733E-02     0.0000000000000000E+00 
    1.2499999999986650E-01     1.2500000000042691E-01     0.0000000000000000E+00 
    1.2499999999991319E-01     1.8750000000063199E-01     0.0000000000000000E+00 
    1.2499999999995989E-01     2.5000000000083678E-01     0.0000000000000000E+00 
    1.2500000000000661E-01     3.1250000000104172E-01     0.0000000000000000E+00 
    1.2500000000005329E-01     3.7500000000124661E-01     0.0000000000000000E+00 
    1.2500000000010000E-01     4.3750000000145117E-01     0.0000000000000000E+00 
    1.2500000000014669E-01     5.0000000000163858E-01     0.0000000000000000E+00 
    1.2500000000019340E-01     5.6250000000129741E-01     0.0000000000000000E+00 
    1.2500000000024011E-01     6.2500000000093847E-01     0.0000000000000000E+00 
    1.2500000000028680E-01     6.8750000000057998E-01     0.0000000000000000E+00 
    1.2500000000033351E-01     7.5000000000022127E-01     0.0000000000000000E+00 
    1.2500000000038020E-01     8.1249999999986211E-01     0.0000000000000000E+00 
    1.2500000000042691E-01     8.7499999999952238E-01     0.0000000000000000E+00 
    1.2500000000047359E-01     9.3749999999975164E-01     0.0000000000000000E+00 
    1.8749999999966760E-01     6.2500000000187531E-02     0.0000000000000000E+00 
    1.8749999999974179E-01     1.2500000000038020E-01     0.0000000000000000E+00 
    1.8749999999981601E-01     1.8750000000055780E-01     0.0000000000000000E+00 
    1.8749999999989009E-01     2.5000000000073502E-01     0.0000000000000000E+00 
    1.8749999999996431E-01     3.1250000000091221E-01     0.0000000000000000E+00 
    1.8750000000003850E-01     3.7500000000108941E-01     0.0000000000000000E+00 
    1.8750000000011269E-01     4.3750000000126649E-01     0.0000000000000000E+00 
    1.8750000000018691E-01     5.0000000000142808E-01     0.0000000000000000E+00 
    1.8750000000026110E-01     5.6250000000112244E-01     0.0000000000000000E+00 
    1.8750000000033529E-01     6.2500000000080080E-01     0.0000000000000000E+00 
    1.8750000000040951E-01     6.8750000000047962E-01     0.0000000000000000E+00 
    1.8750000000048361E-01     7.5000000000015843E-01     0.0000000000000000E+00 
    1.8750000000055780E-01     8.1249999999983680E-01     0.0000000000000000E+00 
    1.8750000000063199E-01     8.7499999999953304E-01     0.0000000000000000E+00 
    1.8750000000070621E-01     9.3749999999975764E-01     0.0000000000000000E+00 
    2.4999999999951281E-01     6.2500000000163314E-02     0.0000000000000000E+00 
    2.4999999999961461E-01     1.2500000000033351E-01     0.0000000000000000E+00 
    2.4999999999971650E-01     1.8750000000048361E-01     0.0000000000000000E+00 
    2.4999999999981831E-01     2.5000000000063310E-01     0.0000000000000000E+00 
    2.4999999999992020E-01     3.1250000000078260E-01     0.0000000000000000E+00 
    2.5000000000002198E-01     3.7500000000093209E-01     0.0000000000000000E+00 
    2.5000000000012390E-01     4.3750000000108180E-01     0.0000000000000000E+00 
    2.5000000000022571E-01     5.0000000000121769E-01     0.0000000000000000E+00 
    2.5000000000032763E-01     5.6250000000094724E-01     0.0000000000000000E+00 
    2.5000000000042938E-01     6.2500000000066314E-01     0.0000000000000000E+00 
    2.5000000000053119E-01     6.8750000000037925E-01     0.0000000000000000E+00 
[...]
CELL_DATA 256 
SCALARS Pressure double 1 
LOOKUP_TABLE default 

    2.3898506696471458E+00 
    2.2797004370444793E+00 
    2.2042707370350914E+00 
    2.1439171081471180E+00 
    2.0941412150045551E+00 
    2.0507600613816774E+00 
    2.0089415642281772E+00 
    1.9695078958332546E+00 
    1.9329376365166391E+00 
    1.8990427955842706E+00 
    1.8673554409953401E+00 
    1.8377984636934639E+00 
    1.8095915923668180E+00 
    1.7844400175111943E+00 
    1.7677318525093495E+00 
    1.7598099651769967E+00 
    2.2797589538593437E+00 
    2.2326279200848260E+00 
    2.1797932828465321E+00 
    2.1290561456136308E+00 
    2.0834424313135873E+00 
    2.0415585105192706E+00 
    2.0009442835649813E+00 
    1.9623842384520025E+00 
    1.9261739729904570E+00 
    1.8922572607495847E+00 
    1.8604865272771454E+00 
    1.8307080155135624E+00 
    1.8020735365595586E+00 
    1.7766538467074182E+00 
    1.7598749226482193E+00 
    1.7519032720705974E+00 
    2.2044428103415905E+00 
    2.1798836113663751E+00 
    2.1433276540113195E+00 
    2.1032149133167470E+00 
    2.0633457896336616E+00 
    2.0241753301767593E+00 
    1.9856479461053171E+00 
    1.9483991015313455E+00 
    1.9127013530992780E+00 
    1.8788091738159809E+00 
    1.8468194397981550E+00 
    1.8165458109013934E+00 
    1.7870669860447108E+00 
    1.7611144156197791E+00 
    1.7441506431823048E+00 
    1.7360523990830552E+00 
    2.1442861227580066E+00 
    2.1292451427295380E+00 
    2.1032751735154283E+00 
    2.0714524005131119E+00 
    2.0367296001627664E+00 
    2.0006845429515838E+00 
    1.9643411031343199E+00 
    1.9283205855996726E+00 
    1.8930685685526425E+00 
    1.8590597729794955E+00 
    1.8265601565228549E+00 
    1.7954046965286936E+00 
    1.7646060388578448E+00 
    1.7377974879125717E+00 
    1.7204599566233734E+00 
    1.7121255980411860E+00 
    2.0943285953435931E+00 
    2.0835206459152813E+00 
    2.0633746410023641E+00 
    2.0367338012086051E+00 
    2.0058055641129737E+00 
    1.9725430756690188E+00 
    1.9381355284669437E+00 
    1.9030194902868010E+00 
    1.8678638201790179E+00 
    1.8333642815951310E+00 
    1.7999329871005103E+00 
    1.7673544479898540E+00 
    1.7346368856026912E+00 
    1.7065653593565790E+00 
    1.6885987720282172E+00 
    1.6798855061280575E+00 
    2.0506334069113223E+00 
    2.0414595953491110E+00 
    2.0241385894545214E+00 
    2.0006706181891274E+00 
    1.9725391768184257E+00 
    1.9414266407840806E+00 
    1.9082653721189851E+00 
    1.8733954513277349E+00 
    1.8377737730827586E+00 
    1.8022285310997468E+00 
    1.7671985709079032E+00 
    1.7323979071043016E+00 
    1.6969831147632330E+00 
    1.6671613870603490E+00 
    1.6482351488056812E+00 
    1.6389533069059887E+00 
    2.0088185075426650E+00 
    2.0008474780841534E+00 
    1.9855977523228123E+00 
    1.9643177288475013E+00 
    1.9381253348944318E+00 
    1.9082612436100048E+00 
    1.8754387545699660E+00 
    1.8401323704344335E+00 
    1.8033903471080763E+00 
    1.7660152047253836E+00 
    1.7284658536189770E+00 
    1.6903675217670668E+00 
    1.6513207922969217E+00 
    1.6192004581007906E+00 
    1.5988606240103451E+00 
    1.5887336511589689E+00 
    1.9694582823996747E+00 
    1.9623255613893027E+00 
    1.9483551652934437E+00 
    1.9282968932567608E+00 
    1.9030107308472484E+00 
    1.8733938727115744E+00 
    1.8401332319590313E+00 
    1.8037874656430797E+00 
    1.7651544252384892E+00 
    1.7250027207859289E+00 
    1.6838233640510896E+00 
    1.6409986376976156E+00 
    1.5972168898141261E+00 
    1.5621743024348207E+00 
    1.5397757892974886E+00 
    1.5283944632822191E+00 
    1.9328890518754323E+00 
    1.9261167076926726E+00 
    1.9126611443982124E+00 
    1.8930490926848613E+00 
    1.8678613135552702E+00 
    1.8377788885449844E+00 
    1.8033968115287635E+00 
    1.7651587740541703E+00 
    1.7236830868661317E+00 
    1.6796564672762049E+00 
    1.6334742621124767E+00 
    1.5839740327601786E+00 
    1.5342944145563091E+00 
    1.4955280406566054E+00 
    1.4699893640015169E+00 
    1.4566784778622637E+00 
    1.8989507448614724E+00 
    1.8921829136399633E+00 
    1.8787689728706294E+00 
    1.8590443348068955E+00 
    1.8333671334918915E+00 
    1.8022378396489145E+00 
    1.7660242055793456E+00 
    1.7250110605273989E+00 
    1.6796619216107485E+00 
    1.6304320825264216E+00 
    1.5772415490712046E+00 
    1.5189578149772527E+00 
    1.4627010577282260E+00 
    1.4188141145562556E+00 
    1.3881117916421342E+00 
    1.3716580948861850E+00 
    1.8672806713848835E+00 
    1.8604283946237146E+00 
    1.8467893233808512E+00 
    1.8265521322070306E+00 
    1.7999398706996219E+00 
    1.7672096643479136E+00 
    1.7284755276914332E+00 
    1.6838346022728674E+00 
    1.6334843660951808E+00 
    1.5772472257884067E+00 
    1.5143188161276904E+00 
    1.4463370993145459E+00 
    1.3832683655153675E+00 
    1.3313345346592982E+00 
    1.2919880105145567E+00 
    1.2701703567932636E+00 
    1.8377504133559219E+00 
    1.8306712637844833E+00 
    1.8165289423221798E+00 
    1.7954053515086308E+00 
    1.7673670428625785E+00 
    1.7324143625635429E+00 
    1.6903822071772301E+00 
    1.6410130843973543E+00 
    1.5839875409040847E+00 
    1.5189684738227778E+00 
    1.4463435879153197E+00 
    1.3706734632891131E+00 
    1.2982056201311050E+00 
    1.2322197734670868E+00 
    1.1783886365936869E+00 
    1.1468933380111201E+00 
    1.8095653905914386E+00 
    1.8020551239557565E+00 
    1.7870625875029102E+00 
    1.7646151134949750E+00 
    1.7346560199050214E+00 
    1.6970075329388530E+00 
    1.6513467767566281E+00 
    1.5972445990453541E+00 
    1.5343233915095633E+00 
    1.4627286956097272E+00 
    1.3832895965880283E+00 
    1.2982175921903951E+00 
    1.2095860088044539E+00 
    1.1209995638654628E+00 
    1.0424839431610549E+00 
    9.9213500179119440E-01 
    1.7844499986306943E+00 
    1.7766684003909279E+00 
    1.7611376402025727E+00 
    1.7378297867391890E+00 
    1.7066054271747044E+00 
    1.6672069910968168E+00 
    1.6192487943816338E+00 
    1.5622241534763310E+00 
    1.4955771825484969E+00 
    1.4188586871433113E+00 
    1.3313687841644375E+00 
    1.2322422914834827E+00 
    1.1210100724363361E+00 
    9.9972182801637743E-01 
    8.7843628657466932E-01 
    7.8703708131561689E-01 
    1.7677713793355543E+00 
    1.7599160951399881E+00 
    1.7441960104783734E+00 
    1.7205103036136209E+00 
    1.6886539477919118E+00 
    1.6482943399358727E+00 
    1.5989212110213835E+00 
    1.5398358674720682E+00 
    1.4700462686580467E+00 
    1.3881623460022066E+00 
    1.2920280894772866E+00 
    1.1784174312863958E+00 
    1.0425012868098069E+00 
    8.7844357010019436E-01 
    6.8449948792724347E-01 
    4.9052780804626239E-01 
    1.7598517538748657E+00 
    1.7519463691254669E+00 
    1.7360987527908596E+00 
    1.7121759210483491E+00 
    1.6799398468058051E+00 
    1.6390114540070788E+00 
    1.5887929031144732E+00 
    1.5284527589436911E+00 
    1.4567332743350920E+00 
    1.3717065153374863E+00 
    1.2702093248358473E+00 
    1.1469221548995649E+00 
    9.9215364884440449E-01 
    7.8704685695239995E-01 
    4.9053111195147830E-01 
    0.0000000000000000E+00 

SCALARS Saturarion double 1 
LOOKUP_TABLE default 

    1.0000000000000000E+00 
    9.2835134930538077E-01 
    8.7140835407319894E-01 
    8.1559887841130840E-01 
    8.3284466729107121E-01 
    7.3525304996965779E-01 
    6.7488025567223997E-01 
    6.2464028267418770E-01 
    5.8923529583954148E-01 
    5.3664975537847481E-01 
    4.8322313751507612E-01 
    4.1842506618081848E-01 
    3.1516978880615770E-01 
    1.2509085808770845E-01 
    5.2511511781701270E-03 
    1.1897602917752660E-06 
    9.2834309709610729E-01 
    8.8418081230543488E-01 
    8.3593882090278215E-01 
    7.8725810959183218E-01 
    7.4488221609376515E-01 
    6.9843712444057104E-01 
    6.5336531428846845E-01 
    6.1006751634776579E-01 
    5.6817844647807403E-01 
    5.2403336951410107E-01 
    4.7460085470371982E-01 
    4.1126706229997440E-01 
    3.0562017825239385E-01 
    1.1051766644427874E-01 
    3.5524535817454861E-03 
    4.5138512339755355E-07 
    8.7137373674779361E-01 
    8.3592282928396455E-01 
    7.9538575208330631E-01 
    7.5370012799887742E-01 
    7.1310568854848588E-01 
    6.7288924179881393E-01 
    6.3325511615926933E-01 
    5.9422642796985325E-01 
    5.5489636458586367E-01 
    5.1334456175081411E-01 
    4.6587234203253491E-01 
    4.0312704801649263E-01 
    2.9379189556997592E-01 
    9.2965279444859286E-02 
    2.0751390039406938E-03 
    1.2014083826122505E-07 
    8.1550753549495514E-01 
    7.8723308008144732E-01 
    7.5370803415291709E-01 
    7.1860605428918811E-01 
    6.8326556609551037E-01 
    6.4804280736212017E-01 
    6.1289212688625760E-01 
    5.7762859338873107E-01 
    5.4139967273507450E-01 
    5.0241425404328988E-01 
    4.5691876788579666E-01 
    3.9440012958208531E-01 
    2.7995056929918166E-01 
    7.3639131763774859E-02 
    1.0291230468993063E-03 
    2.1568208269894719E-08 
    8.2128442234904309E-01 
    7.4412051303085469E-01 
    7.1298534365320598E-01 
    6.8324034543759304E-01 
    6.5317204513252070E-01 
    6.2270478940621721E-01 
    5.9164437389149993E-01 
    5.6010664569458068E-01 
    5.2715458609516908E-01 
    4.9112276159584711E-01 
    4.4769828323737088E-01 
    3.8579684964156663E-01 
    2.6339207314682439E-01 
    5.8237847560514665E-02 
    5.0497877649774577E-04 
    3.4476484969853185E-09 
    7.3162579733125688E-01 
    6.9771485183337834E-01 
    6.7271195649956594E-01 
    6.4799149443263859E-01 
    6.2268815089348395E-01 
    6.1622849978520522E-01 
    5.7598667594877317E-01 
    5.4399956470011879E-01 
    5.1285907045903045E-01 
    4.8373109818659521E-01 
    4.3920602533806874E-01 
    3.7604941831050132E-01 
    2.4301238872117581E-01 
    4.0264415288122496E-02 
    1.7220003580999558E-04 
    2.2713106022866042E-10 
    6.7311138416006167E-01 
    6.5280999965639230E-01 
    6.3306971358176600E-01 
    6.1282354259099525E-01 
    5.9161386830616280E-01 
    5.7597423720622509E-01 
    5.5070404673077977E-01 
    5.2449187615424941E-01 
    4.9694323760481696E-01 
    4.6767122254683147E-01 
    4.2779949955760554E-01 
    3.6440621790203676E-01 
    2.1768392132288497E-01 
    2.4970522983098209E-02 
    4.3517746798934836E-05 
    6.3572919146405162E-12 
    6.2361954297379729E-01 
    6.0964297605619056E-01 
    5.9404704242931039E-01 
    5.7754540990283354E-01 
    5.6006164606357223E-01 
    5.4397357695730342E-01 
    5.2447917934158939E-01 
    5.0303573760807052E-01 
    4.7931975272508892E-01 
    4.5217188531567903E-01 
    4.1516702637128627E-01 
    3.5058699013258893E-01 
    1.8444993157394146E-01 
    1.2454391381870778E-02 
    5.9710343189251983E-06 
    2.9617663505959584E-14 
    5.8549736321032142E-01 
    5.6759245787818613E-01 
    5.5468917978960841E-01 
    5.4129644425328671E-01 
    5.2709039741154429E-01 
    5.1281477585162927E-01 
    4.9691519159437192E-01 
    4.7930557425077219E-01 
    4.5923299573030518E-01 
    4.3486435502805770E-01 
    3.9983897629999010E-01 
    3.3102441387871617E-01 
    1.3558301406562490E-01 
    3.9569196385285691E-03 
    2.0063995101995293E-07 
    1.2245224183787197E-18 
    5.3478699826562892E-01 
    5.2351408747775019E-01 
    5.1312725398459014E-01 
    5.0229252327188190E-01 
    4.9103637036239306E-01 
    4.8323209423182806E-01 
    4.6747762081031780E-01 
    4.5208799695754565E-01 
    4.3482807532932777E-01 
    4.1399455055331108E-01 
    3.7908998036908503E-01 
    2.9632780204600817E-01 
    6.9030263148941007E-02 
    3.5819807811067738E-04 
    1.0834158778632539E-10 
    2.9688114802424771E-29 
    4.8218129080007738E-01 
    4.7416599926646374E-01 
    4.6564341670929693E-01 
    4.5677021231476961E-01 
    4.4758513616320267E-01 
    4.3897660648792358E-01 
    4.2762688693166762E-01 
    4.1505164917245241E-01 
    3.9976227472247061E-01 
    3.7904561461329078E-01 
    3.3967373225809661E-01 
    1.9841740284126572E-01 
    8.7791208552825111E-03 
    2.5716178858564153E-07 
    1.3491018359579306E-21 
    3.7023630368716821E-68 
    4.1771124389648617E-01 
    4.1084110265961021E-01 
    4.0283797763283846E-01 
    3.9417753476692002E-01 
    3.8560895247411903E-01 
    3.7583703621527498E-01 
    3.6419813581964339E-01 
    3.5039566126768462E-01 
    3.3084191439128363E-01 
    2.9614515339463576E-01 
    1.9825701284599229E-01 
    1.9451310930921582E-02 
    2.2779858558105416E-06 
    1.9276366222242248E-19 
    1.9706127448151188E-63 
   4.7866225200941384E-213 
    3.1438473528191302E-01 
    3.0499980205995819E-01 
    2.9327659873982698E-01 
    2.7949410458248003E-01 
    2.6296240696906614E-01 
    2.4257756207850101E-01 
    2.1723944872001499E-01 
    1.8401737601297774E-01 
    1.3521171586289374E-01 
    6.8821221593325724E-02 
    8.7535457242876313E-03 
    2.2752613671824329E-06 
    5.0290727578121445E-19 
    2.6134581050647054E-62 
   2.1384560056678343E-210 
    0.0000000000000000E+00 
    1.2409234026850387E-01 
    1.0974188748602670E-01 
    9.2375497160850348E-02 
    7.3195757623386953E-02 
    5.7874191320259491E-02 
    4.0001716977075594E-02 
    2.4796834330944026E-02 
    1.2362740426951940E-02 
    3.9244646191731129E-03 
    3.5520252240370698E-04 
    2.5555600045420198E-07 
    1.9223833438744066E-19 
    2.6108784909008913E-62 
   6.5366553040729308E-210 
    0.0000000000000000E+00 
    0.0000000000000000E+00 
    5.1255600920491560E-03 
    3.4806413180411520E-03 
    2.0385565653550305E-03 
    1.0123936796326426E-03 
    4.9606394701582289E-04 
    1.6922067626841712E-04 
    4.2751339098751368E-05 
    5.8635516474152068E-06 
    1.9653864999503425E-07 
    1.0614156781369937E-10 
    1.3317394128534259E-21 
    1.9584872136416090E-63 
   2.1338718073518917E-210 
    0.0000000000000000E+00 
    0.0000000000000000E+00 
    0.0000000000000000E+00 
    1.1171590215709180E-06 
    4.2984969623927787E-07 
    1.1528728492845889E-07 
    2.0772100433164650E-08 
    3.2920966398438343E-09 
    2.1789685444517490E-10 
    6.1006372580475769E-12 
    2.8388812253316289E-14 
    1.1623083339253022E-18 
    2.8305443590946155E-29 
    3.5965861480405283E-68 
   4.7264128749906706E-213 
    0.0000000000000000E+00 
    0.0000000000000000E+00 
    0.0000000000000000E+00 
    0.0000000000000000E+00 
