# vtk DataFile Version 2.0
Pressure Field Data 
ASCII 
DATASET UNSTRUCTURED_GRID 

POINTS 289 double 

    0.0000000000000000E+00     0.0000000000000000E+00     0.0000000000000000E+00 
    1.0000000000000000E+00     0.0000000000000000E+00     0.0000000000000000E+00 
    1.0000000000000000E+00     1.0000000000000000E+00     0.0000000000000000E+00 
    0.0000000000000000E+00     1.0000000000000000E+00     0.0000000000000000E+00 
    6.2499999999872928E-02     0.0000000000000000E+00     0.0000000000000000E+00 
    1.2499999999977310E-01     0.0000000000000000E+00     0.0000000000000000E+00 
    1.8749999999959341E-01     0.0000000000000000E+00     0.0000000000000000E+00 
    2.4999999999941089E-01     0.0000000000000000E+00     0.0000000000000000E+00 
    3.1249999999922851E-01     0.0000000000000000E+00     0.0000000000000000E+00 
    3.7499999999904610E-01     0.0000000000000000E+00     0.0000000000000000E+00 
    4.3749999999886358E-01     0.0000000000000000E+00     0.0000000000000000E+00 
    4.9999999999869210E-01     0.0000000000000000E+00     0.0000000000000000E+00 
    5.6249999999884603E-01     0.0000000000000000E+00     0.0000000000000000E+00 
    6.2499999999901090E-01     0.0000000000000000E+00     0.0000000000000000E+00 
    6.8749999999917577E-01     0.0000000000000000E+00     0.0000000000000000E+00 
    7.4999999999934064E-01     0.0000000000000000E+00     0.0000000000000000E+00 
    8.1249999999950551E-01     0.0000000000000000E+00     0.0000000000000000E+00 
    8.7499999999967026E-01     0.0000000000000000E+00     0.0000000000000000E+00 
    9.3749999999983513E-01     0.0000000000000000E+00     0.0000000000000000E+00 
    1.0000000000000000E+00     6.2499999999872928E-02     0.0000000000000000E+00 
    1.0000000000000000E+00     1.2499999999977310E-01     0.0000000000000000E+00 
    1.0000000000000000E+00     1.8749999999959341E-01     0.0000000000000000E+00 
    1.0000000000000000E+00     2.4999999999941089E-01     0.0000000000000000E+00 
    1.0000000000000000E+00     3.1249999999922851E-01     0.0000000000000000E+00 
    1.0000000000000000E+00     3.7499999999904610E-01     0.0000000000000000E+00 
    1.0000000000000000E+00     4.3749999999886358E-01     0.0000000000000000E+00 
    1.0000000000000000E+00     4.9999999999869210E-01     0.0000000000000000E+00 
    1.0000000000000000E+00     5.6249999999884603E-01     0.0000000000000000E+00 
    1.0000000000000000E+00     6.2499999999901090E-01     0.0000000000000000E+00 
    1.0000000000000000E+00     6.8749999999917577E-01     0.0000000000000000E+00 
    1.0000000000000000E+00     7.4999999999934064E-01     0.0000000000000000E+00 
    1.0000000000000000E+00     8.1249999999950551E-01     0.0000000000000000E+00 
    1.0000000000000000E+00     8.7499999999967026E-01     0.0000000000000000E+00 
    1.0000000000000000E+00     9.3749999999983513E-01     0.0000000000000000E+00 
    9.3749999999973976E-01     1.0000000000000000E+00     0.0000000000000000E+00 
    8.7499999999950118E-01     1.0000000000000000E+00     0.0000000000000000E+00 
    8.1249999999991318E-01     1.0000000000000000E+00     0.0000000000000000E+00 
    7.5000000000034706E-01     1.0000000000000000E+00     0.0000000000000000E+00 
    6.8750000000078049E-01     1.0000000000000000E+00     0.0000000000000000E+00 
    6.2500000000121403E-01     1.0000000000000000E+00     0.0000000000000000E+00 
    5.6250000000164757E-01     1.0000000000000000E+00     0.0000000000000000E+00 
    5.0000000000205946E-01     1.0000000000000000E+00     0.0000000000000000E+00 
    4.3750000000182099E-01     1.0000000000000000E+00     0.0000000000000000E+00 
    3.7500000000156092E-01     1.0000000000000000E+00     0.0000000000000000E+00 
    3.1250000000130068E-01     1.0000000000000000E+00     0.0000000000000000E+00 
    2.5000000000104050E-01     1.0000000000000000E+00     0.0000000000000000E+00 
    1.8750000000078040E-01     1.0000000000000000E+00     0.0000000000000000E+00 
    1.2500000000052031E-01     1.0000000000000000E+00     0.0000000000000000E+00 
    6.2500000000260125E-02     1.0000000000000000E+00     0.0000000000000000E+00 
    0.0000000000000000E+00     9.3749999999973976E-01     0.0000000000000000E+00 
    0.0000000000000000E+00     8.7499999999950118E-01     0.0000000000000000E+00 
    0.0000000000000000E+00     8.1249999999991318E-01     0.0000000000000000E+00 
    0.0000000000000000E+00     7.5000000000034706E-01     0.0000000000000000E+00 
    0.0000000000000000E+00     6.8750000000078049E-01     0.0000000000000000E+00 
    0.0000000000000000E+00     6.2500000000121403E-01     0.0000000000000000E+00 
    0.0000000000000000E+00     5.6250000000164757E-01     0.0000000000000000E+00 
    0.0000000000000000E+00     5.0000000000205946E-01     0.0000000000000000E+00 
    0.0000000000000000E+00     4.3750000000182099E-01     0.0000000000000000E+00 
    0.0000000000000000E+00     3.7500000000156092E-01     0.0000000000000000E+00 
    0.0000000000000000E+00     3.1250000000130068E-01     0.0000000000000000E+00 
    0.0000000000000000E+00     2.5000000000104050E-01     0.0000000000000000E+00 
    0.0000000000000000E+00     1.8750000000078040E-01     0.0000000000000000E+00 
    0.0000000000000000E+00     1.2500000000052031E-01     0.0000000000000000E+00 
    0.0000000000000000E+00     6.2500000000260125E-02     0.0000000000000000E+00 
    6.2499999999897131E-02     6.2500000000235922E-02     0.0000000000000000E+00 
    6.2499999999921327E-02     1.2500000000047351E-01     0.0000000000000000E+00 
    6.2499999999945530E-02     1.8750000000070621E-01     0.0000000000000000E+00 
    6.2499999999969733E-02     2.5000000000093858E-01     0.0000000000000000E+00 
    6.2499999999993928E-02     3.1250000000117117E-01     0.0000000000000000E+00 
    6.2500000000018124E-02     3.7500000000140382E-01     0.0000000000000000E+00 
    6.2500000000042327E-02     4.3750000000163619E-01     0.0000000000000000E+00 
    6.2500000000066530E-02     5.0000000000184897E-01     0.0000000000000000E+00 
    6.2500000000090733E-02     5.6250000000147260E-01     0.0000000000000000E+00 
    6.2500000000114922E-02     6.2500000000107636E-01     0.0000000000000000E+00 
    6.2500000000139125E-02     6.8750000000068034E-01     0.0000000000000000E+00 
    6.2500000000163328E-02     7.5000000000028411E-01     0.0000000000000000E+00 
    6.2500000000187531E-02     8.1249999999988787E-01     0.0000000000000000E+00 
    6.2500000000211720E-02     8.7499999999951172E-01     0.0000000000000000E+00 
    6.2500000000235922E-02     9.3749999999974565E-01     0.0000000000000000E+00 
    1.2499999999981980E-01     6.2500000000211733E-02     0.0000000000000000E+00 
    1.2499999999986650E-01     1.2500000000042691E-01     0.0000000000000000E+00 
    1.2499999999991319E-01     1.8750000000063199E-01     0.0000000000000000E+00 
    1.2499999999995989E-01     2.5000000000083678E-01     0.0000000000000000E+00 
    1.2500000000000661E-01     3.1250000000104172E-01     0.0000000000000000E+00 
    1.2500000000005329E-01     3.7500000000124661E-01     0.0000000000000000E+00 
    1.2500000000010000E-01     4.3750000000145117E-01     0.0000000000000000E+00 
    1.2500000000014669E-01     5.0000000000163858E-01     0.0000000000000000E+00 
    1.2500000000019340E-01     5.6250000000129741E-01     0.0000000000000000E+00 
    1.2500000000024011E-01     6.2500000000093847E-01     0.0000000000000000E+00 
    1.2500000000028680E-01     6.8750000000057998E-01     0.0000000000000000E+00 
    1.2500000000033351E-01     7.5000000000022127E-01     0.0000000000000000E+00 
    1.2500000000038020E-01     8.1249999999986211E-01     0.0000000000000000E+00 
    1.2500000000042691E-01     8.7499999999952238E-01     0.0000000000000000E+00 
    1.2500000000047359E-01     9.3749999999975164E-01     0.0000000000000000E+00 
    1.8749999999966760E-01     6.2500000000187531E-02     0.0000000000000000E+00 
    1.8749999999974179E-01     1.2500000000038020E-01     0.0000000000000000E+00 
    1.8749999999981601E-01     1.8750000000055780E-01     0.0000000000000000E+00 
    1.8749999999989009E-01     2.5000000000073502E-01     0.0000000000000000E+00 
    1.8749999999996431E-01     3.1250000000091221E-01     0.0000000000000000E+00 
    1.8750000000003850E-01     3.7500000000108941E-01     0.0000000000000000E+00 
    1.8750000000011269E-01     4.3750000000126649E-01     0.0000000000000000E+00 
    1.8750000000018691E-01     5.0000000000142808E-01     0.0000000000000000E+00 
    1.8750000000026110E-01     5.6250000000112244E-01     0.0000000000000000E+00 
    1.8750000000033529E-01     6.2500000000080080E-01     0.0000000000000000E+00 
    1.8750000000040951E-01     6.8750000000047962E-01     0.0000000000000000E+00 
    1.8750000000048361E-01     7.5000000000015843E-01     0.0000000000000000E+00 
    1.8750000000055780E-01     8.1249999999983680E-01     0.0000000000000000E+00 
    1.8750000000063199E-01     8.7499999999953304E-01     0.0000000000000000E+00 
    1.8750000000070621E-01     9.3749999999975764E-01     0.0000000000000000E+00 
    2.4999999999951281E-01     6.2500000000163314E-02     0.0000000000000000E+00 
    2.4999999999961461E-01     1.2500000000033351E-01     0.0000000000000000E+00 
    2.4999999999971650E-01     1.8750000000048361E-01     0.0000000000000000E+00 
    2.4999999999981831E-01     2.5000000000063310E-01     0.0000000000000000E+00 
    2.4999999999992020E-01     3.1250000000078260E-01     0.0000000000000000E+00 
    2.5000000000002198E-01     3.7500000000093209E-01     0.0000000000000000E+00 
    2.5000000000012390E-01     4.3750000000108180E-01     0.0000000000000000E+00 
    2.5000000000022571E-01     5.0000000000121769E-01     0.0000000000000000E+00 
    2.5000000000032763E-01     5.6250000000094724E-01     0.0000000000000000E+00 
    2.5000000000042938E-01     6.2500000000066314E-01     0.0000000000000000E+00 
    2.5000000000053119E-01     6.8750000000037925E-01     0.0000000000000000E+00 
[...]
CELL_DATA 256 
SCALARS Pressure double 1 
LOOKUP_TABLE default 

    2.4773204617043971E+00 
    2.3647662297559777E+00 
    2.2855284045000581E+00 
    2.2211504380914153E+00 
    2.1661378402640805E+00 
    2.1168615289251318E+00 
    2.0697475086835762E+00 
    2.0249457893195841E+00 
    1.9824490693998782E+00 
    1.9418901740606886E+00 
    1.9023710249487706E+00 
    1.8625679783892688E+00 
    1.8261218139716340E+00 
    1.7998545297254764E+00 
    1.7831581573442588E+00 
    1.7748157959117192E+00 
    2.3648070988815695E+00 
    2.3155985169924782E+00 
    2.2592539039030748E+00 
    2.2046248351395570E+00 
    2.1542095074913994E+00 
    2.1068612464778846E+00 
    2.0610285655430043E+00 
    2.0170478447824296E+00 
    1.9748834936605217E+00 
    1.9342821736856810E+00 
    1.8945036721020276E+00 
    1.8541079590224374E+00 
    1.8176102750076428E+00 
    1.7915353546437958E+00 
    1.7748292655086921E+00 
    1.7664758890114189E+00 
    2.2856483003324235E+00 
    2.2593189607215192E+00 
    2.2199105721291343E+00 
    2.1762873909702143E+00 
    2.1320140229071134E+00 
    2.0878703164040786E+00 
    2.0442192768911887E+00 
    2.0014960076333597E+00 
    1.9598159871396088E+00 
    1.9191387884900271E+00 
    1.8787696076874609E+00 
    1.8373225278021805E+00 
    1.8007817676676054E+00 
    1.7749647520623963E+00 
    1.7581955927666526E+00 
    1.7497950745593935E+00 
    2.2213965149917612E+00 
    2.2047582083676089E+00 
    2.1763329039943931E+00 
    2.1412247323024785E+00 
    2.1024494436906456E+00 
    2.0618482942728034E+00 
    2.0205149622000831E+00 
    1.9790306344400570E+00 
    1.9377459713010701E+00 
    1.8967461541085888E+00 
    1.8552227873248841E+00 
    1.8123845396025617E+00 
    1.7758629608240137E+00 
    1.7501943859303237E+00 
    1.7332406440094881E+00 
    1.7247233874044672E+00 
    2.1662972619636949E+00 
    2.1542880955753381E+00 
    2.1320499242195754E+00 
    2.1024612838254302E+00 
    2.0679432024308624E+00 
    2.0304296155531283E+00 
    1.9910874275441779E+00 
    1.9505166542766343E+00 
    1.9092492304837314E+00 
    1.8674144845564309E+00 
    1.8238666425753940E+00 
    1.7794456422911349E+00 
    1.7430593309240410E+00 
    1.7172492718848713E+00 
    1.6998998997233006E+00 
    1.6911468984248625E+00 
    2.1168316331696553E+00 
    2.1068390205819179E+00 
    2.0878747765562449E+00 
    2.0618573414439276E+00 
    2.0304356733455120E+00 
    1.9951815726536775E+00 
    1.9571223605081434E+00 
    1.9168284042010182E+00 
    1.8749290500620657E+00 
    1.8314321285310731E+00 
    1.7848118936002786E+00 
    1.7388831697664060E+00 
    1.7025861370548647E+00 
    1.6760986453629747E+00 
    1.6580126091695848E+00 
    1.6488337316206523E+00 
    2.0697136110439072E+00 
    2.0610065101270316E+00 
    2.0442193423005333E+00 
    2.0205234070341711E+00 
    1.9910949063834649E+00 
    1.9571256814571341E+00 
    1.9194650696910394E+00 
    1.8786459416405903E+00 
    1.8351983505182707E+00 
    1.7886007173412177E+00 
    1.7381458870745274E+00 
    1.6913098555409050E+00 
    1.6546181447822985E+00 
    1.6266243161248422E+00 
    1.6072461184873128E+00 
    1.5973330672187909E+00 
    2.0249535800163896E+00 
    2.0170488101071538E+00 
    2.0015030644046554E+00 
    1.9790434644918196E+00 
    1.9505301350752144E+00 
    1.9168386660315295E+00 
    1.8786519839618008E+00 
    1.8363868652799471E+00 
    1.7900989837785715E+00 
    1.7386685132886059E+00 
    1.6847878525960174E+00 
    1.6375400889154135E+00 
    1.5991749151098940E+00 
    1.5685796792596218E+00 
    1.5470574340079128E+00 
    1.5359246456893523E+00 
    1.9824646771737964E+00 
    1.9748922060627132E+00 
    1.9598308279822794E+00 
    1.9377659743810627E+00 
    1.9092705170834066E+00 
    1.8749476667978271E+00 
    1.8352137921836065E+00 
    1.7901076487591490E+00 
    1.7389292318381000E+00 
    1.6822501207945095E+00 
    1.6270049947414271E+00 
    1.5784128651863114E+00 
    1.5362255408381964E+00 
    1.5014760944176020E+00 
    1.4765028281218751E+00 
    1.4633866535626634E+00 
    1.9418874869079050E+00 
    1.9342872132459952E+00 
    1.9191586222906565E+00 
    1.8967737401784404E+00 
    1.8674448973265214E+00 
    1.8314601470249883E+00 
    1.7886248763912982E+00 
    1.7386866419177773E+00 
    1.6822617179529082E+00 
    1.6234726598712270E+00 
    1.5672291475955664E+00 
    1.5143632419393347E+00 
    1.4658389526408004E+00 
    1.4245953885618325E+00 
    1.3941014654070643E+00 
    1.3777378152265303E+00 
    1.9023807785452602E+00 
    1.8945211565845668E+00 
    1.8787995163504090E+00 
    1.8552597760935752E+00 
    1.8239058298915740E+00 
    1.7848498622692104E+00 
    1.7381816213840282E+00 
    1.6848228020050791E+00 
    1.6270353383991469E+00 
    1.5672472574421872E+00 
    1.5065957663718892E+00 
    1.4460046527309023E+00 
    1.3881532756329100E+00 
    1.3369458509780199E+00 
    1.2975478542035634E+00 
    1.2757109143928604E+00 
    1.8625969513647600E+00 
    1.8541438329666591E+00 
    1.8373695016676057E+00 
    1.8124398755306594E+00 
    1.7795059552118218E+00 
    1.7389458532797839E+00 
    1.6913718169960719E+00 
    1.6375992770948422E+00 
    1.5784638443168744E+00 
    1.5143998913968604E+00 
    1.4460227797259568E+00 
    1.3749414376530553E+00 
    1.3038697480891830E+00 
    1.2375358277986850E+00 
    1.1834828648272913E+00 
    1.1518733181456393E+00 
    1.8261943552809932E+00 
    1.8176867167204782E+00 
    1.8008646443741363E+00 
    1.7759509269300511E+00 
    1.7431497844637520E+00 
    1.7026761144327969E+00 
    1.6547041103621203E+00 
    1.5992541358401517E+00 
    1.5362941010581375E+00 
    1.4658927644493140E+00 
    1.3881885290109539E+00 
    1.3038868709646085E+00 
    1.2148705291039168E+00 
    1.1258643269458062E+00 
    1.0470025286566045E+00 
    9.9643894537374567E-01 
    1.7999651333894711E+00 
    1.7916460270764243E+00 
    1.7750761928338679E+00 
    1.7503058185320879E+00 
    1.7173592551037435E+00 
    1.6762053860963297E+00 
    1.6267254708780285E+00 
    1.5686730129518915E+00 
    1.5015581309200405E+00 
    1.4246625844553829E+00 
    1.3369947466115053E+00 
    1.2375668063229539E+00 
    1.1258784051469812E+00 
    1.0040606097662110E+00 
    8.8224579707402440E-01 
    7.9044989713432423E-01 
    1.7832829600544418E+00 
    1.7749531834678149E+00 
    1.7583186852540691E+00 
    1.7333622694359574E+00 
    1.7000190476763306E+00 
    1.6581279103839148E+00 
    1.6073551829447565E+00 
    1.5471579322139313E+00 
    1.4765917778698621E+00 
    1.3941758415217009E+00 
    1.2976045865994945E+00 
    1.1835222952161444E+00 
    1.0470257182590625E+00 
    8.8225538533912329E-01 
    6.8746726899373001E-01 
    4.9265376059012073E-01 
    1.7749398511984729E+00 
    1.7665992540686708E+00 
    1.7499174908010222E+00 
    1.7248441106187384E+00 
    1.6912648851182541E+00 
    1.6489477651023416E+00 
    1.5974406210380201E+00 
    1.5360233351762489E+00 
    1.4634738363521635E+00 
    1.3778107883218706E+00 
    1.2757675119134617E+00 
    1.1519138591597833E+00 
    9.9646457350179629E-01 
    7.9046312791527484E-01 
    4.9265820807721200E-01 
    0.0000000000000000E+00 

SCALARS Saturarion double 1 
LOOKUP_TABLE default 

    1.0000000000000000E+00 
    9.1382337825002524E-01 
    8.4854122874812998E-01 
    7.8648102249839269E-01 
    7.6261056162777552E-01 
    6.8726372920367373E-01 
    6.2993947919920124E-01 
    5.7863830394481852E-01 
    5.3417415615255703E-01 
    4.7799864567633649E-01 
    4.1096705297958969E-01 
    3.0429659220272470E-01 
    1.0730387795918225E-01 
    3.0410680281616571E-03 
    2.5323921150715564E-07 
    3.5822844768493836E-17 
    9.1381687699955183E-01 
    8.6301663369672876E-01 
    8.0901848327957415E-01 
    7.5577033730108600E-01 
    7.0730322677191326E-01 
    6.5817900355072656E-01 
    6.1076349024439924E-01 
    5.6458919089542414E-01 
    5.1797107706567802E-01 
    4.6638122007460781E-01 
    4.0040101233258385E-01 
    2.8782175132026094E-01 
    8.4594934959243195E-02 
    1.4428626964976007E-03 
    3.7520578561452772E-08 
    2.9342549607476621E-19 
    8.4851576470126289E-01 
    8.0900614318098141E-01 
    7.6458146777548697E-01 
    7.1963343052968287E-01 
    6.7569220971277655E-01 
    6.3266080938249825E-01 
    5.9024263525051046E-01 
    5.4794258684277997E-01 
    5.0384141209000288E-01 
    4.5391775032033216E-01 
    3.8722424232908742E-01 
    2.6370549648154762E-01 
    5.7044684942461316E-02 
    4.3244011237311984E-04 
    1.6455120625242358E-09 
    9.3381767340458632E-23 
    7.8641738683680640E-01 
    7.5574863381062674E-01 
    7.1963385531905166E-01 
    6.8207361962985491E-01 
    6.4420607027393439E-01 
    6.0649535554800793E-01 
    5.6862532874926075E-01 
    5.2989798056524839E-01 
    4.8846740076433437E-01 
    4.3997057524563932E-01 
    3.7137056475228364E-01 
    2.2920289032876565E-01 
    3.0165622541634737E-02 
    6.5225446338734689E-05 
    1.0777526359605290E-11 
    1.3892614163859979E-28 
    7.5666062063271244E-01 
    7.0679845289453447E-01 
    6.7561115187314846E-01 
    6.4418907308880680E-01 
    6.1202384402935128E-01 
    5.7923449685514672E-01 
    5.4545275138293581E-01 
    5.1024867914767280E-01 
    4.7141388449344884E-01 
    4.2404693149727207E-01 
    3.5011659692326735E-01 
    1.7556973705104501E-01 
    1.0535945821040650E-02 
    3.1994227833681014E-06 
    3.2218999404766433E-15 
    2.9916911551726512E-38 
    6.8499035233659333E-01 
    6.5772261790999942E-01 
    6.3254926935332800E-01 
    6.0646249253985030E-01 
    5.7922298314867038E-01 
    5.6064955345416967E-01 
    5.2407703131419470E-01 
    4.9008379179870343E-01 
    4.5269069839124548E-01 
    4.0696429098958470E-01 
    3.2099013047466546E-01 
    1.0742259849844603E-01 
    1.7900777636647967E-03 
    1.9607396742718360E-08 
    1.3037838047522763E-21 
    6.5768853888874739E-57 
    6.2881693387115090E-01 
    6.1041621220630093E-01 
    5.9012583940749019E-01 
    5.6858014152797243E-01 
    5.4543035650516447E-01 
    5.2406621244532647E-01 
    4.9643520866314605E-01 
    4.6633443572345001E-01 
    4.3050548030539315E-01 
    3.8083271497368343E-01 
    2.6709913029627480E-01 
    3.8321872957263442E-02 
    5.5736881578970689E-05 
    5.8772266512884417E-13 
    1.9626963238115288E-35 
   5.1859419168992969E-100 
    5.7799235934982474E-01 
    5.6431836272691249E-01 
    5.4782355233931279E-01 
    5.2983845884711911E-01 
    5.1021274946019557E-01 
    4.9006032211780581E-01 
    4.6632150753842155E-01 
    4.3869380824138487E-01 
    4.0256360181243978E-01 
    3.4143430977352429E-01 
    1.4908358306046282E-01 
    2.9931628736165690E-03 
    1.4981515971182096E-08 
    1.7291632484625461E-24 
    4.9965479425798012E-73 
   8.3702811687669100E-224 
    5.3229217705647536E-01 
    5.1762480435532199E-01 
    5.0370047642604188E-01 
    4.8838704977275976E-01 
    4.7135768133395600E-01 
    4.5264702824289549E-01 
    4.3047275206150859E-01 
    4.0254284231688886E-01 
    3.5963683469059377E-01 
    2.4552698566591219E-01 
    2.0524794666551802E-02 
    2.0592828088753461E-06 
    2.1505631084018166E-19 
    1.3237852245840863E-61 
   2.3994045758824638E-199 
    0.0000000000000000E+00 
    4.7701014776976103E-01 
    4.6606164001625017E-01 
    4.5375742317744522E-01 
    4.3986153201800610E-01 
    4.2395744708019234E-01 
    4.0674465304706175E-01 
    3.8072053647245135E-01 
    3.4134672826452889E-01 
    2.4543115661838089E-01 
    3.6023860448625690E-02 
    1.0651718362083553E-05 
    8.6588960791562167E-18 
    3.6275369192587908E-58 
   3.8245248204031746E-192 
    0.0000000000000000E+00 
    0.0000000000000000E+00 
    4.1033980301075618E-01 
    4.0008129072935689E-01 
    3.8700983440216608E-01 
    3.7119000756185777E-01 
    3.4994270927424453E-01 
    3.2076302031441684E-01 
    2.6682665261930760E-01 
    1.4880925483743823E-01 
    2.0476323296525434E-02 
    1.0635966312137989E-05 
    1.9107833028781658E-17 
    2.7287023459700821E-57 
   3.1328988764836064E-190 
    0.0000000000000000E+00 
    0.0000000000000000E+00 
    0.0000000000000000E+00 
    3.0365577811669037E-01 
    2.8733724931276194E-01 
    2.6328221241419025E-01 
    2.2878431378414907E-01 
    1.7516430336118888E-01 
    1.0708358854120255E-01 
    3.8153819961022899E-02 
    2.9755226667752830E-03 
    2.0464643850494346E-06 
    8.6266695018180447E-18 
    2.7243467877288638E-57 
   7.5074134206765029E-190 
    0.0000000000000000E+00 
    0.0000000000000000E+00 
    0.0000000000000000E+00 
    0.0000000000000000E+00 
    1.0659800550937951E-01 
    8.4094831608534121E-02 
    5.6706533526770742E-02 
    2.9967027088519366E-02 
    1.0455954846473846E-02 
    1.7731573810876784E-03 
    5.5057470908012324E-05 
    1.4754838564698552E-08 
    2.1208838186662035E-19 
    3.5985223526319793E-58 
   3.1206142740875791E-190 
    0.0000000000000000E+00 
    0.0000000000000000E+00 
    0.0000000000000000E+00 
    0.0000000000000000E+00 
    0.0000000000000000E+00 
    2.9838579265671558E-03 
    1.4190008374195201E-03 
    4.2548535313013063E-04 
    6.4103435500618457E-05 
    3.1370288209350034E-06 
    1.9135224114040834E-08 
    5.6993858308619362E-13 
    1.6649470260560497E-24 
    1.2845542659343031E-61 
   3.7588776986654271E-192 
    0.0000000000000000E+00 
    0.0000000000000000E+00 
    0.0000000000000000E+00 
    0.0000000000000000E+00 
    0.0000000000000000E+00 
    0.0000000000000000E+00 
    2.4187915483703017E-07 
    3.6058461351933053E-08 
    1.5833339636558937E-09 
    1.0339873718498566E-11 
    3.0678323478526867E-15 
    1.2266897490521336E-21 
    1.8153433344098274E-35 
    4.5726069923763686E-73 
   2.2462444561032705E-199 
    0.0000000000000000E+00 
    0.0000000000000000E+00 
    0.0000000000000000E+00 
    0.0000000000000000E+00 
    0.0000000000000000E+00 
    0.0000000000000000E+00 
    0.0000000000000000E+00 
    3.2083057743785778E-17 
    2.6758892412171434E-19 
    8.5398722280802949E-23 
    1.2597695700975455E-28 
    2.6427594547045184E-38 
    5.6502953688996733E-57 
   4.2796417082975698E-100 
   6.8278321030169466E-224 
    0.0000000000000000E+00 
    0.0000000000000000E+00 
    0.0000000000000000E+00 
    0.0000000000000000E+00 
    0.0000000000000000E+00 
    0.0000000000000000E+00 
    0.0000000000000000E+00 
    0.0000000000000000E+00 
