# vtk DataFile Version 2.0
Pressure Field Data 
ASCII 
DATASET UNSTRUCTURED_GRID 

POINTS 289 double 

    0.0000000000000000E+00     0.0000000000000000E+00     0.0000000000000000E+00 
    1.0000000000000000E+00     0.0000000000000000E+00     0.0000000000000000E+00 
    1.0000000000000000E+00     1.0000000000000000E+00     0.0000000000000000E+00 
    0.0000000000000000E+00     1.0000000000000000E+00     0.0000000000000000E+00 
    6.2499999999872928E-02     0.0000000000000000E+00     0.0000000000000000E+00 
    1.2499999999977310E-01     0.0000000000000000E+00     0.0000000000000000E+00 
    1.8749999999959341E-01     0.0000000000000000E+00     0.0000000000000000E+00 
    2.4999999999941089E-01     0.0000000000000000E+00     0.0000000000000000E+00 
    3.1249999999922851E-01     0.0000000000000000E+00     0.0000000000000000E+00 
    3.7499999999904610E-01     0.0000000000000000E+00     0.0000000000000000E+00 
    4.3749999999886358E-01     0.0000000000000000E+00     0.0000000000000000E+00 
    4.9999999999869210E-01     0.0000000000000000E+00     0.0000000000000000E+00 
    5.6249999999884603E-01     0.0000000000000000E+00     0.0000000000000000E+00 
    6.2499999999901090E-01     0.0000000000000000E+00     0.0000000000000000E+00 
    6.8749999999917577E-01     0.0000000000000000E+00     0.0000000000000000E+00 
    7.4999999999934064E-01     0.0000000000000000E+00     0.0000000000000000E+00 
    8.1249999999950551E-01     0.0000000000000000E+00     0.0000000000000000E+00 
    8.7499999999967026E-01     0.0000000000000000E+00     0.0000000000000000E+00 
    9.3749999999983513E-01     0.0000000000000000E+00     0.0000000000000000E+00 
    1.0000000000000000E+00     6.2499999999872928E-02     0.0000000000000000E+00 
    1.0000000000000000E+00     1.2499999999977310E-01     0.0000000000000000E+00 
    1.0000000000000000E+00     1.8749999999959341E-01     0.0000000000000000E+00 
    1.0000000000000000E+00     2.4999999999941089E-01     0.0000000000000000E+00 
    1.0000000000000000E+00     3.1249999999922851E-01     0.0000000000000000E+00 
    1.0000000000000000E+00     3.7499999999904610E-01     0.0000000000000000E+00 
    1.0000000000000000E+00     4.3749999999886358E-01     0.0000000000000000E+00 
    1.0000000000000000E+00     4.9999999999869210E-01     0.0000000000000000E+00 
    1.0000000000000000E+00     5.6249999999884603E-01     0.0000000000000000E+00 
    1.0000000000000000E+00     6.2499999999901090E-01     0.0000000000000000E+00 
    1.0000000000000000E+00     6.8749999999917577E-01     0.0000000000000000E+00 
    1.0000000000000000E+00     7.4999999999934064E-01     0.0000000000000000E+00 
    1.0000000000000000E+00     8.1249999999950551E-01     0.0000000000000000E+00 
    1.0000000000000000E+00     8.7499999999967026E-01     0.0000000000000000E+00 
    1.0000000000000000E+00     9.3749999999983513E-01     0.0000000000000000E+00 
    9.3749999999973976E-01     1.0000000000000000E+00     0.0000000000000000E+00 
    8.7499999999950118E-01     1.0000000000000000E+00     0.0000000000000000E+00 
    8.1249999999991318E-01     1.0000000000000000E+00     0.0000000000000000E+00 
    7.5000000000034706E-01     1.0000000000000000E+00     0.0000000000000000E+00 
    6.8750000000078049E-01     1.0000000000000000E+00     0.0000000000000000E+00 
    6.2500000000121403E-01     1.0000000000000000E+00     0.0000000000000000E+00 
    5.6250000000164757E-01     1.0000000000000000E+00     0.0000000000000000E+00 
    5.0000000000205946E-01     1.0000000000000000E+00     0.0000000000000000E+00 
    4.3750000000182099E-01     1.0000000000000000E+00     0.0000000000000000E+00 
    3.7500000000156092E-01     1.0000000000000000E+00     0.0000000000000000E+00 
    3.1250000000130068E-01     1.0000000000000000E+00     0.0000000000000000E+00 
    2.5000000000104050E-01     1.0000000000000000E+00     0.0000000000000000E+00 
    1.8750000000078040E-01     1.0000000000000000E+00     0.0000000000000000E+00 
    1.2500000000052031E-01     1.0000000000000000E+00     0.0000000000000000E+00 
    6.2500000000260125E-02     1.0000000000000000E+00     0.0000000000000000E+00 
    0.0000000000000000E+00     9.3749999999973976E-01     0.0000000000000000E+00 
    0.0000000000000000E+00     8.7499999999950118E-01     0.0000000000000000E+00 
    0.0000000000000000E+00     8.1249999999991318E-01     0.0000000000000000E+00 
    0.0000000000000000E+00     7.5000000000034706E-01     0.0000000000000000E+00 
    0.0000000000000000E+00     6.8750000000078049E-01     0.0000000000000000E+00 
    0.0000000000000000E+00     6.2500000000121403E-01     0.0000000000000000E+00 
    0.0000000000000000E+00     5.6250000000164757E-01     0.0000000000000000E+00 
    0.0000000000000000E+00     5.0000000000205946E-01     0.0000000000000000E+00 
    0.0000000000000000E+00     4.3750000000182099E-01     0.0000000000000000E+00 
    0.0000000000000000E+00     3.7500000000156092E-01     0.0000000000000000E+00 
    0.0000000000000000E+00     3.1250000000130068E-01     0.0000000000000000E+00 
    0.0000000000000000E+00     2.5000000000104050E-01     0.0000000000000000E+00 
    0.0000000000000000E+00     1.8750000000078040E-01     0.0000000000000000E+00 
    0.0000000000000000E+00     1.2500000000052031E-01     0.0000000000000000E+00 
    0.0000000000000000E+00     6.2500000000260125E-02     0.0000000000000000E+00 
    6.2499999999897131E-02     6.2500000000235922E-02     0.0000000000000000E+00 
    6.2499999999921327E-02     1.2500000000047351E-01     0.0000000000000000E+00 
    6.2499999999945530E-02     1.8750000000070621E-01     0.0000000000000000E+00 
    6.2499999999969733E-02     2.5000000000093858E-01     0.0000000000000000E+00 
    6.2499999999993928E-02     3.1250000000117117E-01     0.0000000000000000E+00 
    6.2500000000018124E-02     3.7500000000140382E-01     0.0000000000000000E+00 
    6.2500000000042327E-02     4.3750000000163619E-01     0.0000000000000000E+00 
    6.2500000000066530E-02     5.0000000000184897E-01     0.0000000000000000E+00 
    6.2500000000090733E-02     5.6250000000147260E-01     0.0000000000000000E+00 
    6.2500000000114922E-02     6.2500000000107636E-01     0.0000000000000000E+00 
    6.2500000000139125E-02     6.8750000000068034E-01     0.0000000000000000E+00 
    6.2500000000163328E-02     7.5000000000028411E-01     0.0000000000000000E+00 
    6.2500000000187531E-02     8.1249999999988787E-01     0.0000000000000000E+00 
    6.2500000000211720E-02     8.7499999999951172E-01     0.0000000000000000E+00 
    6.2500000000235922E-02     9.3749999999974565E-01     0.0000000000000000E+00 
    1.2499999999981980E-01     6.2500000000211733E-02     0.0000000000000000E+00 
    1.2499999999986650E-01     1.2500000000042691E-01     0.0000000000000000E+00 
    1.2499999999991319E-01     1.8750000000063199E-01     0.0000000000000000E+00 
    1.2499999999995989E-01     2.5000000000083678E-01     0.0000000000000000E+00 
    1.2500000000000661E-01     3.1250000000104172E-01     0.0000000000000000E+00 
    1.2500000000005329E-01     3.7500000000124661E-01     0.0000000000000000E+00 
    1.2500000000010000E-01     4.3750000000145117E-01     0.0000000000000000E+00 
    1.2500000000014669E-01     5.0000000000163858E-01     0.0000000000000000E+00 
    1.2500000000019340E-01     5.6250000000129741E-01     0.0000000000000000E+00 
    1.2500000000024011E-01     6.2500000000093847E-01     0.0000000000000000E+00 
    1.2500000000028680E-01     6.8750000000057998E-01     0.0000000000000000E+00 
    1.2500000000033351E-01     7.5000000000022127E-01     0.0000000000000000E+00 
    1.2500000000038020E-01     8.1249999999986211E-01     0.0000000000000000E+00 
    1.2500000000042691E-01     8.7499999999952238E-01     0.0000000000000000E+00 
    1.2500000000047359E-01     9.3749999999975164E-01     0.0000000000000000E+00 
    1.8749999999966760E-01     6.2500000000187531E-02     0.0000000000000000E+00 
    1.8749999999974179E-01     1.2500000000038020E-01     0.0000000000000000E+00 
    1.8749999999981601E-01     1.8750000000055780E-01     0.0000000000000000E+00 
    1.8749999999989009E-01     2.5000000000073502E-01     0.0000000000000000E+00 
    1.8749999999996431E-01     3.1250000000091221E-01     0.0000000000000000E+00 
    1.8750000000003850E-01     3.7500000000108941E-01     0.0000000000000000E+00 
    1.8750000000011269E-01     4.3750000000126649E-01     0.0000000000000000E+00 
    1.8750000000018691E-01     5.0000000000142808E-01     0.0000000000000000E+00 
    1.8750000000026110E-01     5.6250000000112244E-01     0.0000000000000000E+00 
    1.8750000000033529E-01     6.2500000000080080E-01     0.0000000000000000E+00 
    1.8750000000040951E-01     6.8750000000047962E-01     0.0000000000000000E+00 
    1.8750000000048361E-01     7.5000000000015843E-01     0.0000000000000000E+00 
    1.8750000000055780E-01     8.1249999999983680E-01     0.0000000000000000E+00 
    1.8750000000063199E-01     8.7499999999953304E-01     0.0000000000000000E+00 
    1.8750000000070621E-01     9.3749999999975764E-01     0.0000000000000000E+00 
    2.4999999999951281E-01     6.2500000000163314E-02     0.0000000000000000E+00 
    2.4999999999961461E-01     1.2500000000033351E-01     0.0000000000000000E+00 
    2.4999999999971650E-01     1.8750000000048361E-01     0.0000000000000000E+00 
    2.4999999999981831E-01     2.5000000000063310E-01     0.0000000000000000E+00 
    2.4999999999992020E-01     3.1250000000078260E-01     0.0000000000000000E+00 
    2.5000000000002198E-01     3.7500000000093209E-01     0.0000000000000000E+00 
    2.5000000000012390E-01     4.3750000000108180E-01     0.0000000000000000E+00 
    2.5000000000022571E-01     5.0000000000121769E-01     0.0000000000000000E+00 
    2.5000000000032763E-01     5.6250000000094724E-01     0.0000000000000000E+00 
    2.5000000000042938E-01     6.2500000000066314E-01     0.0000000000000000E+00 
    2.5000000000053119E-01     6.8750000000037925E-01     0.0000000000000000E+00 
[...]
CELL_DATA 256 
SCALARS Pressure double 1 
LOOKUP_TABLE default 

    2.3290103822365862E+00 
    2.2204708371161024E+00 
    2.1475795554550570E+00 
    2.0898202442217211E+00 
    2.0442575492033321E+00 
    2.0054763671037725E+00 
    1.9672278324686561E+00 
    1.9312298208189260E+00 
    1.8983940389947951E+00 
    1.8685403730743710E+00 
    1.8411393283219208E+00 
    1.8165183533133957E+00 
    1.7945677724274491E+00 
    1.7748334152997585E+00 
    1.7596754346240853E+00 
    1.7522717939548644E+00 
    2.2205544151107448E+00 
    2.1748727565481274E+00 
    2.1245161602600713E+00 
    2.0765075730838078E+00 
    2.0345209721387154E+00 
    1.9967166510584504E+00 
    1.9596435111059003E+00 
    1.9245751017362636E+00 
    1.8921300659035554E+00 
    1.8622381037547571E+00 
    1.8347970088223882E+00 
    1.8100595149095418E+00 
    1.7879114600490840E+00 
    1.7678975497128984E+00 
    1.7525507743636364E+00 
    1.7450772328641715E+00 
    2.1478238716877769E+00 
    2.1246388266387557E+00 
    2.0902134368091883E+00 
    2.0525817218084574E+00 
    2.0158412630898082E+00 
    1.9802475247005449E+00 
    1.9452229145511284E+00 
    1.9115532492977902E+00 
    1.8796396977403829E+00 
    1.8497750965078803E+00 
    1.8222099356371853E+00 
    1.7971685716988766E+00 
    1.7745876436090631E+00 
    1.7540169639442211E+00 
    1.7382816966089358E+00 
    1.7306425310049531E+00 
    2.0903552267451060E+00 
    2.0767622367059193E+00 
    2.0526551119767817E+00 
    2.0231193318493341E+00 
    1.9912363838157707E+00 
    1.9583892722584619E+00 
    1.9254224415072823E+00 
    1.8929777882279237E+00 
    1.8615099766620236E+00 
    1.8315700979992549E+00 
    1.8036047154784762E+00 
    1.7779448553334580E+00 
    1.7545917069453254E+00 
    1.7331323937133130E+00 
    1.7167518569018665E+00 
    1.7088064366636908E+00 
    2.0444400671265544E+00 
    2.0345685861002996E+00 
    2.0158465813857465E+00 
    1.9912243142680159E+00 
    1.9627653504817539E+00 
    1.9323945725875833E+00 
    1.9012873853392345E+00 
    1.8697266265268482E+00 
    1.8383400905018494E+00 
    1.8079513713271951E+00 
    1.7792082223924521E+00 
    1.7524895989633615E+00 
    1.7278902413160220E+00 
    1.7050927988380478E+00 
    1.6876949668288295E+00 
    1.6792453766108031E+00 
    2.0051798762282753E+00 
    1.9964838419164732E+00 
    1.9801373294672997E+00 
    1.9583332594869169E+00 
    1.9323716292486639E+00 
    1.9040108566692648E+00 
    1.8741129382526927E+00 
    1.8427244078878633E+00 
    1.8108354949641761E+00 
    1.7794799305790310E+00 
    1.7493633925970622E+00 
    1.7209019388775826E+00 
    1.6943873807069865E+00 
    1.6696153708071766E+00 
    1.6506728555222929E+00 
    1.6414487727492915E+00 
    1.9669631920965582E+00 
    1.9594241591772781E+00 
    1.9450863797270674E+00 
    1.9253417230050660E+00 
    1.9012435325920982E+00 
    1.8740944290507826E+00 
    1.8444482597058405E+00 
    1.8125432752498780E+00 
    1.7795624386719024E+00 
    1.7465326519883493E+00 
    1.7141910056594474E+00 
    1.6831123016212439E+00 
    1.6538189910360803E+00 
    1.6262248006152649E+00 
    1.6050300534114390E+00 
    1.5946462732685633E+00 
    1.9310810144862727E+00 
    1.9244170572526700E+00 
    1.9114238671100316E+00 
    1.8928895681915296E+00 
    1.8696752460877977E+00 
    1.8426987601700688E+00 
    1.8125336412825812E+00 
    1.7796315414975747E+00 
    1.7449034882373113E+00 
    1.7093084518519108E+00 
    1.6737283986829472E+00 
    1.6390058370262892E+00 
    1.6058094819850788E+00 
    1.5742494713402277E+00 
    1.5497991668051763E+00 
    1.5376846261297208E+00 
    1.8982438417966863E+00 
    1.8919698221211985E+00 
    1.8795097889236458E+00 
    1.8614212512337802E+00 
    1.8382910853115364E+00 
    1.8108118328041853E+00 
    1.7795508577839738E+00 
    1.7448991324744083E+00 
    1.7075390688807641E+00 
    1.6683636495631045E+00 
    1.6283789135093611E+00 
    1.5886046835084504E+00 
    1.5499192285156007E+00 
    1.5127205387838132E+00 
    1.4834575952620546E+00 
    1.4687471724788648E+00 
    1.8683195421418728E+00 
    1.8620453699624602E+00 
    1.8496394579954956E+00 
    1.8314815950458296E+00 
    1.8079031285781642E+00 
    1.7794526015069498E+00 
    1.7465133175138345E+00 
    1.7092984037015011E+00 
    1.6683601878582250E+00 
    1.6245135775118593E+00 
    1.5787125750560418E+00 
    1.5320510131568286E+00 
    1.4856799559406422E+00 
    1.4403558107862373E+00 
    1.4038589850360190E+00 
    1.3851910363965212E+00 
    1.8409393566617818E+00 
    1.8346246046551240E+00 
    1.8220853895779512E+00 
    1.8035221478969699E+00 
    1.7791589863900847E+00 
    1.7493300585868219E+00 
    1.7141635980954548E+00 
    1.6737130288030393E+00 
    1.6283724579945602E+00 
    1.5787113597934745E+00 
    1.5254364846427253E+00 
    1.4696080138979108E+00 
    1.4125876690287702E+00 
    1.3554543181906031E+00 
    1.3079879515298447E+00 
    1.2831368823367453E+00 
    1.8163578504609132E+00 
    1.8099185059243279E+00 
    1.7970622718284537E+00 
    1.7778724361193579E+00 
    1.7524448945302846E+00 
    1.7208731278615765E+00 
    1.6830902432385570E+00 
    1.6389926641681860E+00 
    1.5885988515754101E+00 
    1.5320495835756074E+00 
    1.4696071961154857E+00 
    1.4020137436425033E+00 
    1.3304290287849023E+00 
    1.2559507269897379E+00 
    1.1916117458674531E+00 
    1.1566692761834805E+00 
    1.7944415152043920E+00 
    1.7877984852127646E+00 
    1.7744990726528502E+00 
    1.7545291016403597E+00 
    1.7278500638101015E+00 
    1.6943621120181496E+00 
    1.6538015597068572E+00 
    1.6057988995297019E+00 
    1.5499137695446148E+00 
    1.4856773773884888E+00 
    1.4125850505736637E+00 
    1.3304269490628486E+00 
    1.2392655182926675E+00 
    1.1395972846645928E+00 
    1.0494436615438285E+00 
    9.9654866300528944E-01 
    1.7747297498729482E+00 
    1.7678039006348152E+00 
    1.7539413937237029E+00 
    1.7330768733098794E+00 
    1.7050554402548022E+00 
    1.6695914836121715E+00 
    1.6262086137453653E+00 
    1.5742385175395777E+00 
    1.5127127393606781E+00 
    1.4403493221136352E+00 
    1.3554466192591723E+00 
    1.2559429138024469E+00 
    1.1395918415877351E+00 
    1.0069335042856793E+00 
    8.7792280969907011E-01 
    7.8686658324514058E-01 
    1.7596004572924393E+00 
    1.7524830281696331E+00 
    1.7382268707433541E+00 
    1.7167118184114476E+00 
    1.6876691830558297E+00 
    1.6506587470530536E+00 
    1.6050226746724674E+00 
    1.5497961000344704E+00 
    1.4834572433419089E+00 
    1.4038603332749389E+00 
    1.3079883543991231E+00 
    1.1916121738237380E+00 
    1.0494451421481692E+00 
    8.7792495317671937E-01 
    6.8149830136607326E-01 
    4.8932478119714296E-01 
    1.7522065395549187E+00 
    1.7450178517057440E+00 
    1.7305935265144547E+00 
    1.7087696380862167E+00 
    1.6792208301473288E+00 
    1.6414349078940993E+00 
    1.5946390926615361E+00 
    1.5376820612986886E+00 
    1.4687479296532693E+00 
    1.3851946846881455E+00 
    1.2831412139288632E+00 
    1.1566749250301012E+00 
    9.9655520996313918E-01 
    7.8687166713851264E-01 
    4.8932659574191878E-01 
    0.0000000000000000E+00 

SCALARS Saturarion double 1 
LOOKUP_TABLE default 

    1.0000000000000000E+00 
    9.3843434867695463E-01 
    8.8774281299949354E-01 
    8.3688463984398154E-01 
    9.1310364865428728E-01 
    7.7632192678178180E-01 
    7.1093146839732868E-01 
    6.5992839401730619E-01 
    6.3292035055847273E-01 
    5.7903782865836961E-01 
    5.2869824808420551E-01 
    4.7421811509545408E-01 
    4.0202851682023927E-01 
    2.7879837644840894E-01 
    7.5171230874606462E-02 
    1.0691006801085603E-03 
    9.3842382076573072E-01 
    8.9921420461823476E-01 
    8.5543843055914248E-01 
    8.1039374468802228E-01 
    7.7376528339499495E-01 
    7.2958876265856298E-01 
    6.8586904186125386E-01 
    6.4403419196704026E-01 
    6.0479682849066108E-01 
    5.6363389126553409E-01 
    5.1939851744702936E-01 
    4.6807825627659289E-01 
    3.9709654500915709E-01 
    2.7179394077188396E-01 
    6.7887929012846182E-02 
    7.9257377725396472E-04 
    8.8769637427175518E-01 
    8.5541787531152769E-01 
    8.1796419308260848E-01 
    7.7887425364824781E-01 
    7.4114363842841313E-01 
    7.0316935558818017E-01 
    6.6542221242897615E-01 
    6.2826837233077348E-01 
    5.9130168698759755E-01 
    5.5305461322326510E-01 
    5.1140521086472435E-01 
    4.6201618183734000E-01 
    3.9203032884576416E-01 
    2.6393934400744273E-01 
    6.0287455736845894E-02 
    5.6771193480951651E-04 
    8.3675700526823737E-01 
    8.1036577286183453E-01 
    7.7889376505262398E-01 
    7.4573308288063167E-01 
    7.1241805123228785E-01 
    6.7906460775044786E-01 
    6.4568572898409715E-01 
    6.1233397541504186E-01 
    5.7850295385074846E-01 
    5.4300200197584925E-01 
    5.0376843019885853E-01 
    4.5607150492170234E-01 
    3.8725780235326424E-01 
    2.5525512971265463E-01 
    5.2845846700569687E-02 
    3.9667223818424494E-04 
    8.9266315456342593E-01 
    7.7282492232338884E-01 
    7.4098972535742569E-01 
    7.1238437166413870E-01 
    6.8385065944843049E-01 
    6.5499699734128136E-01 
    6.2557508335699841E-01 
    5.9590134992406607E-01 
    5.6540552801310306E-01 
    5.3309402457916810E-01 
    4.9657747819054004E-01 
    4.5144140359765933E-01 
    3.8348193742788578E-01 
    2.5300914104363242E-01 
    5.2410918764606532E-02 
    3.9537051840373067E-04 
    7.7150121996952747E-01 
    7.2858157251674927E-01 
    7.0291378467800969E-01 
    6.7898890906420584E-01 
    6.5497283480185053E-01 
    6.6056584853072187E-01 
    6.1506954839756744E-01 
    5.8264512498185783E-01 
    5.5317990445082799E-01 
    5.3134399488603901E-01 
    4.9197202177576266E-01 
    4.4743504001952089E-01 
    3.8056764695995732E-01 
    2.4949872355923686E-01 
    4.9120240504774586E-02 
    3.2223609979981110E-04 
    7.0850174686857370E-01 
    6.8506984569042573E-01 
    6.6514879627460222E-01 
    6.4558367160290064E-01 
    6.2553149609757219E-01 
    6.1505688218787558E-01 
    5.9047774045360679E-01 
    5.6502771111965155E-01 
    5.3942541777630715E-01 
    5.1549507259460658E-01 
    4.8361174800202333E-01 
    4.4266122542585112E-01 
    3.7834257472810395E-01 
    2.4686920111729516E-01 
    4.7329950010971691E-02 
    2.9033376698800472E-04 
    6.5848868455024046E-01 
    6.4342124524052369E-01 
    6.2800826917662556E-01 
    6.1221491700359465E-01 
    5.9583983252775519E-01 
    5.8261398862525959E-01 
    5.6501347813890768E-01 
    5.4534241928020510E-01 
    5.2419879789926660E-01 
    5.0212836766345059E-01 
    4.7469377103980198E-01 
    4.3752667227003417E-01 
    3.7694854608564410E-01 
    2.4596009742854774E-01 
    4.7597847979390137E-02 
    2.9606495697996138E-04 
    6.2684862350950299E-01 
    6.0388724941444727E-01 
    5.9099550694288816E-01 
    5.7835910341154750E-01 
    5.6532114181428894E-01 
    5.5312588652613115E-01 
    5.3939383389541184E-01 
    5.2418412566059447E-01 
    5.0740796520684939E-01 
    4.8872939884443783E-01 
    4.6547353566713356E-01 
    4.3293635476443393E-01 
    3.7679866363775183E-01 
    2.5366577249330274E-01 
    5.7311394201007858E-02 
    4.9876881126625450E-04 
    5.7598898602454651E-01 
    5.6281250985785036E-01 
    5.5273472918639455E-01 
    5.4283908809316905E-01 
    5.3298745275026826E-01 
    5.3043582405122403E-01 
    5.1514750956034672E-01 
    5.0198445802602087E-01 
    4.8867070519796107E-01 
    4.7560494945042103E-01 
    4.5546473568032153E-01 
    4.2750176526052558E-01 
    3.7730250234745721E-01 
    2.6319365409500417E-01 
    6.6885162000799955E-02 
    7.3115471952400713E-04 
    5.2702278678742087E-01 
    5.1873880590331056E-01 
    5.1109008473348960E-01 
    5.0358774281283447E-01 
    4.9645499794098652E-01 
    4.9161006659110723E-01 
    4.8333632026614409E-01 
    4.7452075703500313E-01 
    4.6537358148215352E-01 
    4.5541946558498753E-01 
    4.4116240730113016E-01 
    4.1926676200029911E-01 
    3.7691714261955250E-01 
    2.7402597462483930E-01 
    7.9158169061865458E-02 
    1.1204793003954370E-03 
    4.7319069285179333E-01 
    4.6752510747594200E-01 
    4.6168592642986572E-01 
    4.5585076525386858E-01 
    4.5128166970411077E-01 
    4.4722191460382027E-01 
    4.4245225072207245E-01 
    4.3735410957546245E-01 
    4.3280819991332176E-01 
    4.2741560970662729E-01 
    4.1922137127341685E-01 
    4.0470014061758569E-01 
    3.7220630342817168E-01 
    2.8321252953296244E-01 
    8.9695958529553518E-02 
    1.4415564969379132E-03 
    4.0120889657486708E-01 
    3.9651515398978149E-01 
    3.9160180973856545E-01 
    3.8692448753844277E-01 
    3.8320991850021124E-01 
    3.8030878218325731E-01 
    3.7809345955111173E-01 
    3.7672096316169140E-01 
    3.7660204637278283E-01 
    3.7714275217253118E-01 
    3.7679857913090770E-01 
    3.7213620236687034E-01 
    3.5286995849706837E-01 
    2.8039882142423678E-01 
    8.2723249846015923E-02 
    8.7728367517272260E-04 
    2.7767499360514775E-01 
    2.7085703093510810E-01 
    2.6316161918634262E-01 
    2.5459345782330600E-01 
    2.5242599603618088E-01 
    2.4896597576021684E-01 
    2.4637792254839494E-01 
    2.4551046846815200E-01 
    2.5327403107405511E-01 
    2.6285852086154515E-01 
    2.7374978530146615E-01 
    2.8299860259733522E-01 
    2.8026722496329420E-01 
    2.0485565529472038E-01 
    2.0243177067011588E-02 
    6.7512037036138425E-06 
    7.4082324373149863E-02 
    6.7068095012932913E-02 
    5.9681702077711528E-02 
    5.2387701492220266E-02 
    5.1952505340492193E-02 
    4.8744999772343763E-02 
    4.7013516879488321E-02 
    4.7316225605877150E-02 
    5.7013181677636152E-02 
    6.6605278589228600E-02 
    7.8904137501216179E-02 
    8.9479300450503965E-02 
    8.2596105984708040E-02 
    2.0232974822928271E-02 
    2.8706385175460418E-05 
    1.9280927322470385E-14 
    1.0203596824745259E-03 
    7.6611203488214080E-04 
    5.5280524625403492E-04 
    3.8791227976486104E-04 
    3.8434207174160406E-04 
    3.1554928611813974E-04 
    2.8534965818790794E-04 
    2.9163928674863737E-04 
    4.9116946086105251E-04 
    7.2292509669377475E-04 
    1.1109537589088672E-03 
    1.4324020092786700E-03 
    8.7406691093847900E-04 
    6.7440258254231820E-06 
    1.9277651339124356E-14 
    5.8274277440084762E-42 
