# vtk DataFile Version 2.0
Pressure Field Data 
ASCII 
DATASET UNSTRUCTURED_GRID 

POINTS 289 double 

    0.0000000000000000E+00     0.0000000000000000E+00     0.0000000000000000E+00 
    1.0000000000000000E+00     0.0000000000000000E+00     0.0000000000000000E+00 
    1.0000000000000000E+00     1.0000000000000000E+00     0.0000000000000000E+00 
    0.0000000000000000E+00     1.0000000000000000E+00     0.0000000000000000E+00 
    6.2499999999872928E-02     0.0000000000000000E+00     0.0000000000000000E+00 
    1.2499999999977310E-01     0.0000000000000000E+00     0.0000000000000000E+00 
    1.8749999999959341E-01     0.0000000000000000E+00     0.0000000000000000E+00 
    2.4999999999941089E-01     0.0000000000000000E+00     0.0000000000000000E+00 
    3.1249999999922851E-01     0.0000000000000000E+00     0.0000000000000000E+00 
    3.7499999999904610E-01     0.0000000000000000E+00     0.0000000000000000E+00 
    4.3749999999886358E-01     0.0000000000000000E+00     0.0000000000000000E+00 
    4.9999999999869210E-01     0.0000000000000000E+00     0.0000000000000000E+00 
    5.6249999999884603E-01     0.0000000000000000E+00     0.0000000000000000E+00 
    6.2499999999901090E-01     0.0000000000000000E+00     0.0000000000000000E+00 
    6.8749999999917577E-01     0.0000000000000000E+00     0.0000000000000000E+00 
    7.4999999999934064E-01     0.0000000000000000E+00     0.0000000000000000E+00 
    8.1249999999950551E-01     0.0000000000000000E+00     0.0000000000000000E+00 
    8.7499999999967026E-01     0.0000000000000000E+00     0.0000000000000000E+00 
    9.3749999999983513E-01     0.0000000000000000E+00     0.0000000000000000E+00 
    1.0000000000000000E+00     6.2499999999872928E-02     0.0000000000000000E+00 
    1.0000000000000000E+00     1.2499999999977310E-01     0.0000000000000000E+00 
    1.0000000000000000E+00     1.8749999999959341E-01     0.0000000000000000E+00 
    1.0000000000000000E+00     2.4999999999941089E-01     0.0000000000000000E+00 
    1.0000000000000000E+00     3.1249999999922851E-01     0.0000000000000000E+00 
    1.0000000000000000E+00     3.7499999999904610E-01     0.0000000000000000E+00 
    1.0000000000000000E+00     4.3749999999886358E-01     0.0000000000000000E+00 
    1.0000000000000000E+00     4.9999999999869210E-01     0.0000000000000000E+00 
    1.0000000000000000E+00     5.6249999999884603E-01     0.0000000000000000E+00 
    1.0000000000000000E+00     6.2499999999901090E-01     0.0000000000000000E+00 
    1.0000000000000000E+00     6.8749999999917577E-01     0.0000000000000000E+00 
    1.0000000000000000E+00     7.4999999999934064E-01     0.0000000000000000E+00 
    1.0000000000000000E+00     8.1249999999950551E-01     0.0000000000000000E+00 
    1.0000000000000000E+00     8.7499999999967026E-01     0.0000000000000000E+00 
    1.0000000000000000E+00     9.3749999999983513E-01     0.0000000000000000E+00 
    9.3749999999973976E-01     1.0000000000000000E+00     0.0000000000000000E+00 
    8.7499999999950118E-01     1.0000000000000000E+00     0.0000000000000000E+00 
    8.1249999999991318E-01     1.0000000000000000E+00     0.0000000000000000E+00 
    7.5000000000034706E-01     1.0000000000000000E+00     0.0000000000000000E+00 
    6.8750000000078049E-01     1.0000000000000000E+00     0.0000000000000000E+00 
    6.2500000000121403E-01     1.0000000000000000E+00     0.0000000000000000E+00 
    5.6250000000164757E-01     1.0000000000000000E+00     0.0000000000000000E+00 
    5.0000000000205946E-01     1.0000000000000000E+00     0.0000000000000000E+00 
    4.3750000000182099E-01     1.0000000000000000E+00     0.0000000000000000E+00 
    3.7500000000156092E-01     1.0000000000000000E+00     0.0000000000000000E+00 
    3.1250000000130068E-01     1.0000000000000000E+00     0.0000000000000000E+00 
    2.5000000000104050E-01     1.0000000000000000E+00     0.0000000000000000E+00 
    1.8750000000078040E-01     1.0000000000000000E+00     0.0000000000000000E+00 
    1.2500000000052031E-01     1.0000000000000000E+00     0.0000000000000000E+00 
    6.2500000000260125E-02     1.0000000000000000E+00     0.0000000000000000E+00 
    0.0000000000000000E+00     9.3749999999973976E-01     0.0000000000000000E+00 
    0.0000000000000000E+00     8.7499999999950118E-01     0.0000000000000000E+00 
    0.0000000000000000E+00     8.1249999999991318E-01     0.0000000000000000E+00 
    0.0000000000000000E+00     7.5000000000034706E-01     0.0000000000000000E+00 
    0.0000000000000000E+00     6.8750000000078049E-01     0.0000000000000000E+00 
    0.0000000000000000E+00     6.2500000000121403E-01     0.0000000000000000E+00 
    0.0000000000000000E+00     5.6250000000164757E-01     0.0000000000000000E+00 
    0.0000000000000000E+00     5.0000000000205946E-01     0.0000000000000000E+00 
    0.0000000000000000E+00     4.3750000000182099E-01     0.0000000000000000E+00 
    0.0000000000000000E+00     3.7500000000156092E-01     0.0000000000000000E+00 
    0.0000000000000000E+00     3.1250000000130068E-01     0.0000000000000000E+00 
    0.0000000000000000E+00     2.5000000000104050E-01     0.0000000000000000E+00 
    0.0000000000000000E+00     1.8750000000078040E-01     0.0000000000000000E+00 
    0.0000000000000000E+00     1.2500000000052031E-01     0.0000000000000000E+00 
    0.0000000000000000E+00     6.2500000000260125E-02     0.0000000000000000E+00 
    6.2499999999897131E-02     6.2500000000235922E-02     0.0000000000000000E+00 
    6.2499999999921327E-02     1.2500000000047351E-01     0.0000000000000000E+00 
    6.2499999999945530E-02     1.8750000000070621E-01     0.0000000000000000E+00 
    6.2499999999969733E-02     2.5000000000093858E-01     0.0000000000000000E+00 
    6.2499999999993928E-02     3.1250000000117117E-01     0.0000000000000000E+00 
    6.2500000000018124E-02     3.7500000000140382E-01     0.0000000000000000E+00 
    6.2500000000042327E-02     4.3750000000163619E-01     0.0000000000000000E+00 
    6.2500000000066530E-02     5.0000000000184897E-01     0.0000000000000000E+00 
    6.2500000000090733E-02     5.6250000000147260E-01     0.0000000000000000E+00 
    6.2500000000114922E-02     6.2500000000107636E-01     0.0000000000000000E+00 
    6.2500000000139125E-02     6.8750000000068034E-01     0.0000000000000000E+00 
    6.2500000000163328E-02     7.5000000000028411E-01     0.0000000000000000E+00 
    6.2500000000187531E-02     8.1249999999988787E-01     0.0000000000000000E+00 
    6.2500000000211720E-02     8.7499999999951172E-01     0.0000000000000000E+00 
    6.2500000000235922E-02     9.3749999999974565E-01     0.0000000000000000E+00 
    1.2499999999981980E-01     6.2500000000211733E-02     0.0000000000000000E+00 
    1.2499999999986650E-01     1.2500000000042691E-01     0.0000000000000000E+00 
    1.2499999999991319E-01     1.8750000000063199E-01     0.0000000000000000E+00 
    1.2499999999995989E-01     2.5000000000083678E-01     0.0000000000000000E+00 
    1.2500000000000661E-01     3.1250000000104172E-01     0.0000000000000000E+00 
    1.2500000000005329E-01     3.7500000000124661E-01     0.0000000000000000E+00 
    1.2500000000010000E-01     4.3750000000145117E-01     0.0000000000000000E+00 
    1.2500000000014669E-01     5.0000000000163858E-01     0.0000000000000000E+00 
    1.2500000000019340E-01     5.6250000000129741E-01     0.0000000000000000E+00 
    1.2500000000024011E-01     6.2500000000093847E-01     0.0000000000000000E+00 
    1.2500000000028680E-01     6.8750000000057998E-01     0.0000000000000000E+00 
    1.2500000000033351E-01     7.5000000000022127E-01     0.0000000000000000E+00 
    1.2500000000038020E-01     8.1249999999986211E-01     0.0000000000000000E+00 
    1.2500000000042691E-01     8.7499999999952238E-01     0.0000000000000000E+00 
    1.2500000000047359E-01     9.3749999999975164E-01     0.0000000000000000E+00 
    1.8749999999966760E-01     6.2500000000187531E-02     0.0000000000000000E+00 
    1.8749999999974179E-01     1.2500000000038020E-01     0.0000000000000000E+00 
    1.8749999999981601E-01     1.8750000000055780E-01     0.0000000000000000E+00 
    1.8749999999989009E-01     2.5000000000073502E-01     0.0000000000000000E+00 
    1.8749999999996431E-01     3.1250000000091221E-01     0.0000000000000000E+00 
    1.8750000000003850E-01     3.7500000000108941E-01     0.0000000000000000E+00 
    1.8750000000011269E-01     4.3750000000126649E-01     0.0000000000000000E+00 
    1.8750000000018691E-01     5.0000000000142808E-01     0.0000000000000000E+00 
    1.8750000000026110E-01     5.6250000000112244E-01     0.0000000000000000E+00 
    1.8750000000033529E-01     6.2500000000080080E-01     0.0000000000000000E+00 
    1.8750000000040951E-01     6.8750000000047962E-01     0.0000000000000000E+00 
    1.8750000000048361E-01     7.5000000000015843E-01     0.0000000000000000E+00 
    1.8750000000055780E-01     8.1249999999983680E-01     0.0000000000000000E+00 
    1.8750000000063199E-01     8.7499999999953304E-01     0.0000000000000000E+00 
    1.8750000000070621E-01     9.3749999999975764E-01     0.0000000000000000E+00 
    2.4999999999951281E-01     6.2500000000163314E-02     0.0000000000000000E+00 
    2.4999999999961461E-01     1.2500000000033351E-01     0.0000000000000000E+00 
    2.4999999999971650E-01     1.8750000000048361E-01     0.0000000000000000E+00 
    2.4999999999981831E-01     2.5000000000063310E-01     0.0000000000000000E+00 
    2.4999999999992020E-01     3.1250000000078260E-01     0.0000000000000000E+00 
    2.5000000000002198E-01     3.7500000000093209E-01     0.0000000000000000E+00 
    2.5000000000012390E-01     4.3750000000108180E-01     0.0000000000000000E+00 
    2.5000000000022571E-01     5.0000000000121769E-01     0.0000000000000000E+00 
    2.5000000000032763E-01     5.6250000000094724E-01     0.0000000000000000E+00 
    2.5000000000042938E-01     6.2500000000066314E-01     0.0000000000000000E+00 
    2.5000000000053119E-01     6.8750000000037925E-01     0.0000000000000000E+00 
[...]
CELL_DATA 256 
SCALARS Pressure double 1 
LOOKUP_TABLE default 

    2.6261881916592746E+00 
    2.5078554342077024E+00 
    2.4192370236680731E+00 
    2.3447476701800336E+00 
    2.2782131656611893E+00 
    2.2159577418356329E+00 
    2.1553622388549303E+00 
    2.0955265614997050E+00 
    2.0347446265162223E+00 
    1.9707807480442585E+00 
    1.9130452912677740E+00 
    1.8689791587840949E+00 
    1.8348025005303961E+00 
    1.8092448189399537E+00 
    1.7922252389464179E+00 
    1.7837239072750835E+00 
    2.5078855990076776E+00 
    2.4537151035394991E+00 
    2.3890764063571912E+00 
    2.3250597768239829E+00 
    2.2635574793585365E+00 
    2.2036560262637135E+00 
    2.1444302535868629E+00 
    2.0851894852958650E+00 
    2.0240654615567655E+00 
    1.9599109286124305E+00 
    1.9034434190836218E+00 
    1.8601800548696630E+00 
    1.8262026853180822E+00 
    1.8007218117282027E+00 
    1.7837209706917097E+00 
    1.7752242931716671E+00 
    2.4193174093775442E+00 
    2.3891197495285552E+00 
    2.3431657726197748E+00 
    2.2909759489192845E+00 
    2.2361553233885316E+00 
    2.1800671321465761E+00 
    2.1230656039799882E+00 
    2.0646098987058288E+00 
    2.0025784340712134E+00 
    1.9388883946956355E+00 
    1.8849643787941333E+00 
    1.8428148264092741E+00 
    1.8091436281374402E+00 
    1.7837557654802232E+00 
    1.7667528958332301E+00 
    1.7582396456730240E+00 
    2.3448935564798541E+00 
    2.3251438055987057E+00 
    2.2910087393351288E+00 
    2.2478596672592226E+00 
    2.1992247586055411E+00 
    2.1471493343243067E+00 
    2.0923378115514804E+00 
    2.0341412654912903E+00 
    1.9708744015368227E+00 
    1.9092192772196395E+00 
    1.8584674680855209E+00 
    1.8172536121998255E+00 
    1.7838355021679797E+00 
    1.7584421659124019E+00 
    1.7413403137281276E+00 
    1.7327503248786131E+00 
    2.2783309114671972E+00 
    2.2636280845008154E+00 
    2.2361972422384548E+00 
    2.1992434747873810E+00 
    2.1554659537256984E+00 
    2.1065773782536090E+00 
    2.0531354494306751E+00 
    1.9939079740769190E+00 
    1.9303995483694139E+00 
    1.8726921890025285E+00 
    1.8246470161078514E+00 
    1.7839638809623242E+00 
    1.7505339594811320E+00 
    1.7248762954974413E+00 
    1.7074675647801349E+00 
    1.6986823647886977E+00 
    2.2159937660822191E+00 
    2.2036909228425312E+00 
    2.1801053357518612E+00 
    2.1471776305822980E+00 
    2.1065917008276314E+00 
    2.0594514410941360E+00 
    2.0055315194312024E+00 
    1.9447759554705681E+00 
    1.8841637030508727E+00 
    1.8308023058606333E+00 
    1.7841432551581768E+00 
    1.7434427317705263E+00 
    1.7094866674679348E+00 
    1.6830974868571087E+00 
    1.6650225422066491E+00 
    1.6558443684121613E+00 
    2.1553992188372755E+00 
    2.1444693398573014E+00 
    2.1231077057821963E+00 
    2.0923731669484380E+00 
    2.0531585596672270E+00 
    2.0055422997056542E+00 
    1.9498474038400402E+00 
    1.8908170759606635E+00 
    1.8352201589144221E+00 
    1.7843698513113857E+00 
    1.7377400932551559E+00 
    1.6961917089960163E+00 
    1.6608931212346352E+00 
    1.6330291283677685E+00 
    1.6137084969795170E+00 
    1.6038173772428379E+00 
    2.0955836392217813E+00 
    2.0852431190168033E+00 
    2.0646613413104618E+00 
    2.0341855799539670E+00 
    1.9939418698852469E+00 
    1.9448001400871884E+00 
    1.8908314723077988E+00 
    1.8369140899666614E+00 
    1.7845771277690303E+00 
    1.7340445859697411E+00 
    1.6862933345257416E+00 
    1.6427355994703263E+00 
    1.6049082618657815E+00 
    1.5744602444816516E+00 
    1.5530087717234287E+00 
    1.5419039728308876E+00 
    2.0348139761187309E+00 
    2.0241311757841811E+00 
    2.0026415440660941E+00 
    1.9709327559540353E+00 
    1.9304518377068396E+00 
    1.8842088138862962E+00 
    1.8352562423949570E+00 
    1.7845978905822546E+00 
    1.7327783479882426E+00 
    1.6809813478290823E+00 
    1.6306926605549887E+00 
    1.5835671665190953E+00 
    1.5415573292568265E+00 
    1.5069092501143504E+00 
    1.4819857853652301E+00 
    1.4688884227894277E+00 
    1.9708669736291700E+00 
    1.9599999564566049E+00 
    1.9389807465440139E+00 
    1.9093099410686287E+00 
    1.8727761182105134E+00 
    1.8308757836690970E+00 
    1.7844331209926465E+00 
    1.7340908323357671E+00 
    1.6810061966744554E+00 
    1.6264678745072556E+00 
    1.5719507542935218E+00 
    1.5192838033206115E+00 
    1.4708405546890833E+00 
    1.4296322081155610E+00 
    1.3991463473179035E+00 
    1.3827808216086470E+00 
    1.9131857258103888E+00 
    1.9035831712656597E+00 
    1.8851018703145379E+00 
    1.8585980144335401E+00 
    1.8247664611735270E+00 
    1.7842493767705814E+00 
    1.7378317321582186E+00 
    1.6863671475138515E+00 
    1.6307452658823260E+00 
    1.5719787479341132E+00 
    1.5113617428237349E+00 
    1.4507558024632743E+00 
    1.3928700701611465E+00 
    1.3416121139769639E+00 
    1.3021622736176497E+00 
    1.2802921656875643E+00 
    1.8691648634968068E+00 
    1.8603610340746475E+00 
    1.8429885856210304E+00 
    1.8174171204823666E+00 
    1.7841144195275245E+00 
    1.7435783234840918E+00 
    1.6963108488211169E+00 
    1.6428362348701968E+00 
    1.5836459807943726E+00 
    1.5193375291520870E+00 
    1.4507819823786490E+00 
    1.3795458205541418E+00 
    1.3083212512650617E+00 
    1.2418361685629513E+00 
    1.1876514099852959E+00 
    1.1559611991234349E+00 
    1.8350173201569866E+00 
    1.8264123834193062E+00 
    1.8093451552470945E+00 
    1.7840257448504839E+00 
    1.7507103191975637E+00 
    1.7096472121288948E+00 
    1.6610365006046381E+00 
    1.6050324774184632E+00 
    1.5416592975692218E+00 
    1.4709173454106301E+00 
    1.3929194087445906E+00 
    1.3083444769881021E+00 
    1.2190567975610644E+00 
    1.1297809033272095E+00 
    1.0506757611683111E+00 
    9.9995296109103826E-01 
    1.8094787492683875E+00 
    1.8009507371114952E+00 
    1.7839763235794899E+00 
    1.7586512287318481E+00 
    1.7250713780724463E+00 
    1.6832766538817359E+00 
    1.6331907741550216E+00 
    1.5746021529427350E+00 
    1.5070286106831008E+00 
    1.4297264254555397E+00 
    1.3416791893476980E+00 
    1.2418775116332466E+00 
    1.1297993097083536E+00 
    1.0075680557392412E+00 
    8.8534046186497817E-01 
    7.9323069954449255E-01 
    1.7924672137702937E+00 
    1.7839583330434190E+00 
    1.7669822120686778E+00 
    1.7415585122705699E+00 
    1.7076721521082296E+00 
    1.6652114525941641E+00 
    1.6138796805899194E+00 
    1.5531598519757832E+00 
    1.4821143024466832E+00 
    1.3992500264109664E+00 
    1.3022395234872699E+00 
    1.1877037709795637E+00 
    1.0507059514850536E+00 
    8.8535276144871144E-01 
    6.8988307731690157E-01 
    4.9438653938332927E-01 
    1.7839618570698987E+00 
    1.7754582355988600E+00 
    1.7584661543154179E+00 
    1.7329663261762986E+00 
    1.6988852296326244E+00 
    1.6560319026069190E+00 
    1.6039871668256656E+00 
    1.5420536744034070E+00 
    1.4690158520616201E+00 
    1.3828838987972090E+00 
    1.2803702265298651E+00 
    1.1560158712274933E+00 
    9.9998690931924450E-01 
    7.9324799920357958E-01 
    4.9439232130192712E-01 
    0.0000000000000000E+00 

SCALARS Saturarion double 1 
LOOKUP_TABLE default 

    1.0000000000000000E+00 
    8.7948233705649448E-01 
    7.9695893494596715E-01 
    7.2286885657873234E-01 
    6.6642557435432237E-01 
    5.9861666435095140E-01 
    5.3682897015544773E-01 
    4.7395477186797574E-01 
    3.9997755620304315E-01 
    2.7503371405363158E-01 
    6.7456926907112094E-02 
    6.6067736680768636E-04 
    3.3690276447757572E-09 
    1.8278901922284568E-22 
    1.6188948876090698E-55 
   6.6551126953333359E-138 
    8.7947724926587767E-01 
    8.1496897850785444E-01 
    7.4971918966385453E-01 
    6.8771434944824938E-01 
    6.2985519353921138E-01 
    5.7371129062974613E-01 
    5.1756128209278263E-01 
    4.5712874041414842E-01 
    3.7918516145071757E-01 
    2.3717258315026288E-01 
    3.6208962626777794E-02 
    1.0346518649393119E-04 
    2.4682780475108318E-11 
    4.3918944058577786E-28 
    2.3722601677942801E-70 
   3.7192529394292381E-177 
    7.9694139940300890E-01 
    7.4970971775855788E-01 
    6.9788072566726966E-01 
    6.4651335620487271E-01 
    5.9590810290129825E-01 
    5.4563532277296400E-01 
    4.9328812278028095E-01 
    4.3384248429583577E-01 
    3.4880572151214201E-01 
    1.7021733622596338E-01 
    9.8514221825849665E-03 
    2.4923045460349088E-06 
    1.0778612625232431E-15 
    7.8893903149231546E-40 
   5.3128222736915826E-102 
   7.7634131395901940E-263 
    7.2282940454981026E-01 
    6.8769453982276252E-01 
    6.4650682452859232E-01 
    6.0375856888804946E-01 
    5.5998896198417414E-01 
    5.1483578923408979E-01 
    4.6552712890437947E-01 
    4.0439348555141164E-01 
    2.9866377908304048E-01 
    7.6934129964843445E-02 
    6.4833641512393567E-04 
    1.1958943456395896E-09 
    7.3329172601131141E-25 
    2.9287087309775945E-65 
   3.0769948766456232E-173 
    0.0000000000000000E+00 
    6.6430430923968975E-01 
    6.2964487609246012E-01 
    5.9586906434622378E-01 
    5.5997840762378548E-01 
    5.2175522595922352E-01 
    4.8023673638410458E-01 
    4.3110757304364333E-01 
    3.6031471892158928E-01 
    1.9530855784736834E-01 
    1.1294133759535321E-02 
    1.6851880077627377E-06 
    4.3254975812916274E-17 
    2.7196083969589086E-46 
   5.8384012655809458E-127 
    0.0000000000000000E+00 
    0.0000000000000000E+00 
    5.9774037545297753E-01 
    5.7352515201333976E-01 
    5.4558194144472083E-01 
    5.1481406490501291E-01 
    4.8022671313050036E-01 
    4.4275186224739188E-01 
    3.8723228249117758E-01 
    2.7831011534840144E-01 
    4.7708033842328038E-02 
    7.6701582055559346E-05 
    5.0133776053400159E-13 
    1.4597627701638552E-36 
   2.2626272253791426E-104 
   5.8216750278764376E-300 
    0.0000000000000000E+00 
    0.0000000000000000E+00 
    5.3638478150241720E-01 
    5.1740827576964588E-01 
    4.9322310053791962E-01 
    4.6549045854611759E-01 
    4.3108174283064726E-01 
    3.8721436047323343E-01 
    3.0480935044460578E-01 
    8.9030738042943230E-02 
    4.6708144063594553E-04 
    3.3295166102437089E-11 
    1.5608847972291774E-32 
    9.9177205139207974E-96 
   8.8953599955034596E-282 
    0.0000000000000000E+00 
    0.0000000000000000E+00 
    0.0000000000000000E+00 
    4.7366937078633786E-01 
    4.5698067251336705E-01 
    4.3375159456614909E-01 
    4.0432366433586542E-01 
    3.6024635024064322E-01 
    2.7822160495323733E-01 
    8.8980113799810009E-02 
    7.7030668920303894E-04 
    1.3045328230600373E-10 
    2.9867506794518139E-31 
    4.6443908546917656E-93 
   2.7872145846256722E-276 
    0.0000000000000000E+00 
    0.0000000000000000E+00 
    0.0000000000000000E+00 
    0.0000000000000000E+00 
    3.9934097167862104E-01 
    3.7897538652890800E-01 
    3.4864639149559107E-01 
    2.9849000713623874E-01 
    1.9508982472143357E-01 
    4.7616124458770101E-02 
    4.6598032324626434E-04 
    1.3025392603301877E-10 
    5.7496336826752050E-31 
    2.3920100089068586E-92 
   8.9795867166533892E-275 
    0.0000000000000000E+00 
    0.0000000000000000E+00 
    0.0000000000000000E+00 
    0.0000000000000000E+00 
    0.0000000000000000E+00 
    2.7456507933251906E-01 
    2.3683802444388283E-01 
    1.6990446690500693E-01 
    7.6726783939150209E-02 
    1.1246927356364622E-02 
    7.6263100122695275E-05 
    3.3099036536760517E-11 
    2.9741230276011271E-31 
    2.3867654314351418E-92 
   1.8684100574671696E-274 
    0.0000000000000000E+00 
    0.0000000000000000E+00 
    0.0000000000000000E+00 
    0.0000000000000000E+00 
    0.0000000000000000E+00 
    0.0000000000000000E+00 
    6.7134720128055311E-02 
    3.6033355145862991E-02 
    9.7918591766715541E-03 
    6.4323093730943044E-04 
    1.6669329544223736E-06 
    4.9437402793479142E-13 
    1.5399542444636114E-32 
    4.6000013166721250E-93 
   8.9287219451952013E-275 
    0.0000000000000000E+00 
    0.0000000000000000E+00 
    0.0000000000000000E+00 
    0.0000000000000000E+00 
    0.0000000000000000E+00 
    0.0000000000000000E+00 
    0.0000000000000000E+00 
    6.5230215942440836E-04 
    1.0212497307155812E-04 
    2.4536758252990672E-06 
    1.1723775113768784E-09 
    4.2109111993729244E-17 
    1.4124471865305514E-36 
    9.6234634422814841E-96 
   2.7295001096378353E-276 
    0.0000000000000000E+00 
    0.0000000000000000E+00 
    0.0000000000000000E+00 
    0.0000000000000000E+00 
    0.0000000000000000E+00 
    0.0000000000000000E+00 
    0.0000000000000000E+00 
    0.0000000000000000E+00 
    3.2685688071041237E-09 
    2.3910790483304912E-11 
    1.0373975793816187E-15 
    6.9886963762721547E-25 
    2.5496744737371602E-46 
   2.0970431435052521E-104 
   8.3295203547890301E-282 
    0.0000000000000000E+00 
    0.0000000000000000E+00 
    0.0000000000000000E+00 
    0.0000000000000000E+00 
    0.0000000000000000E+00 
    0.0000000000000000E+00 
    0.0000000000000000E+00 
    0.0000000000000000E+00 
    0.0000000000000000E+00 
    1.7029980944273076E-22 
    4.0693860812403355E-28 
    7.1982685565823095E-40 
    2.6094065174658530E-65 
   5.0123583796287757E-127 
   4.9038445539406318E-300 
    0.0000000000000000E+00 
    0.0000000000000000E+00 
    0.0000000000000000E+00 
    0.0000000000000000E+00 
    0.0000000000000000E+00 
    0.0000000000000000E+00 
    0.0000000000000000E+00 
    0.0000000000000000E+00 
    0.0000000000000000E+00 
    0.0000000000000000E+00 
    1.3723393138355143E-55 
    1.9784963921617305E-70 
   4.2795323478801467E-102 
   2.3411284781024130E-173 
    0.0000000000000000E+00 
    0.0000000000000000E+00 
    0.0000000000000000E+00 
    0.0000000000000000E+00 
    0.0000000000000000E+00 
    0.0000000000000000E+00 
    0.0000000000000000E+00 
    0.0000000000000000E+00 
    0.0000000000000000E+00 
    0.0000000000000000E+00 
    0.0000000000000000E+00 
    0.0000000000000000E+00 
   4.5095685553691459E-138 
   2.4272238593212395E-177 
   4.6729619507254303E-263 
    0.0000000000000000E+00 
    0.0000000000000000E+00 
    0.0000000000000000E+00 
    0.0000000000000000E+00 
    0.0000000000000000E+00 
    0.0000000000000000E+00 
    0.0000000000000000E+00 
    0.0000000000000000E+00 
    0.0000000000000000E+00 
    0.0000000000000000E+00 
    0.0000000000000000E+00 
    0.0000000000000000E+00 
    0.0000000000000000E+00 
