# vtk DataFile Version 2.0
Pressure Field Data 
ASCII 
DATASET UNSTRUCTURED_GRID 

POINTS 289 double 

    0.0000000000000000E+00     0.0000000000000000E+00     0.0000000000000000E+00 
    1.0000000000000000E+00     0.0000000000000000E+00     0.0000000000000000E+00 
    1.0000000000000000E+00     1.0000000000000000E+00     0.0000000000000000E+00 
    0.0000000000000000E+00     1.0000000000000000E+00     0.0000000000000000E+00 
    6.2499999999872928E-02     0.0000000000000000E+00     0.0000000000000000E+00 
    1.2499999999977310E-01     0.0000000000000000E+00     0.0000000000000000E+00 
    1.8749999999959341E-01     0.0000000000000000E+00     0.0000000000000000E+00 
    2.4999999999941089E-01     0.0000000000000000E+00     0.0000000000000000E+00 
    3.1249999999922851E-01     0.0000000000000000E+00     0.0000000000000000E+00 
    3.7499999999904610E-01     0.0000000000000000E+00     0.0000000000000000E+00 
    4.3749999999886358E-01     0.0000000000000000E+00     0.0000000000000000E+00 
    4.9999999999869210E-01     0.0000000000000000E+00     0.0000000000000000E+00 
    5.6249999999884603E-01     0.0000000000000000E+00     0.0000000000000000E+00 
    6.2499999999901090E-01     0.0000000000000000E+00     0.0000000000000000E+00 
    6.8749999999917577E-01     0.0000000000000000E+00     0.0000000000000000E+00 
    7.4999999999934064E-01     0.0000000000000000E+00     0.0000000000000000E+00 
    8.1249999999950551E-01     0.0000000000000000E+00     0.0000000000000000E+00 
    8.7499999999967026E-01     0.0000000000000000E+00     0.0000000000000000E+00 
    9.3749999999983513E-01     0.0000000000000000E+00     0.0000000000000000E+00 
    1.0000000000000000E+00     6.2499999999872928E-02     0.0000000000000000E+00 
    1.0000000000000000E+00     1.2499999999977310E-01     0.0000000000000000E+00 
    1.0000000000000000E+00     1.8749999999959341E-01     0.0000000000000000E+00 
    1.0000000000000000E+00     2.4999999999941089E-01     0.0000000000000000E+00 
    1.0000000000000000E+00     3.1249999999922851E-01     0.0000000000000000E+00 
    1.0000000000000000E+00     3.7499999999904610E-01     0.0000000000000000E+00 
    1.0000000000000000E+00     4.3749999999886358E-01     0.0000000000000000E+00 
    1.0000000000000000E+00     4.9999999999869210E-01     0.0000000000000000E+00 
    1.0000000000000000E+00     5.6249999999884603E-01     0.0000000000000000E+00 
    1.0000000000000000E+00     6.2499999999901090E-01     0.0000000000000000E+00 
    1.0000000000000000E+00     6.8749999999917577E-01     0.0000000000000000E+00 
    1.0000000000000000E+00     7.4999999999934064E-01     0.0000000000000000E+00 
    1.0000000000000000E+00     8.1249999999950551E-01     0.0000000000000000E+00 
    1.0000000000000000E+00     8.7499999999967026E-01     0.0000000000000000E+00 
    1.0000000000000000E+00     9.3749999999983513E-01     0.0000000000000000E+00 
    9.3749999999973976E-01     1.0000000000000000E+00     0.0000000000000000E+00 
    8.7499999999950118E-01     1.0000000000000000E+00     0.0000000000000000E+00 
    8.1249999999991318E-01     1.0000000000000000E+00     0.0000000000000000E+00 
    7.5000000000034706E-01     1.0000000000000000E+00     0.0000000000000000E+00 
    6.8750000000078049E-01     1.0000000000000000E+00     0.0000000000000000E+00 
    6.2500000000121403E-01     1.0000000000000000E+00     0.0000000000000000E+00 
    5.6250000000164757E-01     1.0000000000000000E+00     0.0000000000000000E+00 
    5.0000000000205946E-01     1.0000000000000000E+00     0.0000000000000000E+00 
    4.3750000000182099E-01     1.0000000000000000E+00     0.0000000000000000E+00 
    3.7500000000156092E-01     1.0000000000000000E+00     0.0000000000000000E+00 
    3.1250000000130068E-01     1.0000000000000000E+00     0.0000000000000000E+00 
    2.5000000000104050E-01     1.0000000000000000E+00     0.0000000000000000E+00 
    1.8750000000078040E-01     1.0000000000000000E+00     0.0000000000000000E+00 
    1.2500000000052031E-01     1.0000000000000000E+00     0.0000000000000000E+00 
    6.2500000000260125E-02     1.0000000000000000E+00     0.0000000000000000E+00 
    0.0000000000000000E+00     9.3749999999973976E-01     0.0000000000000000E+00 
    0.0000000000000000E+00     8.7499999999950118E-01     0.0000000000000000E+00 
    0.0000000000000000E+00     8.1249999999991318E-01     0.0000000000000000E+00 
    0.0000000000000000E+00     7.5000000000034706E-01     0.0000000000000000E+00 
    0.0000000000000000E+00     6.8750000000078049E-01     0.0000000000000000E+00 
    0.0000000000000000E+00     6.2500000000121403E-01     0.0000000000000000E+00 
    0.0000000000000000E+00     5.6250000000164757E-01     0.0000000000000000E+00 
    0.0000000000000000E+00     5.0000000000205946E-01     0.0000000000000000E+00 
    0.0000000000000000E+00     4.3750000000182099E-01     0.0000000000000000E+00 
    0.0000000000000000E+00     3.7500000000156092E-01     0.0000000000000000E+00 
    0.0000000000000000E+00     3.1250000000130068E-01     0.0000000000000000E+00 
    0.0000000000000000E+00     2.5000000000104050E-01     0.0000000000000000E+00 
    0.0000000000000000E+00     1.8750000000078040E-01     0.0000000000000000E+00 
    0.0000000000000000E+00     1.2500000000052031E-01     0.0000000000000000E+00 
    0.0000000000000000E+00     6.2500000000260125E-02     0.0000000000000000E+00 
    6.2499999999897131E-02     6.2500000000235922E-02     0.0000000000000000E+00 
    6.2499999999921327E-02     1.2500000000047351E-01     0.0000000000000000E+00 
    6.2499999999945530E-02     1.8750000000070621E-01     0.0000000000000000E+00 
    6.2499999999969733E-02     2.5000000000093858E-01     0.0000000000000000E+00 
    6.2499999999993928E-02     3.1250000000117117E-01     0.0000000000000000E+00 
    6.2500000000018124E-02     3.7500000000140382E-01     0.0000000000000000E+00 
    6.2500000000042327E-02     4.3750000000163619E-01     0.0000000000000000E+00 
    6.2500000000066530E-02     5.0000000000184897E-01     0.0000000000000000E+00 
    6.2500000000090733E-02     5.6250000000147260E-01     0.0000000000000000E+00 
    6.2500000000114922E-02     6.2500000000107636E-01     0.0000000000000000E+00 
    6.2500000000139125E-02     6.8750000000068034E-01     0.0000000000000000E+00 
    6.2500000000163328E-02     7.5000000000028411E-01     0.0000000000000000E+00 
    6.2500000000187531E-02     8.1249999999988787E-01     0.0000000000000000E+00 
    6.2500000000211720E-02     8.7499999999951172E-01     0.0000000000000000E+00 
    6.2500000000235922E-02     9.3749999999974565E-01     0.0000000000000000E+00 
    1.2499999999981980E-01     6.2500000000211733E-02     0.0000000000000000E+00 
    1.2499999999986650E-01     1.2500000000042691E-01     0.0000000000000000E+00 
    1.2499999999991319E-01     1.8750000000063199E-01     0.0000000000000000E+00 
    1.2499999999995989E-01     2.5000000000083678E-01     0.0000000000000000E+00 
    1.2500000000000661E-01     3.1250000000104172E-01     0.0000000000000000E+00 
    1.2500000000005329E-01     3.7500000000124661E-01     0.0000000000000000E+00 
    1.2500000000010000E-01     4.3750000000145117E-01     0.0000000000000000E+00 
    1.2500000000014669E-01     5.0000000000163858E-01     0.0000000000000000E+00 
    1.2500000000019340E-01     5.6250000000129741E-01     0.0000000000000000E+00 
    1.2500000000024011E-01     6.2500000000093847E-01     0.0000000000000000E+00 
    1.2500000000028680E-01     6.8750000000057998E-01     0.0000000000000000E+00 
    1.2500000000033351E-01     7.5000000000022127E-01     0.0000000000000000E+00 
    1.2500000000038020E-01     8.1249999999986211E-01     0.0000000000000000E+00 
    1.2500000000042691E-01     8.7499999999952238E-01     0.0000000000000000E+00 
    1.2500000000047359E-01     9.3749999999975164E-01     0.0000000000000000E+00 
    1.8749999999966760E-01     6.2500000000187531E-02     0.0000000000000000E+00 
    1.8749999999974179E-01     1.2500000000038020E-01     0.0000000000000000E+00 
    1.8749999999981601E-01     1.8750000000055780E-01     0.0000000000000000E+00 
    1.8749999999989009E-01     2.5000000000073502E-01     0.0000000000000000E+00 
    1.8749999999996431E-01     3.1250000000091221E-01     0.0000000000000000E+00 
    1.8750000000003850E-01     3.7500000000108941E-01     0.0000000000000000E+00 
    1.8750000000011269E-01     4.3750000000126649E-01     0.0000000000000000E+00 
    1.8750000000018691E-01     5.0000000000142808E-01     0.0000000000000000E+00 
    1.8750000000026110E-01     5.6250000000112244E-01     0.0000000000000000E+00 
    1.8750000000033529E-01     6.2500000000080080E-01     0.0000000000000000E+00 
    1.8750000000040951E-01     6.8750000000047962E-01     0.0000000000000000E+00 
    1.8750000000048361E-01     7.5000000000015843E-01     0.0000000000000000E+00 
    1.8750000000055780E-01     8.1249999999983680E-01     0.0000000000000000E+00 
    1.8750000000063199E-01     8.7499999999953304E-01     0.0000000000000000E+00 
    1.8750000000070621E-01     9.3749999999975764E-01     0.0000000000000000E+00 
    2.4999999999951281E-01     6.2500000000163314E-02     0.0000000000000000E+00 
    2.4999999999961461E-01     1.2500000000033351E-01     0.0000000000000000E+00 
    2.4999999999971650E-01     1.8750000000048361E-01     0.0000000000000000E+00 
    2.4999999999981831E-01     2.5000000000063310E-01     0.0000000000000000E+00 
    2.4999999999992020E-01     3.1250000000078260E-01     0.0000000000000000E+00 
    2.5000000000002198E-01     3.7500000000093209E-01     0.0000000000000000E+00 
    2.5000000000012390E-01     4.3750000000108180E-01     0.0000000000000000E+00 
    2.5000000000022571E-01     5.0000000000121769E-01     0.0000000000000000E+00 
    2.5000000000032763E-01     5.6250000000094724E-01     0.0000000000000000E+00 
    2.5000000000042938E-01     6.2500000000066314E-01     0.0000000000000000E+00 
    2.5000000000053119E-01     6.8750000000037925E-01     0.0000000000000000E+00 
[...]
CELL_DATA 256 
SCALARS Pressure double 1 
LOOKUP_TABLE default 

    2.4894730336634017E+00 
    2.3765360452576330E+00 
    2.2966840499034173E+00 
    2.2316483915208520E+00 
    2.1758509271286419E+00 
    2.1256934215332812E+00 
    2.0777322434152756E+00 
    2.0320414117381871E+00 
    1.9885489675296588E+00 
    1.9468272614660924E+00 
    1.9058256752871110E+00 
    1.8641699662202067E+00 
    1.8273795878803398E+00 
    1.8014082674096619E+00 
    1.7846534003209085E+00 
    1.7762794670002739E+00 
    2.3765753777993672E+00 
    2.3270375034601858E+00 
    2.2701381152422795E+00 
    2.2148906570471669E+00 
    2.1637376418933179E+00 
    2.1155553603722335E+00 
    2.0688862582226752E+00 
    2.0240097048627876E+00 
    1.9808423741938648E+00 
    1.9390604989352218E+00 
    1.8977329886022889E+00 
    1.8555349416149787E+00 
    1.8188227083150006E+00 
    1.7930463156684133E+00 
    1.7762887822469982E+00 
    1.7679079631801651E+00 
    2.2967990980803474E+00 
    2.2702006479248587E+00 
    2.2303504811692765E+00 
    2.1861704950681466E+00 
    2.1412068111490443E+00 
    2.0962879198944169E+00 
    2.0518129801559652E+00 
    2.0081874117855731E+00 
    1.9654917305190740E+00 
    1.9235878164164486E+00 
    1.8815129498934100E+00 
    1.8384242825072652E+00 
    1.8019268191995070E+00 
    1.7763953272497337E+00 
    1.7595882120566144E+00 
    1.7511679989540430E+00 
    2.2318825454871680E+00 
    2.2150181152440949E+00 
    2.1862142208445920E+00 
    2.1505847261299227E+00 
    2.1111703879593384E+00 
    2.0698447554816473E+00 
    2.0277014267899394E+00 
    1.9853124140876739E+00 
    1.9429891532514070E+00 
    1.9006840003097702E+00 
    1.8572006550552218E+00 
    1.8130575636455266E+00 
    1.7769400653003629E+00 
    1.7515162364983292E+00 
    1.7345445801297332E+00 
    1.7260173917528017E+00 
    2.1760055938790694E+00 
    2.1638147544799335E+00 
    2.1412426524349151E+00 
    2.1111826356677263E+00 
    2.0760850452045894E+00 
    2.0378795290564398E+00 
    1.9977305091182356E+00 
    1.9562456862617825E+00 
    1.9138983959569609E+00 
    1.8706307867252916E+00 
    1.8249000394638959E+00 
    1.7797503442906020E+00 
    1.7441006921403470E+00 
    1.7184538853198583E+00 
    1.7011060686168291E+00 
    1.6923519678753649E+00 
    2.1256705650780705E+00 
    2.1155388169586535E+00 
    2.0962953241003284E+00 
    2.0698553321251048E+00 
    2.0378861537213382E+00 
    2.0019491300427004E+00 
    1.9630778133017825E+00 
    1.9218431602309656E+00 
    1.8787704483094807E+00 
    1.8335258348765213E+00 
    1.7848063731469304E+00 
    1.7390426749456749E+00 
    1.7036215845633194E+00 
    1.6771987234260954E+00 
    1.6591233993336616E+00 
    1.6499486414263527E+00 
    2.0777054666949861E+00 
    2.0688700451426811E+00 
    2.0518167102502436E+00 
    2.0277119069544010E+00 
    1.9977388903022886E+00 
    1.9630814476156393E+00 
    1.9245861489254570E+00 
    1.8827503075281908E+00 
    1.8379322021473758E+00 
    1.7891001155812465E+00 
    1.7372725318376006E+00 
    1.6915436413826497E+00 
    1.6555862504069765E+00 
    1.6276292870584366E+00 
    1.6082679984649479E+00 
    1.5983618648647198E+00 
    2.0320536143591377E+00 
    2.0240152664674911E+00 
    2.0081981359209489E+00 
    1.9853274656274649E+00 
    1.9562601331085909E+00 
    1.9218537370706741E+00 
    1.8827564741731440E+00 
    1.8392652803692460E+00 
    1.7910291577552067E+00 
    1.7374283574558835E+00 
    1.6839656041256892E+00 
    1.6381273708205777E+00 
    1.6000617546987390E+00 
    1.5695048201595150E+00 
    1.5480000105284142E+00 
    1.5368740833524077E+00 
    1.9885696084984668E+00 
    1.9808561409934917E+00 
    1.9655103828372833E+00 
    1.9430114198347017E+00 
    1.9139205325643882E+00 
    1.8787891646342891E+00 
    1.8379477880220292E+00 
    1.7910379311436662E+00 
    1.7376618756512356E+00 
    1.6807721827587125E+00 
    1.6271174201438108E+00 
    1.5792643400516679E+00 
    1.5370806409989617E+00 
    1.5023420897558437E+00 
    1.4773763774322133E+00 
    1.4642634757579815E+00 
    1.9468318291312232E+00 
    1.9390716605043212E+00 
    1.9236118075828592E+00 
    1.9007141520160007E+00 
    1.8706622292163857E+00 
    1.8335536998295769E+00 
    1.7891249586617948E+00 
    1.7374481850938357E+00 
    1.6807849407561835E+00 
    1.6234297059831844E+00 
    1.5679818587833914E+00 
    1.5151758058432370E+00 
    1.4666504270155412E+00 
    1.4254055635390459E+00 
    1.3949100845672626E+00 
    1.3785451768940646E+00 
    1.9058423521338201E+00 
    1.8977562812981104E+00 
    1.8815469094216006E+00 
    1.8572406330064197E+00 
    1.8249421652956224E+00 
    1.7848476351185845E+00 
    1.7373132163919496E+00 
    1.6840051273091641E+00 
    1.6271497752643032E+00 
    1.5680008411005060E+00 
    1.5073889567356216E+00 
    1.4467865781734379E+00 
    1.3889215351505775E+00 
    1.3377006232444943E+00 
    1.2982913271476253E+00 
    1.2764476343391413E+00 
    1.8642089832765281E+00 
    1.8555804070882311E+00 
    1.8384798572706511E+00 
    1.8131207751250882E+00 
    1.7798182427570739E+00 
    1.7391120846187598E+00 
    1.6916113204947694E+00 
    1.6381904691359084E+00 
    1.5793171558762678E+00 
    1.5152135197091545E+00 
    1.4468051793432077E+00 
    1.3756948888395788E+00 
    1.3045943130924087E+00 
    1.2382326317121337E+00 
    1.1841562129393959E+00 
    1.1525324482944457E+00 
    1.8274639290214720E+00 
    1.8189103545657439E+00 
    1.8020197744619637E+00 
    1.7770368058284798E+00 
    1.7441984946433198E+00 
    1.7037171465771497E+00 
    1.6556762439337032E+00 
    1.6001439482974675E+00 
    1.5371512764917348E+00 
    1.4667055893483365E+00 
    1.3889575796749438E+00 
    1.3046117648349953E+00 
    1.2155501680633063E+00 
    1.1264986935456038E+00 
    1.0475962494442297E+00 
    9.9700615879421550E-01 
    1.8015276426278137E+00 
    1.7931653704662487E+00 
    1.7765144466871519E+00 
    1.7516345485188616E+00 
    1.7185699240578143E+00 
    1.6773105702473816E+00 
    1.6277345296454693E+00 
    1.5696012699297472E+00 
    1.5024263824204402E+00 
    1.4254743081325130E+00 
    1.3377505172814084E+00 
    1.2382641598911923E+00 
    1.1265129950515491E+00 
    1.0046277717550451E+00 
    8.8274555583465342E-01 
    7.9089861776918247E-01 
    1.7847859722189845E+00 
    1.7764203410053472E+00 
    1.7597185738468748E+00 
    1.7346729333068811E+00 
    1.7012312427190410E+00 
    1.6592438218906633E+00 
    1.6083812167284144E+00 
    1.5481037179480102E+00 
    1.4774676965956335E+00 
    1.3949861423707042E+00 
    1.2983491923438315E+00 
    1.1841963351908023E+00 
    1.0476198035323940E+00 
    8.8275528264636272E-01 
    6.8785672536172926E-01 
    4.9293303324547261E-01 
    1.7764111366896302E+00 
    1.7680388441587529E+00 
    1.7512976083439002E+00 
    1.7261448127449657E+00 
    1.6924759698711733E+00 
    1.6500677654740055E+00 
    1.5984735796373128E+00 
    1.5369760313690197E+00 
    1.4643531077380010E+00 
    1.3786199380306801E+00 
    1.2765054628133476E+00 
    1.1525737769638067E+00 
    9.9703223933480645E-01 
    7.9091206589007867E-01 
    4.9293755156812114E-01 
    0.0000000000000000E+00 

SCALARS Saturarion double 1 
LOOKUP_TABLE default 

    1.0000000000000000E+00 
    9.1151460293943376E-01 
    8.4497221859114613E-01 
    7.8199747433127098E-01 
    7.5412826322877147E-01 
    6.8052636249295084E-01 
    6.2329745873872044E-01 
    5.7162496264445439E-01 
    5.2586197945071844E-01 
    4.6839540448803485E-01 
    3.9753201862815418E-01 
    2.7836725843895826E-01 
    7.5571684157918290E-02 
    1.0652983313604062E-03 
    1.8450726921830128E-08 
    5.7244914628398995E-20 
    9.1150827818581359E-01 
    8.5970349401723212E-01 
    8.0485484341651048E-01 
    7.5094088237583567E-01 
    7.0168996933542882E-01 
    6.5214018367440518E-01 
    6.0429614779712004E-01 
    5.5756050998491724E-01 
    5.0999307058386201E-01 
    4.5663642209270477E-01 
    3.8610110330937009E-01 
    2.5838232669390587E-01 
    5.5177182973605167E-02 
    4.1683783634062429E-04 
    1.6807810933458279E-09 
    1.2995505303191734E-22 
    8.4494769397697844E-01 
    8.0484287204108795E-01 
    7.5985136253113406E-01 
    7.1442612793919080E-01 
    6.7000746642000453E-01 
    6.2654102616992391E-01 
    5.8364509634794948E-01 
    5.4071937618156929E-01 
    4.9559457052672640E-01 
    4.4360800493479513E-01 
    3.7126458902214304E-01 
    2.2815711049358628E-01 
    3.2423654526217011E-02 
    8.8337168867637679E-05 
    2.9944620704800036E-11 
    3.6658762953802406E-27 
    7.8193667797486410E-01 
    7.5091952023679442E-01 
    7.1442580725952842E-01 
    6.7650112408669349E-01 
    6.3825410712874531E-01 
    6.0014315767335946E-01 
    5.6178833408786710E-01 
    5.2237263034638470E-01 
    4.7976600142611237E-01 
    4.2874213766077207E-01 
    3.5244660799818572E-01 
    1.8403899432023765E-01 
    1.3410933591713189E-02 
    7.1480538027928170E-06 
    3.6244895280409956E-14 
    4.8480169274671236E-35 
    7.4867459189257046E-01 
    7.0121616879448700E-01 
    6.6993114141641485E-01 
    6.3823802664132578E-01 
    6.0573834537381577E-01 
    5.7255339825302320E-01 
    5.3825473156177317E-01 
    5.0227281614327268E-01 
    4.6200887351603165E-01 
    4.1137458875038452E-01 
    3.2562882958031381E-01 
    1.2235537843549929E-01 
    3.1310793448052782E-03 
    1.2299161015704005E-07 
    5.2262700682358542E-19 
    1.6476118867192673E-48 
    6.7840557011142311E-01 
    6.5171390221765690E-01 
    6.2643665790053371E-01 
    6.0011211593430702E-01 
    5.7254232188468768E-01 
    5.5254734924643278E-01 
    5.1605814609241241E-01 
    4.8133238656973615E-01 
    4.4211961115490084E-01 
    3.9144954810931371E-01 
    2.8420012596755440E-01 
    5.7187102358241065E-02 
    2.4421101711728967E-04 
    7.6366788514776982E-11 
    2.4013943958459044E-28 
    2.7649019283221124E-76 
    6.2224944613914135E-01 
    6.0397181415424372E-01 
    5.8353539997755288E-01 
    5.6174526262990498E-01 
    5.3823290859101558E-01 
    5.1604740485419942E-01 
    4.8776473905185141E-01 
    4.5650213142758866E-01 
    4.1791296289982705E-01 
    3.5978400457368748E-01 
    2.0029567028886947E-01 
    1.0945256089485395E-02 
    1.2998050084987791E-06 
    9.0376083499615956E-18 
    6.4904223333564266E-50 
   1.1045152186500562E-143 
    5.7102118989318174E-01 
    5.5730603779340460E-01 
    5.4060621530040742E-01 
    5.2231494874212692E-01 
    5.0223722456100828E-01 
    4.8130866625776053E-01 
    4.5648873465541867E-01 
    4.2690343571559275E-01 
    3.8561331261454801E-01 
    3.0205648931418372E-01 
    6.6504734532300269E-02 
    1.7817679962736432E-04 
    2.1355649215763591E-12 
    1.3687761344129026E-36 
   7.7857788822021311E-112 
    0.0000000000000000E+00 
    5.2415436976320084E-01 
    5.0966944434439487E-01 
    4.9545929699914459E-01 
    4.7968672092191655E-01 
    4.6195202028849419E-01 
    4.4207429672667198E-01 
    4.1787762989325272E-01 
    3.8558939606605724E-01 
    3.2821513461202778E-01 
    1.4183071257468777E-01 
    1.8499692331765385E-03 
    6.4307735082835521E-10 
    5.5577819406867529E-31 
   8.8213362603847149E-100 
    0.0000000000000000E+00 
    0.0000000000000000E+00 
    4.6748715996445528E-01 
    4.5633404806262473E-01 
    4.4345066972987390E-01 
    4.2863086022902402E-01 
    4.1128011826426580E-01 
    3.9124938685106392E-01 
    3.5966592233152900E-01 
    3.0193743325286537E-01 
    1.4172982261972780E-01 
    3.4648071334973246E-03 
    3.5812450595468226E-09 
    2.4617157265537875E-29 
    2.7422892897570301E-96 
   1.0801561960283937E-315 
    0.0000000000000000E+00 
    0.0000000000000000E+00 
    3.9693699924368692E-01 
    3.8578400959038867E-01 
    3.7104075268118547E-01 
    3.5224706246042059E-01 
    3.2542426493098409E-01 
    2.8392815897762469E-01 
    1.9997033498891026E-01 
    6.6336770277161228E-02 
    1.8446067374216547E-03 
    3.5757592969977052E-09 
    5.4520075782520836E-29 
    2.0717723483641877E-95 
   8.8962659860613459E-314 
    0.0000000000000000E+00 
    0.0000000000000000E+00 
    0.0000000000000000E+00 
    2.7770663949567659E-01 
    2.5786952751052006E-01 
    2.2770202584047280E-01 
    1.8360186310221974E-01 
    1.2199060957692376E-01 
    5.6954192488882491E-02 
    1.0882565054702907E-02 
    1.7686890984120796E-04 
    6.3875760083189444E-10 
    2.4523037413135446E-29 
    2.0683188328298938E-95 
   2.1323152333917789E-313 
    0.0000000000000000E+00 
    0.0000000000000000E+00 
    0.0000000000000000E+00 
    0.0000000000000000E+00 
    7.4995346049579553E-02 
    5.4798137276639021E-02 
    3.2197027143922627E-02 
    1.3305259315069456E-02 
    3.1026010299062858E-03 
    2.4137101957909647E-04 
    1.2804718737563966E-06 
    2.0961746150685628E-12 
    5.4765920131275868E-31 
    2.7192967286530857E-96 
   8.8603184969345674E-314 
    0.0000000000000000E+00 
    0.0000000000000000E+00 
    0.0000000000000000E+00 
    0.0000000000000000E+00 
    0.0000000000000000E+00 
    1.0430396077813946E-03 
    4.0915454206840265E-04 
    8.6727340792496800E-05 
    7.0059140209574316E-06 
    1.2015734654313007E-07 
    7.4131963668550903E-11 
    8.6961737740335042E-18 
    1.3099108100247040E-36 
   8.5403002995690994E-100 
   1.0610082669086737E-315 
    0.0000000000000000E+00 
    0.0000000000000000E+00 
    0.0000000000000000E+00 
    0.0000000000000000E+00 
    0.0000000000000000E+00 
    0.0000000000000000E+00 
    1.7542434117265708E-08 
    1.6083363380704952E-09 
    2.8667839072275364E-11 
    3.4541220673663356E-14 
    4.9296886550236187E-19 
    2.2289989343375480E-28 
    5.9002418623786847E-50 
   7.0350872764279904E-112 
    0.0000000000000000E+00 
    0.0000000000000000E+00 
    0.0000000000000000E+00 
    0.0000000000000000E+00 
    0.0000000000000000E+00 
    0.0000000000000000E+00 
    0.0000000000000000E+00 
    0.0000000000000000E+00 
    5.0729805485165818E-20 
    1.1731798368190703E-22 
    3.3114136393401585E-27 
    4.3227091325514106E-35 
    1.4219986808949493E-48 
    2.2903915143502025E-76 
   8.7426322140481697E-144 
    0.0000000000000000E+00 
    0.0000000000000000E+00 
    0.0000000000000000E+00 
    0.0000000000000000E+00 
    0.0000000000000000E+00 
    0.0000000000000000E+00 
    0.0000000000000000E+00 
    0.0000000000000000E+00 
    0.0000000000000000E+00 
