# vtk DataFile Version 2.0
Pressure Field Data 
ASCII 
DATASET UNSTRUCTURED_GRID 

POINTS 289 double 

    0.0000000000000000E+00     0.0000000000000000E+00     0.0000000000000000E+00 
    1.0000000000000000E+00     0.0000000000000000E+00     0.0000000000000000E+00 
    1.0000000000000000E+00     1.0000000000000000E+00     0.0000000000000000E+00 
    0.0000000000000000E+00     1.0000000000000000E+00     0.0000000000000000E+00 
    6.2499999999872928E-02     0.0000000000000000E+00     0.0000000000000000E+00 
    1.2499999999977310E-01     0.0000000000000000E+00     0.0000000000000000E+00 
    1.8749999999959341E-01     0.0000000000000000E+00     0.0000000000000000E+00 
    2.4999999999941089E-01     0.0000000000000000E+00     0.0000000000000000E+00 
    3.1249999999922851E-01     0.0000000000000000E+00     0.0000000000000000E+00 
    3.7499999999904610E-01     0.0000000000000000E+00     0.0000000000000000E+00 
    4.3749999999886358E-01     0.0000000000000000E+00     0.0000000000000000E+00 
    4.9999999999869210E-01     0.0000000000000000E+00     0.0000000000000000E+00 
    5.6249999999884603E-01     0.0000000000000000E+00     0.0000000000000000E+00 
    6.2499999999901090E-01     0.0000000000000000E+00     0.0000000000000000E+00 
    6.8749999999917577E-01     0.0000000000000000E+00     0.0000000000000000E+00 
    7.4999999999934064E-01     0.0000000000000000E+00     0.0000000000000000E+00 
    8.1249999999950551E-01     0.0000000000000000E+00     0.0000000000000000E+00 
    8.7499999999967026E-01     0.0000000000000000E+00     0.0000000000000000E+00 
    9.3749999999983513E-01     0.0000000000000000E+00     0.0000000000000000E+00 
    1.0000000000000000E+00     6.2499999999872928E-02     0.0000000000000000E+00 
    1.0000000000000000E+00     1.2499999999977310E-01     0.0000000000000000E+00 
    1.0000000000000000E+00     1.8749999999959341E-01     0.0000000000000000E+00 
    1.0000000000000000E+00     2.4999999999941089E-01     0.0000000000000000E+00 
    1.0000000000000000E+00     3.1249999999922851E-01     0.0000000000000000E+00 
    1.0000000000000000E+00     3.7499999999904610E-01     0.0000000000000000E+00 
    1.0000000000000000E+00     4.3749999999886358E-01     0.0000000000000000E+00 
    1.0000000000000000E+00     4.9999999999869210E-01     0.0000000000000000E+00 
    1.0000000000000000E+00     5.6249999999884603E-01     0.0000000000000000E+00 
    1.0000000000000000E+00     6.2499999999901090E-01     0.0000000000000000E+00 
    1.0000000000000000E+00     6.8749999999917577E-01     0.0000000000000000E+00 
    1.0000000000000000E+00     7.4999999999934064E-01     0.0000000000000000E+00 
    1.0000000000000000E+00     8.1249999999950551E-01     0.0000000000000000E+00 
    1.0000000000000000E+00     8.7499999999967026E-01     0.0000000000000000E+00 
    1.0000000000000000E+00     9.3749999999983513E-01     0.0000000000000000E+00 
    9.3749999999973976E-01     1.0000000000000000E+00     0.0000000000000000E+00 
    8.7499999999950118E-01     1.0000000000000000E+00     0.0000000000000000E+00 
    8.1249999999991318E-01     1.0000000000000000E+00     0.0000000000000000E+00 
    7.5000000000034706E-01     1.0000000000000000E+00     0.0000000000000000E+00 
    6.8750000000078049E-01     1.0000000000000000E+00     0.0000000000000000E+00 
    6.2500000000121403E-01     1.0000000000000000E+00     0.0000000000000000E+00 
    5.6250000000164757E-01     1.0000000000000000E+00     0.0000000000000000E+00 
    5.0000000000205946E-01     1.0000000000000000E+00     0.0000000000000000E+00 
    4.3750000000182099E-01     1.0000000000000000E+00     0.0000000000000000E+00 
    3.7500000000156092E-01     1.0000000000000000E+00     0.0000000000000000E+00 
    3.1250000000130068E-01     1.0000000000000000E+00     0.0000000000000000E+00 
    2.5000000000104050E-01     1.0000000000000000E+00     0.0000000000000000E+00 
    1.8750000000078040E-01     1.0000000000000000E+00     0.0000000000000000E+00 
    1.2500000000052031E-01     1.0000000000000000E+00     0.0000000000000000E+00 
    6.2500000000260125E-02     1.0000000000000000E+00     0.0000000000000000E+00 
    0.0000000000000000E+00     9.3749999999973976E-01     0.0000000000000000E+00 
    0.0000000000000000E+00     8.7499999999950118E-01     0.0000000000000000E+00 
    0.0000000000000000E+00     8.1249999999991318E-01     0.0000000000000000E+00 
    0.0000000000000000E+00     7.5000000000034706E-01     0.0000000000000000E+00 
    0.0000000000000000E+00     6.8750000000078049E-01     0.0000000000000000E+00 
    0.0000000000000000E+00     6.2500000000121403E-01     0.0000000000000000E+00 
    0.0000000000000000E+00     5.6250000000164757E-01     0.0000000000000000E+00 
    0.0000000000000000E+00     5.0000000000205946E-01     0.0000000000000000E+00 
    0.0000000000000000E+00     4.3750000000182099E-01     0.0000000000000000E+00 
    0.0000000000000000E+00     3.7500000000156092E-01     0.0000000000000000E+00 
    0.0000000000000000E+00     3.1250000000130068E-01     0.0000000000000000E+00 
    0.0000000000000000E+00     2.5000000000104050E-01     0.0000000000000000E+00 
    0.0000000000000000E+00     1.8750000000078040E-01     0.0000000000000000E+00 
    0.0000000000000000E+00     1.2500000000052031E-01     0.0000000000000000E+00 
    0.0000000000000000E+00     6.2500000000260125E-02     0.0000000000000000E+00 
    6.2499999999897131E-02     6.2500000000235922E-02     0.0000000000000000E+00 
    6.2499999999921327E-02     1.2500000000047351E-01     0.0000000000000000E+00 
    6.2499999999945530E-02     1.8750000000070621E-01     0.0000000000000000E+00 
    6.2499999999969733E-02     2.5000000000093858E-01     0.0000000000000000E+00 
    6.2499999999993928E-02     3.1250000000117117E-01     0.0000000000000000E+00 
    6.2500000000018124E-02     3.7500000000140382E-01     0.0000000000000000E+00 
    6.2500000000042327E-02     4.3750000000163619E-01     0.0000000000000000E+00 
    6.2500000000066530E-02     5.0000000000184897E-01     0.0000000000000000E+00 
    6.2500000000090733E-02     5.6250000000147260E-01     0.0000000000000000E+00 
    6.2500000000114922E-02     6.2500000000107636E-01     0.0000000000000000E+00 
    6.2500000000139125E-02     6.8750000000068034E-01     0.0000000000000000E+00 
    6.2500000000163328E-02     7.5000000000028411E-01     0.0000000000000000E+00 
    6.2500000000187531E-02     8.1249999999988787E-01     0.0000000000000000E+00 
    6.2500000000211720E-02     8.7499999999951172E-01     0.0000000000000000E+00 
    6.2500000000235922E-02     9.3749999999974565E-01     0.0000000000000000E+00 
    1.2499999999981980E-01     6.2500000000211733E-02     0.0000000000000000E+00 
    1.2499999999986650E-01     1.2500000000042691E-01     0.0000000000000000E+00 
    1.2499999999991319E-01     1.8750000000063199E-01     0.0000000000000000E+00 
    1.2499999999995989E-01     2.5000000000083678E-01     0.0000000000000000E+00 
    1.2500000000000661E-01     3.1250000000104172E-01     0.0000000000000000E+00 
    1.2500000000005329E-01     3.7500000000124661E-01     0.0000000000000000E+00 
    1.2500000000010000E-01     4.3750000000145117E-01     0.0000000000000000E+00 
    1.2500000000014669E-01     5.0000000000163858E-01     0.0000000000000000E+00 
    1.2500000000019340E-01     5.6250000000129741E-01     0.0000000000000000E+00 
    1.2500000000024011E-01     6.2500000000093847E-01     0.0000000000000000E+00 
    1.2500000000028680E-01     6.8750000000057998E-01     0.0000000000000000E+00 
    1.2500000000033351E-01     7.5000000000022127E-01     0.0000000000000000E+00 
    1.2500000000038020E-01     8.1249999999986211E-01     0.0000000000000000E+00 
    1.2500000000042691E-01     8.7499999999952238E-01     0.0000000000000000E+00 
    1.2500000000047359E-01     9.3749999999975164E-01     0.0000000000000000E+00 
    1.8749999999966760E-01     6.2500000000187531E-02     0.0000000000000000E+00 
    1.8749999999974179E-01     1.2500000000038020E-01     0.0000000000000000E+00 
    1.8749999999981601E-01     1.8750000000055780E-01     0.0000000000000000E+00 
    1.8749999999989009E-01     2.5000000000073502E-01     0.0000000000000000E+00 
    1.8749999999996431E-01     3.1250000000091221E-01     0.0000000000000000E+00 
    1.8750000000003850E-01     3.7500000000108941E-01     0.0000000000000000E+00 
    1.8750000000011269E-01     4.3750000000126649E-01     0.0000000000000000E+00 
    1.8750000000018691E-01     5.0000000000142808E-01     0.0000000000000000E+00 
    1.8750000000026110E-01     5.6250000000112244E-01     0.0000000000000000E+00 
    1.8750000000033529E-01     6.2500000000080080E-01     0.0000000000000000E+00 
    1.8750000000040951E-01     6.8750000000047962E-01     0.0000000000000000E+00 
    1.8750000000048361E-01     7.5000000000015843E-01     0.0000000000000000E+00 
    1.8750000000055780E-01     8.1249999999983680E-01     0.0000000000000000E+00 
    1.8750000000063199E-01     8.7499999999953304E-01     0.0000000000000000E+00 
    1.8750000000070621E-01     9.3749999999975764E-01     0.0000000000000000E+00 
    2.4999999999951281E-01     6.2500000000163314E-02     0.0000000000000000E+00 
    2.4999999999961461E-01     1.2500000000033351E-01     0.0000000000000000E+00 
    2.4999999999971650E-01     1.8750000000048361E-01     0.0000000000000000E+00 
    2.4999999999981831E-01     2.5000000000063310E-01     0.0000000000000000E+00 
    2.4999999999992020E-01     3.1250000000078260E-01     0.0000000000000000E+00 
    2.5000000000002198E-01     3.7500000000093209E-01     0.0000000000000000E+00 
    2.5000000000012390E-01     4.3750000000108180E-01     0.0000000000000000E+00 
    2.5000000000022571E-01     5.0000000000121769E-01     0.0000000000000000E+00 
    2.5000000000032763E-01     5.6250000000094724E-01     0.0000000000000000E+00 
    2.5000000000042938E-01     6.2500000000066314E-01     0.0000000000000000E+00 
    2.5000000000053119E-01     6.8750000000037925E-01     0.0000000000000000E+00 
[...]
CELL_DATA 256 
SCALARS Pressure double 1 
LOOKUP_TABLE default 

    2.5275257924603367E+00 
    2.4133024170598532E+00 
    2.3313748938833330E+00 
    2.2641128583247259E+00 
    2.2057341639340513E+00 
    2.1526805475118920E+00 
    2.1018419353940692E+00 
    2.0530719583127639E+00 
    2.0060725629270681E+00 
    1.9601001988824578E+00 
    1.9133956657653874E+00 
    1.8672739807281173E+00 
    1.8307961355155689E+00 
    1.8053559604475127E+00 
    1.7884653236431889E+00 
    1.7800249474720815E+00 
    2.4133380353778890E+00 
    2.3626933975039348E+00 
    2.3039369377789773E+00 
    2.2466171944351734E+00 
    2.1930168109038526E+00 
    2.1420669648789028E+00 
    2.0925529715831748E+00 
    2.0445781027303722E+00 
    1.9978685623720844E+00 
    1.9517241941857908E+00 
    1.9043473372203843E+00 
    1.8582258676374432E+00 
    1.8222577318261644E+00 
    1.7969103739240642E+00 
    1.7800282226339135E+00 
    1.7715868771379024E+00 
    2.3314773456470319E+00 
    2.3039926691842161E+00 
    2.2626780877772661E+00 
    2.2166319984938658E+00 
    2.1693614045287299E+00 
    2.1218458648344685E+00 
    2.0745663928304499E+00 
    2.0278206103061969E+00 
    1.9815110413049273E+00 
    1.9349966538026147E+00 
    1.8864049967943017E+00 
    1.8404647834954055E+00 
    1.8053496565811658E+00 
    1.7800952543592932E+00 
    1.7631881979088639E+00 
    1.7547193922109068E+00 
    2.2643152433366160E+00 
    2.2467285716037964E+00 
    2.2166709457016265E+00 
    2.1792943716785755E+00 
    2.1377378762067392E+00 
    2.0939668380503065E+00 
    2.0490584897532789E+00 
    2.0035200648877818E+00 
    1.9574321801020966E+00 
    1.9100123373808544E+00 
    1.8599005882741708E+00 
    1.8145361536049782E+00 
    1.7802886689902366E+00 
    1.7549904441225574E+00 
    1.7379523395623113E+00 
    1.7293922971091882E+00 
    2.2058747227496012E+00 
    2.1930894646274228E+00 
    2.1693973071447394E+00 
    2.1377513964512636E+00 
    2.1006932006119827E+00 
    2.0601368888857476E+00 
    2.0172223812677648E+00 
    1.9725085520926655E+00 
    1.9261002026890846E+00 
    1.8767562142453771E+00 
    1.8252661601468139E+00 
    1.7810304109629811E+00 
    1.7472832197163881E+00 
    1.7216656010059783E+00 
    1.7042872627943058E+00 
    1.6955170955956922E+00 
    2.1526754957747798E+00 
    2.1420654120417661E+00 
    2.1218614573213053E+00 
    2.0939817484785883E+00 
    2.0601451161581323E+00 
    2.0218778199822296E+00 
    1.9801922683509330E+00 
    1.9355434441984272E+00 
    1.8877749288571981E+00 
    1.8355018406296417E+00 
    1.7835214444821641E+00 
    1.7405619650547375E+00 
    1.7065271145767560E+00 
    1.6801344912796592E+00 
    1.6620629251937191E+00 
    1.6528873702291951E+00 
    2.1018343022311758E+00 
    2.0925527428354447E+00 
    2.0745803166374053E+00 
    2.0490746944176323E+00 
    2.0172334072678990E+00 
    1.9801969315016634E+00 
    1.9387303994014473E+00 
    1.8929987288097982E+00 
    1.8421376652594541E+00 
    1.7869811987085575E+00 
    1.7360155422713657E+00 
    1.6935734009499939E+00 
    1.6582027224050424E+00 
    1.6303049474955837E+00 
    1.6109698238434340E+00 
    1.6010730911430437E+00 
    2.0530965437734285E+00 
    2.0445965827043406E+00 
    2.0278415650974719E+00 
    2.0035413552824899E+00 
    1.9725259251516514E+00 
    1.9355551974860561E+00 
    1.8930052404011175E+00 
    1.8442936487013848E+00 
    1.7893608308285069E+00 
    1.7338535337905669E+00 
    1.6841306258617201E+00 
    1.6403633420764081E+00 
    1.6024463047771222E+00 
    1.5719526758919693E+00 
    1.5504800247988835E+00 
    1.5393668891524110E+00 
    2.0061066145342195E+00 
    1.9978960125759255E+00 
    1.9815401305999669E+00 
    1.9574607705134834E+00 
    1.9261249878921700E+00 
    1.8877939879757140E+00 
    1.8421531686427715E+00 
    1.7893706979949096E+00 
    1.7333736066685976E+00 
    1.6793737892824632E+00 
    1.6286263356275106E+00 
    1.5813633736176738E+00 
    1.5392785265463143E+00 
    1.5045929684968020E+00 
    1.4796532870753896E+00 
    1.4665504369693305E+00 
    1.9601234416094393E+00 
    1.9517516298646127E+00 
    1.9350321360553782E+00 
    1.9100491044518384E+00 
    1.8767901563605234E+00 
    1.8355322429899970E+00 
    1.7870125336269724E+00 
    1.7338809230561363E+00 
    1.6793904064413898E+00 
    1.6245336330442439E+00 
    1.5699184940092903E+00 
    1.5171854796502815E+00 
    1.4687074710161592E+00 
    1.4274863505904378E+00 
    1.3969994663627738E+00 
    1.3806362006721298E+00 
    1.9134309251148680E+00 
    1.9043880685730203E+00 
    1.8864547015294704E+00 
    1.8599553416514982E+00 
    1.8253229284977173E+00 
    1.7835790841675292E+00 
    1.7360720007549386E+00 
    1.6841805273549564E+00 
    1.6286639932985612E+00 
    1.5699394246440239E+00 
    1.5093313008129132E+00 
    1.4487320276403957E+00 
    1.3908617534780390E+00 
    1.3396267071506514E+00 
    1.3002001732413013E+00 
    1.2783444429574178E+00 
    1.8673500051070002E+00 
    1.8583057934060223E+00 
    1.8405510192633610E+00 
    1.8146263138997589E+00 
    1.7811210801426465E+00 
    1.7406498214759034E+00 
    1.6936546074172525E+00 
    1.6404350226880069E+00 
    1.5814216516463178E+00 
    1.5172264046603481E+00 
    1.4487521268503587E+00 
    1.3775841832312217E+00 
    1.3064261979632950E+00 
    1.2400065613044782E+00 
    1.1858786448944494E+00 
    1.1542226721166819E+00 
    1.8309190695520567E+00 
    1.8223806002696135E+00 
    1.8054726197062232E+00 
    1.7804097713268088E+00 
    1.7474000141189450E+00 
    1.7066374181423687E+00 
    1.6583044490165337E+00 
    1.6025374626014806E+00 
    1.5393555631991875E+00 
    1.4687668773312632E+00 
    1.3909003521803696E+00 
    1.3064447207301670E+00 
    1.2172741440553192E+00 
    1.1281137590583288E+00 
    1.0491125130097596E+00 
    9.9845734793825858E-01 
    1.8055036387722589E+00 
    1.7970564217986145E+00 
    1.7802390011533140E+00 
    1.7551304172305306E+00 
    1.7218000704580256E+00 
    1.6802615722971730E+00 
    1.6304225356513600E+00 
    1.5720587064021248E+00 
    1.5046843393079072E+00 
    1.4275600418243846E+00 
    1.3396798504628169E+00 
    1.2400398875209322E+00 
    1.1281287942061176E+00 
    1.0060736212288899E+00 
    8.8402153849603127E-01 
    7.9204552844757015E-01 
    1.7886238516480770E+00 
    1.7801849889897154E+00 
    1.7633421315736022E+00 
    1.7381020030479823E+00 
    1.7044310557229612E+00 
    1.6621989940832638E+00 
    1.6110958122620125E+00 
    1.5505937378743422E+00 
    1.4797521195579524E+00 
    1.3970809114377589E+00 
    1.3002617092376954E+00 
    1.1859210169231689E+00 
    1.0491372551992877E+00 
    8.8403171624675636E-01 
    6.8885156074230358E-01 
    4.9364671639373126E-01 
    1.7801818444105315E+00 
    1.7717423622225923E+00 
    1.7548721778933967E+00 
    1.7295408716177285E+00 
    1.6956597518701861E+00 
    1.6530222222488449E+00 
    1.6011977054001516E+00 
    1.5394790347563854E+00 
    1.4666478238123419E+00 
    1.3807166272025293E+00 
    1.2784062003859444E+00 
    1.1542665254438651E+00 
    9.9848488265690893E-01 
    7.9205967570286606E-01 
    4.9365146235720292E-01 
    0.0000000000000000E+00 

SCALARS Saturarion double 1 
LOOKUP_TABLE default 

    1.0000000000000000E+00 
    9.0375155412840136E-01 
    8.3308887478219174E-01 
    7.6717028294564582E-01 
    7.2876075702265919E-01 
    6.5904277653798971E-01 
    6.0159718228221326E-01 
    5.4831181498538317E-01 
    4.9800476925001219E-01 
    4.3430477556024272E-01 
    3.4453841312000505E-01 
    1.7106710942644202E-01 
    1.2779712810061725E-02 
    8.1166437078039111E-06 
    9.3166651481518916E-14 
    3.2062659441774483E-33 
    9.0374569955428818E-01 
    8.4865694801389857E-01 
    7.9106110755560965E-01 
    7.3500735693139629E-01 
    6.8336122885959305E-01 
    6.3234848180668501E-01 
    5.8293822329149203E-01 
    5.3404127221908215E-01 
    4.8262484582980120E-01 
    4.2133206616280078E-01 
    3.2758009441031960E-01 
    1.3910148804512490E-01 
    6.1958358408268745E-03 
    1.1640166756789835E-06 
    6.0857562403523842E-16 
    6.1986499450988915E-39 
    8.3306689147175517E-01 
    7.9105010332463643E-01 
    7.4423902399522379E-01 
    6.9727379333173178E-01 
    6.5131212022479812E-01 
    6.0636665261374911E-01 
    5.6174153202647104E-01 
    5.1638827170122847E-01 
    4.6694912914413911E-01 
    4.0528199761891431E-01 
    3.0170541669392170E-01 
    9.4886972456983493E-02 
    1.7215086786416310E-03 
    3.6968454297669569E-08 
    6.2932958061599582E-20 
    1.3666327287290989E-49 
    7.6711718960925313E-01 
    7.3498680258201177E-01 
    6.9727137884120061E-01 
    6.5815503549650844E-01 
    6.1864308052826511E-01 
    5.7913283385168346E-01 
    5.3897174854071683E-01 
    4.9679851638030570E-01 
    4.4900635161599423E-01 
    3.8515149517261832E-01 
    2.6055611162699144E-01 
    4.6456904642049462E-02 
    1.7939470676592246E-04 
    7.5479597496990107E-11 
    2.7606618531718162E-27 
    7.4792150930188731E-70 
    7.2457199903214220E-01 
    6.8297621594338487E-01 
    6.5124922134057905E-01 
    6.1862942228228368E-01 
    5.8497059871613133E-01 
    5.5034486066592581E-01 
    5.1402621477666832E-01 
    4.7475349106925757E-01 
    4.2774966512746876E-01 
    3.5845227462610751E-01 
    1.9231132731814238E-01 
    1.2622709375393738E-02 
    3.6968901962242331E-06 
    1.2989605084368356E-15 
    5.5037396647012212E-41 
   2.4908072707727387E-109 
    6.5735031354299545E-01 
    6.3200701586084873E-01 
    6.0628185327439621E-01 
    5.7910634148675177E-01 
    5.5033475281743904E-01 
    5.2610745278975501E-01 
    4.8894375800122630E-01 
    4.5045878431626862E-01 
    4.0146905087478563E-01 
    3.1629268548066913E-01 
    9.2509254386274359E-02 
    8.7198179242840314E-04 
    1.2088158754168588E-09 
    4.7991146402070869E-26 
    3.2864189796530966E-72 
   6.6192227422247981E-203 
    6.0076038027151857E-01 
    5.8267731808711432E-01 
    5.6165055378502637E-01 
    5.3893356714187124E-01 
    5.1400529975659026E-01 
    4.8893279903857462E-01 
    4.5753962608328969E-01 
    4.2006318518468072E-01 
    3.6356033188812686E-01 
    2.2003112905900707E-01 
    1.4161733351255420E-02 
    1.6902329554989551E-06 
    4.3081187320075510E-18 
    1.4566456768060047E-52 
   1.4526573391464249E-155 
    0.0000000000000000E+00 
    5.4782541550724284E-01 
    5.3383069683880724E-01 
    5.1628964037290848E-01 
    4.9674411326525475E-01 
    4.7471711643513748E-01 
    4.5043259174212835E-01 
    4.2004661208038502E-01 
    3.7786327495205824E-01 
    2.8636433272273210E-01 
    5.2678281873029906E-02 
    6.1539373507695863E-05 
    2.8679270026777091E-14 
    1.0875818875394839E-43 
   4.7841000809666938E-136 
    0.0000000000000000E+00 
    0.0000000000000000E+00 
    4.9673405610462945E-01 
    4.8235878142943223E-01 
    4.6682605235627328E-01 
    4.4892606105794031E-01 
    4.2768587160023663E-01 
    4.0141187937458839E-01 
    3.6350547000417199E-01 
    2.8630554396786634E-01 
    8.0140650358246177E-02 
    2.5245619943047346E-04 
    7.1655986342123308E-13 
    1.0541067217643624E-40 
   7.6262502309548551E-130 
    0.0000000000000000E+00 
    0.0000000000000000E+00 
    0.0000000000000000E+00 
    4.3359976001289563E-01 
    4.2106848098775879E-01 
    4.0512327255424496E-01 
    3.8502054464872637E-01 
    3.5832090381132742E-01 
    3.1608668175533050E-01 
    2.1979622527206027E-01 
    5.2584875183989535E-02 
    2.5212193167342754E-04 
    1.4657372074123978E-12 
    6.4837575074802724E-40 
   3.7693795842325091E-128 
    0.0000000000000000E+00 
    0.0000000000000000E+00 
    0.0000000000000000E+00 
    0.0000000000000000E+00 
    3.4400090479642831E-01 
    3.2723790529903668E-01 
    3.0141228283241467E-01 
    2.6024131398687556E-01 
    1.9196804790451699E-01 
    9.2246543031791473E-02 
    1.4101393977566315E-02 
    6.1226921792154678E-05 
    7.1394215949997144E-13 
    6.4725332206003977E-40 
   8.3794419901971540E-128 
    0.0000000000000000E+00 
    0.0000000000000000E+00 
    0.0000000000000000E+00 
    0.0000000000000000E+00 
    0.0000000000000000E+00 
    1.7039673247242482E-01 
    1.3860594336433105E-01 
    9.4519722322303004E-02 
    4.6234351573132784E-02 
    1.2544778878995150E-02 
    8.6457221139833165E-04 
    1.6712198279968028E-06 
    2.8332141281462586E-14 
    1.0455849903655463E-40 
   3.7527090289385888E-128 
    0.0000000000000000E+00 
    0.0000000000000000E+00 
    0.0000000000000000E+00 
    0.0000000000000000E+00 
    0.0000000000000000E+00 
    0.0000000000000000E+00 
    1.2628306292143961E-02 
    6.1293001904101320E-03 
    1.7020660692566936E-03 
    1.7702503824958089E-04 
    3.6369655014019440E-06 
    1.1821440404725642E-09 
    4.1874300698296443E-18 
    1.0583574551046078E-43 
   7.4911815371787375E-130 
    0.0000000000000000E+00 
    0.0000000000000000E+00 
    0.0000000000000000E+00 
    0.0000000000000000E+00 
    0.0000000000000000E+00 
    0.0000000000000000E+00 
    0.0000000000000000E+00 
    7.8812773393364681E-06 
    1.1335427026193784E-06 
    3.5948720853230393E-08 
    7.3046435663209181E-11 
    1.2459455797103033E-15 
    4.5383653669811028E-26 
    1.3595084504216925E-52 
   4.5042738595279065E-136 
    0.0000000000000000E+00 
    0.0000000000000000E+00 
    0.0000000000000000E+00 
    0.0000000000000000E+00 
    0.0000000000000000E+00 
    0.0000000000000000E+00 
    0.0000000000000000E+00 
    0.0000000000000000E+00 
    8.6937256550979768E-14 
    5.7156577830925711E-16 
    5.8848654148814449E-20 
    2.5493163168692222E-27 
    4.9553660273928079E-41 
    2.8593085786013551E-72 
   1.2359273255026480E-155 
    0.0000000000000000E+00 
    0.0000000000000000E+00 
    0.0000000000000000E+00 
    0.0000000000000000E+00 
    0.0000000000000000E+00 
    0.0000000000000000E+00 
    0.0000000000000000E+00 
    0.0000000000000000E+00 
    0.0000000000000000E+00 
    2.7200490912658576E-33 
    5.3480216221931443E-39 
    1.1648641849653169E-49 
    6.1644002568085921E-70 
   1.9148514974355021E-109 
   4.7240564137068452E-203 
    0.0000000000000000E+00 
    0.0000000000000000E+00 
    0.0000000000000000E+00 
    0.0000000000000000E+00 
    0.0000000000000000E+00 
    0.0000000000000000E+00 
    0.0000000000000000E+00 
    0.0000000000000000E+00 
    0.0000000000000000E+00 
    0.0000000000000000E+00 
