# vtk DataFile Version 2.0
Pressure Field Data 
ASCII 
DATASET UNSTRUCTURED_GRID 

POINTS 289 double 

    0.0000000000000000E+00     0.0000000000000000E+00     0.0000000000000000E+00 
    1.0000000000000000E+00     0.0000000000000000E+00     0.0000000000000000E+00 
    1.0000000000000000E+00     1.0000000000000000E+00     0.0000000000000000E+00 
    0.0000000000000000E+00     1.0000000000000000E+00     0.0000000000000000E+00 
    6.2499999999872928E-02     0.0000000000000000E+00     0.0000000000000000E+00 
    1.2499999999977310E-01     0.0000000000000000E+00     0.0000000000000000E+00 
    1.8749999999959341E-01     0.0000000000000000E+00     0.0000000000000000E+00 
    2.4999999999941089E-01     0.0000000000000000E+00     0.0000000000000000E+00 
    3.1249999999922851E-01     0.0000000000000000E+00     0.0000000000000000E+00 
    3.7499999999904610E-01     0.0000000000000000E+00     0.0000000000000000E+00 
    4.3749999999886358E-01     0.0000000000000000E+00     0.0000000000000000E+00 
    4.9999999999869210E-01     0.0000000000000000E+00     0.0000000000000000E+00 
    5.6249999999884603E-01     0.0000000000000000E+00     0.0000000000000000E+00 
    6.2499999999901090E-01     0.0000000000000000E+00     0.0000000000000000E+00 
    6.8749999999917577E-01     0.0000000000000000E+00     0.0000000000000000E+00 
    7.4999999999934064E-01     0.0000000000000000E+00     0.0000000000000000E+00 
    8.1249999999950551E-01     0.0000000000000000E+00     0.0000000000000000E+00 
    8.7499999999967026E-01     0.0000000000000000E+00     0.0000000000000000E+00 
    9.3749999999983513E-01     0.0000000000000000E+00     0.0000000000000000E+00 
    1.0000000000000000E+00     6.2499999999872928E-02     0.0000000000000000E+00 
    1.0000000000000000E+00     1.2499999999977310E-01     0.0000000000000000E+00 
    1.0000000000000000E+00     1.8749999999959341E-01     0.0000000000000000E+00 
    1.0000000000000000E+00     2.4999999999941089E-01     0.0000000000000000E+00 
    1.0000000000000000E+00     3.1249999999922851E-01     0.0000000000000000E+00 
    1.0000000000000000E+00     3.7499999999904610E-01     0.0000000000000000E+00 
    1.0000000000000000E+00     4.3749999999886358E-01     0.0000000000000000E+00 
    1.0000000000000000E+00     4.9999999999869210E-01     0.0000000000000000E+00 
    1.0000000000000000E+00     5.6249999999884603E-01     0.0000000000000000E+00 
    1.0000000000000000E+00     6.2499999999901090E-01     0.0000000000000000E+00 
    1.0000000000000000E+00     6.8749999999917577E-01     0.0000000000000000E+00 
    1.0000000000000000E+00     7.4999999999934064E-01     0.0000000000000000E+00 
    1.0000000000000000E+00     8.1249999999950551E-01     0.0000000000000000E+00 
    1.0000000000000000E+00     8.7499999999967026E-01     0.0000000000000000E+00 
    1.0000000000000000E+00     9.3749999999983513E-01     0.0000000000000000E+00 
    9.3749999999973976E-01     1.0000000000000000E+00     0.0000000000000000E+00 
    8.7499999999950118E-01     1.0000000000000000E+00     0.0000000000000000E+00 
    8.1249999999991318E-01     1.0000000000000000E+00     0.0000000000000000E+00 
    7.5000000000034706E-01     1.0000000000000000E+00     0.0000000000000000E+00 
    6.8750000000078049E-01     1.0000000000000000E+00     0.0000000000000000E+00 
    6.2500000000121403E-01     1.0000000000000000E+00     0.0000000000000000E+00 
    5.6250000000164757E-01     1.0000000000000000E+00     0.0000000000000000E+00 
    5.0000000000205946E-01     1.0000000000000000E+00     0.0000000000000000E+00 
    4.3750000000182099E-01     1.0000000000000000E+00     0.0000000000000000E+00 
    3.7500000000156092E-01     1.0000000000000000E+00     0.0000000000000000E+00 
    3.1250000000130068E-01     1.0000000000000000E+00     0.0000000000000000E+00 
    2.5000000000104050E-01     1.0000000000000000E+00     0.0000000000000000E+00 
    1.8750000000078040E-01     1.0000000000000000E+00     0.0000000000000000E+00 
    1.2500000000052031E-01     1.0000000000000000E+00     0.0000000000000000E+00 
    6.2500000000260125E-02     1.0000000000000000E+00     0.0000000000000000E+00 
    0.0000000000000000E+00     9.3749999999973976E-01     0.0000000000000000E+00 
    0.0000000000000000E+00     8.7499999999950118E-01     0.0000000000000000E+00 
    0.0000000000000000E+00     8.1249999999991318E-01     0.0000000000000000E+00 
    0.0000000000000000E+00     7.5000000000034706E-01     0.0000000000000000E+00 
    0.0000000000000000E+00     6.8750000000078049E-01     0.0000000000000000E+00 
    0.0000000000000000E+00     6.2500000000121403E-01     0.0000000000000000E+00 
    0.0000000000000000E+00     5.6250000000164757E-01     0.0000000000000000E+00 
    0.0000000000000000E+00     5.0000000000205946E-01     0.0000000000000000E+00 
    0.0000000000000000E+00     4.3750000000182099E-01     0.0000000000000000E+00 
    0.0000000000000000E+00     3.7500000000156092E-01     0.0000000000000000E+00 
    0.0000000000000000E+00     3.1250000000130068E-01     0.0000000000000000E+00 
    0.0000000000000000E+00     2.5000000000104050E-01     0.0000000000000000E+00 
    0.0000000000000000E+00     1.8750000000078040E-01     0.0000000000000000E+00 
    0.0000000000000000E+00     1.2500000000052031E-01     0.0000000000000000E+00 
    0.0000000000000000E+00     6.2500000000260125E-02     0.0000000000000000E+00 
    6.2499999999897131E-02     6.2500000000235922E-02     0.0000000000000000E+00 
    6.2499999999921327E-02     1.2500000000047351E-01     0.0000000000000000E+00 
    6.2499999999945530E-02     1.8750000000070621E-01     0.0000000000000000E+00 
    6.2499999999969733E-02     2.5000000000093858E-01     0.0000000000000000E+00 
    6.2499999999993928E-02     3.1250000000117117E-01     0.0000000000000000E+00 
    6.2500000000018124E-02     3.7500000000140382E-01     0.0000000000000000E+00 
    6.2500000000042327E-02     4.3750000000163619E-01     0.0000000000000000E+00 
    6.2500000000066530E-02     5.0000000000184897E-01     0.0000000000000000E+00 
    6.2500000000090733E-02     5.6250000000147260E-01     0.0000000000000000E+00 
    6.2500000000114922E-02     6.2500000000107636E-01     0.0000000000000000E+00 
    6.2500000000139125E-02     6.8750000000068034E-01     0.0000000000000000E+00 
    6.2500000000163328E-02     7.5000000000028411E-01     0.0000000000000000E+00 
    6.2500000000187531E-02     8.1249999999988787E-01     0.0000000000000000E+00 
    6.2500000000211720E-02     8.7499999999951172E-01     0.0000000000000000E+00 
    6.2500000000235922E-02     9.3749999999974565E-01     0.0000000000000000E+00 
    1.2499999999981980E-01     6.2500000000211733E-02     0.0000000000000000E+00 
    1.2499999999986650E-01     1.2500000000042691E-01     0.0000000000000000E+00 
    1.2499999999991319E-01     1.8750000000063199E-01     0.0000000000000000E+00 
    1.2499999999995989E-01     2.5000000000083678E-01     0.0000000000000000E+00 
    1.2500000000000661E-01     3.1250000000104172E-01     0.0000000000000000E+00 
    1.2500000000005329E-01     3.7500000000124661E-01     0.0000000000000000E+00 
    1.2500000000010000E-01     4.3750000000145117E-01     0.0000000000000000E+00 
    1.2500000000014669E-01     5.0000000000163858E-01     0.0000000000000000E+00 
    1.2500000000019340E-01     5.6250000000129741E-01     0.0000000000000000E+00 
    1.2500000000024011E-01     6.2500000000093847E-01     0.0000000000000000E+00 
    1.2500000000028680E-01     6.8750000000057998E-01     0.0000000000000000E+00 
    1.2500000000033351E-01     7.5000000000022127E-01     0.0000000000000000E+00 
    1.2500000000038020E-01     8.1249999999986211E-01     0.0000000000000000E+00 
    1.2500000000042691E-01     8.7499999999952238E-01     0.0000000000000000E+00 
    1.2500000000047359E-01     9.3749999999975164E-01     0.0000000000000000E+00 
    1.8749999999966760E-01     6.2500000000187531E-02     0.0000000000000000E+00 
    1.8749999999974179E-01     1.2500000000038020E-01     0.0000000000000000E+00 
    1.8749999999981601E-01     1.8750000000055780E-01     0.0000000000000000E+00 
    1.8749999999989009E-01     2.5000000000073502E-01     0.0000000000000000E+00 
    1.8749999999996431E-01     3.1250000000091221E-01     0.0000000000000000E+00 
    1.8750000000003850E-01     3.7500000000108941E-01     0.0000000000000000E+00 
    1.8750000000011269E-01     4.3750000000126649E-01     0.0000000000000000E+00 
    1.8750000000018691E-01     5.0000000000142808E-01     0.0000000000000000E+00 
    1.8750000000026110E-01     5.6250000000112244E-01     0.0000000000000000E+00 
    1.8750000000033529E-01     6.2500000000080080E-01     0.0000000000000000E+00 
    1.8750000000040951E-01     6.8750000000047962E-01     0.0000000000000000E+00 
    1.8750000000048361E-01     7.5000000000015843E-01     0.0000000000000000E+00 
    1.8750000000055780E-01     8.1249999999983680E-01     0.0000000000000000E+00 
    1.8750000000063199E-01     8.7499999999953304E-01     0.0000000000000000E+00 
    1.8750000000070621E-01     9.3749999999975764E-01     0.0000000000000000E+00 
    2.4999999999951281E-01     6.2500000000163314E-02     0.0000000000000000E+00 
    2.4999999999961461E-01     1.2500000000033351E-01     0.0000000000000000E+00 
    2.4999999999971650E-01     1.8750000000048361E-01     0.0000000000000000E+00 
    2.4999999999981831E-01     2.5000000000063310E-01     0.0000000000000000E+00 
    2.4999999999992020E-01     3.1250000000078260E-01     0.0000000000000000E+00 
    2.5000000000002198E-01     3.7500000000093209E-01     0.0000000000000000E+00 
    2.5000000000012390E-01     4.3750000000108180E-01     0.0000000000000000E+00 
    2.5000000000022571E-01     5.0000000000121769E-01     0.0000000000000000E+00 
    2.5000000000032763E-01     5.6250000000094724E-01     0.0000000000000000E+00 
    2.5000000000042938E-01     6.2500000000066314E-01     0.0000000000000000E+00 
    2.5000000000053119E-01     6.8750000000037925E-01     0.0000000000000000E+00 
[...]
CELL_DATA 256 
SCALARS Pressure double 1 
LOOKUP_TABLE default 

    2.8045848047655397E+00 
    2.6760323009693412E+00 
    2.5697645422628068E+00 
    2.4750287367216135E+00 
    2.3847976904795556E+00 
    2.2942543231359189E+00 
    2.1980143267420704E+00 
    2.1029307738971847E+00 
    2.0255596093441226E+00 
    1.9634179102010230E+00 
    1.9112165404185488E+00 
    1.8682128780741305E+00 
    1.8340205825892493E+00 
    1.8084497966778561E+00 
    1.7914235483784595E+00 
    1.7829198767139058E+00 
    2.6760545219240099E+00 
    2.6129075476736978E+00 
    2.5325704219020584E+00 
    2.4491919464646279E+00 
    2.3641608616326715E+00 
    2.2753911052405682E+00 
    2.1796548688110349E+00 
    2.0884273749029161E+00 
    2.0145724228953577E+00 
    1.9535831938802914E+00 
    1.9020562035010440E+00 
    1.8594304317103250E+00 
    1.8254230615584399E+00 
    1.7999237829842520E+00 
    1.7829144524390577E+00 
    1.7744167844769563E+00 
    2.5698183273456889E+00 
    2.5325992970037663E+00 
    2.4734030785327459E+00 
    2.4028178537355473E+00 
    2.3245848699715741E+00 
    2.2378779430484728E+00 
    2.1452801778284365E+00 
    2.0620755550719605E+00 
    1.9932858373777098E+00 
    1.9343696483742736E+00 
    1.8840519478481244E+00 
    1.8420785192792026E+00 
    1.8083660114551359E+00 
    1.7829556841825087E+00 
    1.7659431755704855E+00 
    1.7574301010741205E+00 
    2.4751187326140531E+00 
    2.4492498557272446E+00 
    2.4028451816388952E+00 
    2.3417634264963483E+00 
    2.2683817902309635E+00 
    2.1842467811191799E+00 
    2.1002710401198188E+00 
    2.0268723944824316E+00 
    1.9629653769918010E+00 
    1.9066147862960952E+00 
    1.8577622279904273E+00 
    1.8165126345978306E+00 
    1.7830539018417244E+00 
    1.7576393157981085E+00 
    1.7405287542588801E+00 
    1.7319401508121692E+00 
    2.3848925293733192E+00 
    2.3642297844182649E+00 
    2.3246317655172009E+00 
    2.2684052842458629E+00 
    2.1979380245903632E+00 
    2.1216909399105726E+00 
    2.0499811301203166E+00 
    1.9848226884189124E+00 
    1.9252074559397396E+00 
    1.8714165126486471E+00 
    1.8239224159089253E+00 
    1.7831971018820449E+00 
    1.7497418787979120E+00 
    1.7240708940757199E+00 
    1.7066573320994785E+00 
    1.6978750941181022E+00 
    2.2943293768613144E+00 
    2.2754604433952497E+00 
    2.2379397386665119E+00 
    2.1842932773943442E+00 
    2.1217168467594951E+00 
    2.0583109917671396E+00 
    1.9967886871034290E+00 
    1.9376176972067114E+00 
    1.8816808912238709E+00 
    1.8299741703249879E+00 
    1.7833510076492229E+00 
    1.7426442305618932E+00 
    1.7086830962344104E+00 
    1.6822920957064116E+00 
    1.6642189471313056E+00 
    1.6550464845415735E+00 
    2.1981072200062566E+00 
    2.1797472821911925E+00 
    2.1453692747660269E+00 
    2.1003469538452570E+00 
    2.0500351396879388E+00 
    1.9968168777504776E+00 
    1.9420156511818782E+00 
    1.8872431243101417E+00 
    1.8339829051935079E+00 
    1.7834786036599199E+00 
    1.7368954358134772E+00 
    1.6953690939309620E+00 
    1.6600827227391197E+00 
    1.6322272117397707E+00 
    1.6129138520967530E+00 
    1.6030304824400252E+00 
    2.1030738892816454E+00 
    2.0885676323199855E+00 
    2.0622064041585104E+00 
    2.0269846258562954E+00 
    1.9849101683069839E+00 
    1.9376783587534654E+00 
    1.8872751372742840E+00 
    1.8354165472252510E+00 
    1.7835804432766598E+00 
    1.7331330383032437E+00 
    1.6854355355351962E+00 
    1.6419117950972342E+00 
    1.6041071103787339E+00 
    1.5736746667212980E+00 
    1.5522337778853852E+00 
    1.5411366293545747E+00 
    2.0257579952175178E+00 
    2.0147625927382888E+00 
    1.9934593524665576E+00 
    1.9631159885772163E+00 
    1.9253312068337836E+00 
    1.8817767596569421E+00 
    1.8340512387032302E+00 
    1.7836167610415854E+00 
    1.7318406592056330E+00 
    1.6800940655296570E+00 
    1.6298498783307205E+00 
    1.5827595696807826E+00 
    1.5407767976549513E+00 
    1.5061487286637265E+00 
    1.4812384284496400E+00 
    1.4681483044949186E+00 
    1.9636621097234681E+00 
    1.9538165715596791E+00 
    1.9345850331103009E+00 
    1.9068063142676848E+00 
    1.8715802726671125E+00 
    1.8301091548891728E+00 
    1.7835875495607989E+00 
    1.7332092934363736E+00 
    1.6801335123780989E+00 
    1.6256227045106653E+00 
    1.5711376567875710E+00 
    1.5185026445369316E+00 
    1.4700873296702037E+00 
    1.4289022584306437E+00 
    1.3984332458215176E+00 
    1.3820762391371344E+00 
    1.9115023669590643E+00 
    1.9023314209843045E+00 
    1.8843096397227506E+00 
    1.8579968551761810E+00 
    1.8241303246182619E+00 
    1.7835304181483420E+00 
    1.7370456428530037E+00 
    1.6855528563143685E+00 
    1.6299311829768433E+00 
    1.5711797288785834E+00 
    1.5105822998211935E+00 
    1.4500023608969381E+00 
    1.3921441664614005E+00 
    1.3409121229505587E+00 
    1.3014833197112423E+00 
    1.2796276087353549E+00 
    1.8685354931292886E+00 
    1.8597432873713546E+00 
    1.8423747397187027E+00 
    1.8167864592772593E+00 
    1.7834444126731217E+00 
    1.7428627419599585E+00 
    1.6955577712647145E+00 
    1.6420675067947805E+00 
    1.5828789104232324E+00 
    1.5185825085617810E+00 
    1.4500411319554463E+00 
    1.3788323658086283E+00 
    1.3076395711447759E+00 
    1.2411871084358002E+00 
    1.1870303483755589E+00 
    1.1553595535820234E+00 
    1.8343722399659983E+00 
    1.8257657225201993E+00 
    1.8086928330099006E+00 
    1.7833590370749666E+00 
    1.7500210692620402E+00 
    1.7089338311419371E+00 
    1.6603038713497960E+00 
    1.6042953590934186E+00 
    1.5409287546705865E+00 
    1.4702000488946525E+00 
    1.3922160381591526E+00 
    1.3076728315565755E+00 
    1.2184254557005167E+00 
    1.1291946128876182E+00 
    1.0501309916022881E+00 
    9.9943660513355059E-01 
    1.8088202441678742E+00 
    1.8002859396372355E+00 
    1.7833028188860869E+00 
    1.7579657055859248E+00 
    1.7243723244398066E+00 
    1.6825658995097477E+00 
    1.6324719301314681E+00 
    1.5738866680127257E+00 
    1.5063246156619983E+00 
    1.4290391200758650E+00 
    1.3410086281061870E+00 
    1.2412456778005618E+00 
    1.1292203716591545E+00 
    1.0070534326223306E+00 
    8.8489149510810838E-01 
    7.9282941158289133E-01 
    1.7918005227480833E+00 
    1.7832838167074163E+00 
    1.7662984371713568E+00 
    1.7408644268356328E+00 
    1.7069692171754867E+00 
    1.6645041290954172E+00 
    1.6131703842125051E+00 
    1.5524578759663037E+00 
    1.4814268300290647E+00 
    1.3985829892275634E+00 
    1.3015937334791214E+00 
    1.1871041868840650E+00 
    1.0501731112473558E+00 
    8.8490852504799788E-01 
    6.8954410004905820E-01 
    4.9414391546175424E-01 
    1.7832898829789945E+00 
    1.7747798511497297E+00 
    1.7577800262891228E+00 
    1.7322716463021794E+00 
    1.6981839166059485E+00 
    1.6553294853594283E+00 
    1.6032849199322039E+00 
    1.5413589516430748E+00 
    1.4683355466071968E+00 
    1.3822255066972180E+00 
    1.2797395903936359E+00 
    1.1554371774857002E+00 
    9.9948441591113524E-01 
    7.9285363999029002E-01 
    4.9415199625620493E-01 
    0.0000000000000000E+00 

SCALARS Saturarion double 1 
LOOKUP_TABLE default 

    1.0000000000000000E+00 
    8.2016739014297446E-01 
    7.1318127819932664E-01 
    6.2221590279248484E-01 
    5.4272149657020019E-01 
    4.5573607533447569E-01 
    3.4393875275723557E-01 
    1.4461954840479108E-01 
    6.2548426587528908E-03 
    9.0314839280845851E-07 
    1.2965184583718444E-16 
    9.8405661792934217E-42 
   9.5224821020682703E-106 
   2.8656591584608328E-269 
    0.0000000000000000E+00 
    0.0000000000000000E+00 
    8.2016252763557074E-01 
    7.3680413477151652E-01 
    6.5634490223321540E-01 
    5.8101404338359053E-01 
    5.0620662691492324E-01 
    4.2287721741691542E-01 
    2.9495501073619201E-01 
    7.4048854110353945E-02 
    7.0034820921637117E-04 
    2.2907974927189073E-09 
    1.2016487673373829E-23 
    8.0098473819713405E-61 
   8.2665271997520503E-158 
    0.0000000000000000E+00 
    0.0000000000000000E+00 
    0.0000000000000000E+00 
    7.1316644116275563E-01 
    6.5633603870296553E-01 
    5.9396048514119515E-01 
    5.3070641277227282E-01 
    4.6113307397829151E-01 
    3.7139398475809615E-01 
    1.9151831737396208E-01 
    1.2293845403464933E-02 
    3.2371588408542169E-06 
    7.6630096528332706E-16 
    1.0090010332380360E-41 
   3.0855649472864773E-111 
   1.3841720603811098E-299 
    0.0000000000000000E+00 
    0.0000000000000000E+00 
    0.0000000000000000E+00 
    6.2218524691270305E-01 
    5.8099290830479045E-01 
    5.3069529462282272E-01 
    4.7419141731612779E-01 
    4.0190947400643712E-01 
    2.7239997907512287E-01 
    4.4324681746405359E-02 
    8.8539944129248862E-05 
    2.3583967725508950E-12 
    2.3926741924506624E-33 
    1.2354859247718351E-91 
   7.8390619577638714E-255 
    0.0000000000000000E+00 
    0.0000000000000000E+00 
    0.0000000000000000E+00 
    0.0000000000000000E+00 
    5.4212725121499517E-01 
    5.0612516718057332E-01 
    4.6110633785083871E-01 
    4.0189654377987954E-01 
    2.9932376537091288E-01 
    7.7518295584803942E-02 
    4.1261512419604339E-04 
    7.9581546271410585E-11 
    5.4585447876880227E-30 
    1.6830204146621341E-84 
   5.3735526582315413E-240 
    0.0000000000000000E+00 
    0.0000000000000000E+00 
    0.0000000000000000E+00 
    0.0000000000000000E+00 
    0.0000000000000000E+00 
    4.5546478110437161E-01 
    4.2279245266354870E-01 
    3.7134443223205238E-01 
    2.7234679169060327E-01 
    7.7490939963393499E-02 
    6.2002743466867453E-04 
    2.3705580607291740E-10 
    5.6170372614255753E-29 
    2.0701450281990529E-82 
   1.0168723154944170E-235 
    0.0000000000000000E+00 
    0.0000000000000000E+00 
    0.0000000000000000E+00 
    0.0000000000000000E+00 
    0.0000000000000000E+00 
    0.0000000000000000E+00 
    3.4374319885025556E-01 
    2.9481896579276085E-01 
    1.9138958307181625E-01 
    4.4274381972408752E-02 
    4.1197368225561837E-04 
    2.3677340146897578E-10 
    9.5988187492581383E-29 
    7.7701697635665482E-82 
   1.5756208506503547E-234 
    0.0000000000000000E+00 
    0.0000000000000000E+00 
    0.0000000000000000E+00 
    0.0000000000000000E+00 
    0.0000000000000000E+00 
    0.0000000000000000E+00 
    0.0000000000000000E+00 
    1.4438346801402702E-01 
    7.3914147192937485E-02 
    1.2263259120851676E-02 
    8.8234112221870816E-05 
    7.9247871534738135E-11 
    5.5966255589591453E-29 
    7.7530026648720385E-82 
   2.8773919917852339E-234 
    0.0000000000000000E+00 
    0.0000000000000000E+00 
    0.0000000000000000E+00 
    0.0000000000000000E+00 
    0.0000000000000000E+00 
    0.0000000000000000E+00 
    0.0000000000000000E+00 
    0.0000000000000000E+00 
    6.2239065903550491E-03 
    6.9666370717260122E-04 
    3.2157181480521583E-06 
    2.3375354078660445E-12 
    5.4037275135859909E-30 
    2.0522651732489827E-82 
   1.5659092326153773E-234 
    0.0000000000000000E+00 
    0.0000000000000000E+00 
    0.0000000000000000E+00 
    0.0000000000000000E+00 
    0.0000000000000000E+00 
    0.0000000000000000E+00 
    0.0000000000000000E+00 
    0.0000000000000000E+00 
    0.0000000000000000E+00 
    8.9350387207526625E-07 
    2.2627847879753158E-09 
    7.5397425703055837E-16 
    2.3420641601344126E-33 
    1.6443852778093129E-84 
   9.9711922431049783E-236 
    0.0000000000000000E+00 
    0.0000000000000000E+00 
    0.0000000000000000E+00 
    0.0000000000000000E+00 
    0.0000000000000000E+00 
    0.0000000000000000E+00 
    0.0000000000000000E+00 
    0.0000000000000000E+00 
    0.0000000000000000E+00 
    0.0000000000000000E+00 
    1.2659223742590079E-16 
    1.1681990314353528E-23 
    9.7056532802572349E-42 
    1.1753367308738730E-91 
   5.1033010541242642E-240 
    0.0000000000000000E+00 
    0.0000000000000000E+00 
    0.0000000000000000E+00 
    0.0000000000000000E+00 
    0.0000000000000000E+00 
    0.0000000000000000E+00 
    0.0000000000000000E+00 
    0.0000000000000000E+00 
    0.0000000000000000E+00 
    0.0000000000000000E+00 
    0.0000000000000000E+00 
    9.3346106804753359E-42 
    7.5074492044947029E-61 
   2.8145205252431120E-111 
   6.9971102489013630E-255 
    0.0000000000000000E+00 
    0.0000000000000000E+00 
    0.0000000000000000E+00 
    0.0000000000000000E+00 
    0.0000000000000000E+00 
    0.0000000000000000E+00 
    0.0000000000000000E+00 
    0.0000000000000000E+00 
    0.0000000000000000E+00 
    0.0000000000000000E+00 
    0.0000000000000000E+00 
    0.0000000000000000E+00 
   8.4843185475621658E-106 
   7.1244652994033522E-158 
   1.1134589889836381E-299 
    0.0000000000000000E+00 
    0.0000000000000000E+00 
    0.0000000000000000E+00 
    0.0000000000000000E+00 
    0.0000000000000000E+00 
    0.0000000000000000E+00 
    0.0000000000000000E+00 
    0.0000000000000000E+00 
    0.0000000000000000E+00 
    0.0000000000000000E+00 
    0.0000000000000000E+00 
    0.0000000000000000E+00 
    0.0000000000000000E+00 
   2.2272963116033635E-269 
    0.0000000000000000E+00 
    0.0000000000000000E+00 
    0.0000000000000000E+00 
    0.0000000000000000E+00 
    0.0000000000000000E+00 
    0.0000000000000000E+00 
    0.0000000000000000E+00 
    0.0000000000000000E+00 
    0.0000000000000000E+00 
    0.0000000000000000E+00 
    0.0000000000000000E+00 
    0.0000000000000000E+00 
    0.0000000000000000E+00 
    0.0000000000000000E+00 
    0.0000000000000000E+00 
    0.0000000000000000E+00 
    0.0000000000000000E+00 
    0.0000000000000000E+00 
    0.0000000000000000E+00 
    0.0000000000000000E+00 
    0.0000000000000000E+00 
    0.0000000000000000E+00 
    0.0000000000000000E+00 
    0.0000000000000000E+00 
    0.0000000000000000E+00 
    0.0000000000000000E+00 
    0.0000000000000000E+00 
    0.0000000000000000E+00 
    0.0000000000000000E+00 
    0.0000000000000000E+00 
    0.0000000000000000E+00 
    0.0000000000000000E+00 
    0.0000000000000000E+00 
    0.0000000000000000E+00 
    0.0000000000000000E+00 
    0.0000000000000000E+00 
    0.0000000000000000E+00 
    0.0000000000000000E+00 
    0.0000000000000000E+00 
    0.0000000000000000E+00 
    0.0000000000000000E+00 
    0.0000000000000000E+00 
    0.0000000000000000E+00 
    0.0000000000000000E+00 
    0.0000000000000000E+00 
    0.0000000000000000E+00 
    0.0000000000000000E+00 
