# vtk DataFile Version 2.0
Pressure Field Data 
ASCII 
DATASET UNSTRUCTURED_GRID 

POINTS 289 double 

    0.0000000000000000E+00     0.0000000000000000E+00     0.0000000000000000E+00 
    1.0000000000000000E+00     0.0000000000000000E+00     0.0000000000000000E+00 
    1.0000000000000000E+00     1.0000000000000000E+00     0.0000000000000000E+00 
    0.0000000000000000E+00     1.0000000000000000E+00     0.0000000000000000E+00 
    6.2499999999872928E-02     0.0000000000000000E+00     0.0000000000000000E+00 
    1.2499999999977310E-01     0.0000000000000000E+00     0.0000000000000000E+00 
    1.8749999999959341E-01     0.0000000000000000E+00     0.0000000000000000E+00 
    2.4999999999941089E-01     0.0000000000000000E+00     0.0000000000000000E+00 
    3.1249999999922851E-01     0.0000000000000000E+00     0.0000000000000000E+00 
    3.7499999999904610E-01     0.0000000000000000E+00     0.0000000000000000E+00 
    4.3749999999886358E-01     0.0000000000000000E+00     0.0000000000000000E+00 
    4.9999999999869210E-01     0.0000000000000000E+00     0.0000000000000000E+00 
    5.6249999999884603E-01     0.0000000000000000E+00     0.0000000000000000E+00 
    6.2499999999901090E-01     0.0000000000000000E+00     0.0000000000000000E+00 
    6.8749999999917577E-01     0.0000000000000000E+00     0.0000000000000000E+00 
    7.4999999999934064E-01     0.0000000000000000E+00     0.0000000000000000E+00 
    8.1249999999950551E-01     0.0000000000000000E+00     0.0000000000000000E+00 
    8.7499999999967026E-01     0.0000000000000000E+00     0.0000000000000000E+00 
    9.3749999999983513E-01     0.0000000000000000E+00     0.0000000000000000E+00 
    1.0000000000000000E+00     6.2499999999872928E-02     0.0000000000000000E+00 
    1.0000000000000000E+00     1.2499999999977310E-01     0.0000000000000000E+00 
    1.0000000000000000E+00     1.8749999999959341E-01     0.0000000000000000E+00 
    1.0000000000000000E+00     2.4999999999941089E-01     0.0000000000000000E+00 
    1.0000000000000000E+00     3.1249999999922851E-01     0.0000000000000000E+00 
    1.0000000000000000E+00     3.7499999999904610E-01     0.0000000000000000E+00 
    1.0000000000000000E+00     4.3749999999886358E-01     0.0000000000000000E+00 
    1.0000000000000000E+00     4.9999999999869210E-01     0.0000000000000000E+00 
    1.0000000000000000E+00     5.6249999999884603E-01     0.0000000000000000E+00 
    1.0000000000000000E+00     6.2499999999901090E-01     0.0000000000000000E+00 
    1.0000000000000000E+00     6.8749999999917577E-01     0.0000000000000000E+00 
    1.0000000000000000E+00     7.4999999999934064E-01     0.0000000000000000E+00 
    1.0000000000000000E+00     8.1249999999950551E-01     0.0000000000000000E+00 
    1.0000000000000000E+00     8.7499999999967026E-01     0.0000000000000000E+00 
    1.0000000000000000E+00     9.3749999999983513E-01     0.0000000000000000E+00 
    9.3749999999973976E-01     1.0000000000000000E+00     0.0000000000000000E+00 
    8.7499999999950118E-01     1.0000000000000000E+00     0.0000000000000000E+00 
    8.1249999999991318E-01     1.0000000000000000E+00     0.0000000000000000E+00 
    7.5000000000034706E-01     1.0000000000000000E+00     0.0000000000000000E+00 
    6.8750000000078049E-01     1.0000000000000000E+00     0.0000000000000000E+00 
    6.2500000000121403E-01     1.0000000000000000E+00     0.0000000000000000E+00 
    5.6250000000164757E-01     1.0000000000000000E+00     0.0000000000000000E+00 
    5.0000000000205946E-01     1.0000000000000000E+00     0.0000000000000000E+00 
    4.3750000000182099E-01     1.0000000000000000E+00     0.0000000000000000E+00 
    3.7500000000156092E-01     1.0000000000000000E+00     0.0000000000000000E+00 
    3.1250000000130068E-01     1.0000000000000000E+00     0.0000000000000000E+00 
    2.5000000000104050E-01     1.0000000000000000E+00     0.0000000000000000E+00 
    1.8750000000078040E-01     1.0000000000000000E+00     0.0000000000000000E+00 
    1.2500000000052031E-01     1.0000000000000000E+00     0.0000000000000000E+00 
    6.2500000000260125E-02     1.0000000000000000E+00     0.0000000000000000E+00 
    0.0000000000000000E+00     9.3749999999973976E-01     0.0000000000000000E+00 
    0.0000000000000000E+00     8.7499999999950118E-01     0.0000000000000000E+00 
    0.0000000000000000E+00     8.1249999999991318E-01     0.0000000000000000E+00 
    0.0000000000000000E+00     7.5000000000034706E-01     0.0000000000000000E+00 
    0.0000000000000000E+00     6.8750000000078049E-01     0.0000000000000000E+00 
    0.0000000000000000E+00     6.2500000000121403E-01     0.0000000000000000E+00 
    0.0000000000000000E+00     5.6250000000164757E-01     0.0000000000000000E+00 
    0.0000000000000000E+00     5.0000000000205946E-01     0.0000000000000000E+00 
    0.0000000000000000E+00     4.3750000000182099E-01     0.0000000000000000E+00 
    0.0000000000000000E+00     3.7500000000156092E-01     0.0000000000000000E+00 
    0.0000000000000000E+00     3.1250000000130068E-01     0.0000000000000000E+00 
    0.0000000000000000E+00     2.5000000000104050E-01     0.0000000000000000E+00 
    0.0000000000000000E+00     1.8750000000078040E-01     0.0000000000000000E+00 
    0.0000000000000000E+00     1.2500000000052031E-01     0.0000000000000000E+00 
    0.0000000000000000E+00     6.2500000000260125E-02     0.0000000000000000E+00 
    6.2499999999897131E-02     6.2500000000235922E-02     0.0000000000000000E+00 
    6.2499999999921327E-02     1.2500000000047351E-01     0.0000000000000000E+00 
    6.2499999999945530E-02     1.8750000000070621E-01     0.0000000000000000E+00 
    6.2499999999969733E-02     2.5000000000093858E-01     0.0000000000000000E+00 
    6.2499999999993928E-02     3.1250000000117117E-01     0.0000000000000000E+00 
    6.2500000000018124E-02     3.7500000000140382E-01     0.0000000000000000E+00 
    6.2500000000042327E-02     4.3750000000163619E-01     0.0000000000000000E+00 
    6.2500000000066530E-02     5.0000000000184897E-01     0.0000000000000000E+00 
    6.2500000000090733E-02     5.6250000000147260E-01     0.0000000000000000E+00 
    6.2500000000114922E-02     6.2500000000107636E-01     0.0000000000000000E+00 
    6.2500000000139125E-02     6.8750000000068034E-01     0.0000000000000000E+00 
    6.2500000000163328E-02     7.5000000000028411E-01     0.0000000000000000E+00 
    6.2500000000187531E-02     8.1249999999988787E-01     0.0000000000000000E+00 
    6.2500000000211720E-02     8.7499999999951172E-01     0.0000000000000000E+00 
    6.2500000000235922E-02     9.3749999999974565E-01     0.0000000000000000E+00 
    1.2499999999981980E-01     6.2500000000211733E-02     0.0000000000000000E+00 
    1.2499999999986650E-01     1.2500000000042691E-01     0.0000000000000000E+00 
    1.2499999999991319E-01     1.8750000000063199E-01     0.0000000000000000E+00 
    1.2499999999995989E-01     2.5000000000083678E-01     0.0000000000000000E+00 
    1.2500000000000661E-01     3.1250000000104172E-01     0.0000000000000000E+00 
    1.2500000000005329E-01     3.7500000000124661E-01     0.0000000000000000E+00 
    1.2500000000010000E-01     4.3750000000145117E-01     0.0000000000000000E+00 
    1.2500000000014669E-01     5.0000000000163858E-01     0.0000000000000000E+00 
    1.2500000000019340E-01     5.6250000000129741E-01     0.0000000000000000E+00 
    1.2500000000024011E-01     6.2500000000093847E-01     0.0000000000000000E+00 
    1.2500000000028680E-01     6.8750000000057998E-01     0.0000000000000000E+00 
    1.2500000000033351E-01     7.5000000000022127E-01     0.0000000000000000E+00 
    1.2500000000038020E-01     8.1249999999986211E-01     0.0000000000000000E+00 
    1.2500000000042691E-01     8.7499999999952238E-01     0.0000000000000000E+00 
    1.2500000000047359E-01     9.3749999999975164E-01     0.0000000000000000E+00 
    1.8749999999966760E-01     6.2500000000187531E-02     0.0000000000000000E+00 
    1.8749999999974179E-01     1.2500000000038020E-01     0.0000000000000000E+00 
    1.8749999999981601E-01     1.8750000000055780E-01     0.0000000000000000E+00 
    1.8749999999989009E-01     2.5000000000073502E-01     0.0000000000000000E+00 
    1.8749999999996431E-01     3.1250000000091221E-01     0.0000000000000000E+00 
    1.8750000000003850E-01     3.7500000000108941E-01     0.0000000000000000E+00 
    1.8750000000011269E-01     4.3750000000126649E-01     0.0000000000000000E+00 
    1.8750000000018691E-01     5.0000000000142808E-01     0.0000000000000000E+00 
    1.8750000000026110E-01     5.6250000000112244E-01     0.0000000000000000E+00 
    1.8750000000033529E-01     6.2500000000080080E-01     0.0000000000000000E+00 
    1.8750000000040951E-01     6.8750000000047962E-01     0.0000000000000000E+00 
    1.8750000000048361E-01     7.5000000000015843E-01     0.0000000000000000E+00 
    1.8750000000055780E-01     8.1249999999983680E-01     0.0000000000000000E+00 
    1.8750000000063199E-01     8.7499999999953304E-01     0.0000000000000000E+00 
    1.8750000000070621E-01     9.3749999999975764E-01     0.0000000000000000E+00 
    2.4999999999951281E-01     6.2500000000163314E-02     0.0000000000000000E+00 
    2.4999999999961461E-01     1.2500000000033351E-01     0.0000000000000000E+00 
    2.4999999999971650E-01     1.8750000000048361E-01     0.0000000000000000E+00 
    2.4999999999981831E-01     2.5000000000063310E-01     0.0000000000000000E+00 
    2.4999999999992020E-01     3.1250000000078260E-01     0.0000000000000000E+00 
    2.5000000000002198E-01     3.7500000000093209E-01     0.0000000000000000E+00 
    2.5000000000012390E-01     4.3750000000108180E-01     0.0000000000000000E+00 
    2.5000000000022571E-01     5.0000000000121769E-01     0.0000000000000000E+00 
    2.5000000000032763E-01     5.6250000000094724E-01     0.0000000000000000E+00 
    2.5000000000042938E-01     6.2500000000066314E-01     0.0000000000000000E+00 
    2.5000000000053119E-01     6.8750000000037925E-01     0.0000000000000000E+00 
[...]
CELL_DATA 256 
SCALARS Pressure double 1 
LOOKUP_TABLE default 

    4.4175299741871266E-01 
    3.9297575930893186E-01 
    3.6346987952054249E-01 
    3.4290046474045588E-01 
    3.2714121539450242E-01 
    3.1432416783218348E-01 
    3.0351300012228366E-01 
    2.9420179094361132E-01 
    2.8610653145698794E-01 
    2.7906628436353431E-01 
    2.7299223052580179E-01 
    2.6783920512959769E-01 
    2.6356838800124671E-01 
    2.6002992295734945E-01 
    2.5759993654114133E-01 
    2.5671594133419606E-01 
    3.9297575840027960E-01 
    3.7532544810865714E-01 
    3.5603121997993298E-01 
    3.3928168266739561E-01 
    3.2514688842145217E-01 
    3.1309592389848079E-01 
    3.0266838410952063E-01 
    2.9354902749362077E-01 
    2.8553954474277099E-01 
    2.7852229872369377E-01 
    2.7243331401055304E-01 
    2.6724412522443403E-01 
    2.6293057506669054E-01 
    2.5936103890626849E-01 
    2.5683405051639274E-01 
    2.5592744721784622E-01 
    3.6346985090753359E-01 
    3.5603119897814023E-01 
    3.4438802717038558E-01 
    3.3206003541812773E-01 
    3.2038565169045075E-01 
    3.0972329936757276E-01 
    3.0009445081731306E-01 
    2.9143574668021205E-01 
    2.8368415354145737E-01 
    2.7679906033768875E-01 
    2.7076394932461068E-01 
    2.6558268442577365E-01 
    2.6125778726998639E-01 
    2.5768931448987220E-01 
    2.5509653631718021E-01 
    2.5420666349198168E-01 
    3.4290037500747311E-01 
    3.3928160358575493E-01 
    3.3205998314002055E-01 
    3.2317716498642812E-01 
    3.1385985201052963E-01 
    3.0473292698009580E-01 
    2.9608112937022218E-01 
    2.8803008328499946E-01 
    2.8064179128478550E-01 
    2.7395804942099605E-01 
    2.6801862653856739E-01 
    2.6286855949795340E-01 
    2.5854488443324980E-01 
    2.5498336627174001E-01 
    2.5234238334944736E-01 
    2.5148670922529581E-01 
    3.2714104028194357E-01 
    3.2514671824220370E-01 
    3.2038550782979169E-01 
    3.1385976508114216E-01 
    3.0642970377660539E-01 
    2.9868354342685516E-01 
    2.9098662066224573E-01 
    2.8356417362160841E-01 
    2.7656470365168390E-01 
    2.7009814214751604E-01 
    2.6425751098385342E-01 
    2.5913131144280810E-01 
    2.5479496836209575E-01 
    2.5122031237603898E-01 
    2.4852832037357175E-01 
    2.4771275554746233E-01 
    3.1432387756524183E-01 
    3.1309563751667518E-01 
    3.0972303316695393E-01 
    3.0473271347648878E-01 
    2.9868341564595846E-01 
    2.9204148647325490E-01 
    2.8515770877363888E-01 
    2.7828973444881477E-01 
    2.7163261302647768E-01 
    2.6534329200514262E-01 
    2.5955906622660435E-01 
    2.5441076172589805E-01 
    2.5001603673995981E-01 
    2.4638658285962556E-01 
    2.4361788286024549E-01 
    2.4283490759454510E-01 
    3.0351255704405539E-01 
    3.0266794859251295E-01 
    3.0009403118821221E-01 
    2.9608074769615039E-01 
    2.9098631006682463E-01 
    2.8515751550944624E-01 
    2.7889513004921768E-01 
    2.7245028288372952E-01 
    2.6603416539994923E-01 
    2.5983132566588929E-01 
    2.5401385378895264E-01 
    2.4875349111747821E-01 
    2.4421494982201891E-01 
    2.4045888539595181E-01 
    2.3755679279227659E-01 
    2.3678775916698586E-01 
    2.9420116526406953E-01 
    2.9354840698617179E-01 
    2.9143513675234467E-01 
    2.8802949401079686E-01 
    2.8356362678659386E-01 
    2.7828927396926534E-01 
    2.7244998916784863E-01 
    2.6627049160144023E-01 
    2.5995763648452119E-01 
    2.5370855656339941E-01 
    2.4772238018349921E-01 
    2.4221137636187751E-01 
    2.3739444882227240E-01 
    2.3339724111017590E-01 
    2.3026410583108628E-01 
    2.2947812582620228E-01 
    2.8610569818157833E-01 
    2.8553871036739087E-01 
    2.8368332382874228E-01 
    2.8064096950410283E-01 
    2.7656388948238286E-01 
    2.7163183104390082E-01 
    2.6603348269282096E-01 
    2.5995718767534026E-01 
    2.5359127863584879E-01 
    2.4713261705718953E-01 
    2.4079917023213712E-01 
    2.3484285687499790E-01 
    2.2954775517606660E-01 
    2.2513091121493783E-01 
    2.2162052458874751E-01 
    2.2077539079488750E-01 
    2.7906523830784613E-01 
    2.7852124672403789E-01 
    2.7679800735769172E-01 
    2.7395699165248072E-01 
    2.7009705174732274E-01 
    2.6534215486995893E-01 
    2.5983016587830071E-01 
    2.5370747852455300E-01 
    2.4713187086977242E-01 
    2.4028447640680484E-01 
    2.3338773357640077E-01 
    2.2672655788041787E-01 
    2.2066214574180534E-01 
    2.1554439823058663E-01 
    2.1144731754058060E-01 
    2.1049072722074572E-01 
    2.7299100062378867E-01 
    2.7243207032353661E-01 
    2.7076270334075597E-01 
    2.6801735830174694E-01 
    2.6425615267713809E-01 
    2.5955755515914553E-01 
    2.5401213307406018E-01 
    2.4772045991374936E-01 
    2.4079730584204218E-01 
    2.3338645093536498E-01 
    2.2568713820353445E-01 
    2.1799285151042697E-01 
    2.1074040098949562E-01 
    2.0447230756597798E-01 
    1.9947725631514071E-01 
    1.9832276742000704E-01 
    2.6783783959598129E-01 
    2.6724273566998541E-01 
    2.6558131463835671E-01 
    2.6286715164131680E-01 
    2.5912973343273138E-01 
    2.5440892340504095E-01 
    2.4875120545351651E-01 
    2.4220839779401085E-01 
    2.3483943009996019E-01 
    2.2672336670947071E-01 
    2.1799069329608076E-01 
    2.0888179860879100E-01 
    1.9985348164550140E-01 
    1.9167822337779597E-01 
    1.8518839030818052E-01 
    1.8357854802132756E-01 
    2.6356705661581376E-01 
    2.6292918075463595E-01 
    2.6125644944504062E-01 
    2.5854345465317863E-01 
    2.5479326818623743E-01 
    2.5001408512066181E-01 
    2.4421240286505719E-01 
    2.3739029529514105E-01 
    2.2954223568099053E-01 
    2.2065638531851678E-01 
    2.1073501137726577E-01 
    1.9984991674348371E-01 
    1.8829032459099540E-01 
    1.7689879314474968E-01 
    1.6729222603972327E-01 
    1.6404049856270009E-01 
    2.6002933842657239E-01 
    2.5935980776300233E-01 
    2.5768804546183915E-01 
    2.5498192423647453E-01 
    2.5121856224829320E-01 
    2.4638485308529834E-01 
    2.4045714570338958E-01 
    2.3339233748706426E-01 
    2.2512301190607373E-01 
    2.1553582927550599E-01 
    2.0446204926556580E-01 
    1.9166881605392996E-01 
    1.7689467703495329E-01 
    1.6033861220769183E-01 
    1.4375279697158408E-01 
    1.3426078143628720E-01 
    2.5759803467798637E-01 
    2.5683211331354178E-01 
    2.5509488504119776E-01 
    2.5234042605635304E-01 
    2.4852592645353008E-01 
    2.4361525179530574E-01 
    2.3755347449805048E-01 
    2.3025634745862400E-01 
    2.2160902684676678E-01 
    2.1143564958833835E-01 
    1.9945960018890144E-01 
    1.8516768645314521E-01 
    1.6728337744223229E-01 
    1.4375635523545288E-01 
    1.1379564951497673E-01 
    8.5178051812436081E-02 
    2.5671366509924376E-01 
    2.5592524201560318E-01 
    2.5420471678662121E-01 
    2.5148453475591637E-01 
    2.4771011973710991E-01 
    2.4283173136185451E-01 
    2.3678336640361108E-01 
    2.2946995869015602E-01 
    2.2076372580598230E-01 
    2.1047811347640014E-01 
    1.9830142347481117E-01 
    1.8355027070781083E-01 
    1.6403128262386674E-01 
    1.3428023878346343E-01 
    8.5189820507315300E-02 
    0.0000000000000000E+00 

SCALARS Saturarion double 1 
LOOKUP_TABLE default 

    1.0000000000000000E+00 
    9.9743060267756511E-01 
    9.9265784076215668E-01 
    9.8410582400705338E-01 
    9.7202629979022137E-01 
    9.5752929537586695E-01 
    9.4125656757302045E-01 
    9.2373382278396388E-01 
    9.0528628413053591E-01 
    8.8599991466209327E-01 
    8.6590432756136382E-01 
    8.4505861237440139E-01 
    8.1875601621879890E-01 
    7.4392513487336498E-01 
    2.4109029296956661E-01 
    1.0000006583488234E-06 
    9.9743034411588627E-01 
    9.9489519264293913E-01 
    9.8978312300912419E-01 
    9.8161873736696825E-01 
    9.7011109554155983E-01 
    9.5608766013608715E-01 
    9.4024804772862736E-01 
    9.2311183277277420E-01 
    9.0499990755896798E-01 
    8.8600689380107589E-01 
    8.6617059739634028E-01 
    8.4555337574297929E-01 
    8.1976393056919594E-01 
    7.4992929800259145E-01 
    2.7866236726602228E-01 
    4.3054083222042296E-06 
    9.9265715252710141E-01 
    9.8978257972181094E-01 
    9.8360887627625548E-01 
    9.7541529840674934E-01 
    9.6468606823219571E-01 
    9.5160570810373302E-01 
    9.3665106157695532E-01 
    9.2030529984178078E-01 
    9.0289653829966898E-01 
    8.8454198262869510E-01 
    8.6531921097958431E-01 
    8.4528729383119561E-01 
    8.2058326111679802E-01 
    7.5716422909988634E-01 
    3.0808971861158602E-01 
    6.7571548988889382E-06 
    9.8410451435894364E-01 
    9.8161726934502502E-01 
    9.7541391875662120E-01 
    9.6694944246565095E-01 
    9.5673622029675365E-01 
    9.4455636127642317E-01 
    9.3059906458438713E-01 
    9.1526321277994072E-01 
    8.9886667261819131E-01 
    8.8154116859222753E-01 
    8.6330527455970740E-01 
    8.4426982426149966E-01 
    8.2124050126656389E-01 
    7.6178991317502875E-01 
    3.3608646848609558E-01 
    1.6570894965775143E-05 
    9.7202437072932013E-01 
    9.7010980225748844E-01 
    9.6468455261600017E-01 
    9.5673451531365272E-01 
    9.4693670427953780E-01 
    9.3553629336980160E-01 
    9.2265095381647277E-01 
    9.0855428635978008E-01 
    8.9346774217003655E-01 
    8.7741731136465750E-01 
    8.6033710489715165E-01 
    8.4236003100125290E-01 
    8.2053963778891181E-01 
    7.6538564181397528E-01 
    3.5714841737569303E-01 
    1.2789178314644396E-05 
    9.5752478402449270E-01 
    9.5608596422755676E-01 
    9.5160541357761597E-01 
    9.4455460194612761E-01 
    9.3553382374606808E-01 
    9.2502818718841717E-01 
    9.1336483625771181E-01 
    9.0075886286330920E-01 
    8.8722107851275711E-01 
    8.7253784168963744E-01 
    8.5660468540533830E-01 
    8.3958516406864769E-01 
    8.1903754863127110E-01 
    7.6671557306645111E-01 
    3.7108362959325208E-01 
    1.8064481967070724E-05 
    9.4125013174444483E-01 
    9.4024436174450488E-01 
    9.3664997691260665E-01 
    9.3059853489398492E-01 
    9.2264783986225352E-01 
    9.1336160720486281E-01 
    9.0318354032565440E-01 
    8.9227265318331928E-01 
    8.8039760179668125E-01 
    8.6713606098592710E-01 
    8.5236953895689538E-01 
    8.3641614613635273E-01 
    8.1730279883222712E-01 
    7.6756343806636673E-01 
    3.9081710005669335E-01 
    9.0383527631007968E-05 
    9.2372541466217872E-01 
    9.2310643431063588E-01 
    9.2030146774482180E-01 
    9.1526214928620064E-01 
    9.0855313580358765E-01 
    9.0075564569410405E-01 
    8.9227091861830787E-01 
    8.8313319625777287E-01 
    8.7295462455429895E-01 
    8.6125827406046473E-01 
    8.4783699618603203E-01 
    8.3307342781272986E-01 
    8.1542497999853791E-01 
    7.6943149450685777E-01 
    4.1314483207407915E-01 
    1.7445726748099413E-04 
    9.0527467835561648E-01 
    9.0499345013022880E-01 
    9.0289149029613480E-01 
    8.9886314469306261E-01 
    8.9346840229131297E-01 
    8.8722164974358142E-01 
    8.8039778168495619E-01 
    8.7295650906139377E-01 
    8.6459769584701907E-01 
    8.5485409338730678E-01 
    8.4322841611431920E-01 
    8.2980413888528259E-01 
    8.1338678314961255E-01 
    7.7168129786057993E-01 
    4.4943382966542517E-01 
    5.9826898683124205E-04 
    8.8598653827019846E-01 
    8.8600134802752806E-01 
    8.8453990186425502E-01 
    8.8153568242965930E-01 
    8.7741471682227734E-01 
    8.7253995616104685E-01 
    8.6713834343243823E-01 
    8.6126077161691406E-01 
    8.5485749929989630E-01 
    8.4757214589525354E-01 
    8.3849279506881158E-01 
    8.2689945625176742E-01 
    8.1190689985139985E-01 
    7.7450846999610379E-01 
    4.9492057656931787E-01 
    2.3247645734203676E-03 
    8.6589236824724602E-01 
    8.6616674337740651E-01 
    8.6532136860357689E-01 
    8.6330320511854075E-01 
    8.6032978684613526E-01 
    8.5659987464838727E-01 
    8.5236892499484895E-01 
    8.4783715560482975E-01 
    8.4323245227966048E-01 
    8.3850138421543974E-01 
    8.3272447025684893E-01 
    8.2416502069326281E-01 
    8.1130326909295825E-01 
    7.7828482239402419E-01 
    5.5099216291150810E-01 
    1.0795490881390171E-02 
    8.4504624985514387E-01 
    8.4555583919457122E-01 
    8.4529817482128000E-01 
    8.4427195285780798E-01 
    8.4235372646437645E-01 
    8.3957553116146832E-01 
    8.3640730909251904E-01 
    8.3306802646103706E-01 
    8.2980397765603031E-01 
    8.2691015646634447E-01 
    8.2417988854926039E-01 
    8.1983648131809317E-01 
    8.1091765533630755E-01 
    7.8394995276327883E-01 
    6.0672134951291101E-01 
    4.4154452511900123E-02 
    8.1877203894807771E-01 
    8.1980492483032152E-01 
    8.2062555599830866E-01 
    8.2123832601327207E-01 
    8.2053596808816898E-01 
    8.1904152764443394E-01 
    8.1729471617960814E-01 
    8.1541623371783967E-01 
    8.1339050057265461E-01 
    8.1191670105496094E-01 
    8.1131928695133515E-01 
    8.1093285575719720E-01 
    8.0776241831543438E-01 
    7.8994496167169859E-01 
    6.6310401901055283E-01 
    1.5969987885128037E-01 
    7.4420624571410809E-01 
    7.5004605765721932E-01 
    7.5713850145252537E-01 
    7.6174209268940729E-01 
    7.6536515638577396E-01 
    7.6678203487045893E-01 
    7.6751685309878592E-01 
    7.6944288369165070E-01 
    7.7182484987945910E-01 
    7.7466250528306546E-01 
    7.7829701889210412E-01 
    7.8391877641402197E-01 
    7.8991701176803730E-01 
    7.8903720803679900E-01 
    7.0953604124559644E-01 
    3.5152861602048585E-01 
    2.4246301919369709E-01 
    2.7830906034365654E-01 
    3.0808168279178599E-01 
    3.3645013435007276E-01 
    3.5726739306448907E-01 
    3.7132901021916243E-01 
    3.9139848448771319E-01 
    4.1657988602823615E-01 
    4.4920900156667726E-01 
    4.9602082477296727E-01 
    5.5210109629433013E-01 
    6.0762610823423124E-01 
    6.6307288230553385E-01 
    7.0941545548824314E-01 
    7.0395962324916905E-01 
    4.8972806342923358E-01 
    1.0000005664543308E-06 
    4.0181131957227633E-06 
    6.9929466438488434E-06 
    1.7919618197108785E-05 
    1.2182854147807831E-05 
    1.7603966495482134E-05 
    9.9507112713707936E-05 
    2.2446082560103773E-04 
    5.3973811355813154E-04 
    2.3544565898318526E-03 
    1.1429328465497114E-02 
    4.3718959092190576E-02 
    1.5799417757223350E-01 
    3.5106494438105540E-01 
    4.8968985768609602E-01 
    4.9004815177377187E-01 
