# vtk DataFile Version 2.0
Pressure Field Data 
ASCII 
DATASET UNSTRUCTURED_GRID 

POINTS 289 double 

    0.0000000000000000E+00     0.0000000000000000E+00     0.0000000000000000E+00 
    1.0000000000000000E+00     0.0000000000000000E+00     0.0000000000000000E+00 
    1.0000000000000000E+00     1.0000000000000000E+00     0.0000000000000000E+00 
    0.0000000000000000E+00     1.0000000000000000E+00     0.0000000000000000E+00 
    6.2499999999872928E-02     0.0000000000000000E+00     0.0000000000000000E+00 
    1.2499999999977310E-01     0.0000000000000000E+00     0.0000000000000000E+00 
    1.8749999999959341E-01     0.0000000000000000E+00     0.0000000000000000E+00 
    2.4999999999941089E-01     0.0000000000000000E+00     0.0000000000000000E+00 
    3.1249999999922851E-01     0.0000000000000000E+00     0.0000000000000000E+00 
    3.7499999999904610E-01     0.0000000000000000E+00     0.0000000000000000E+00 
    4.3749999999886358E-01     0.0000000000000000E+00     0.0000000000000000E+00 
    4.9999999999869210E-01     0.0000000000000000E+00     0.0000000000000000E+00 
    5.6249999999884603E-01     0.0000000000000000E+00     0.0000000000000000E+00 
    6.2499999999901090E-01     0.0000000000000000E+00     0.0000000000000000E+00 
    6.8749999999917577E-01     0.0000000000000000E+00     0.0000000000000000E+00 
    7.4999999999934064E-01     0.0000000000000000E+00     0.0000000000000000E+00 
    8.1249999999950551E-01     0.0000000000000000E+00     0.0000000000000000E+00 
    8.7499999999967026E-01     0.0000000000000000E+00     0.0000000000000000E+00 
    9.3749999999983513E-01     0.0000000000000000E+00     0.0000000000000000E+00 
    1.0000000000000000E+00     6.2499999999872928E-02     0.0000000000000000E+00 
    1.0000000000000000E+00     1.2499999999977310E-01     0.0000000000000000E+00 
    1.0000000000000000E+00     1.8749999999959341E-01     0.0000000000000000E+00 
    1.0000000000000000E+00     2.4999999999941089E-01     0.0000000000000000E+00 
    1.0000000000000000E+00     3.1249999999922851E-01     0.0000000000000000E+00 
    1.0000000000000000E+00     3.7499999999904610E-01     0.0000000000000000E+00 
    1.0000000000000000E+00     4.3749999999886358E-01     0.0000000000000000E+00 
    1.0000000000000000E+00     4.9999999999869210E-01     0.0000000000000000E+00 
    1.0000000000000000E+00     5.6249999999884603E-01     0.0000000000000000E+00 
    1.0000000000000000E+00     6.2499999999901090E-01     0.0000000000000000E+00 
    1.0000000000000000E+00     6.8749999999917577E-01     0.0000000000000000E+00 
    1.0000000000000000E+00     7.4999999999934064E-01     0.0000000000000000E+00 
    1.0000000000000000E+00     8.1249999999950551E-01     0.0000000000000000E+00 
    1.0000000000000000E+00     8.7499999999967026E-01     0.0000000000000000E+00 
    1.0000000000000000E+00     9.3749999999983513E-01     0.0000000000000000E+00 
    9.3749999999973976E-01     1.0000000000000000E+00     0.0000000000000000E+00 
    8.7499999999950118E-01     1.0000000000000000E+00     0.0000000000000000E+00 
    8.1249999999991318E-01     1.0000000000000000E+00     0.0000000000000000E+00 
    7.5000000000034706E-01     1.0000000000000000E+00     0.0000000000000000E+00 
    6.8750000000078049E-01     1.0000000000000000E+00     0.0000000000000000E+00 
    6.2500000000121403E-01     1.0000000000000000E+00     0.0000000000000000E+00 
    5.6250000000164757E-01     1.0000000000000000E+00     0.0000000000000000E+00 
    5.0000000000205946E-01     1.0000000000000000E+00     0.0000000000000000E+00 
    4.3750000000182099E-01     1.0000000000000000E+00     0.0000000000000000E+00 
    3.7500000000156092E-01     1.0000000000000000E+00     0.0000000000000000E+00 
    3.1250000000130068E-01     1.0000000000000000E+00     0.0000000000000000E+00 
    2.5000000000104050E-01     1.0000000000000000E+00     0.0000000000000000E+00 
    1.8750000000078040E-01     1.0000000000000000E+00     0.0000000000000000E+00 
    1.2500000000052031E-01     1.0000000000000000E+00     0.0000000000000000E+00 
    6.2500000000260125E-02     1.0000000000000000E+00     0.0000000000000000E+00 
    0.0000000000000000E+00     9.3749999999973976E-01     0.0000000000000000E+00 
    0.0000000000000000E+00     8.7499999999950118E-01     0.0000000000000000E+00 
    0.0000000000000000E+00     8.1249999999991318E-01     0.0000000000000000E+00 
    0.0000000000000000E+00     7.5000000000034706E-01     0.0000000000000000E+00 
    0.0000000000000000E+00     6.8750000000078049E-01     0.0000000000000000E+00 
    0.0000000000000000E+00     6.2500000000121403E-01     0.0000000000000000E+00 
    0.0000000000000000E+00     5.6250000000164757E-01     0.0000000000000000E+00 
    0.0000000000000000E+00     5.0000000000205946E-01     0.0000000000000000E+00 
    0.0000000000000000E+00     4.3750000000182099E-01     0.0000000000000000E+00 
    0.0000000000000000E+00     3.7500000000156092E-01     0.0000000000000000E+00 
    0.0000000000000000E+00     3.1250000000130068E-01     0.0000000000000000E+00 
    0.0000000000000000E+00     2.5000000000104050E-01     0.0000000000000000E+00 
    0.0000000000000000E+00     1.8750000000078040E-01     0.0000000000000000E+00 
    0.0000000000000000E+00     1.2500000000052031E-01     0.0000000000000000E+00 
    0.0000000000000000E+00     6.2500000000260125E-02     0.0000000000000000E+00 
    6.2499999999897131E-02     6.2500000000235922E-02     0.0000000000000000E+00 
    6.2499999999921327E-02     1.2500000000047351E-01     0.0000000000000000E+00 
    6.2499999999945530E-02     1.8750000000070621E-01     0.0000000000000000E+00 
    6.2499999999969733E-02     2.5000000000093858E-01     0.0000000000000000E+00 
    6.2499999999993928E-02     3.1250000000117117E-01     0.0000000000000000E+00 
    6.2500000000018124E-02     3.7500000000140382E-01     0.0000000000000000E+00 
    6.2500000000042327E-02     4.3750000000163619E-01     0.0000000000000000E+00 
    6.2500000000066530E-02     5.0000000000184897E-01     0.0000000000000000E+00 
    6.2500000000090733E-02     5.6250000000147260E-01     0.0000000000000000E+00 
    6.2500000000114922E-02     6.2500000000107636E-01     0.0000000000000000E+00 
    6.2500000000139125E-02     6.8750000000068034E-01     0.0000000000000000E+00 
    6.2500000000163328E-02     7.5000000000028411E-01     0.0000000000000000E+00 
    6.2500000000187531E-02     8.1249999999988787E-01     0.0000000000000000E+00 
    6.2500000000211720E-02     8.7499999999951172E-01     0.0000000000000000E+00 
    6.2500000000235922E-02     9.3749999999974565E-01     0.0000000000000000E+00 
    1.2499999999981980E-01     6.2500000000211733E-02     0.0000000000000000E+00 
    1.2499999999986650E-01     1.2500000000042691E-01     0.0000000000000000E+00 
    1.2499999999991319E-01     1.8750000000063199E-01     0.0000000000000000E+00 
    1.2499999999995989E-01     2.5000000000083678E-01     0.0000000000000000E+00 
    1.2500000000000661E-01     3.1250000000104172E-01     0.0000000000000000E+00 
    1.2500000000005329E-01     3.7500000000124661E-01     0.0000000000000000E+00 
    1.2500000000010000E-01     4.3750000000145117E-01     0.0000000000000000E+00 
    1.2500000000014669E-01     5.0000000000163858E-01     0.0000000000000000E+00 
    1.2500000000019340E-01     5.6250000000129741E-01     0.0000000000000000E+00 
    1.2500000000024011E-01     6.2500000000093847E-01     0.0000000000000000E+00 
    1.2500000000028680E-01     6.8750000000057998E-01     0.0000000000000000E+00 
    1.2500000000033351E-01     7.5000000000022127E-01     0.0000000000000000E+00 
    1.2500000000038020E-01     8.1249999999986211E-01     0.0000000000000000E+00 
    1.2500000000042691E-01     8.7499999999952238E-01     0.0000000000000000E+00 
    1.2500000000047359E-01     9.3749999999975164E-01     0.0000000000000000E+00 
    1.8749999999966760E-01     6.2500000000187531E-02     0.0000000000000000E+00 
    1.8749999999974179E-01     1.2500000000038020E-01     0.0000000000000000E+00 
    1.8749999999981601E-01     1.8750000000055780E-01     0.0000000000000000E+00 
    1.8749999999989009E-01     2.5000000000073502E-01     0.0000000000000000E+00 
    1.8749999999996431E-01     3.1250000000091221E-01     0.0000000000000000E+00 
    1.8750000000003850E-01     3.7500000000108941E-01     0.0000000000000000E+00 
    1.8750000000011269E-01     4.3750000000126649E-01     0.0000000000000000E+00 
    1.8750000000018691E-01     5.0000000000142808E-01     0.0000000000000000E+00 
    1.8750000000026110E-01     5.6250000000112244E-01     0.0000000000000000E+00 
    1.8750000000033529E-01     6.2500000000080080E-01     0.0000000000000000E+00 
    1.8750000000040951E-01     6.8750000000047962E-01     0.0000000000000000E+00 
    1.8750000000048361E-01     7.5000000000015843E-01     0.0000000000000000E+00 
    1.8750000000055780E-01     8.1249999999983680E-01     0.0000000000000000E+00 
    1.8750000000063199E-01     8.7499999999953304E-01     0.0000000000000000E+00 
    1.8750000000070621E-01     9.3749999999975764E-01     0.0000000000000000E+00 
    2.4999999999951281E-01     6.2500000000163314E-02     0.0000000000000000E+00 
    2.4999999999961461E-01     1.2500000000033351E-01     0.0000000000000000E+00 
    2.4999999999971650E-01     1.8750000000048361E-01     0.0000000000000000E+00 
    2.4999999999981831E-01     2.5000000000063310E-01     0.0000000000000000E+00 
    2.4999999999992020E-01     3.1250000000078260E-01     0.0000000000000000E+00 
    2.5000000000002198E-01     3.7500000000093209E-01     0.0000000000000000E+00 
    2.5000000000012390E-01     4.3750000000108180E-01     0.0000000000000000E+00 
    2.5000000000022571E-01     5.0000000000121769E-01     0.0000000000000000E+00 
    2.5000000000032763E-01     5.6250000000094724E-01     0.0000000000000000E+00 
    2.5000000000042938E-01     6.2500000000066314E-01     0.0000000000000000E+00 
    2.5000000000053119E-01     6.8750000000037925E-01     0.0000000000000000E+00 
[...]
CELL_DATA 256 
SCALARS Pressure double 1 
LOOKUP_TABLE default 

    4.4757182673599366E-01 
    3.9881045705417567E-01 
    3.6933346888160634E-01 
    3.4880924255092549E-01 
    3.3311448562581319E-01 
    3.2038150249548231E-01 
    3.0967249812734471E-01 
    3.0047978686701560E-01 
    2.9251782744776283E-01 
    2.8562464161101414E-01 
    2.7971027258498959E-01 
    2.7472874942931891E-01 
    2.7065361042971187E-01 
    2.6740431855815416E-01 
    2.6483581121839833E-01 
    2.6390262024083316E-01 
    3.9881058962244031E-01 
    3.8117251185764905E-01 
    3.6190462185856986E-01 
    3.4519775607240416E-01 
    3.3112402571149535E-01 
    3.1915298978531131E-01 
    3.0882319648811912E-01 
    2.9981795634377140E-01 
    2.9193768872404202E-01 
    2.8506393913904043E-01 
    2.7913173420250004E-01 
    2.7411159772611554E-01 
    2.6999057531841808E-01 
    2.6670363082457749E-01 
    2.6406788107630264E-01 
    2.6311571795403238E-01 
    3.6933382678084825E-01 
    3.6190484886205515E-01 
    3.5028526598330284E-01 
    3.3799659523844083E-01 
    3.2637841207236501E-01 
    3.1578970834419157E-01 
    3.0625155381376934E-01 
    2.9769971290665992E-01 
    2.9007039951182051E-01 
    2.8332271837734019E-01 
    2.7743967469134834E-01 
    2.7242425393480518E-01 
    2.6828838879713907E-01 
    2.6499213432860458E-01 
    2.6232884617136260E-01 
    2.6140650912147934E-01 
    3.4880990737534717E-01 
    3.4519828792192109E-01 
    3.3799690442686708E-01 
    3.2914854337543087E-01 
    3.1988071787848288E-01 
    3.1081897419158294E-01 
    3.0224816885537370E-01 
    2.9429361464332848E-01 
    2.8701725662653360E-01 
    2.8046159066674342E-01 
    2.7466711235329816E-01 
    2.6967872198500453E-01 
    2.6554175192127827E-01 
    2.6224702954944257E-01 
    2.5958361293603344E-01 
    2.5871326549073742E-01 
    3.3311554536755422E-01 
    3.3112494346171339E-01 
    3.2637910758488781E-01 
    3.1988111069382474E-01 
    3.1249185673112406E-01 
    3.0480017358552569E-01 
    2.9717164594554457E-01 
    2.8983157276591115E-01 
    2.8292931306002433E-01 
    2.7657718077343613E-01 
    2.7087108910470259E-01 
    2.6590122698767671E-01 
    2.6175187117618914E-01 
    2.5844958084587255E-01 
    2.5579423745477520E-01 
    2.5498507094821871E-01 
    3.2038303917200522E-01 
    3.1915438127959894E-01 
    3.1579087652336862E-01 
    3.1081984390654110E-01 
    3.0480065682008539E-01 
    2.9819997350461658E-01 
    2.9136853033113075E-01 
    2.8456425192620194E-01 
    2.7798428377331724E-01 
    2.7179035251861272E-01 
    2.6612573718558563E-01 
    2.6112611367190025E-01 
    2.5692000543311622E-01 
    2.5357679289607915E-01 
    2.5091951904793436E-01 
    2.5017372261523424E-01 
    3.0967458348670784E-01 
    3.0882514104472231E-01 
    3.0625328188277195E-01 
    3.0224960276243551E-01 
    2.9717270071476870E-01 
    2.9136910845115799E-01 
    2.8513904760480702E-01 
    2.7873416784675792E-01 
    2.7236917555917706E-01 
    2.6623592636339738E-01 
    2.6051607067569227E-01 
    2.5539090525444863E-01 
    2.5104098660816376E-01 
    2.4759023927564072E-01 
    2.4489942842739357E-01 
    2.4421350974846012E-01 
    3.0048249401621741E-01 
    2.9982052633619066E-01 
    2.9770208063385956E-01 
    2.9429570270278510E-01 
    2.8983329426105142E-01 
    2.8456550930284080E-01 
    2.7873485368926681E-01 
    2.7256680163127800E-01 
    2.6627264273280055E-01 
    2.6005841502154198E-01 
    2.5413623865610752E-01 
    2.4873451576592556E-01 
    2.4409774151686800E-01 
    2.4042627510748901E-01 
    2.3764511276443109E-01 
    2.3701011450110235E-01 
    2.9252121882490906E-01 
    2.9194094938983872E-01 
    2.9007348209060208E-01 
    2.8702009415051943E-01 
    2.8293181392685673E-01 
    2.7798634507755787E-01 
    2.7237068266475051E-01 
    2.6627347313553795E-01 
    2.5988684606318663E-01 
    2.5341627194711946E-01 
    2.4709527361395317E-01 
    2.4120016034823874E-01 
    2.3605529557300570E-01 
    2.3197396216712218E-01 
    2.2899578981553784E-01 
    2.2838989149298164E-01 
    2.8562876929076492E-01 
    2.8506795326869327E-01 
    2.8332659417704026E-01 
    2.8046527857515302E-01 
    2.7658058757159854E-01 
    2.7179336299013279E-01 
    2.6623841445769392E-01 
    2.6006025609353645E-01 
    2.5341731852132510E-01 
    2.4649639491178396E-01 
    2.3953576614681577E-01 
    2.3285254823939777E-01 
    2.2686599910314967E-01 
    2.2205751123092488E-01 
    2.1867639400251759E-01 
    2.1803823202364908E-01 
    2.7971519579966414E-01 
    2.7913656763452016E-01 
    2.7744442919571788E-01 
    2.7467175877391914E-01 
    2.7087552914275476E-01 
    2.6612983704436388E-01 
    2.6051968400096454E-01 
    2.5413925836014845E-01 
    2.4709763022731016E-01 
    2.3953720569579739E-01 
    2.3166810121239068E-01 
    2.2381865492500608E-01 
    2.1649873999910368E-01 
    2.1041981474372468E-01 
    2.0621027412371781E-01 
    2.0536445574520032E-01 
    2.7473451334801385E-01 
    2.7411729979638372E-01 
    2.7242996990815604E-01 
    2.6968444809709496E-01 
    2.6590683889354783E-01 
    2.6113144602057942E-01 
    2.5539574440898921E-01 
    2.4873877029378946E-01 
    2.4120407411485478E-01 
    2.3285597511969178E-01 
    2.2382068450808051E-01 
    2.1436439720345973E-01 
    2.0502191248402341E-01 
    1.9674255834700266E-01 
    1.9072752271577101E-01 
    1.8905756561667966E-01 
    2.7066026795896686E-01 
    2.6999720041168807E-01 
    2.6829517930507440E-01 
    2.6554870815066600E-01 
    2.6175882269358774E-01 
    2.5692680151637298E-01 
    2.5104716608902367E-01 
    2.4410296314016403E-01 
    2.3606084403484834E-01 
    2.2687234877738044E-01 
    2.1650355964298346E-01 
    2.0502342817606556E-01 
    1.9280243637732089E-01 
    1.8085492454864791E-01 
    1.7100598253504953E-01 
    1.6667039940705522E-01 
    2.6741218866604349E-01 
    2.6671129604447091E-01 
    2.6500005397346266E-01 
    2.6225520125432733E-01 
    2.5845799358923549E-01 
    2.5358559286990412E-01 
    2.4759817303492612E-01 
    2.4043118990983428E-01 
    2.3198060138620527E-01 
    2.2206934107632242E-01 
    2.1042984441605178E-01 
    1.9674437208949022E-01 
    1.8085179830988482E-01 
    1.6328259302915485E-01 
    1.4599456649635895E-01 
    1.3447067098999524E-01 
    2.6484386044918895E-01 
    2.6407615847289534E-01 
    2.6233780878924740E-01 
    2.5959287380224921E-01 
    2.5580404032976484E-01 
    2.5093162183194528E-01 
    2.4491295666497898E-01 
    2.3764914253887540E-01 
    2.2900031997041800E-01 
    2.1869945425011264E-01 
    2.0623016711425976E-01 
    1.9072509480406563E-01 
    1.7099379622585106E-01 
    1.4598912697664582E-01 
    1.1558481931861114E-01 
    8.5434673577698239E-02 
    2.6391079564553421E-01 
    2.6312421635576111E-01 
    2.6141575996754207E-01 
    2.5872282996969587E-01 
    2.5499532651566070E-01 
    2.5018756345831034E-01 
    2.4423045628552595E-01 
    2.3701229550576211E-01 
    2.2838881419129289E-01 
    2.1806846523299259E-01 
    2.0539215408166231E-01 
    1.8904665856533126E-01 
    1.6664608295097205E-01 
    1.3445878755519022E-01 
    8.5431630670074185E-02 
    0.0000000000000000E+00 

SCALARS Saturarion double 1 
LOOKUP_TABLE default 

    1.0000000000000000E+00 
    9.9764965716579213E-01 
    9.9327539323239999E-01 
    9.8543906261652225E-01 
    9.7433753586892335E-01 
    9.6091359267972909E-01 
    9.4569762506267740E-01 
    9.2913481923651409E-01 
    9.1151524452780919E-01 
    8.9292559921376968E-01 
    8.7332509740479247E-01 
    8.5287119327882877E-01 
    8.3008255295580047E-01 
    7.8254859231225860E-01 
    4.3917987704936423E-01 
    1.9190444723651904E-04 
    9.9764943248705062E-01 
    9.9533058276770436E-01 
    9.9064258816841122E-01 
    9.8315237305354297E-01 
    9.7257038683853170E-01 
    9.5957737977757152E-01 
    9.4476159164660700E-01 
    9.2856706362505159E-01 
    9.1128072316817232E-01 
    8.9299227392394975E-01 
    8.7366231505065473E-01 
    8.5342564817487188E-01 
    8.3093761741245054E-01 
    7.8525308109046210E-01 
    4.7946857993342179E-01 
    1.1668937982283547E-03 
    9.9327479163310439E-01 
    9.9064211685064130E-01 
    9.8498651598255638E-01 
    9.7744635941503866E-01 
    9.6754591019346325E-01 
    9.5541180861880215E-01 
    9.4142649079016405E-01 
    9.2599233764481104E-01 
    9.0939356730851095E-01 
    8.9172646185957849E-01 
    8.7298153051826677E-01 
    8.5328141962647008E-01 
    8.3140313523353782E-01 
    7.8916133241394193E-01 
    5.1591629961640140E-01 
    2.9637252664313943E-03 
    9.8543788511598607E-01 
    9.8315106472025426E-01 
    9.7744515345775551E-01 
    9.6962985615145358E-01 
    9.6017753027415143E-01 
    9.4886365102045167E-01 
    9.3580693985527408E-01 
    9.2131923917941960E-01 
    9.0566442704886396E-01 
    8.8895516400240904E-01 
    8.7114691206128370E-01 
    8.5234872849369292E-01 
    8.3164968831529684E-01 
    7.9201627224551996E-01 
    5.4827670300206999E-01 
    6.3240196604048794E-03 
    9.7433584001509377E-01 
    9.7256924034389836E-01 
    9.6754455157783292E-01 
    9.6017598096518342E-01 
    9.5108149229892225E-01 
    9.4046475252792616E-01 
    9.2837318713802119E-01 
    9.1499918683041570E-01 
    9.0053959045058718E-01 
    8.8504593344199201E-01 
    8.6840180910812403E-01 
    8.5065674455378137E-01 
    8.3113931197898749E-01 
    7.9412652620865487E-01 
    5.7380027536709644E-01 
    1.0509183880636123E-02 
    9.6090966778757836E-01 
    9.5957590089865763E-01 
    9.5541146926675258E-01 
    9.4886197621401780E-01 
    9.4046249802906701E-01 
    9.3062231206939072E-01 
    9.1958539221214497E-01 
    9.0752245529607067E-01 
    8.9450346786875212E-01 
    8.8039138825733643E-01 
    8.6498051165730083E-01 
    8.4826880719407172E-01 
    8.2981346455771987E-01 
    7.9539013186957075E-01 
    5.9164309989966191E-01 
    1.5063055509875757E-02 
    9.4569204193795808E-01 
    9.4475843161569351E-01 
    9.4142547699127066E-01 
    9.3580640743998456E-01 
    9.2837038442554809E-01 
    9.1958239956561716E-01 
    9.0981868256699783E-01 
    8.9927517047040462E-01 
    8.8787198150733049E-01 
    8.7525830810145866E-01 
    8.6111756848183751E-01 
    8.4551326908569258E-01 
    8.2817803799975465E-01 
    7.9608863477847225E-01 
    6.0907193521848091E-01 
    2.2778104266426232E-02 
    9.2912768251646027E-01 
    9.2856259792784313E-01 
    9.2598885678378473E-01 
    9.2131819278312177E-01 
    9.1499802594381585E-01 
    9.0751902226344605E-01 
    8.9927280262689258E-01 
    8.9041076416483556E-01 
    8.8070382262982239E-01 
    8.6968856570322006E-01 
    8.5694527802315756E-01 
    8.4256169293204641E-01 
    8.2650833267855328E-01 
    7.9676313357704998E-01 
    6.2850509776630625E-01 
    3.2760278633413339E-02 
    9.1150489940767931E-01 
    9.1127501563558433E-01 
    9.0938864052849133E-01 
    9.0566084211960185E-01 
    9.0053988724565825E-01 
    8.9450311530454929E-01 
    8.8787052478117146E-01 
    8.8070422610114529E-01 
    8.7275835036784410E-01 
    8.6355898198130121E-01 
    8.5256545365324132E-01 
    8.3960553218519696E-01 
    8.2481764873585384E-01 
    7.9779810608613622E-01 
    6.4569626286227011E-01 
    5.2789512275694193E-02 
    8.9291217027743797E-01 
    8.9298602666476379E-01 
    8.9172338214816305E-01 
    8.8894945243129886E-01 
    8.8504361577221702E-01 
    8.8039334529138014E-01 
    8.7525977302559232E-01 
    8.6968988296178129E-01 
    8.6356105161832108E-01 
    8.5653640298814526E-01 
    8.4789846502624733E-01 
    8.3688749159931330E-01 
    8.2347567324696791E-01 
    7.9946506346009338E-01 
    6.6718491376393574E-01 
    8.3123071340169802E-02 
    8.7331263449307550E-01 
    8.7365671107490650E-01 
    8.7298137181683355E-01 
    8.7114415617153673E-01 
    8.6839575529013291E-01 
    8.6497686403912466E-01 
    8.6111778616242751E-01 
    8.5694644662620423E-01 
    8.5256811995418624E-01 
    8.4790264873889698E-01 
    8.4226734733854558E-01 
    8.3422932424984853E-01 
    8.2284112476557858E-01 
    8.0216420076428729E-01 
    6.8823811577540772E-01 
    1.3559627301854313E-01 
    8.5285705960050939E-01 
    8.5342306329899698E-01 
    8.5328598652744392E-01 
    8.5235012027186308E-01 
    8.5065219247871482E-01 
    8.4826001025272524E-01 
    8.4550509380880534E-01 
    8.4255722329733473E-01 
    8.3960530159378155E-01 
    8.3689361955452046E-01 
    8.3423940241234795E-01 
    8.3025875661393922E-01 
    8.2257807189570331E-01 
    8.0593632007885352E-01 
    7.1169796970618548E-01 
    2.2867284725879708E-01 
    8.3007566821018397E-01 
    8.3095303534343146E-01 
    8.3143421779888460E-01 
    8.3165914791060547E-01 
    8.3113445462983737E-01 
    8.2980888007892017E-01 
    8.2816739570438347E-01 
    8.2649484545433249E-01 
    8.2481229509238030E-01 
    8.2347847456669732E-01 
    8.2285045692349090E-01 
    8.2259023795721586E-01 
    8.2046912193357502E-01 
    8.1015589453252079E-01 
    7.3716718266195636E-01 
    3.5333997936213474E-01 
    7.8265821877854014E-01 
    7.8533573398973089E-01 
    7.8922382285938408E-01 
    7.9195817556514503E-01 
    7.9407527076835882E-01 
    7.9541446729905430E-01 
    7.9607031590088850E-01 
    7.9672129452379314E-01 
    7.9779434735640742E-01 
    7.9951696335674993E-01 
    8.0221653993371034E-01 
    8.0596737308246447E-01 
    8.1017739316004000E-01 
    8.1027461597713457E-01 
    7.6466129429732499E-01 
    4.7019739999619625E-01 
    4.4080174930456900E-01 
    4.7887125211927695E-01 
    5.1593166847775696E-01 
    5.4927773131975099E-01 
    5.7392260734529021E-01 
    5.9125054716015757E-01 
    6.0888498037076189E-01 
    6.3001320250779380E-01 
    6.4863267594765128E-01 
    6.6689353817387742E-01 
    6.8819521982888077E-01 
    7.1044447775094499E-01 
    7.3714287614943130E-01 
    7.6498606797174928E-01 
    7.6236724988651172E-01 
    5.7160618867982993E-01 
    2.0716894567548408E-04 
    1.1213452465078228E-03 
    2.9769462570825565E-03 
    6.6141817101844523E-03 
    1.0470152184640501E-02 
    1.4699227352968700E-02 
    2.3226158442313447E-02 
    3.6061642354579114E-02 
    5.1100718190986272E-02 
    8.1734602454895694E-02 
    1.3825680909192947E-01 
    2.3028385800713833E-01 
    3.5348112791713326E-01 
    4.7039119369724586E-01 
    5.7160653720570442E-01 
    5.7182851966425419E-01 
