# vtk DataFile Version 2.0
Pressure Field Data 
ASCII 
DATASET UNSTRUCTURED_GRID 

POINTS 289 double 

    0.0000000000000000E+00     0.0000000000000000E+00     0.0000000000000000E+00 
    1.0000000000000000E+00     0.0000000000000000E+00     0.0000000000000000E+00 
    1.0000000000000000E+00     1.0000000000000000E+00     0.0000000000000000E+00 
    0.0000000000000000E+00     1.0000000000000000E+00     0.0000000000000000E+00 
    6.2499999999872928E-02     0.0000000000000000E+00     0.0000000000000000E+00 
    1.2499999999977310E-01     0.0000000000000000E+00     0.0000000000000000E+00 
    1.8749999999959341E-01     0.0000000000000000E+00     0.0000000000000000E+00 
    2.4999999999941089E-01     0.0000000000000000E+00     0.0000000000000000E+00 
    3.1249999999922851E-01     0.0000000000000000E+00     0.0000000000000000E+00 
    3.7499999999904610E-01     0.0000000000000000E+00     0.0000000000000000E+00 
    4.3749999999886358E-01     0.0000000000000000E+00     0.0000000000000000E+00 
    4.9999999999869210E-01     0.0000000000000000E+00     0.0000000000000000E+00 
    5.6249999999884603E-01     0.0000000000000000E+00     0.0000000000000000E+00 
    6.2499999999901090E-01     0.0000000000000000E+00     0.0000000000000000E+00 
    6.8749999999917577E-01     0.0000000000000000E+00     0.0000000000000000E+00 
    7.4999999999934064E-01     0.0000000000000000E+00     0.0000000000000000E+00 
    8.1249999999950551E-01     0.0000000000000000E+00     0.0000000000000000E+00 
    8.7499999999967026E-01     0.0000000000000000E+00     0.0000000000000000E+00 
    9.3749999999983513E-01     0.0000000000000000E+00     0.0000000000000000E+00 
    1.0000000000000000E+00     6.2499999999872928E-02     0.0000000000000000E+00 
    1.0000000000000000E+00     1.2499999999977310E-01     0.0000000000000000E+00 
    1.0000000000000000E+00     1.8749999999959341E-01     0.0000000000000000E+00 
    1.0000000000000000E+00     2.4999999999941089E-01     0.0000000000000000E+00 
    1.0000000000000000E+00     3.1249999999922851E-01     0.0000000000000000E+00 
    1.0000000000000000E+00     3.7499999999904610E-01     0.0000000000000000E+00 
    1.0000000000000000E+00     4.3749999999886358E-01     0.0000000000000000E+00 
    1.0000000000000000E+00     4.9999999999869210E-01     0.0000000000000000E+00 
    1.0000000000000000E+00     5.6249999999884603E-01     0.0000000000000000E+00 
    1.0000000000000000E+00     6.2499999999901090E-01     0.0000000000000000E+00 
    1.0000000000000000E+00     6.8749999999917577E-01     0.0000000000000000E+00 
    1.0000000000000000E+00     7.4999999999934064E-01     0.0000000000000000E+00 
    1.0000000000000000E+00     8.1249999999950551E-01     0.0000000000000000E+00 
    1.0000000000000000E+00     8.7499999999967026E-01     0.0000000000000000E+00 
    1.0000000000000000E+00     9.3749999999983513E-01     0.0000000000000000E+00 
    9.3749999999973976E-01     1.0000000000000000E+00     0.0000000000000000E+00 
    8.7499999999950118E-01     1.0000000000000000E+00     0.0000000000000000E+00 
    8.1249999999991318E-01     1.0000000000000000E+00     0.0000000000000000E+00 
    7.5000000000034706E-01     1.0000000000000000E+00     0.0000000000000000E+00 
    6.8750000000078049E-01     1.0000000000000000E+00     0.0000000000000000E+00 
    6.2500000000121403E-01     1.0000000000000000E+00     0.0000000000000000E+00 
    5.6250000000164757E-01     1.0000000000000000E+00     0.0000000000000000E+00 
    5.0000000000205946E-01     1.0000000000000000E+00     0.0000000000000000E+00 
    4.3750000000182099E-01     1.0000000000000000E+00     0.0000000000000000E+00 
    3.7500000000156092E-01     1.0000000000000000E+00     0.0000000000000000E+00 
    3.1250000000130068E-01     1.0000000000000000E+00     0.0000000000000000E+00 
    2.5000000000104050E-01     1.0000000000000000E+00     0.0000000000000000E+00 
    1.8750000000078040E-01     1.0000000000000000E+00     0.0000000000000000E+00 
    1.2500000000052031E-01     1.0000000000000000E+00     0.0000000000000000E+00 
    6.2500000000260125E-02     1.0000000000000000E+00     0.0000000000000000E+00 
    0.0000000000000000E+00     9.3749999999973976E-01     0.0000000000000000E+00 
    0.0000000000000000E+00     8.7499999999950118E-01     0.0000000000000000E+00 
    0.0000000000000000E+00     8.1249999999991318E-01     0.0000000000000000E+00 
    0.0000000000000000E+00     7.5000000000034706E-01     0.0000000000000000E+00 
    0.0000000000000000E+00     6.8750000000078049E-01     0.0000000000000000E+00 
    0.0000000000000000E+00     6.2500000000121403E-01     0.0000000000000000E+00 
    0.0000000000000000E+00     5.6250000000164757E-01     0.0000000000000000E+00 
    0.0000000000000000E+00     5.0000000000205946E-01     0.0000000000000000E+00 
    0.0000000000000000E+00     4.3750000000182099E-01     0.0000000000000000E+00 
    0.0000000000000000E+00     3.7500000000156092E-01     0.0000000000000000E+00 
    0.0000000000000000E+00     3.1250000000130068E-01     0.0000000000000000E+00 
    0.0000000000000000E+00     2.5000000000104050E-01     0.0000000000000000E+00 
    0.0000000000000000E+00     1.8750000000078040E-01     0.0000000000000000E+00 
    0.0000000000000000E+00     1.2500000000052031E-01     0.0000000000000000E+00 
    0.0000000000000000E+00     6.2500000000260125E-02     0.0000000000000000E+00 
    6.2499999999897131E-02     6.2500000000235922E-02     0.0000000000000000E+00 
    6.2499999999921327E-02     1.2500000000047351E-01     0.0000000000000000E+00 
    6.2499999999945530E-02     1.8750000000070621E-01     0.0000000000000000E+00 
    6.2499999999969733E-02     2.5000000000093858E-01     0.0000000000000000E+00 
    6.2499999999993928E-02     3.1250000000117117E-01     0.0000000000000000E+00 
    6.2500000000018124E-02     3.7500000000140382E-01     0.0000000000000000E+00 
    6.2500000000042327E-02     4.3750000000163619E-01     0.0000000000000000E+00 
    6.2500000000066530E-02     5.0000000000184897E-01     0.0000000000000000E+00 
    6.2500000000090733E-02     5.6250000000147260E-01     0.0000000000000000E+00 
    6.2500000000114922E-02     6.2500000000107636E-01     0.0000000000000000E+00 
    6.2500000000139125E-02     6.8750000000068034E-01     0.0000000000000000E+00 
    6.2500000000163328E-02     7.5000000000028411E-01     0.0000000000000000E+00 
    6.2500000000187531E-02     8.1249999999988787E-01     0.0000000000000000E+00 
    6.2500000000211720E-02     8.7499999999951172E-01     0.0000000000000000E+00 
    6.2500000000235922E-02     9.3749999999974565E-01     0.0000000000000000E+00 
    1.2499999999981980E-01     6.2500000000211733E-02     0.0000000000000000E+00 
    1.2499999999986650E-01     1.2500000000042691E-01     0.0000000000000000E+00 
    1.2499999999991319E-01     1.8750000000063199E-01     0.0000000000000000E+00 
    1.2499999999995989E-01     2.5000000000083678E-01     0.0000000000000000E+00 
    1.2500000000000661E-01     3.1250000000104172E-01     0.0000000000000000E+00 
    1.2500000000005329E-01     3.7500000000124661E-01     0.0000000000000000E+00 
    1.2500000000010000E-01     4.3750000000145117E-01     0.0000000000000000E+00 
    1.2500000000014669E-01     5.0000000000163858E-01     0.0000000000000000E+00 
    1.2500000000019340E-01     5.6250000000129741E-01     0.0000000000000000E+00 
    1.2500000000024011E-01     6.2500000000093847E-01     0.0000000000000000E+00 
    1.2500000000028680E-01     6.8750000000057998E-01     0.0000000000000000E+00 
    1.2500000000033351E-01     7.5000000000022127E-01     0.0000000000000000E+00 
    1.2500000000038020E-01     8.1249999999986211E-01     0.0000000000000000E+00 
    1.2500000000042691E-01     8.7499999999952238E-01     0.0000000000000000E+00 
    1.2500000000047359E-01     9.3749999999975164E-01     0.0000000000000000E+00 
    1.8749999999966760E-01     6.2500000000187531E-02     0.0000000000000000E+00 
    1.8749999999974179E-01     1.2500000000038020E-01     0.0000000000000000E+00 
    1.8749999999981601E-01     1.8750000000055780E-01     0.0000000000000000E+00 
    1.8749999999989009E-01     2.5000000000073502E-01     0.0000000000000000E+00 
    1.8749999999996431E-01     3.1250000000091221E-01     0.0000000000000000E+00 
    1.8750000000003850E-01     3.7500000000108941E-01     0.0000000000000000E+00 
    1.8750000000011269E-01     4.3750000000126649E-01     0.0000000000000000E+00 
    1.8750000000018691E-01     5.0000000000142808E-01     0.0000000000000000E+00 
    1.8750000000026110E-01     5.6250000000112244E-01     0.0000000000000000E+00 
    1.8750000000033529E-01     6.2500000000080080E-01     0.0000000000000000E+00 
    1.8750000000040951E-01     6.8750000000047962E-01     0.0000000000000000E+00 
    1.8750000000048361E-01     7.5000000000015843E-01     0.0000000000000000E+00 
    1.8750000000055780E-01     8.1249999999983680E-01     0.0000000000000000E+00 
    1.8750000000063199E-01     8.7499999999953304E-01     0.0000000000000000E+00 
    1.8750000000070621E-01     9.3749999999975764E-01     0.0000000000000000E+00 
    2.4999999999951281E-01     6.2500000000163314E-02     0.0000000000000000E+00 
    2.4999999999961461E-01     1.2500000000033351E-01     0.0000000000000000E+00 
    2.4999999999971650E-01     1.8750000000048361E-01     0.0000000000000000E+00 
    2.4999999999981831E-01     2.5000000000063310E-01     0.0000000000000000E+00 
    2.4999999999992020E-01     3.1250000000078260E-01     0.0000000000000000E+00 
    2.5000000000002198E-01     3.7500000000093209E-01     0.0000000000000000E+00 
    2.5000000000012390E-01     4.3750000000108180E-01     0.0000000000000000E+00 
    2.5000000000022571E-01     5.0000000000121769E-01     0.0000000000000000E+00 
    2.5000000000032763E-01     5.6250000000094724E-01     0.0000000000000000E+00 
    2.5000000000042938E-01     6.2500000000066314E-01     0.0000000000000000E+00 
    2.5000000000053119E-01     6.8750000000037925E-01     0.0000000000000000E+00 
[...]
CELL_DATA 256 
SCALARS Pressure double 1 
LOOKUP_TABLE default 

    3.3133653148730241E-01 
    2.8241918738431071E-01 
    2.5266223416365868E-01 
    2.3170434118089797E-01 
    2.1540302419558285E-01 
    2.0190933785264464E-01 
    1.9032101886273053E-01 
    1.8015847384267397E-01 
    1.7114781810313728E-01 
    1.6311085035354653E-01 
    1.5582943169918911E-01 
    1.4874350025313063E-01 
    1.4477911731018459E-01 
    1.4265731558011202E-01 
    1.4132932531665759E-01 
    1.4071907439371775E-01 
    2.8241924604726926E-01 
    2.6465868550144961E-01 
    2.4513124309006915E-01 
    2.2801045130882416E-01 
    2.1335819619841939E-01 
    2.0065941041565030E-01 
    1.8948436232302066E-01 
    1.7954296327166053E-01 
    1.7064703101357032E-01 
    1.6266298259896261E-01 
    1.5539773248396416E-01 
    1.4827174269781265E-01 
    1.4421047737533341E-01 
    1.4205663621010575E-01 
    1.4071258543470502E-01 
    1.4010849854689794E-01 
    2.5266234330298454E-01 
    2.4513130672581640E-01 
    2.3327130712010763E-01 
    2.2059241341876332E-01 
    2.0843330217246037E-01 
    1.9716637598108408E-01 
    1.8683920954307509E-01 
    1.7741032679213631E-01 
    1.6882400981141130E-01 
    1.6102241756884264E-01 
    1.5386059633544172E-01 
    1.4680049851265170E-01 
    1.4278007773166290E-01 
    1.4066357494071113E-01 
    1.3935257495227971E-01 
    1.3879146528660313E-01 
    2.3170448129561791E-01 
    2.2801054667073026E-01 
    2.2059245510137412E-01 
    2.1138817804876409E-01 
    2.0162896529643329E-01 
    1.9195496857772840E-01 
    1.8267449017550522E-01 
    1.7392924592013617E-01 
    1.6578102208531681E-01 
    1.5824911436244563E-01 
    1.5124187163325323E-01 
    1.4436571479895707E-01 
    1.4049785450630675E-01 
    1.3847518129331510E-01 
    1.3723224168088241E-01 
    1.3673560830699971E-01 
    2.1540318387983667E-01 
    2.1335829993974081E-01 
    2.0843335542872982E-01 
    2.0162898782400296E-01 
    1.9381342094456408E-01 
    1.8559452566404716E-01 
    1.7735950058277433E-01 
    1.6934087141002127E-01 
    1.6167483809267624E-01 
    1.5443606742109392E-01 
    1.4755971518151076E-01 
    1.4100824588677913E-01 
    1.3739699343265221E-01 
    1.3550576500634232E-01 
    1.3435081721152542E-01 
    1.3392927569850888E-01 
    2.0190947676840920E-01 
    2.0065950629982601E-01 
    1.9716643138244841E-01 
    1.9195499653724077E-01 
    1.8559452708257948E-01 
    1.7857290632086337E-01 
    1.7125860614773578E-01 
    1.6390873684048815E-01 
    1.5669519014583497E-01 
    1.4971513166807807E-01 
    1.4286181689548602E-01 
    1.3679937493209363E-01 
    1.3353790524779605E-01 
    1.3178758602534155E-01 
    1.3071978603326528E-01 
    1.3037202406541692E-01 
    1.9032106185747552E-01 
    1.8948440628661553E-01 
    1.8683926252714739E-01 
    1.8267453693407687E-01 
    1.7735951738147837E-01 
    1.7125860364008907E-01 
    1.6468432065862129E-01 
    1.5788510775100120E-01 
    1.5104613224085331E-01 
    1.4426630888962125E-01 
    1.3731639342391658E-01 
    1.3189851643549932E-01 
    1.2902424357130923E-01 
    1.2737077095126137E-01 
    1.2635526033894934E-01 
    1.2606347752342778E-01 
    1.8015840829562332E-01 
    1.7954293985921727E-01 
    1.7741038291739192E-01 
    1.7392934871423296E-01 
    1.6934096228298470E-01 
    1.6390878276060877E-01 
    1.5788508832123857E-01 
    1.5149330995097002E-01 
    1.4491170577351409E-01 
    1.3821169165345978E-01 
    1.3131539627465114E-01 
    1.2662349988690252E-01 
    1.2401558121930449E-01 
    1.2231319271930270E-01 
    1.2126256900129923E-01 
    1.2098644565325033E-01 
    1.7114771573800922E-01 
    1.7064699904188244E-01 
    1.6882410461024633E-01 
    1.6578119601662100E-01 
    1.6167503208498094E-01 
    1.5669537504116915E-01 
    1.5104616762632911E-01 
    1.4491159455113919E-01 
    1.3842663799252009E-01 
    1.3152693797148343E-01 
    1.2515067478880856E-01 
    1.2115021481589891E-01 
    1.1858068943164153E-01 
    1.1662920799564661E-01 
    1.1540738546171071E-01 
    1.1508175834504217E-01 
    1.6311081409286515E-01 
    1.6266303397270376E-01 
    1.6102261957523753E-01 
    1.5824941277311574E-01 
    1.5443641847224371E-01 
    1.4971559837734111E-01 
    1.4426661520537598E-01 
    1.3821153432129990E-01 
    1.3152667795716450E-01 
    1.2477514914842758E-01 
    1.1940711064520938E-01 
    1.1566689171413549E-01 
    1.1271808360215131E-01 
    1.1027922508734164E-01 
    1.0869272112554798E-01 
    1.0821815611142725E-01 
    1.5582975088508155E-01 
    1.5539804985504366E-01 
    1.5386104188368524E-01 
    1.5124246893500265E-01 
    1.4756049827362269E-01 
    1.4286306529654713E-01 
    1.3731754726387194E-01 
    1.3131562874686284E-01 
    1.2515059459708536E-01 
    1.1940723666484530E-01 
    1.1454910175258841E-01 
    1.1033543731204168E-01 
    1.0648133289260132E-01 
    1.0319523825668279E-01 
    1.0094097310336184E-01 
    1.0015064818616969E-01 
    1.4874401913464683E-01 
    1.4827208034132786E-01 
    1.4680097267157519E-01 
    1.4436623744274549E-01 
    1.4100870276685684E-01 
    1.3679992636784141E-01 
    1.3189870882193583E-01 
    1.2662299539273467E-01 
    1.2114976549636047E-01 
    1.1566686933211971E-01 
    1.1033547590848962E-01 
    1.0504891817650527E-01 
    9.9895815499885465E-02 
    9.5279740564448212E-02 
    9.1864058565437001E-02 
    9.0443181704768255E-02 
    1.4477932774205596E-01 
    1.4421072202686261E-01 
    1.4278042310275746E-01 
    1.4049807526549166E-01 
    1.3739705354455611E-01 
    1.3353791070001256E-01 
    1.2902397596994422E-01 
    1.2401494259139725E-01 
    1.1858012936943944E-01 
    1.1271785178591898E-01 
    1.0648123965939001E-01 
    9.9895773216451281E-02 
    9.3086614930047426E-02 
    8.6488706280003394E-02 
    8.1049139068836151E-02 
    7.8308108367177484E-02 
    1.4265743636136477E-01 
    1.4205682371023542E-01 
    1.4066381416984511E-01 
    1.3847529995117544E-01 
    1.3550575455386546E-01 
    1.3178750828049687E-01 
    1.2737055719266033E-01 
    1.2231282836735291E-01 
    1.1662884423036075E-01 
    1.1027898033473811E-01 
    1.0319509304605735E-01 
    9.5279659387586091E-02 
    8.6488671517553919E-02 
    7.7060385898772496E-02 
    6.8035833040974117E-02 
    6.2220831878462710E-02 
    1.4132945868875368E-01 
    1.4071273477945834E-01 
    1.3935272404693896E-01 
    1.3723232880276817E-01 
    1.3435081814153058E-01 
    1.3071970689647622E-01 
    1.2635508945055876E-01 
    1.2126231768897226E-01 
    1.1540711855001407E-01 
    1.0869250077212281E-01 
    1.0094081506141730E-01 
    9.1863955821084226E-02 
    8.1049081120338026E-02 
    6.8035809406672393E-02 
    5.2862091145972741E-02 
    3.8872898415242135E-02 
    1.4071920754062717E-01 
    1.4010863245419347E-01 
    1.3879158509610007E-01 
    1.3673568108692077E-01 
    1.3392927932033902E-01 
    1.3037195281788172E-01 
    1.2606333076949475E-01 
    1.2098623902557346E-01 
    1.1508153188413606E-01 
    1.0821795192453280E-01 
    1.0015048790000951E-01 
    9.0443068910874891E-02 
    7.8308037970617014E-02 
    6.2220795332452450E-02 
    3.8872885647344840E-02 
    0.0000000000000000E+00 

SCALARS Saturarion double 1 
LOOKUP_TABLE default 

    1.0000000000000000E+00 
    9.9556989472202151E-01 
    9.8746548650521093E-01 
    9.7282668173999087E-01 
    9.5296566450266773E-01 
    9.3083354284103581E-01 
    9.0795488658819856E-01 
    8.8495370553007946E-01 
    8.6163117889019414E-01 
    8.3604996490745398E-01 
    7.9343160383824229E-01 
    5.9583145617557276E-01 
    1.9168248431788489E-02 
    1.0000000017296556E-06 
    9.9999999999999995E-07 
    9.9999999999999995E-07 
    9.9556930210400196E-01 
    9.9119218874682258E-01 
    9.8255913764578207E-01 
    9.6874779429544799E-01 
    9.4995725930215447E-01 
    9.2863001900092101E-01 
    9.0633287589009337E-01 
    8.8370984928634333E-01 
    8.6071089409756874E-01 
    8.3564927885979612E-01 
    7.9417399420670731E-01 
    6.1372167833191060E-01 
    2.8043706958551719E-02 
    1.0340710118099661E-06 
    1.0000000010987599E-06 
    9.9999999999999995E-07 
    9.8746396816978699E-01 
    9.8255787573366637E-01 
    9.7209772215678569E-01 
    9.5863928296592638E-01 
    9.4146766460029285E-01 
    9.2166586617338864E-01 
    9.0066010572906074E-01 
    8.7923844019853692E-01 
    8.5738234799047996E-01 
    8.3336871457215678E-01 
    7.9285476698184965E-01 
    6.0806643968148189E-01 
    2.5040814392538985E-02 
    1.0664389250588867E-06 
    1.0000000009331903E-06 
    9.9999999999999995E-07 
    9.7282400444502093E-01 
    9.6874461448276972E-01 
    9.5863632583900982E-01 
    9.4513133413187234E-01 
    9.2919208703044132E-01 
    9.1124384949598092E-01 
    8.9227525987430567E-01 
    8.7265961347231780E-01 
    8.5209324880696224E-01 
    8.2884052139220665E-01 
    7.8824468428746552E-01 
    5.8325762295891015E-01 
    1.6419976634970298E-02 
    1.1452106352291836E-06 
    1.0000000018035684E-06 
    9.9999999999999995E-07 
    9.5296073116730295E-01 
    9.4995417586481146E-01 
    9.4146526098481842E-01 
    9.2918927968996978E-01 
    9.1471748856356561E-01 
    8.9915782474836292E-01 
    8.8273167476423164E-01 
    8.6483490219000247E-01 
    8.4519661931481616E-01 
    8.2220512735525875E-01 
    7.7880477535304993E-01 
    5.2158175311039645E-01 
    5.6676861365815134E-03 
    1.0668381941676271E-06 
    1.0000000016033863E-06 
    9.9999999999999995E-07 
    9.3082219449687587E-01 
    9.2862537643567755E-01 
    9.2166575435272580E-01 
    9.1124057309522455E-01 
    8.9915448163035683E-01 
    8.8637675424505691E-01 
    8.7237585375221371E-01 
    8.5610783501934340E-01 
    8.3732794115263354E-01 
    8.1433389125497579E-01 
    7.6452497570111244E-01 
    4.1957968892879821E-01 
    7.6192633429739045E-04 
    1.0029238899530401E-06 
    1.0000000000719903E-06 
    9.9999999999999995E-07 
    9.0793807441375429E-01 
    9.0632346466411950E-01 
    9.0065852623881426E-01 
    8.9227494918731665E-01 
    8.8273180985430499E-01 
    8.7237903865712607E-01 
    8.6058834664812933E-01 
    8.4668549137818605E-01 
    8.2935329208428410E-01 
    8.0512003261207077E-01 
    7.4293638179404464E-01 
    2.9764802305221288E-01 
    1.0030341393773117E-04 
    1.0003459294466049E-06 
    1.0000000000011941E-06 
    9.9999999999999995E-07 
    8.8493922366453737E-01 
    8.8370234901747780E-01 
    8.7923423220919250E-01 
    8.7265701109593741E-01 
    8.6483758276021006E-01 
    8.5611393465685581E-01 
    8.4669424258549963E-01 
    8.3600627456895171E-01 
    8.2114832365254831E-01 
    7.9317841400043920E-01 
    6.8709367824529710E-01 
    1.1280171407016876E-01 
    5.7528592225649226E-05 
    1.0000644648615251E-06 
    9.9999999999999995E-07 
    9.9999999999999995E-07 
    8.6162439455767359E-01 
    8.6071369006464971E-01 
    8.5738176117743936E-01 
    8.5208231204188423E-01 
    8.4519180495134838E-01 
    8.3732841593784402E-01 
    8.2936901609460389E-01 
    8.2118344284797573E-01 
    8.0745412862884325E-01 
    7.6984605456606914E-01 
    4.8725900932421751E-01 
    8.0280274479999306E-03 
    1.3456490079965210E-06 
    1.0000000108965467E-06 
    9.9999999999999995E-07 
    9.9999999999999995E-07 
    8.3605539671837470E-01 
    8.3566343915115993E-01 
    8.3337362299288775E-01 
    8.2882827608590792E-01 
    8.2220876368556095E-01 
    8.1433234443527291E-01 
    8.0511365064625706E-01 
    7.9322662856424941E-01 
    7.6990301620460522E-01 
    6.4316056437116897E-01 
    1.5418197199784267E-01 
    1.8549532601774089E-04 
    1.0010056174944271E-06 
    1.0000000000000016E-06 
    9.9999999999999995E-07 
    9.9999999999999995E-07 
    7.9349252569384776E-01 
    7.9420598251394225E-01 
    7.9288715516524166E-01 
    7.8823111329268924E-01 
    7.7883541705216563E-01 
    7.6460356267248253E-01 
    7.4296676972153697E-01 
    6.8710184923929507E-01 
    4.8696684912858718E-01 
    1.5394836589686903E-01 
    5.8354682187768288E-04 
    1.0120859911383666E-06 
    1.0000000003144192E-06 
    9.9999999999999995E-07 
    9.9999999999999995E-07 
    9.9999999999999995E-07 
    5.9660011795292123E-01 
    6.1340870654816015E-01 
    6.0811047257742823E-01 
    5.8379185667549527E-01 
    5.2175648879700742E-01 
    4.1966279589231636E-01 
    2.9815409163124135E-01 
    1.1325350606562316E-01 
    8.0184627818022693E-03 
    1.8495191660418970E-04 
    1.0121274057102460E-06 
    1.0000000013109384E-06 
    9.9999999999999995E-07 
    9.9999999999999995E-07 
    9.9999999999999995E-07 
    9.9999999999999995E-07 
    1.9467654938348455E-02 
    2.7789930912264182E-02 
    2.5038245954638709E-02 
    1.6650596435456549E-02 
    5.6963599215068671E-03 
    7.5531542509367500E-04 
    1.0020897017903237E-04 
    5.7638761122841693E-05 
    1.3455702990815987E-06 
    1.0009986017837347E-06 
    1.0000000003146892E-06 
    9.9999999999999995E-07 
    9.9999999999999995E-07 
    9.9999999999999995E-07 
    9.9999999999999995E-07 
    9.9999999999999995E-07 
    1.0000000014434398E-06 
    1.0291212016008836E-06 
    1.0612504376683482E-06 
    1.1467320488002091E-06 
    1.0678753550773577E-06 
    1.0028810411211714E-06 
    1.0003436375603191E-06 
    1.0000648663284953E-06 
    1.0000000108907860E-06 
    1.0000000000000016E-06 
    9.9999999999999995E-07 
    9.9999999999999995E-07 
    9.9999999999999995E-07 
    9.9999999999999995E-07 
    9.9999999999999995E-07 
    9.9999999999999995E-07 
    9.9999999999999974E-07 
    1.0000000009351387E-06 
    1.0000000008643524E-06 
    1.0000000018202644E-06 
    1.0000000016258501E-06 
    1.0000000000713551E-06 
    1.0000000000011932E-06 
    9.9999999999999995E-07 
    9.9999999999999995E-07 
    9.9999999999999995E-07 
    9.9999999999999995E-07 
    9.9999999999999995E-07 
    9.9999999999999995E-07 
    9.9999999999999995E-07 
    9.9999999999999995E-07 
    9.9999999999999995E-07 
    9.9999999999999995E-07 
    9.9999999999999995E-07 
    9.9999999999999995E-07 
    9.9999999999999995E-07 
    9.9999999999999995E-07 
    9.9999999999999995E-07 
    9.9999999999999995E-07 
    9.9999999999999995E-07 
    9.9999999999999995E-07 
    9.9999999999999995E-07 
    9.9999999999999995E-07 
    9.9999999999999995E-07 
    9.9999999999999995E-07 
    9.9999999999999995E-07 
    9.9999999999999995E-07 
    1.0000000858083527E-06 
