# vtk DataFile Version 2.0
Pressure Field Data 
ASCII 
DATASET UNSTRUCTURED_GRID 

POINTS 289 double 

    0.0000000000000000E+00     0.0000000000000000E+00     0.0000000000000000E+00 
    1.0000000000000000E+00     0.0000000000000000E+00     0.0000000000000000E+00 
    1.0000000000000000E+00     1.0000000000000000E+00     0.0000000000000000E+00 
    0.0000000000000000E+00     1.0000000000000000E+00     0.0000000000000000E+00 
    6.2499999999872928E-02     0.0000000000000000E+00     0.0000000000000000E+00 
    1.2499999999977310E-01     0.0000000000000000E+00     0.0000000000000000E+00 
    1.8749999999959341E-01     0.0000000000000000E+00     0.0000000000000000E+00 
    2.4999999999941089E-01     0.0000000000000000E+00     0.0000000000000000E+00 
    3.1249999999922851E-01     0.0000000000000000E+00     0.0000000000000000E+00 
    3.7499999999904610E-01     0.0000000000000000E+00     0.0000000000000000E+00 
    4.3749999999886358E-01     0.0000000000000000E+00     0.0000000000000000E+00 
    4.9999999999869210E-01     0.0000000000000000E+00     0.0000000000000000E+00 
    5.6249999999884603E-01     0.0000000000000000E+00     0.0000000000000000E+00 
    6.2499999999901090E-01     0.0000000000000000E+00     0.0000000000000000E+00 
    6.8749999999917577E-01     0.0000000000000000E+00     0.0000000000000000E+00 
    7.4999999999934064E-01     0.0000000000000000E+00     0.0000000000000000E+00 
    8.1249999999950551E-01     0.0000000000000000E+00     0.0000000000000000E+00 
    8.7499999999967026E-01     0.0000000000000000E+00     0.0000000000000000E+00 
    9.3749999999983513E-01     0.0000000000000000E+00     0.0000000000000000E+00 
    1.0000000000000000E+00     6.2499999999872928E-02     0.0000000000000000E+00 
    1.0000000000000000E+00     1.2499999999977310E-01     0.0000000000000000E+00 
    1.0000000000000000E+00     1.8749999999959341E-01     0.0000000000000000E+00 
    1.0000000000000000E+00     2.4999999999941089E-01     0.0000000000000000E+00 
    1.0000000000000000E+00     3.1249999999922851E-01     0.0000000000000000E+00 
    1.0000000000000000E+00     3.7499999999904610E-01     0.0000000000000000E+00 
    1.0000000000000000E+00     4.3749999999886358E-01     0.0000000000000000E+00 
    1.0000000000000000E+00     4.9999999999869210E-01     0.0000000000000000E+00 
    1.0000000000000000E+00     5.6249999999884603E-01     0.0000000000000000E+00 
    1.0000000000000000E+00     6.2499999999901090E-01     0.0000000000000000E+00 
    1.0000000000000000E+00     6.8749999999917577E-01     0.0000000000000000E+00 
    1.0000000000000000E+00     7.4999999999934064E-01     0.0000000000000000E+00 
    1.0000000000000000E+00     8.1249999999950551E-01     0.0000000000000000E+00 
    1.0000000000000000E+00     8.7499999999967026E-01     0.0000000000000000E+00 
    1.0000000000000000E+00     9.3749999999983513E-01     0.0000000000000000E+00 
    9.3749999999973976E-01     1.0000000000000000E+00     0.0000000000000000E+00 
    8.7499999999950118E-01     1.0000000000000000E+00     0.0000000000000000E+00 
    8.1249999999991318E-01     1.0000000000000000E+00     0.0000000000000000E+00 
    7.5000000000034706E-01     1.0000000000000000E+00     0.0000000000000000E+00 
    6.8750000000078049E-01     1.0000000000000000E+00     0.0000000000000000E+00 
    6.2500000000121403E-01     1.0000000000000000E+00     0.0000000000000000E+00 
    5.6250000000164757E-01     1.0000000000000000E+00     0.0000000000000000E+00 
    5.0000000000205946E-01     1.0000000000000000E+00     0.0000000000000000E+00 
    4.3750000000182099E-01     1.0000000000000000E+00     0.0000000000000000E+00 
    3.7500000000156092E-01     1.0000000000000000E+00     0.0000000000000000E+00 
    3.1250000000130068E-01     1.0000000000000000E+00     0.0000000000000000E+00 
    2.5000000000104050E-01     1.0000000000000000E+00     0.0000000000000000E+00 
    1.8750000000078040E-01     1.0000000000000000E+00     0.0000000000000000E+00 
    1.2500000000052031E-01     1.0000000000000000E+00     0.0000000000000000E+00 
    6.2500000000260125E-02     1.0000000000000000E+00     0.0000000000000000E+00 
    0.0000000000000000E+00     9.3749999999973976E-01     0.0000000000000000E+00 
    0.0000000000000000E+00     8.7499999999950118E-01     0.0000000000000000E+00 
    0.0000000000000000E+00     8.1249999999991318E-01     0.0000000000000000E+00 
    0.0000000000000000E+00     7.5000000000034706E-01     0.0000000000000000E+00 
    0.0000000000000000E+00     6.8750000000078049E-01     0.0000000000000000E+00 
    0.0000000000000000E+00     6.2500000000121403E-01     0.0000000000000000E+00 
    0.0000000000000000E+00     5.6250000000164757E-01     0.0000000000000000E+00 
    0.0000000000000000E+00     5.0000000000205946E-01     0.0000000000000000E+00 
    0.0000000000000000E+00     4.3750000000182099E-01     0.0000000000000000E+00 
    0.0000000000000000E+00     3.7500000000156092E-01     0.0000000000000000E+00 
    0.0000000000000000E+00     3.1250000000130068E-01     0.0000000000000000E+00 
    0.0000000000000000E+00     2.5000000000104050E-01     0.0000000000000000E+00 
    0.0000000000000000E+00     1.8750000000078040E-01     0.0000000000000000E+00 
    0.0000000000000000E+00     1.2500000000052031E-01     0.0000000000000000E+00 
    0.0000000000000000E+00     6.2500000000260125E-02     0.0000000000000000E+00 
    6.2499999999897131E-02     6.2500000000235922E-02     0.0000000000000000E+00 
    6.2499999999921327E-02     1.2500000000047351E-01     0.0000000000000000E+00 
    6.2499999999945530E-02     1.8750000000070621E-01     0.0000000000000000E+00 
    6.2499999999969733E-02     2.5000000000093858E-01     0.0000000000000000E+00 
    6.2499999999993928E-02     3.1250000000117117E-01     0.0000000000000000E+00 
    6.2500000000018124E-02     3.7500000000140382E-01     0.0000000000000000E+00 
    6.2500000000042327E-02     4.3750000000163619E-01     0.0000000000000000E+00 
    6.2500000000066530E-02     5.0000000000184897E-01     0.0000000000000000E+00 
    6.2500000000090733E-02     5.6250000000147260E-01     0.0000000000000000E+00 
    6.2500000000114922E-02     6.2500000000107636E-01     0.0000000000000000E+00 
    6.2500000000139125E-02     6.8750000000068034E-01     0.0000000000000000E+00 
    6.2500000000163328E-02     7.5000000000028411E-01     0.0000000000000000E+00 
    6.2500000000187531E-02     8.1249999999988787E-01     0.0000000000000000E+00 
    6.2500000000211720E-02     8.7499999999951172E-01     0.0000000000000000E+00 
    6.2500000000235922E-02     9.3749999999974565E-01     0.0000000000000000E+00 
    1.2499999999981980E-01     6.2500000000211733E-02     0.0000000000000000E+00 
    1.2499999999986650E-01     1.2500000000042691E-01     0.0000000000000000E+00 
    1.2499999999991319E-01     1.8750000000063199E-01     0.0000000000000000E+00 
    1.2499999999995989E-01     2.5000000000083678E-01     0.0000000000000000E+00 
    1.2500000000000661E-01     3.1250000000104172E-01     0.0000000000000000E+00 
    1.2500000000005329E-01     3.7500000000124661E-01     0.0000000000000000E+00 
    1.2500000000010000E-01     4.3750000000145117E-01     0.0000000000000000E+00 
    1.2500000000014669E-01     5.0000000000163858E-01     0.0000000000000000E+00 
    1.2500000000019340E-01     5.6250000000129741E-01     0.0000000000000000E+00 
    1.2500000000024011E-01     6.2500000000093847E-01     0.0000000000000000E+00 
    1.2500000000028680E-01     6.8750000000057998E-01     0.0000000000000000E+00 
    1.2500000000033351E-01     7.5000000000022127E-01     0.0000000000000000E+00 
    1.2500000000038020E-01     8.1249999999986211E-01     0.0000000000000000E+00 
    1.2500000000042691E-01     8.7499999999952238E-01     0.0000000000000000E+00 
    1.2500000000047359E-01     9.3749999999975164E-01     0.0000000000000000E+00 
    1.8749999999966760E-01     6.2500000000187531E-02     0.0000000000000000E+00 
    1.8749999999974179E-01     1.2500000000038020E-01     0.0000000000000000E+00 
    1.8749999999981601E-01     1.8750000000055780E-01     0.0000000000000000E+00 
    1.8749999999989009E-01     2.5000000000073502E-01     0.0000000000000000E+00 
    1.8749999999996431E-01     3.1250000000091221E-01     0.0000000000000000E+00 
    1.8750000000003850E-01     3.7500000000108941E-01     0.0000000000000000E+00 
    1.8750000000011269E-01     4.3750000000126649E-01     0.0000000000000000E+00 
    1.8750000000018691E-01     5.0000000000142808E-01     0.0000000000000000E+00 
    1.8750000000026110E-01     5.6250000000112244E-01     0.0000000000000000E+00 
    1.8750000000033529E-01     6.2500000000080080E-01     0.0000000000000000E+00 
    1.8750000000040951E-01     6.8750000000047962E-01     0.0000000000000000E+00 
    1.8750000000048361E-01     7.5000000000015843E-01     0.0000000000000000E+00 
    1.8750000000055780E-01     8.1249999999983680E-01     0.0000000000000000E+00 
    1.8750000000063199E-01     8.7499999999953304E-01     0.0000000000000000E+00 
    1.8750000000070621E-01     9.3749999999975764E-01     0.0000000000000000E+00 
    2.4999999999951281E-01     6.2500000000163314E-02     0.0000000000000000E+00 
    2.4999999999961461E-01     1.2500000000033351E-01     0.0000000000000000E+00 
    2.4999999999971650E-01     1.8750000000048361E-01     0.0000000000000000E+00 
    2.4999999999981831E-01     2.5000000000063310E-01     0.0000000000000000E+00 
    2.4999999999992020E-01     3.1250000000078260E-01     0.0000000000000000E+00 
    2.5000000000002198E-01     3.7500000000093209E-01     0.0000000000000000E+00 
    2.5000000000012390E-01     4.3750000000108180E-01     0.0000000000000000E+00 
    2.5000000000022571E-01     5.0000000000121769E-01     0.0000000000000000E+00 
    2.5000000000032763E-01     5.6250000000094724E-01     0.0000000000000000E+00 
    2.5000000000042938E-01     6.2500000000066314E-01     0.0000000000000000E+00 
    2.5000000000053119E-01     6.8750000000037925E-01     0.0000000000000000E+00 
[...]
CELL_DATA 256 
SCALARS Pressure double 1 
LOOKUP_TABLE default 

    3.9829131888135455E-01 
    3.4949765904898089E-01 
    3.1996164501171159E-01 
    2.9934451219339486E-01 
    2.8351626115131001E-01 
    2.7060808498424088E-01 
    2.5968447683384094E-01 
    2.5024033786633670E-01 
    2.4199187997464761E-01 
    2.3477774105600946E-01 
    2.2850893766014763E-01 
    2.2313779488373017E-01 
    2.1859892547459381E-01 
    2.1462457318486511E-01 
    2.1246250346196377E-01 
    2.1167864161429381E-01 
    3.4949772250488692E-01 
    3.3183499226097274E-01 
    3.1251373375337677E-01 
    2.9571980930704028E-01 
    2.8152055764687967E-01 
    2.6938397196349684E-01 
    2.5884999316046503E-01 
    2.4960383756036156E-01 
    2.4144705412763753E-01 
    2.3426113862867565E-01 
    2.2798140460261096E-01 
    2.2257633179402866E-01 
    2.1799475569418608E-01 
    2.1398468044293983E-01 
    2.1171967218383739E-01 
    2.1091970166420623E-01 
    3.1996179766236293E-01 
    3.1251382853561549E-01 
    3.0084734738189151E-01 
    2.8847976836644335E-01 
    2.7674775519634959E-01 
    2.6600847922868553E-01 
    2.5628305198469220E-01 
    2.4750793311841765E-01 
    2.3961926713562751E-01 
    2.3257469075340403E-01 
    2.2635583074348659E-01 
    2.2096249369255622E-01 
    2.1637054890848240E-01 
    2.1236409779888699E-01 
    2.1003876551378417E-01 
    2.0925816920480558E-01 
    2.9934477112015229E-01 
    2.9572001068553960E-01 
    2.8847988035743832E-01 
    2.7956445063679325E-01 
    2.7019901035228638E-01 
    2.6100708690581903E-01 
    2.5227254580760117E-01 
    2.4412023001464039E-01 
    2.3661040692319621E-01 
    2.2978169429038062E-01 
    2.2367021592915892E-01 
    2.1831561612161385E-01 
    2.1372777420266259E-01 
    2.0972643278705722E-01 
    2.0736519974425263E-01 
    2.0662494523058905E-01 
    2.8351665266704174E-01 
    2.8152088210457799E-01 
    2.7674798859276034E-01 
    2.7019913701942333E-01 
    2.6273327562430321E-01 
    2.5493742828296051E-01 
    2.4717602992907098E-01 
    2.3967310656537655E-01 
    2.3257415465502287E-01 
    2.2598376955809127E-01 
    2.1998885061808526E-01 
    2.1467057031683709E-01 
    2.1007586242263537E-01 
    2.0605417519585667E-01 
    2.0366447239511626E-01 
    2.0297330611283451E-01 
    2.7060862825336646E-01 
    2.6938444511135617E-01 
    2.6600885484855685E-01 
    2.6100735228025018E-01 
    2.5493756609570845E-01 
    2.4826513083528515E-01 
    2.4134030218516644E-01 
    2.3441908607280426E-01 
    2.2769184659648789E-01 
    2.2130753176316253E-01 
    2.1539430024675094E-01 
    2.1007284619611358E-01 
    2.0543088135702872E-01 
    2.0135528545665948E-01 
    1.9892208794193067E-01 
    1.9826958772261064E-01 
    2.5968518042932409E-01 
    2.5885063080594051E-01 
    2.5628359058146449E-01 
    2.5227296179115766E-01 
    2.4717630425303136E-01 
    2.4134042740320155E-01 
    2.3506593501533213E-01 
    2.2860166790287473E-01 
    2.2215251202038247E-01 
    2.1589270938581537E-01 
    2.0998188628194353E-01 
    2.0457698084840795E-01 
    1.9980719661290736E-01 
    1.9560325965486283E-01 
    1.9307330017008018E-01 
    1.9244337425032429E-01 
    2.5024121537395522E-01 
    2.4960465033344770E-01 
    2.4750865024613272E-01 
    2.4412081584947432E-01 
    2.3967352639937950E-01 
    2.3441932494575438E-01 
    2.2860175113611039E-01 
    2.2244273891829797E-01 
    2.1614228105396338E-01 
    2.0988618097013570E-01 
    2.0385749963446412E-01 
    1.9824610785505420E-01 
    1.9322233842166248E-01 
    1.8875816587086966E-01 
    1.8603329003272484E-01 
    1.8539741096600565E-01 
    2.4199295189267106E-01 
    2.4144806353804074E-01 
    2.3962019178453536E-01 
    2.3661120485276158E-01 
    2.3257476237112715E-01 
    2.2769221904825654E-01 
    2.2215264980861624E-01 
    2.1614226244407697E-01 
    2.0984389262599387E-01 
    2.0344376409192635E-01 
    1.9714045307110137E-01 
    1.9115350452919136E-01 
    1.8570005859292990E-01 
    1.8080417256571507E-01 
    1.7773652410193017E-01 
    1.7702746831334390E-01 
    2.3477904971656996E-01 
    2.3426239684664313E-01 
    2.3257588540641635E-01 
    2.2978277337876135E-01 
    2.2598463274286026E-01 
    2.2130807983190037E-01 
    2.1589287600402587E-01 
    2.0988600771650989E-01 
    2.0344348765328160E-01 
    1.9673881697260073E-01 
    1.8997395598908584E-01 
    1.8339174473159570E-01 
    1.7726466735951019E-01 
    1.7170377219574401E-01 
    1.6804145754910035E-01 
    1.6713950198838803E-01 
    2.2851053882285835E-01 
    2.2798298375137613E-01 
    2.2635739354611548E-01 
    2.2367168005188243E-01 
    2.1999006547489902E-01 
    2.1539509964177284E-01 
    2.0998206047232978E-01 
    2.0385698142366712E-01 
    1.9713957991263681E-01 
    1.8997331492351177E-01 
    1.8254207163304056E-01 
    1.7509323773110202E-01 
    1.6795026267241550E-01 
    1.6135648262902222E-01 
    1.5664922016645619E-01 
    1.5536237802617800E-01 
    2.2313974586522181E-01 
    2.2257832741545150E-01 
    2.2096457992850330E-01 
    2.1831762602653734E-01 
    2.1467230087346445E-01 
    2.1007411852926691E-01 
    2.0457727023844122E-01 
    1.9824497754956821E-01 
    1.9115152547276554E-01 
    1.8339007428484175E-01 
    1.7509244165561147E-01 
    1.6646775360030813E-01 
    1.5785050612925708E-01 
    1.4963846017353746E-01 
    1.4310127245642260E-01 
    1.4108867303281111E-01 
    2.1860144712228877E-01 
    2.1799738842209601E-01 
    2.1637339228533572E-01 
    2.1373051818068928E-01 
    2.1007837356731535E-01 
    2.0543325576832189E-01 
    1.9980821092774415E-01 
    1.9322026907479989E-01 
    1.8569600319781399E-01 
    1.7726147980558571E-01 
    1.6794869547500033E-01 
    1.5785003346298024E-01 
    1.4719954185548673E-01 
    1.3646465422856821E-01 
    1.2681690245947369E-01 
    1.2337121111366015E-01 
    2.1462860974405587E-01 
    2.1398816720617181E-01 
    2.1236790302774286E-01 
    2.0973022746567277E-01 
    2.0605766966344730E-01 
    2.0136019684422585E-01 
    1.9560795898259573E-01 
    1.8875569939723202E-01 
    1.8079539198269051E-01 
    1.7169715817959466E-01 
    1.6135409572210449E-01 
    1.4963824384310831E-01 
    1.3646453416920137E-01 
    1.2194010147208587E-01 
    1.0707631167873412E-01 
    1.0011955809336774E-01 
    2.1246574805915150E-01 
    2.1172291766036988E-01 
    2.1004252051096756E-01 
    2.0736866279394919E-01 
    2.0366736243372169E-01 
    1.9892605031612717E-01 
    1.9307565503644894E-01 
    1.8602616105067893E-01 
    1.7772306306339147E-01 
    1.6803377778091441E-01 
    1.5664809987627487E-01 
    1.4310125087660813E-01 
    1.2681418752583259E-01 
    1.0707782010391895E-01 
    8.2479145394299264E-02 
    6.2878119150843736E-02 
    2.1168163870171403E-01 
    2.1092280773405414E-01 
    2.0926167424194528E-01 
    2.0662822176838230E-01 
    2.0297598950660087E-01 
    1.9827234502312308E-01 
    1.9244394675191026E-01 
    1.8539053911127618E-01 
    1.7701545868632715E-01 
    1.6713161544332830E-01 
    1.5536004617606750E-01 
    1.4108751748806439E-01 
    1.2336774262350096E-01 
    1.0012683406362324E-01 
    6.2892943428003167E-02 
    0.0000000000000000E+00 

SCALARS Saturarion double 1 
LOOKUP_TABLE default 

    1.0000000000000000E+00 
    9.9721014497433469E-01 
    9.9203774045318105E-01 
    9.8276542891132224E-01 
    9.6971189363339616E-01 
    9.5416926204941932E-01 
    9.3689442542325163E-01 
    9.1848877927041961E-01 
    8.9929385208627677E-01 
    8.7939015898691908E-01 
    8.5885821451755118E-01 
    8.3713941732671349E-01 
    8.0364878332103296E-01 
    6.6947155593742236E-01 
    6.5006226974387335E-02 
    1.0000000812216384E-06 
    9.9720985072055413E-01 
    9.9445690961981703E-01 
    9.8892011852621375E-01 
    9.8007906999238115E-01 
    9.6765196426992539E-01 
    9.5262622554625209E-01 
    9.3581580830670053E-01 
    9.1781040339651998E-01 
    8.9894814831868763E-01 
    8.7932754681327840E-01 
    8.5905192916528428E-01 
    8.3761196322040743E-01 
    8.0510008067636063E-01 
    6.8648623164621403E-01 
    9.6574397546207724E-02 
    2.2088003542989575E-06 
    9.9203696072575154E-01 
    9.8891949862881900E-01 
    9.8222686243334356E-01 
    9.7338327291633253E-01 
    9.6183471611866778E-01 
    9.4783295659550393E-01 
    9.3195640283014825E-01 
    9.1476749486641185E-01 
    8.9662769648317708E-01 
    8.7767525675844160E-01 
    8.5806155846031873E-01 
    8.3732143840497941E-01 
    8.0683812647129460E-01 
    6.9969619824254214E-01 
    1.2211345384269438E-01 
    2.0077956580160146E-06 
    9.8276397904056012E-01 
    9.8007742987598656E-01 
    9.7338170823225201E-01 
    9.6427689991006449E-01 
    9.5331429869057061E-01 
    9.4029312053256930E-01 
    9.2548731736449730E-01 
    9.0938483943267956E-01 
    8.9234063520335183E-01 
    8.7448744583190086E-01 
    8.5589534086083563E-01 
    8.3630785269710028E-01 
    8.0782658314183464E-01 
    7.0857528946008530E-01 
    1.4533789793899890E-01 
    1.2712638386910536E-06 
    9.6970969137425678E-01 
    9.6765049279831172E-01 
    9.6183303919679874E-01 
    9.5331244552075978E-01 
    9.4282875525017218E-01 
    9.3068331630567736E-01 
    9.1708105347947289E-01 
    9.0236496390802090E-01 
    8.8673581487868469E-01 
    8.7017399086452973E-01 
    8.5268732945895487E-01 
    8.3412746610163802E-01 
    8.0685665319917599E-01 
    7.1243701116501168E-01 
    1.5278332243742521E-01 
    1.0220010993302151E-06 
    9.5416409308077998E-01 
    9.5262425899710557E-01 
    9.4783269315017471E-01 
    9.4029124983371948E-01 
    9.3068059735119679E-01 
    9.1958026439530705E-01 
    9.0740334401701195E-01 
    8.9435810537777471E-01 
    8.8032829995725426E-01 
    8.6505654581960223E-01 
    8.4861613031741634E-01 
    8.3098725367509552E-01 
    8.0519327290948783E-01 
    7.1290245803772845E-01 
    1.5460606887724265E-01 
    1.0063478259257911E-06 
    9.3688698028640260E-01 
    9.3581146480738531E-01 
    9.3195518211898942E-01 
    9.2548669966225539E-01 
    9.1707759247505383E-01 
    9.0739998493547269E-01 
    8.9693049029173488E-01 
    8.8570640450853244E-01 
    8.7331547221565486E-01 
    8.5936508866317562E-01 
    8.4401799890766127E-01 
    8.2748101979344357E-01 
    8.0350472471112910E-01 
    7.1430135375440695E-01 
    1.7080375704088008E-01 
    1.1393068231563025E-06 
    9.1847891087457056E-01 
    9.1780395432790063E-01 
    9.1476329689143843E-01 
    9.0938371491888104E-01 
    9.0236390449505188E-01 
    8.9435546345376182E-01 
    8.8570565093704157E-01 
    8.7628198075582930E-01 
    8.6559636350585401E-01 
    8.5323320473259068E-01 
    8.3919702260775642E-01 
    8.2375137675498855E-01 
    8.0102907941536261E-01 
    7.1717986891734387E-01 
    1.8159411697068525E-01 
    1.6289571989466944E-06 
    8.9928122162103907E-01 
    8.9894121772787461E-01 
    8.9662267605259582E-01 
    8.9233705203637448E-01 
    8.8673665430640669E-01 
    8.8032981494563733E-01 
    8.7331725074054678E-01 
    8.6559946519988562E-01 
    8.5690464548812573E-01 
    8.4671857819684881E-01 
    8.3448157324981354E-01 
    8.2019758212501059E-01 
    7.9830268696635565E-01 
    7.1858981282823453E-01 
    1.8865436834403210E-01 
    1.3669874763304829E-06 
    8.7937714340631334E-01 
    8.7932309371661665E-01 
    8.7767436803979948E-01 
    8.7448186999525634E-01 
    8.7017037488144111E-01 
    8.6505803930667491E-01 
    8.5936716856606865E-01 
    8.5323609372853493E-01 
    8.4672391304951533E-01 
    8.3932507556759883E-01 
    8.2979119507471943E-01 
    8.1711943662412734E-01 
    7.9659224120420147E-01 
    7.2016625129565204E-01 
    2.0294427429873604E-01 
    1.2148532033695861E-06 
    8.5884719307407020E-01 
    8.5905026115254202E-01 
    8.5806586201717561E-01 
    8.5589303892338842E-01 
    8.5267843970862400E-01 
    8.4861002924798801E-01 
    8.4401529667499320E-01 
    8.3919488306004475E-01 
    8.3448844691776680E-01 
    8.2980544241289989E-01 
    8.2382136663806493E-01 
    8.1418079496131979E-01 
    7.9598324694471212E-01 
    7.2565397701855661E-01 
    2.4156288954517210E-01 
    1.2984328260208495E-05 
    8.3713385970440612E-01 
    8.3762318872327823E-01 
    8.3733874309325662E-01 
    8.3630873924203109E-01 
    8.3412092262519300E-01 
    8.3097723940739776E-01 
    8.2747121069451102E-01 
    8.2374638779216358E-01 
    8.2019633641899259E-01 
    8.1713214799304967E-01 
    8.1419644639537070E-01 
    8.0869041630691552E-01 
    7.9487416198672156E-01 
    7.3792727963399518E-01 
    3.0477653060339877E-01 
    1.3399757822216124E-04 
    8.0370701913024534E-01 
    8.0517206445216638E-01 
    8.0687347558378031E-01 
    8.0780484503010519E-01 
    8.0686999664372017E-01 
    8.0521429227910168E-01 
    8.0349884066193755E-01 
    8.0102628514295526E-01 
    7.9831813126707563E-01 
    7.9662398625264930E-01 
    7.9601792538429561E-01 
    7.9488396409234985E-01 
    7.8738521553902763E-01 
    7.4858863295889566E-01 
    4.0558165287097475E-01 
    2.0791412282428192E-03 
    6.7021485905971290E-01 
    6.8661529117598974E-01 
    6.9960058185027096E-01 
    7.0859836444197377E-01 
    7.1255356539996950E-01 
    7.1296336475093602E-01 
    7.1437658785452218E-01 
    7.1759759749221252E-01 
    7.1885530413125354E-01 
    7.2012468481087721E-01 
    7.2540968173564679E-01 
    7.3802037058528169E-01 
    7.4859750360545974E-01 
    7.4137638011732576E-01 
    5.6324054704804549E-01 
    4.2283289352251216E-02 
    6.5974753281166795E-02 
    9.6310096591616781E-02 
    1.2196657968077412E-01 
    1.4605817017322220E-01 
    1.5295531689072109E-01 
    1.5452952749096152E-01 
    1.7238157374626251E-01 
    1.8466199200934261E-01 
    1.8885224318165522E-01 
    2.0170751295955672E-01 
    2.4089494131290162E-01 
    3.0471782637821077E-01 
    4.0631799432701826E-01 
    5.6240278334139870E-01 
    5.6074097043831361E-01 
    2.6769939125512160E-01 
    1.0000000737854474E-06 
    2.1098937487627380E-06 
    2.0154323520099504E-06 
    1.3214624326470892E-06 
    1.0260290505892555E-06 
    1.0083103158208973E-06 
    1.1860870206608647E-06 
    1.6733535771805673E-06 
    1.4485764913766795E-06 
    1.2246117484888459E-06 
    1.4272761683146205E-05 
    1.3007006117697999E-04 
    2.0651695439336628E-03 
    4.1438896738370576E-02 
    2.6856947113083268E-01 
    2.2091877405600305E-01 
