# vtk DataFile Version 2.0
Pressure Field Data 
ASCII 
DATASET UNSTRUCTURED_GRID 

POINTS 289 double 

    0.0000000000000000E+00     0.0000000000000000E+00     0.0000000000000000E+00 
    1.0000000000000000E+00     0.0000000000000000E+00     0.0000000000000000E+00 
    1.0000000000000000E+00     1.0000000000000000E+00     0.0000000000000000E+00 
    0.0000000000000000E+00     1.0000000000000000E+00     0.0000000000000000E+00 
    6.2499999999872928E-02     0.0000000000000000E+00     0.0000000000000000E+00 
    1.2499999999977310E-01     0.0000000000000000E+00     0.0000000000000000E+00 
    1.8749999999959341E-01     0.0000000000000000E+00     0.0000000000000000E+00 
    2.4999999999941089E-01     0.0000000000000000E+00     0.0000000000000000E+00 
    3.1249999999922851E-01     0.0000000000000000E+00     0.0000000000000000E+00 
    3.7499999999904610E-01     0.0000000000000000E+00     0.0000000000000000E+00 
    4.3749999999886358E-01     0.0000000000000000E+00     0.0000000000000000E+00 
    4.9999999999869210E-01     0.0000000000000000E+00     0.0000000000000000E+00 
    5.6249999999884603E-01     0.0000000000000000E+00     0.0000000000000000E+00 
    6.2499999999901090E-01     0.0000000000000000E+00     0.0000000000000000E+00 
    6.8749999999917577E-01     0.0000000000000000E+00     0.0000000000000000E+00 
    7.4999999999934064E-01     0.0000000000000000E+00     0.0000000000000000E+00 
    8.1249999999950551E-01     0.0000000000000000E+00     0.0000000000000000E+00 
    8.7499999999967026E-01     0.0000000000000000E+00     0.0000000000000000E+00 
    9.3749999999983513E-01     0.0000000000000000E+00     0.0000000000000000E+00 
    1.0000000000000000E+00     6.2499999999872928E-02     0.0000000000000000E+00 
    1.0000000000000000E+00     1.2499999999977310E-01     0.0000000000000000E+00 
    1.0000000000000000E+00     1.8749999999959341E-01     0.0000000000000000E+00 
    1.0000000000000000E+00     2.4999999999941089E-01     0.0000000000000000E+00 
    1.0000000000000000E+00     3.1249999999922851E-01     0.0000000000000000E+00 
    1.0000000000000000E+00     3.7499999999904610E-01     0.0000000000000000E+00 
    1.0000000000000000E+00     4.3749999999886358E-01     0.0000000000000000E+00 
    1.0000000000000000E+00     4.9999999999869210E-01     0.0000000000000000E+00 
    1.0000000000000000E+00     5.6249999999884603E-01     0.0000000000000000E+00 
    1.0000000000000000E+00     6.2499999999901090E-01     0.0000000000000000E+00 
    1.0000000000000000E+00     6.8749999999917577E-01     0.0000000000000000E+00 
    1.0000000000000000E+00     7.4999999999934064E-01     0.0000000000000000E+00 
    1.0000000000000000E+00     8.1249999999950551E-01     0.0000000000000000E+00 
    1.0000000000000000E+00     8.7499999999967026E-01     0.0000000000000000E+00 
    1.0000000000000000E+00     9.3749999999983513E-01     0.0000000000000000E+00 
    9.3749999999973976E-01     1.0000000000000000E+00     0.0000000000000000E+00 
    8.7499999999950118E-01     1.0000000000000000E+00     0.0000000000000000E+00 
    8.1249999999991318E-01     1.0000000000000000E+00     0.0000000000000000E+00 
    7.5000000000034706E-01     1.0000000000000000E+00     0.0000000000000000E+00 
    6.8750000000078049E-01     1.0000000000000000E+00     0.0000000000000000E+00 
    6.2500000000121403E-01     1.0000000000000000E+00     0.0000000000000000E+00 
    5.6250000000164757E-01     1.0000000000000000E+00     0.0000000000000000E+00 
    5.0000000000205946E-01     1.0000000000000000E+00     0.0000000000000000E+00 
    4.3750000000182099E-01     1.0000000000000000E+00     0.0000000000000000E+00 
    3.7500000000156092E-01     1.0000000000000000E+00     0.0000000000000000E+00 
    3.1250000000130068E-01     1.0000000000000000E+00     0.0000000000000000E+00 
    2.5000000000104050E-01     1.0000000000000000E+00     0.0000000000000000E+00 
    1.8750000000078040E-01     1.0000000000000000E+00     0.0000000000000000E+00 
    1.2500000000052031E-01     1.0000000000000000E+00     0.0000000000000000E+00 
    6.2500000000260125E-02     1.0000000000000000E+00     0.0000000000000000E+00 
    0.0000000000000000E+00     9.3749999999973976E-01     0.0000000000000000E+00 
    0.0000000000000000E+00     8.7499999999950118E-01     0.0000000000000000E+00 
    0.0000000000000000E+00     8.1249999999991318E-01     0.0000000000000000E+00 
    0.0000000000000000E+00     7.5000000000034706E-01     0.0000000000000000E+00 
    0.0000000000000000E+00     6.8750000000078049E-01     0.0000000000000000E+00 
    0.0000000000000000E+00     6.2500000000121403E-01     0.0000000000000000E+00 
    0.0000000000000000E+00     5.6250000000164757E-01     0.0000000000000000E+00 
    0.0000000000000000E+00     5.0000000000205946E-01     0.0000000000000000E+00 
    0.0000000000000000E+00     4.3750000000182099E-01     0.0000000000000000E+00 
    0.0000000000000000E+00     3.7500000000156092E-01     0.0000000000000000E+00 
    0.0000000000000000E+00     3.1250000000130068E-01     0.0000000000000000E+00 
    0.0000000000000000E+00     2.5000000000104050E-01     0.0000000000000000E+00 
    0.0000000000000000E+00     1.8750000000078040E-01     0.0000000000000000E+00 
    0.0000000000000000E+00     1.2500000000052031E-01     0.0000000000000000E+00 
    0.0000000000000000E+00     6.2500000000260125E-02     0.0000000000000000E+00 
    6.2499999999897131E-02     6.2500000000235922E-02     0.0000000000000000E+00 
    6.2499999999921327E-02     1.2500000000047351E-01     0.0000000000000000E+00 
    6.2499999999945530E-02     1.8750000000070621E-01     0.0000000000000000E+00 
    6.2499999999969733E-02     2.5000000000093858E-01     0.0000000000000000E+00 
    6.2499999999993928E-02     3.1250000000117117E-01     0.0000000000000000E+00 
    6.2500000000018124E-02     3.7500000000140382E-01     0.0000000000000000E+00 
    6.2500000000042327E-02     4.3750000000163619E-01     0.0000000000000000E+00 
    6.2500000000066530E-02     5.0000000000184897E-01     0.0000000000000000E+00 
    6.2500000000090733E-02     5.6250000000147260E-01     0.0000000000000000E+00 
    6.2500000000114922E-02     6.2500000000107636E-01     0.0000000000000000E+00 
    6.2500000000139125E-02     6.8750000000068034E-01     0.0000000000000000E+00 
    6.2500000000163328E-02     7.5000000000028411E-01     0.0000000000000000E+00 
    6.2500000000187531E-02     8.1249999999988787E-01     0.0000000000000000E+00 
    6.2500000000211720E-02     8.7499999999951172E-01     0.0000000000000000E+00 
    6.2500000000235922E-02     9.3749999999974565E-01     0.0000000000000000E+00 
    1.2499999999981980E-01     6.2500000000211733E-02     0.0000000000000000E+00 
    1.2499999999986650E-01     1.2500000000042691E-01     0.0000000000000000E+00 
    1.2499999999991319E-01     1.8750000000063199E-01     0.0000000000000000E+00 
    1.2499999999995989E-01     2.5000000000083678E-01     0.0000000000000000E+00 
    1.2500000000000661E-01     3.1250000000104172E-01     0.0000000000000000E+00 
    1.2500000000005329E-01     3.7500000000124661E-01     0.0000000000000000E+00 
    1.2500000000010000E-01     4.3750000000145117E-01     0.0000000000000000E+00 
    1.2500000000014669E-01     5.0000000000163858E-01     0.0000000000000000E+00 
    1.2500000000019340E-01     5.6250000000129741E-01     0.0000000000000000E+00 
    1.2500000000024011E-01     6.2500000000093847E-01     0.0000000000000000E+00 
    1.2500000000028680E-01     6.8750000000057998E-01     0.0000000000000000E+00 
    1.2500000000033351E-01     7.5000000000022127E-01     0.0000000000000000E+00 
    1.2500000000038020E-01     8.1249999999986211E-01     0.0000000000000000E+00 
    1.2500000000042691E-01     8.7499999999952238E-01     0.0000000000000000E+00 
    1.2500000000047359E-01     9.3749999999975164E-01     0.0000000000000000E+00 
    1.8749999999966760E-01     6.2500000000187531E-02     0.0000000000000000E+00 
    1.8749999999974179E-01     1.2500000000038020E-01     0.0000000000000000E+00 
    1.8749999999981601E-01     1.8750000000055780E-01     0.0000000000000000E+00 
    1.8749999999989009E-01     2.5000000000073502E-01     0.0000000000000000E+00 
    1.8749999999996431E-01     3.1250000000091221E-01     0.0000000000000000E+00 
    1.8750000000003850E-01     3.7500000000108941E-01     0.0000000000000000E+00 
    1.8750000000011269E-01     4.3750000000126649E-01     0.0000000000000000E+00 
    1.8750000000018691E-01     5.0000000000142808E-01     0.0000000000000000E+00 
    1.8750000000026110E-01     5.6250000000112244E-01     0.0000000000000000E+00 
    1.8750000000033529E-01     6.2500000000080080E-01     0.0000000000000000E+00 
    1.8750000000040951E-01     6.8750000000047962E-01     0.0000000000000000E+00 
    1.8750000000048361E-01     7.5000000000015843E-01     0.0000000000000000E+00 
    1.8750000000055780E-01     8.1249999999983680E-01     0.0000000000000000E+00 
    1.8750000000063199E-01     8.7499999999953304E-01     0.0000000000000000E+00 
    1.8750000000070621E-01     9.3749999999975764E-01     0.0000000000000000E+00 
    2.4999999999951281E-01     6.2500000000163314E-02     0.0000000000000000E+00 
    2.4999999999961461E-01     1.2500000000033351E-01     0.0000000000000000E+00 
    2.4999999999971650E-01     1.8750000000048361E-01     0.0000000000000000E+00 
    2.4999999999981831E-01     2.5000000000063310E-01     0.0000000000000000E+00 
    2.4999999999992020E-01     3.1250000000078260E-01     0.0000000000000000E+00 
    2.5000000000002198E-01     3.7500000000093209E-01     0.0000000000000000E+00 
    2.5000000000012390E-01     4.3750000000108180E-01     0.0000000000000000E+00 
    2.5000000000022571E-01     5.0000000000121769E-01     0.0000000000000000E+00 
    2.5000000000032763E-01     5.6250000000094724E-01     0.0000000000000000E+00 
    2.5000000000042938E-01     6.2500000000066314E-01     0.0000000000000000E+00 
    2.5000000000053119E-01     6.8750000000037925E-01     0.0000000000000000E+00 
[...]
CELL_DATA 256 
SCALARS Pressure double 1 
LOOKUP_TABLE default 

    3.2716260008949299E-01 
    2.7810017325444281E-01 
    2.4808864495809616E-01 
    2.2674357117458499E-01 
    2.0993005308115964E-01 
    1.9585624149455799E-01 
    1.8366807060971085E-01 
    1.7288426084870021E-01 
    1.6311864705493856E-01 
    1.5363326827050999E-01 
    1.4748725552732134E-01 
    1.4389948085765497E-01 
    1.4132276507926592E-01 
    1.3947611198492640E-01 
    1.3830988058990515E-01 
    1.3777318834283500E-01 
    2.7810024487828050E-01 
    2.6022332820798982E-01 
    2.4045494358016076E-01 
    2.2296035551432103E-01 
    2.0781564133160679E-01 
    1.9455795511577859E-01 
    1.8280367434252101E-01 
    1.7226164040764308E-01 
    1.6262841438946160E-01 
    1.5316148311833766E-01 
    1.4700343923007381E-01 
    1.4341370304557777E-01 
    1.4081946140880339E-01 
    1.3895160589165773E-01 
    1.3776925684003014E-01 
    1.3723629927096756E-01 
    2.4808875415732959E-01 
    2.4045499921935243E-01 
    2.2836253825728936E-01 
    2.1532168248106276E-01 
    2.0269591109813817E-01 
    1.9090649112630248E-01 
    1.8003943878276868E-01 
    1.7004732984823664E-01 
    1.6075705391516093E-01 
    1.5148066354454537E-01 
    1.4559043209924785E-01 
    1.4213992377181892E-01 
    1.3958852479382106E-01 
    1.3774150893794901E-01 
    1.3657733523759169E-01 
    1.3607671149278910E-01 
    2.2674365735370189E-01 
    2.2296038922163436E-01 
    2.1532167361554205E-01 
    2.0577392620908952E-01 
    1.9558374313301732E-01 
    1.8543826283160023E-01 
    1.7566897277552876E-01 
    1.6639655796552272E-01 
    1.5755057597095012E-01 
    1.4874489159899601E-01 
    1.4334045119353311E-01 
    1.4011620368353872E-01 
    1.3764378500100555E-01 
    1.3584248656170653E-01 
    1.3471519452799807E-01 
    1.3426051221558438E-01 
    2.0993005878057641E-01 
    2.0781558948658432E-01 
    2.0269582085850799E-01 
    1.9558366078751305E-01 
    1.8738697767956328E-01 
    1.7875291201844007E-01 
    1.7007521298095177E-01 
    1.6154002473756052E-01 
    1.5303926364132089E-01 
    1.4512713735068308E-01 
    1.4038573599172510E-01 
    1.3739970796961318E-01 
    1.3501493737428966E-01 
    1.3326104511267320E-01 
    1.3217195568054571E-01 
    1.3176596882166239E-01 
    1.9585606028699643E-01 
    1.9455778070410917E-01 
    1.9090632093086127E-01 
    1.8543809303840711E-01 
    1.7875278765853167E-01 
    1.7136460454229405E-01 
    1.6364093495828336E-01 
    1.5576344720899005E-01 
    1.4755225927157253E-01 
    1.4092402708899612E-01 
    1.3690669031735611E-01 
    1.3407876713355685E-01 
    1.3174502984157321E-01 
    1.3000870851466503E-01 
    1.2893829597430959E-01 
    1.2857310207278438E-01 
    1.8366765233960144E-01 
    1.8280337366349397E-01 
    1.8003921768598569E-01 
    1.7566875916691094E-01 
    1.7007499819796151E-01 
    1.6364081791990998E-01 
    1.5666229238919396E-01 
    1.4915712548598900E-01 
    1.4178335214557319E-01 
    1.3659328036054366E-01 
    1.3309992753991495E-01 
    1.3025837353167088E-01 
    1.2787907363311929E-01 
    1.2609243783515472E-01 
    1.2499665581220393E-01 
    1.2465263943445967E-01 
    1.7288376593637664E-01 
    1.7226134241643226E-01 
    1.7004707392682475E-01 
    1.6639624811650380E-01 
    1.6153967610282613E-01 
    1.5576325758888510E-01 
    1.4915736867810175E-01 
    1.4224584897722142E-01 
    1.3650316991029637E-01 
    1.3235921455870758E-01 
    1.2901250296290406E-01 
    1.2599650432855564E-01 
    1.2344169827722437E-01 
    1.2150161862465572E-01 
    1.2030891272637201E-01 
    1.1995279496993484E-01 
    1.6311845867099620E-01 
    1.6262831652217757E-01 
    1.6075689802524865E-01 
    1.5755025897070293E-01 
    1.5303816305879461E-01 
    1.4755122534076390E-01 
    1.4178332080575889E-01 
    1.3650315631238205E-01 
    1.3207595946332354E-01 
    1.2824024034257905E-01 
    1.2465627355766884E-01 
    1.2132334686894444E-01 
    1.1843741816939297E-01 
    1.1620100138813666E-01 
    1.1480350072459761E-01 
    1.1438282444643615E-01 
    1.5363491101696211E-01 
    1.5316173480122527E-01 
    1.5148049264536306E-01 
    1.4874481597338360E-01 
    1.4512661032748625E-01 
    1.4092383969727401E-01 
    1.3659365666516554E-01 
    1.3235929764821888E-01 
    1.2824019917147211E-01 
    1.2416073529818303E-01 
    1.2012485704892488E-01 
    1.1628755454808873E-01 
    1.1286675230953927E-01 
    1.1013012312066427E-01 
    1.0836084554083392E-01 
    1.0778965786988107E-01 
    1.4748729097543015E-01 
    1.4700334667119885E-01 
    1.4559043346734046E-01 
    1.4334037987651915E-01 
    1.4038550142400325E-01 
    1.3690686875351779E-01 
    1.3310041541435891E-01 
    1.2901272662442190E-01 
    1.2465634493627602E-01 
    1.2012488368510305E-01 
    1.1550713483646396E-01 
    1.1096249642779499E-01 
    1.0674353451780492E-01 
    1.0320768989675687E-01 
    1.0079365397319162E-01 
    9.9918420631369895E-02 
    1.4389876202564333E-01 
    1.4341331594969098E-01 
    1.4213987436808717E-01 
    1.4011610903763116E-01 
    1.3739952151302778E-01 
    1.3407878429313441E-01 
    1.3025854973748127E-01 
    1.2599664670968783E-01 
    1.2132342566395184E-01 
    1.1628759358001747E-01 
    1.1096251090209835E-01 
    1.0549017386298046E-01 
    1.0013614163775210E-01 
    9.5353883529452579E-02 
    9.1821508791306516E-02 
    9.0336429021110651E-02 
    1.4132229420410736E-01 
    1.4081911859333771E-01 
    1.3958833669942788E-01 
    1.3764364900092751E-01 
    1.3501482146622712E-01 
    1.3174500146836809E-01 
    1.2787912677769492E-01 
    1.2344176822095715E-01 
    1.1843747239823500E-01 
    1.1286678672964556E-01 
    1.0674355272746087E-01 
    1.0013614849213044E-01 
    9.3247918255640369E-02 
    8.6562484204038254E-02 
    8.1052236083616683E-02 
    7.8269863729895708E-02 
    1.3947575641867835E-01 
    1.3895130720492913E-01 
    1.3774129204863453E-01 
    1.3584232894294074E-01 
    1.3326093291573848E-01 
    1.3000865356660932E-01 
    1.2609243518623289E-01 
    1.2150164228159080E-01 
    1.1620102996478061E-01 
    1.1013014675331760E-01 
    1.0320770584198663E-01 
    9.5353892339719762E-02 
    8.6562487653838907E-02 
    7.7105847965365043E-02 
    6.8048890421969987E-02 
    6.2212340289542686E-02 
    1.3830957992774170E-01 
    1.3776898736860754E-01 
    1.3657711702671727E-01 
    1.3471502766466764E-01 
    1.3217183614261810E-01 
    1.2893822366766325E-01 
    1.2499662500789166E-01 
    1.2030890954098362E-01 
    1.1480351087191855E-01 
    1.0836085921838232E-01 
    1.0079366601538772E-01 
    9.1821517267512864E-02 
    8.1052240903123657E-02 
    6.8048892339013498E-02 
    5.2869315553893244E-02 
    3.8872710075443732E-02 
    1.3777290945149875E-01 
    1.3723604273607334E-01 
    1.3607649439077890E-01 
    1.3426034060615052E-01 
    1.3176584274230563E-01 
    1.2857301967420875E-01 
    1.2465259508276746E-01 
    1.1995277854925988E-01 
    1.1438282468995861E-01 
    1.0778966560842000E-01 
    9.9918429931104863E-02 
    9.0336436824269409E-02 
    7.8269868981144158E-02 
    6.2212343086536573E-02 
    3.8872711056149228E-02 
    0.0000000000000000E+00 

SCALARS Saturarion double 1 
LOOKUP_TABLE default 

    1.0000000000000000E+00 
    9.9364981031190924E-01 
    9.8219698574655290E-01 
    9.6136781701308804E-01 
    9.3494819998054490E-01 
    9.0787637692303380E-01 
    8.8123570105933979E-01 
    8.5335104535983630E-01 
    8.1522662907847265E-01 
    7.0325540153092614E-01 
    1.2448237829304760E-01 
    1.0000000089277323E-06 
    1.0000000000000016E-06 
    9.9999999999999995E-07 
    9.9999999999999995E-07 
    9.9999999999999995E-07 
    9.9364882849847869E-01 
    9.8736191718739452E-01 
    9.7524222307673680E-01 
    9.5585418433943059E-01 
    9.3096742159279533E-01 
    9.0481412340994349E-01 
    8.7872673137909152E-01 
    8.5139918569147843E-01 
    8.1424968117749763E-01 
    7.0429147390462443E-01 
    1.2920803385859114E-01 
    1.0134631929153201E-06 
    1.0000000008211353E-06 
    1.0000000000000002E-06 
    9.9999999999999995E-07 
    9.9999999999999995E-07 
    9.8219455995761340E-01 
    9.7524013195198433E-01 
    9.6060559429825099E-01 
    9.4220838485458169E-01 
    9.1980498738916239E-01 
    8.9599269081420241E-01 
    8.7197824127636248E-01 
    8.4610417783974101E-01 
    8.0884109628114165E-01 
    6.8774544933812676E-01 
    9.4040149799803685E-02 
    5.7515976627180005E-06 
    1.0000003293129012E-06 
    1.0000000000000048E-06 
    9.9999999999999995E-07 
    9.9999999999999995E-07 
    9.6136287783520824E-01 
    9.5584890098333786E-01 
    9.4220421404584331E-01 
    9.2452138874326750E-01 
    9.0509395926339398E-01 
    8.8488904677110147E-01 
    8.6311473674501216E-01 
    8.3780057639905170E-01 
    7.9754170178827277E-01 
    6.2833979028708853E-01 
    3.6484472738536909E-02 
    4.1707700348750370E-06 
    1.0000002725071736E-06 
    9.9999999999999995E-07 
    9.9999999999999995E-07 
    9.9999999999999995E-07 
    9.3493855962372507E-01 
    9.3096249094603811E-01 
    9.1980151380977815E-01 
    9.0509008979812355E-01 
    8.8965779507840403E-01 
    8.7310016560248338E-01 
    8.5306186829624997E-01 
    8.2744484113129901E-01 
    7.8146519411290771E-01 
    5.0452845227064536E-01 
    5.1562836707901832E-03 
    1.1178946745142272E-06 
    1.0000000040479192E-06 
    9.9999999999999995E-07 
    9.9999999999999995E-07 
    9.9999999999999995E-07 
    9.0785595357467685E-01 
    9.0480690709597089E-01 
    8.9599273162208437E-01 
    8.8488916517861238E-01 
    8.7310614194797898E-01 
    8.5935405192224956E-01 
    8.4187057902481877E-01 
    8.1493699522741303E-01 
    7.4767104905607151E-01 
    2.9486972673779233E-01 
    2.1413375837007350E-04 
    1.0024639571877168E-06 
    1.0000000000025525E-06 
    9.9999999999999995E-07 
    9.9999999999999995E-07 
    9.9999999999999995E-07 
    8.8121932906284173E-01 
    8.7871846444588719E-01 
    8.7197451594853204E-01 
    8.6311487833103506E-01 
    8.5307033790417264E-01 
    8.4188271789584757E-01 
    8.2675711442276822E-01 
    7.9397158001973689E-01 
    5.9275183352481542E-01 
    4.7185332839676297E-02 
    1.7619088972086075E-05 
    1.0000040818173121E-06 
    9.9999999999999995E-07 
    9.9999999999999995E-07 
    9.9999999999999995E-07 
    9.9999999999999995E-07 
    8.5336040417579850E-01 
    8.5140075197846476E-01 
    8.4608961650825310E-01 
    8.3779176056669669E-01 
    8.2743606984962648E-01 
    8.1495506543106144E-01 
    7.9399896046500940E-01 
    6.7934423393957444E-01 
    2.0154116739195346E-01 
    2.9619497038371273E-04 
    1.0036354992780739E-06 
    1.0000000000003242E-06 
    9.9999999999999995E-07 
    9.9999999999999995E-07 
    9.9999999999999995E-07 
    9.9999999999999995E-07 
    8.1529997003309018E-01 
    8.1424311026708673E-01 
    8.0879627910555263E-01 
    7.9759536412740817E-01 
    7.8143066513253967E-01 
    7.4753969481536364E-01 
    5.9278192121984308E-01 
    2.0167436665570254E-01 
    9.0695590212469014E-04 
    1.0234851695943382E-06 
    1.0000000008086449E-06 
    1.0000000000000002E-06 
    9.9999999999999995E-07 
    9.9999999999999995E-07 
    9.9999999999999995E-07 
    9.9999999999999995E-07 
    7.0368219581962121E-01 
    7.0427467169611413E-01 
    6.8751922465137305E-01 
    6.2905853599014350E-01 
    5.0490115552216519E-01 
    2.9420447686240669E-01 
    4.7068803164214509E-02 
    2.9707634208237308E-04 
    1.0235240235291690E-06 
    1.0000000027558536E-06 
    1.0000000000000002E-06 
    9.9999999999999995E-07 
    9.9999999999999995E-07 
    9.9999999999999995E-07 
    9.9999999999999995E-07 
    9.9999999999999995E-07 
    1.2528121246797252E-01 
    1.2900266443387179E-01 
    9.3755061102490475E-02 
    3.6827397077586525E-02 
    5.2441388559479277E-03 
    2.1252327161941674E-04 
    1.7525451160107421E-05 
    1.0036602191872127E-06 
    1.0000000008106795E-06 
    1.0000000000000002E-06 
    9.9999999999999995E-07 
    9.9999999999999995E-07 
    9.9999999999999995E-07 
    9.9999999999999995E-07 
    9.9999999999999995E-07 
    9.9999999999999995E-07 
    1.0000000105370377E-06 
    1.0230900350823572E-06 
    5.7419318999427543E-06 
    4.1477790311230969E-06 
    1.1230926272061561E-06 
    1.0024363241398788E-06 
    1.0000040390982563E-06 
    1.0000000000003208E-06 
    1.0000000000000002E-06 
    9.9999999999999995E-07 
    9.9999999999999995E-07 
    9.9999999999999995E-07 
    9.9999999999999995E-07 
    9.9999999999999995E-07 
    9.9999999999999995E-07 
    9.9999999999999995E-07 
    1.0000000000000016E-06 
    1.0000000012785610E-06 
    1.0000003273275438E-06 
    1.0000002711227404E-06 
    1.0000000042300863E-06 
    1.0000000000023331E-06 
    9.9999999999999995E-07 
    9.9999999999999995E-07 
    9.9999999999999995E-07 
    9.9999999999999995E-07 
    9.9999999999999995E-07 
    9.9999999999999995E-07 
    9.9999999999999995E-07 
    9.9999999999999995E-07 
    9.9999999999999995E-07 
    9.9999999999999995E-07 
    9.9999999999999995E-07 
    1.0000000000000002E-06 
    1.0000000000000050E-06 
    9.9999999999999995E-07 
    9.9999999999999995E-07 
    9.9999999999999995E-07 
    9.9999999999999995E-07 
    9.9999999999999995E-07 
    9.9999999999999995E-07 
    9.9999999999999995E-07 
    9.9999999999999995E-07 
    9.9999999999999995E-07 
    9.9999999999999995E-07 
    9.9999999999999995E-07 
    9.9999999999999995E-07 
    9.9999999999999995E-07 
    9.9999999999999995E-07 
    9.9999999999999995E-07 
    9.9999999999999995E-07 
    9.9999999999999995E-07 
    9.9999999999999995E-07 
    9.9999999999999995E-07 
    9.9999999999999995E-07 
    9.9999999999999995E-07 
    9.9999999999999995E-07 
    9.9999999999999995E-07 
    9.9999999999999995E-07 
    9.9999999999999995E-07 
    9.9999999999999995E-07 
    9.9999999999999995E-07 
    9.9999999999999995E-07 
    9.9999999999999995E-07 
    9.9999999999999995E-07 
    9.9999999999999995E-07 
    9.9999999999999995E-07 
    9.9999999999999995E-07 
    9.9999999999999995E-07 
    9.9999999999999995E-07 
    9.9999999999999995E-07 
    9.9999999999999995E-07 
    9.9999999999999995E-07 
    9.9999999999999995E-07 
    9.9999999999999995E-07 
    9.9999999999999995E-07 
    9.9999999999999995E-07 
    9.9999999999999995E-07 
    9.9999999999999995E-07 
    1.0000000595827587E-06 
