# vtk DataFile Version 2.0
Pressure Field Data 
ASCII 
DATASET UNSTRUCTURED_GRID 

POINTS 289 double 

    0.0000000000000000E+00     0.0000000000000000E+00     0.0000000000000000E+00 
    1.0000000000000000E+00     0.0000000000000000E+00     0.0000000000000000E+00 
    1.0000000000000000E+00     1.0000000000000000E+00     0.0000000000000000E+00 
    0.0000000000000000E+00     1.0000000000000000E+00     0.0000000000000000E+00 
    6.2499999999872928E-02     0.0000000000000000E+00     0.0000000000000000E+00 
    1.2499999999977310E-01     0.0000000000000000E+00     0.0000000000000000E+00 
    1.8749999999959341E-01     0.0000000000000000E+00     0.0000000000000000E+00 
    2.4999999999941089E-01     0.0000000000000000E+00     0.0000000000000000E+00 
    3.1249999999922851E-01     0.0000000000000000E+00     0.0000000000000000E+00 
    3.7499999999904610E-01     0.0000000000000000E+00     0.0000000000000000E+00 
    4.3749999999886358E-01     0.0000000000000000E+00     0.0000000000000000E+00 
    4.9999999999869210E-01     0.0000000000000000E+00     0.0000000000000000E+00 
    5.6249999999884603E-01     0.0000000000000000E+00     0.0000000000000000E+00 
    6.2499999999901090E-01     0.0000000000000000E+00     0.0000000000000000E+00 
    6.8749999999917577E-01     0.0000000000000000E+00     0.0000000000000000E+00 
    7.4999999999934064E-01     0.0000000000000000E+00     0.0000000000000000E+00 
    8.1249999999950551E-01     0.0000000000000000E+00     0.0000000000000000E+00 
    8.7499999999967026E-01     0.0000000000000000E+00     0.0000000000000000E+00 
    9.3749999999983513E-01     0.0000000000000000E+00     0.0000000000000000E+00 
    1.0000000000000000E+00     6.2499999999872928E-02     0.0000000000000000E+00 
    1.0000000000000000E+00     1.2499999999977310E-01     0.0000000000000000E+00 
    1.0000000000000000E+00     1.8749999999959341E-01     0.0000000000000000E+00 
    1.0000000000000000E+00     2.4999999999941089E-01     0.0000000000000000E+00 
    1.0000000000000000E+00     3.1249999999922851E-01     0.0000000000000000E+00 
    1.0000000000000000E+00     3.7499999999904610E-01     0.0000000000000000E+00 
    1.0000000000000000E+00     4.3749999999886358E-01     0.0000000000000000E+00 
    1.0000000000000000E+00     4.9999999999869210E-01     0.0000000000000000E+00 
    1.0000000000000000E+00     5.6249999999884603E-01     0.0000000000000000E+00 
    1.0000000000000000E+00     6.2499999999901090E-01     0.0000000000000000E+00 
    1.0000000000000000E+00     6.8749999999917577E-01     0.0000000000000000E+00 
    1.0000000000000000E+00     7.4999999999934064E-01     0.0000000000000000E+00 
    1.0000000000000000E+00     8.1249999999950551E-01     0.0000000000000000E+00 
    1.0000000000000000E+00     8.7499999999967026E-01     0.0000000000000000E+00 
    1.0000000000000000E+00     9.3749999999983513E-01     0.0000000000000000E+00 
    9.3749999999973976E-01     1.0000000000000000E+00     0.0000000000000000E+00 
    8.7499999999950118E-01     1.0000000000000000E+00     0.0000000000000000E+00 
    8.1249999999991318E-01     1.0000000000000000E+00     0.0000000000000000E+00 
    7.5000000000034706E-01     1.0000000000000000E+00     0.0000000000000000E+00 
    6.8750000000078049E-01     1.0000000000000000E+00     0.0000000000000000E+00 
    6.2500000000121403E-01     1.0000000000000000E+00     0.0000000000000000E+00 
    5.6250000000164757E-01     1.0000000000000000E+00     0.0000000000000000E+00 
    5.0000000000205946E-01     1.0000000000000000E+00     0.0000000000000000E+00 
    4.3750000000182099E-01     1.0000000000000000E+00     0.0000000000000000E+00 
    3.7500000000156092E-01     1.0000000000000000E+00     0.0000000000000000E+00 
    3.1250000000130068E-01     1.0000000000000000E+00     0.0000000000000000E+00 
    2.5000000000104050E-01     1.0000000000000000E+00     0.0000000000000000E+00 
    1.8750000000078040E-01     1.0000000000000000E+00     0.0000000000000000E+00 
    1.2500000000052031E-01     1.0000000000000000E+00     0.0000000000000000E+00 
    6.2500000000260125E-02     1.0000000000000000E+00     0.0000000000000000E+00 
    0.0000000000000000E+00     9.3749999999973976E-01     0.0000000000000000E+00 
    0.0000000000000000E+00     8.7499999999950118E-01     0.0000000000000000E+00 
    0.0000000000000000E+00     8.1249999999991318E-01     0.0000000000000000E+00 
    0.0000000000000000E+00     7.5000000000034706E-01     0.0000000000000000E+00 
    0.0000000000000000E+00     6.8750000000078049E-01     0.0000000000000000E+00 
    0.0000000000000000E+00     6.2500000000121403E-01     0.0000000000000000E+00 
    0.0000000000000000E+00     5.6250000000164757E-01     0.0000000000000000E+00 
    0.0000000000000000E+00     5.0000000000205946E-01     0.0000000000000000E+00 
    0.0000000000000000E+00     4.3750000000182099E-01     0.0000000000000000E+00 
    0.0000000000000000E+00     3.7500000000156092E-01     0.0000000000000000E+00 
    0.0000000000000000E+00     3.1250000000130068E-01     0.0000000000000000E+00 
    0.0000000000000000E+00     2.5000000000104050E-01     0.0000000000000000E+00 
    0.0000000000000000E+00     1.8750000000078040E-01     0.0000000000000000E+00 
    0.0000000000000000E+00     1.2500000000052031E-01     0.0000000000000000E+00 
    0.0000000000000000E+00     6.2500000000260125E-02     0.0000000000000000E+00 
    6.2499999999897131E-02     6.2500000000235922E-02     0.0000000000000000E+00 
    6.2499999999921327E-02     1.2500000000047351E-01     0.0000000000000000E+00 
    6.2499999999945530E-02     1.8750000000070621E-01     0.0000000000000000E+00 
    6.2499999999969733E-02     2.5000000000093858E-01     0.0000000000000000E+00 
    6.2499999999993928E-02     3.1250000000117117E-01     0.0000000000000000E+00 
    6.2500000000018124E-02     3.7500000000140382E-01     0.0000000000000000E+00 
    6.2500000000042327E-02     4.3750000000163619E-01     0.0000000000000000E+00 
    6.2500000000066530E-02     5.0000000000184897E-01     0.0000000000000000E+00 
    6.2500000000090733E-02     5.6250000000147260E-01     0.0000000000000000E+00 
    6.2500000000114922E-02     6.2500000000107636E-01     0.0000000000000000E+00 
    6.2500000000139125E-02     6.8750000000068034E-01     0.0000000000000000E+00 
    6.2500000000163328E-02     7.5000000000028411E-01     0.0000000000000000E+00 
    6.2500000000187531E-02     8.1249999999988787E-01     0.0000000000000000E+00 
    6.2500000000211720E-02     8.7499999999951172E-01     0.0000000000000000E+00 
    6.2500000000235922E-02     9.3749999999974565E-01     0.0000000000000000E+00 
    1.2499999999981980E-01     6.2500000000211733E-02     0.0000000000000000E+00 
    1.2499999999986650E-01     1.2500000000042691E-01     0.0000000000000000E+00 
    1.2499999999991319E-01     1.8750000000063199E-01     0.0000000000000000E+00 
    1.2499999999995989E-01     2.5000000000083678E-01     0.0000000000000000E+00 
    1.2500000000000661E-01     3.1250000000104172E-01     0.0000000000000000E+00 
    1.2500000000005329E-01     3.7500000000124661E-01     0.0000000000000000E+00 
    1.2500000000010000E-01     4.3750000000145117E-01     0.0000000000000000E+00 
    1.2500000000014669E-01     5.0000000000163858E-01     0.0000000000000000E+00 
    1.2500000000019340E-01     5.6250000000129741E-01     0.0000000000000000E+00 
    1.2500000000024011E-01     6.2500000000093847E-01     0.0000000000000000E+00 
    1.2500000000028680E-01     6.8750000000057998E-01     0.0000000000000000E+00 
    1.2500000000033351E-01     7.5000000000022127E-01     0.0000000000000000E+00 
    1.2500000000038020E-01     8.1249999999986211E-01     0.0000000000000000E+00 
    1.2500000000042691E-01     8.7499999999952238E-01     0.0000000000000000E+00 
    1.2500000000047359E-01     9.3749999999975164E-01     0.0000000000000000E+00 
    1.8749999999966760E-01     6.2500000000187531E-02     0.0000000000000000E+00 
    1.8749999999974179E-01     1.2500000000038020E-01     0.0000000000000000E+00 
    1.8749999999981601E-01     1.8750000000055780E-01     0.0000000000000000E+00 
    1.8749999999989009E-01     2.5000000000073502E-01     0.0000000000000000E+00 
    1.8749999999996431E-01     3.1250000000091221E-01     0.0000000000000000E+00 
    1.8750000000003850E-01     3.7500000000108941E-01     0.0000000000000000E+00 
    1.8750000000011269E-01     4.3750000000126649E-01     0.0000000000000000E+00 
    1.8750000000018691E-01     5.0000000000142808E-01     0.0000000000000000E+00 
    1.8750000000026110E-01     5.6250000000112244E-01     0.0000000000000000E+00 
    1.8750000000033529E-01     6.2500000000080080E-01     0.0000000000000000E+00 
    1.8750000000040951E-01     6.8750000000047962E-01     0.0000000000000000E+00 
    1.8750000000048361E-01     7.5000000000015843E-01     0.0000000000000000E+00 
    1.8750000000055780E-01     8.1249999999983680E-01     0.0000000000000000E+00 
    1.8750000000063199E-01     8.7499999999953304E-01     0.0000000000000000E+00 
    1.8750000000070621E-01     9.3749999999975764E-01     0.0000000000000000E+00 
    2.4999999999951281E-01     6.2500000000163314E-02     0.0000000000000000E+00 
    2.4999999999961461E-01     1.2500000000033351E-01     0.0000000000000000E+00 
    2.4999999999971650E-01     1.8750000000048361E-01     0.0000000000000000E+00 
    2.4999999999981831E-01     2.5000000000063310E-01     0.0000000000000000E+00 
    2.4999999999992020E-01     3.1250000000078260E-01     0.0000000000000000E+00 
    2.5000000000002198E-01     3.7500000000093209E-01     0.0000000000000000E+00 
    2.5000000000012390E-01     4.3750000000108180E-01     0.0000000000000000E+00 
    2.5000000000022571E-01     5.0000000000121769E-01     0.0000000000000000E+00 
    2.5000000000032763E-01     5.6250000000094724E-01     0.0000000000000000E+00 
    2.5000000000042938E-01     6.2500000000066314E-01     0.0000000000000000E+00 
    2.5000000000053119E-01     6.8750000000037925E-01     0.0000000000000000E+00 
[...]
CELL_DATA 256 
SCALARS Pressure double 1 
LOOKUP_TABLE default 

    3.3565777372224365E-01 
    2.8679795861270851E-01 
    2.5714291559034924E-01 
    2.3634106924414658E-01 
    2.2025311973771361E-01 
    2.0701618617591627E-01 
    1.9570831104552400E-01 
    1.8583613348365827E-01 
    1.7712178768714429E-01 
    1.6940374646566075E-01 
    1.6257538287603499E-01 
    1.5647390495519570E-01 
    1.5068735947621123E-01 
    1.4761816951928311E-01 
    1.4614554482973630E-01 
    1.4546947173426514E-01 
    2.8679800770216318E-01 
    2.6908347430413210E-01 
    2.4965215804969235E-01 
    2.3268223658100193E-01 
    2.1823568435498203E-01 
    2.0578512449317002E-01 
    1.9488243076850759E-01 
    1.8522387830143841E-01 
    1.7661670265584747E-01 
    1.6894223426075725E-01 
    1.6211880330495168E-01 
    1.5600104652726376E-01 
    1.5014057228137034E-01 
    1.4696827280020841E-01 
    1.4546582167093894E-01 
    1.4479321660269318E-01 
    2.5714301128115225E-01 
    2.4965221499017728E-01 
    2.3788433744383397E-01 
    2.2535150258622028E-01 
    2.1338899307458506E-01 
    2.0235783194168352E-01 
    1.9228892535909595E-01 
    1.8312852729468318E-01 
    1.7481734574165086E-01 
    1.6731159808067461E-01 
    1.6057551017297114E-01 
    1.5449524766862616E-01 
    1.4862374843601203E-01 
    1.4544030184280624E-01 
    1.4396040814907946E-01 
    1.4333117005939303E-01 
    2.3634119983906340E-01 
    2.3268233017269260E-01 
    2.2535154781008543E-01 
    2.1628644557067753E-01 
    2.0671260885765841E-01 
    1.9725771289842431E-01 
    1.8821466774186923E-01 
    1.7971672185322737E-01 
    1.7182593062934418E-01 
    1.6457659208173325E-01 
    1.5798673521802184E-01 
    1.5198200162400913E-01 
    1.4615527699832839E-01 
    1.4302506408616961E-01 
    1.4160530982582836E-01 
    1.4104272518320840E-01 
    2.2025328215923162E-01 
    2.1823580046108160E-01 
    2.1338906343863975E-01 
    2.0671264509168102E-01 
    1.9906679746759717E-01 
    1.9104470644794508E-01 
    1.8302055526767660E-01 
    1.7522439285043262E-01 
    1.6779852284980273E-01 
    1.6083901086758068E-01 
    1.5441340612253318E-01 
    1.4848894105524665E-01 
    1.4275326552260389E-01 
    1.3972571868960348E-01 
    1.3839159201508341E-01 
    1.3790902675541966E-01 
    2.0701635910190169E-01 
    2.0578525727248059E-01 
    2.0235792340137151E-01 
    1.9725777588609106E-01 
    1.9104473580770448E-01 
    1.8419270803960300E-01 
    1.7706143732640350E-01 
    1.6990913822252907E-01 
    1.6291810360055692E-01 
    1.5622467045917746E-01 
    1.4993364604256756E-01 
    1.4403940693117398E-01 
    1.3843406775361980E-01 
    1.3555118332417371E-01 
    1.3431952167616659E-01 
    1.3392421827982923E-01 
    1.9570844406108773E-01 
    1.9488254843683675E-01 
    1.9228902808595325E-01 
    1.8821475408577526E-01 
    1.8302061021658592E-01 
    1.7706146001726952E-01 
    1.7064428881150695E-01 
    1.6401682551496322E-01 
    1.5737469264730775E-01 
    1.5087550314416270E-01 
    1.4464191134702822E-01 
    1.3866614389740026E-01 
    1.3323008084951724E-01 
    1.3052608381888114E-01 
    1.2939971829317032E-01 
    1.2909026881096425E-01 
    1.8583618704363311E-01 
    1.8522394433729727E-01 
    1.8312862883871600E-01 
    1.7971685127896889E-01 
    1.7522451308339027E-01 
    1.6990922538385114E-01 
    1.6401686409649707E-01 
    1.5776818149970170E-01 
    1.5135706544271757E-01 
    1.4494804495939628E-01 
    1.3865991458854213E-01 
    1.3242944629634001E-01 
    1.2720286388028618E-01 
    1.2469365215538167E-01 
    1.2364965945937094E-01 
    1.2340914214759995E-01 
    1.7712177589264305E-01 
    1.7661672505203863E-01 
    1.7481745421447281E-01 
    1.7182612805113773E-01 
    1.6779875744972159E-01 
    1.6291832398821976E-01 
    1.5737481832183881E-01 
    1.5135705435995450E-01 
    1.4504785265120274E-01 
    1.3860834406348707E-01 
    1.3214459510696408E-01 
    1.2547276413980202E-01 
    1.2049258486739654E-01 
    1.1813415244853168E-01 
    1.1708856440600882E-01 
    1.1686763899115392E-01 
    1.6940370135922686E-01 
    1.6894224972116509E-01 
    1.6731173973090593E-01 
    1.6457686855907544E-01 
    1.6083937974267642E-01 
    1.5622508647242009E-01 
    1.5087581953520740E-01 
    1.4494799948686313E-01 
    1.3860804706627614E-01 
    1.3200196498167413E-01 
    1.2519553969750782E-01 
    1.1812416490802694E-01 
    1.1341315957079297E-01 
    1.1099807071662769E-01 
    1.0971846214431162E-01 
    1.0940403966291638E-01 
    1.6257538103659558E-01 
    1.6211888036752628E-01 
    1.6057572287793714E-01 
    1.5798709872674857E-01 
    1.5441395097919006E-01 
    1.4993438696500258E-01 
    1.4464270143933564E-01 
    1.3865989809164880E-01 
    1.3214360510337514E-01 
    1.2519455581961769E-01 
    1.1773093901551794E-01 
    1.1068476097340507E-01 
    1.0617262891362758E-01 
    1.0333637043527005E-01 
    1.0144488711877354E-01 
    1.0083832322212911E-01 
    1.5647443720456627E-01 
    1.5600139804312196E-01 
    1.5449563215842238E-01 
    1.5198256541764013E-01 
    1.4848959687398014E-01 
    1.4404067442578275E-01 
    1.3866871929516503E-01 
    1.3242968921338905E-01 
    1.2546841942037626E-01 
    1.1812071826927799E-01 
    1.1068436393070084E-01 
    1.0412285955046996E-01 
    9.9118280666339237E-02 
    9.5094265649166690E-02 
    9.2022777411839590E-02 
    9.0773764051406927E-02 
    1.5068760123215472E-01 
    1.5014066309907673E-01 
    1.4862397736798724E-01 
    1.4615571250941595E-01 
    1.4275347583527220E-01 
    1.3843438734351937E-01 
    1.3323068231207763E-01 
    1.2720029250783232E-01 
    1.2048693590797827E-01 
    1.1341110838513586E-01 
    1.0617371826773390E-01 
    9.9118849823413527E-02 
    9.2500338340163829E-02 
    8.6248190068480404E-02 
    8.1044262199846950E-02 
    7.8428758012809976E-02 
    1.4761797250512454E-01 
    1.4696813335160869E-01 
    1.4544034223387511E-01 
    1.4302508808756192E-01 
    1.3972534312009691E-01 
    1.3555062351802871E-01 
    1.3052529292948439E-01 
    1.2469101484455006E-01 
    1.1813024962159718E-01 
    1.1099677091146408E-01 
    1.0333731302544652E-01 
    9.5094763987328634E-02 
    8.6248335160139300E-02 
    7.6912029754324554E-02 
    6.7994517237924476E-02 
    6.2247654271293945E-02 
    1.4614531282069118E-01 
    1.4546563805723192E-01 
    1.4396030103504975E-01 
    1.4160511132941622E-01 
    1.3839105880338737E-01 
    1.3431870887524411E-01 
    1.2939860962171001E-01 
    1.2364784237727103E-01 
    1.1708639699045628E-01 
    1.0971720069910455E-01 
    1.0144467487390804E-01 
    9.2022831263917845E-02 
    8.1044311038330083E-02 
    6.7994528738421461E-02 
    5.2839204254981384E-02 
    3.8873469188332510E-02 
    1.4546925210658304E-01 
    1.4479301135473113E-01 
    1.4333096360775519E-01 
    1.4104241659348055E-01 
    1.3790848372519851E-01 
    1.3392340002964051E-01 
    1.2908914102855068E-01 
    1.2340763520705147E-01 
    1.1686601136079934E-01 
    1.0940286167597292E-01 
    1.0083777692083927E-01 
    9.0773579742640345E-02 
    7.8428709436303701E-02 
    6.2247641385306703E-02 
    3.8873465024654150E-02 
    0.0000000000000000E+00 

SCALARS Saturarion double 1 
LOOKUP_TABLE default 

    1.0000000000000000E+00 
    9.9633129065822046E-01 
    9.8957907692537983E-01 
    9.7743153408536598E-01 
    9.6061895394700958E-01 
    9.4126962299473704E-01 
    9.2059653062363012E-01 
    8.9936901742037345E-01 
    8.7779357357965238E-01 
    8.5577887006141795E-01 
    8.3127551066793703E-01 
    7.8692490547683724E-01 
    5.4551011265705929E-01 
    7.0423373744674563E-03 
    1.0000000050125743E-06 
    1.0000000000000002E-06 
    9.9633084256716264E-01 
    9.9270855188051033E-01 
    9.8549901139145302E-01 
    9.7397876395160188E-01 
    9.5802641483451689E-01 
    9.3936275973416739E-01 
    9.1924828822570082E-01 
    8.9842745943957936E-01 
    8.7715048138159657E-01 
    8.5542952240757042E-01 
    8.3139045908775500E-01 
    7.8860671316212827E-01 
    5.7720546082927415E-01 
    1.4472969438335316E-02 
    1.0218556671558237E-06 
    1.0000000001601542E-06 
    9.8957791087866120E-01 
    9.8549806048950872E-01 
    9.7676529607416340E-01 
    9.6540328029455669E-01 
    9.5073556837818851E-01 
    9.3337990105387347E-01 
    9.1436797000151804E-01 
    8.9450355916462743E-01 
    8.7413925862084019E-01 
    8.5331653966646426E-01 
    8.3032541965005768E-01 
    7.9002173238443618E-01 
    5.9349835672032070E-01 
    1.8617224927901212E-02 
    1.0005260671930632E-06 
    1.0000000000052067E-06 
    9.7742948252034378E-01 
    9.7397635612283751E-01 
    9.6540094988167857E-01 
    9.5386355852835336E-01 
    9.4008580596758418E-01 
    9.2408351021958823E-01 
    9.0656938330830683E-01 
    8.8823598775857238E-01 
    8.6927624853971874E-01 
    8.4959698529960170E-01 
    8.2758134440328535E-01 
    7.8715554545841138E-01 
    5.7598964217436022E-01 
    1.4463558875166784E-02 
    1.0460061706144544E-06 
    1.0000000003313315E-06 
    9.6061543723361997E-01 
    9.5802411387163566E-01 
    9.5073340756935121E-01 
    9.4008347221225119E-01 
    9.2716109173217354E-01 
    9.1266580262122488E-01 
    8.9712476912832051E-01 
    8.8068663702812533E-01 
    8.6312537418796320E-01 
    8.4443567441475176E-01 
    8.2316318993102855E-01 
    7.8336092708123550E-01 
    5.5656439473151242E-01 
    9.7189551655527603E-03 
    1.0405847217963120E-06 
    1.0000000007788317E-06 
    9.4126145048984300E-01 
    9.3935948974985528E-01 
    9.3337979580395936E-01 
    9.2408096499729486E-01 
    9.1266214251867672E-01 
    9.0014425170087387E-01 
    8.8687841855103899E-01 
    8.7235251627437016E-01 
    8.5605768159749318E-01 
    8.3824233046605368E-01 
    8.1759147109753416E-01 
    7.7733781961575144E-01 
    5.2291729219656702E-01 
    5.1587388381020933E-03 
    1.0332009515008843E-06 
    1.0000000005805879E-06 
    9.2058415920374670E-01 
    9.1924091948959863E-01 
    9.1436631124247436E-01 
    9.0656846314120410E-01 
    8.9712145553970779E-01 
    8.8687719433720780E-01 
    8.7577295980194592E-01 
    8.6311957151966090E-01 
    8.4840280160377890E-01 
    8.3165117947393441E-01 
    8.1123196214591009E-01 
    7.6607649483202378E-01 
    4.4524148925785695E-01 
    1.1716347155384949E-03 
    1.0038108521189548E-06 
    1.0000000000491207E-06 
    8.9935424378635975E-01 
    8.9841839053940042E-01 
    8.9449907325666078E-01 
    8.8823502580124447E-01 
    8.8068772223297831E-01 
    8.7235541810712058E-01 
    8.6312373146085208E-01 
    8.5271648292881153E-01 
    8.4046198108114023E-01 
    8.2522880415986277E-01 
    8.0441383196250982E-01 
    7.5362911363159646E-01 
    3.6667437790712559E-01 
    1.9918329250520733E-04 
    1.0002666302181998E-06 
    1.0000000000038338E-06 
    8.7778179483545637E-01 
    8.7714669837081038E-01 
    8.7413651850486684E-01 
    8.6927041757538948E-01 
    8.6312431780143928E-01 
    8.5606057015189030E-01 
    8.4840767239530479E-01 
    8.4047307247035186E-01 
    8.3139248233470397E-01 
    8.1870790902275048E-01 
    7.9682887216907972E-01 
    7.3442307008201835E-01 
    2.6733351560444824E-01 
    5.9153357379908017E-05 
    1.0001722918656214E-06 
    1.0000000000001658E-06 
    8.5576954767248270E-01 
    8.5543224232671800E-01 
    8.5332132344958811E-01 
    8.4958833947743118E-01 
    8.4442642858469319E-01 
    8.3823943075333485E-01 
    8.3164847212950288E-01 
    8.2524412982276352E-01 
    8.1873369523792916E-01 
    8.0841573463619165E-01 
    7.8556603459478025E-01 
    6.8460190002658072E-01 
    1.1323916833415899E-01 
    4.9261877609502351E-05 
    1.0000469631402731E-06 
    9.9999999999999995E-07 
    8.3128377689292743E-01 
    8.3140699700700282E-01 
    8.3033727079399600E-01 
    8.2757580916688822E-01 
    8.2315349605815513E-01 
    8.1759088563045845E-01 
    8.1122482780654126E-01 
    8.0440669941126075E-01 
    7.9685561525528281E-01 
    7.8560458659681975E-01 
    7.4886216520422344E-01 
    5.0257728595477724E-01 
    1.1946064560609976E-02 
    1.8467392352617090E-06 
    1.0000000307142716E-06 
    9.9999999999999995E-07 
    7.8704579478012637E-01 
    7.8867024264405017E-01 
    7.9001113642336340E-01 
    7.8721842982475632E-01 
    7.8336344937699376E-01 
    7.7728258497440084E-01 
    7.6615544939207370E-01 
    7.5369963572670950E-01 
    7.3426509086798564E-01 
    6.8395811128599693E-01 
    5.0193494869318411E-01 
    1.3727947606163657E-01 
    2.1029291337428194E-04 
    1.0011787172228074E-06 
    1.0000000000000061E-06 
    9.9999999999999995E-07 
    5.4693209198739845E-01 
    5.7707804898286597E-01 
    5.9288071135133524E-01 
    5.7675667371635420E-01 
    5.5746914141511072E-01 
    5.2234923398307176E-01 
    4.4596583216926300E-01 
    3.6892929077856684E-01 
    2.6769447611585745E-01 
    1.1150412713319421E-01 
    1.1754117231030719E-02 
    2.1083210187819923E-04 
    1.0034683287037360E-06 
    1.0000000002148846E-06 
    9.9999999999999995E-07 
    9.9999999999999995E-07 
    7.2512224048905194E-03 
    1.4380635169364844E-02 
    1.8432491323524935E-02 
    1.4627291507516451E-02 
    9.9594200964398510E-03 
    5.1057122391314144E-03 
    1.1545073959338169E-03 
    2.1016583815420818E-04 
    6.0051767171792955E-05 
    4.7980277216525747E-05 
    1.8182865775681380E-06 
    1.0011846425272602E-06 
    1.0000000002162500E-06 
    9.9999999999999974E-07 
    9.9999999999999995E-07 
    9.9999999999999995E-07 
    1.0000000040195624E-06 
    1.0196228254796481E-06 
    1.0006747534326824E-06 
    1.0407812754767934E-06 
    1.0454910009317783E-06 
    1.0336432344221653E-06 
    1.0035934057826867E-06 
    1.0002840618477445E-06 
    1.0001761265066297E-06 
    1.0000439643944285E-06 
    1.0000000295311252E-06 
    1.0000000000000059E-06 
    9.9999999999999995E-07 
    9.9999999999999995E-07 
    9.9999999999999995E-07 
    9.9999999999999995E-07 
    1.0000000000000004E-06 
    1.0000000001431591E-06 
    1.0000000000073456E-06 
    1.0000000002946234E-06 
    1.0000000006258728E-06 
    1.0000000005870120E-06 
    1.0000000000463532E-06 
    1.0000000000040553E-06 
    1.0000000000001334E-06 
    9.9999999999999995E-07 
    9.9999999999999995E-07 
    9.9999999999999995E-07 
    9.9999999999999995E-07 
    9.9999999999999995E-07 
    9.9999999999999995E-07 
    1.0000001038980512E-06 
