# vtk DataFile Version 2.0
Pressure Field Data 
ASCII 
DATASET UNSTRUCTURED_GRID 

POINTS 289 double 

    0.0000000000000000E+00     0.0000000000000000E+00     0.0000000000000000E+00 
    1.0000000000000000E+00     0.0000000000000000E+00     0.0000000000000000E+00 
    1.0000000000000000E+00     1.0000000000000000E+00     0.0000000000000000E+00 
    0.0000000000000000E+00     1.0000000000000000E+00     0.0000000000000000E+00 
    6.2499999999872928E-02     0.0000000000000000E+00     0.0000000000000000E+00 
    1.2499999999977310E-01     0.0000000000000000E+00     0.0000000000000000E+00 
    1.8749999999959341E-01     0.0000000000000000E+00     0.0000000000000000E+00 
    2.4999999999941089E-01     0.0000000000000000E+00     0.0000000000000000E+00 
    3.1249999999922851E-01     0.0000000000000000E+00     0.0000000000000000E+00 
    3.7499999999904610E-01     0.0000000000000000E+00     0.0000000000000000E+00 
    4.3749999999886358E-01     0.0000000000000000E+00     0.0000000000000000E+00 
    4.9999999999869210E-01     0.0000000000000000E+00     0.0000000000000000E+00 
    5.6249999999884603E-01     0.0000000000000000E+00     0.0000000000000000E+00 
    6.2499999999901090E-01     0.0000000000000000E+00     0.0000000000000000E+00 
    6.8749999999917577E-01     0.0000000000000000E+00     0.0000000000000000E+00 
    7.4999999999934064E-01     0.0000000000000000E+00     0.0000000000000000E+00 
    8.1249999999950551E-01     0.0000000000000000E+00     0.0000000000000000E+00 
    8.7499999999967026E-01     0.0000000000000000E+00     0.0000000000000000E+00 
    9.3749999999983513E-01     0.0000000000000000E+00     0.0000000000000000E+00 
    1.0000000000000000E+00     6.2499999999872928E-02     0.0000000000000000E+00 
    1.0000000000000000E+00     1.2499999999977310E-01     0.0000000000000000E+00 
    1.0000000000000000E+00     1.8749999999959341E-01     0.0000000000000000E+00 
    1.0000000000000000E+00     2.4999999999941089E-01     0.0000000000000000E+00 
    1.0000000000000000E+00     3.1249999999922851E-01     0.0000000000000000E+00 
    1.0000000000000000E+00     3.7499999999904610E-01     0.0000000000000000E+00 
    1.0000000000000000E+00     4.3749999999886358E-01     0.0000000000000000E+00 
    1.0000000000000000E+00     4.9999999999869210E-01     0.0000000000000000E+00 
    1.0000000000000000E+00     5.6249999999884603E-01     0.0000000000000000E+00 
    1.0000000000000000E+00     6.2499999999901090E-01     0.0000000000000000E+00 
    1.0000000000000000E+00     6.8749999999917577E-01     0.0000000000000000E+00 
    1.0000000000000000E+00     7.4999999999934064E-01     0.0000000000000000E+00 
    1.0000000000000000E+00     8.1249999999950551E-01     0.0000000000000000E+00 
    1.0000000000000000E+00     8.7499999999967026E-01     0.0000000000000000E+00 
    1.0000000000000000E+00     9.3749999999983513E-01     0.0000000000000000E+00 
    9.3749999999973976E-01     1.0000000000000000E+00     0.0000000000000000E+00 
    8.7499999999950118E-01     1.0000000000000000E+00     0.0000000000000000E+00 
    8.1249999999991318E-01     1.0000000000000000E+00     0.0000000000000000E+00 
    7.5000000000034706E-01     1.0000000000000000E+00     0.0000000000000000E+00 
    6.8750000000078049E-01     1.0000000000000000E+00     0.0000000000000000E+00 
    6.2500000000121403E-01     1.0000000000000000E+00     0.0000000000000000E+00 
    5.6250000000164757E-01     1.0000000000000000E+00     0.0000000000000000E+00 
    5.0000000000205946E-01     1.0000000000000000E+00     0.0000000000000000E+00 
    4.3750000000182099E-01     1.0000000000000000E+00     0.0000000000000000E+00 
    3.7500000000156092E-01     1.0000000000000000E+00     0.0000000000000000E+00 
    3.1250000000130068E-01     1.0000000000000000E+00     0.0000000000000000E+00 
    2.5000000000104050E-01     1.0000000000000000E+00     0.0000000000000000E+00 
    1.8750000000078040E-01     1.0000000000000000E+00     0.0000000000000000E+00 
    1.2500000000052031E-01     1.0000000000000000E+00     0.0000000000000000E+00 
    6.2500000000260125E-02     1.0000000000000000E+00     0.0000000000000000E+00 
    0.0000000000000000E+00     9.3749999999973976E-01     0.0000000000000000E+00 
    0.0000000000000000E+00     8.7499999999950118E-01     0.0000000000000000E+00 
    0.0000000000000000E+00     8.1249999999991318E-01     0.0000000000000000E+00 
    0.0000000000000000E+00     7.5000000000034706E-01     0.0000000000000000E+00 
    0.0000000000000000E+00     6.8750000000078049E-01     0.0000000000000000E+00 
    0.0000000000000000E+00     6.2500000000121403E-01     0.0000000000000000E+00 
    0.0000000000000000E+00     5.6250000000164757E-01     0.0000000000000000E+00 
    0.0000000000000000E+00     5.0000000000205946E-01     0.0000000000000000E+00 
    0.0000000000000000E+00     4.3750000000182099E-01     0.0000000000000000E+00 
    0.0000000000000000E+00     3.7500000000156092E-01     0.0000000000000000E+00 
    0.0000000000000000E+00     3.1250000000130068E-01     0.0000000000000000E+00 
    0.0000000000000000E+00     2.5000000000104050E-01     0.0000000000000000E+00 
    0.0000000000000000E+00     1.8750000000078040E-01     0.0000000000000000E+00 
    0.0000000000000000E+00     1.2500000000052031E-01     0.0000000000000000E+00 
    0.0000000000000000E+00     6.2500000000260125E-02     0.0000000000000000E+00 
    6.2499999999897131E-02     6.2500000000235922E-02     0.0000000000000000E+00 
    6.2499999999921327E-02     1.2500000000047351E-01     0.0000000000000000E+00 
    6.2499999999945530E-02     1.8750000000070621E-01     0.0000000000000000E+00 
    6.2499999999969733E-02     2.5000000000093858E-01     0.0000000000000000E+00 
    6.2499999999993928E-02     3.1250000000117117E-01     0.0000000000000000E+00 
    6.2500000000018124E-02     3.7500000000140382E-01     0.0000000000000000E+00 
    6.2500000000042327E-02     4.3750000000163619E-01     0.0000000000000000E+00 
    6.2500000000066530E-02     5.0000000000184897E-01     0.0000000000000000E+00 
    6.2500000000090733E-02     5.6250000000147260E-01     0.0000000000000000E+00 
    6.2500000000114922E-02     6.2500000000107636E-01     0.0000000000000000E+00 
    6.2500000000139125E-02     6.8750000000068034E-01     0.0000000000000000E+00 
    6.2500000000163328E-02     7.5000000000028411E-01     0.0000000000000000E+00 
    6.2500000000187531E-02     8.1249999999988787E-01     0.0000000000000000E+00 
    6.2500000000211720E-02     8.7499999999951172E-01     0.0000000000000000E+00 
    6.2500000000235922E-02     9.3749999999974565E-01     0.0000000000000000E+00 
    1.2499999999981980E-01     6.2500000000211733E-02     0.0000000000000000E+00 
    1.2499999999986650E-01     1.2500000000042691E-01     0.0000000000000000E+00 
    1.2499999999991319E-01     1.8750000000063199E-01     0.0000000000000000E+00 
    1.2499999999995989E-01     2.5000000000083678E-01     0.0000000000000000E+00 
    1.2500000000000661E-01     3.1250000000104172E-01     0.0000000000000000E+00 
    1.2500000000005329E-01     3.7500000000124661E-01     0.0000000000000000E+00 
    1.2500000000010000E-01     4.3750000000145117E-01     0.0000000000000000E+00 
    1.2500000000014669E-01     5.0000000000163858E-01     0.0000000000000000E+00 
    1.2500000000019340E-01     5.6250000000129741E-01     0.0000000000000000E+00 
    1.2500000000024011E-01     6.2500000000093847E-01     0.0000000000000000E+00 
    1.2500000000028680E-01     6.8750000000057998E-01     0.0000000000000000E+00 
    1.2500000000033351E-01     7.5000000000022127E-01     0.0000000000000000E+00 
    1.2500000000038020E-01     8.1249999999986211E-01     0.0000000000000000E+00 
    1.2500000000042691E-01     8.7499999999952238E-01     0.0000000000000000E+00 
    1.2500000000047359E-01     9.3749999999975164E-01     0.0000000000000000E+00 
    1.8749999999966760E-01     6.2500000000187531E-02     0.0000000000000000E+00 
    1.8749999999974179E-01     1.2500000000038020E-01     0.0000000000000000E+00 
    1.8749999999981601E-01     1.8750000000055780E-01     0.0000000000000000E+00 
    1.8749999999989009E-01     2.5000000000073502E-01     0.0000000000000000E+00 
    1.8749999999996431E-01     3.1250000000091221E-01     0.0000000000000000E+00 
    1.8750000000003850E-01     3.7500000000108941E-01     0.0000000000000000E+00 
    1.8750000000011269E-01     4.3750000000126649E-01     0.0000000000000000E+00 
    1.8750000000018691E-01     5.0000000000142808E-01     0.0000000000000000E+00 
    1.8750000000026110E-01     5.6250000000112244E-01     0.0000000000000000E+00 
    1.8750000000033529E-01     6.2500000000080080E-01     0.0000000000000000E+00 
    1.8750000000040951E-01     6.8750000000047962E-01     0.0000000000000000E+00 
    1.8750000000048361E-01     7.5000000000015843E-01     0.0000000000000000E+00 
    1.8750000000055780E-01     8.1249999999983680E-01     0.0000000000000000E+00 
    1.8750000000063199E-01     8.7499999999953304E-01     0.0000000000000000E+00 
    1.8750000000070621E-01     9.3749999999975764E-01     0.0000000000000000E+00 
    2.4999999999951281E-01     6.2500000000163314E-02     0.0000000000000000E+00 
    2.4999999999961461E-01     1.2500000000033351E-01     0.0000000000000000E+00 
    2.4999999999971650E-01     1.8750000000048361E-01     0.0000000000000000E+00 
    2.4999999999981831E-01     2.5000000000063310E-01     0.0000000000000000E+00 
    2.4999999999992020E-01     3.1250000000078260E-01     0.0000000000000000E+00 
    2.5000000000002198E-01     3.7500000000093209E-01     0.0000000000000000E+00 
    2.5000000000012390E-01     4.3750000000108180E-01     0.0000000000000000E+00 
    2.5000000000022571E-01     5.0000000000121769E-01     0.0000000000000000E+00 
    2.5000000000032763E-01     5.6250000000094724E-01     0.0000000000000000E+00 
    2.5000000000042938E-01     6.2500000000066314E-01     0.0000000000000000E+00 
    2.5000000000053119E-01     6.8750000000037925E-01     0.0000000000000000E+00 
[...]
CELL_DATA 256 
SCALARS Pressure double 1 
LOOKUP_TABLE default 

    6.2455591616231432E-01 
    5.2700099673515199E-01 
    4.6606307265182118E-01 
    4.2138500334640078E-01 
    3.8529601620175213E-01 
    3.5444706843472812E-01 
    3.2665523510314831E-01 
    3.0520373748595947E-01 
    2.9275826774262470E-01 
    2.8422345512614361E-01 
    2.7731757564019383E-01 
    2.7188802202090506E-01 
    2.6781536673207901E-01 
    2.6498946033680199E-01 
    2.6329225766900083E-01 
    2.6257838283553875E-01 
    5.2700768005398302E-01 
    4.9453924997863785E-01 
    4.5418312590226834E-01 
    4.1692425326038773E-01 
    3.8385633041861217E-01 
    3.5431275060688244E-01 
    3.2692866553317318E-01 
    3.0558556498449457E-01 
    2.9291277119559472E-01 
    2.8421046195543531E-01 
    2.7713774209739600E-01 
    2.7154084247776272E-01 
    2.6731196469539847E-01 
    2.6435674579683893E-01 
    2.6257782627999154E-01 
    2.6186445125706198E-01 
    4.6608411803003930E-01 
    4.5419522910700921E-01 
    4.3035112723158603E-01 
    4.0273992753734261E-01 
    3.7505839826909332E-01 
    3.4852488168978774E-01 
    3.2252153365621611E-01 
    3.0306754427894345E-01 
    2.9116222892097426E-01 
    2.8259155477811110E-01 
    2.7552069777131094E-01 
    2.6987001631714508E-01 
    2.6557473231346229E-01 
    2.6257316824279603E-01 
    2.6079726001910108E-01 
    2.6016799434933791E-01 
    4.2141398866750085E-01 
    4.1694373349597902E-01 
    4.0274523107795857E-01 
    3.8300915749867892E-01 
    3.6085321792683678E-01 
    3.3791331827040549E-01 
    3.1454217319496708E-01 
    2.9817057477700337E-01 
    2.8767290260062800E-01 
    2.7941590970933095E-01 
    2.7247279892758036E-01 
    2.6685304258654158E-01 
    2.6255449978434026E-01 
    2.5956173293436491E-01 
    2.5784237271725652E-01 
    2.5734622008396046E-01 
    3.8531145570167330E-01 
    3.8386445989702228E-01 
    3.7505495013563961E-01 
    3.6084567914957494E-01 
    3.4322784917306437E-01 
    3.2323630444301599E-01 
    3.0452978969615363E-01 
    2.9176882900627099E-01 
    2.8269440784683980E-01 
    2.7482567027294630E-01 
    2.6806154756662370E-01 
    2.6250408397376218E-01 
    2.5822327763706249E-01 
    2.5525936034986252E-01 
    2.5362110561075968E-01 
    2.5328590692225417E-01 
    3.5444693806222638E-01 
    3.5431087633079533E-01 
    3.4851421479054234E-01 
    3.3789878176347032E-01 
    3.2321981554743939E-01 
    3.0746164415595512E-01 
    2.9445039358670971E-01 
    2.8470217462249181E-01 
    2.7654644640839537E-01 
    2.6902524034069786E-01 
    2.6240289920723708E-01 
    2.5686975238274612E-01 
    2.5257176277047921E-01 
    2.4961248226677471E-01 
    2.4804806587011846E-01 
    2.4788413523333611E-01 
    3.2665830448721228E-01 
    3.2692900083786214E-01 
    3.2252098222064018E-01 
    3.1454146105673930E-01 
    3.0452488768785724E-01 
    2.9445182607638326E-01 
    2.8550900280525232E-01 
    2.7738762943733553E-01 
    2.6959926404284007E-01 
    2.6225792783018814E-01 
    2.5564660675173556E-01 
    2.5002086067318452E-01 
    2.4560238680872726E-01 
    2.4256766959173612E-01 
    2.4103092459135383E-01 
    2.4103037503306507E-01 
    3.0518507587005606E-01 
    3.0556769666833627E-01 
    3.0305347584286169E-01 
    2.9816257682983838E-01 
    2.9176417174857450E-01 
    2.8470502914242601E-01 
    2.7739125931204511E-01 
    2.6978332624617579E-01 
    2.6214073016272382E-01 
    2.5476421262157001E-01 
    2.4796106548650734E-01 
    2.4204547906994528E-01 
    2.3732212582877005E-01 
    2.3405950401758566E-01 
    2.3245223920730826E-01 
    2.3258464298900755E-01 
    2.9273448047689560E-01 
    2.9289024250073459E-01 
    2.9114354715823665E-01 
    2.8765886802712970E-01 
    2.8268458225159843E-01 
    2.7654328901015246E-01 
    2.6959848353005694E-01 
    2.6214016106491456E-01 
    2.5443797737247509E-01 
    2.4679184420541031E-01 
    2.3953812813526593E-01 
    2.3305312727004571E-01 
    2.2774128414923345E-01 
    2.2399843302987033E-01 
    2.2214530767541210E-01 
    2.2234691303685555E-01 
    2.8420398043017780E-01 
    2.8419172243974306E-01 
    2.8257504932983202E-01 
    2.7940253469405357E-01 
    2.7481569867399719E-01 
    2.6901915896506517E-01 
    2.6225447285646941E-01 
    2.5476216624608805E-01 
    2.4679083322834253E-01 
    2.3862641556115949E-01 
    2.3061755584491783E-01 
    2.2319685588594629E-01 
    2.1688622643327740E-01 
    2.1226312047100729E-01 
    2.0986149890267272E-01 
    2.1000972533342477E-01 
    2.7730094913184516E-01 
    2.7712158592039221E-01 
    2.7550597348949890E-01 
    2.7246022567377720E-01 
    2.6805150614404094E-01 
    2.6239556572213829E-01 
    2.5564155787723131E-01 
    2.4795769583065699E-01 
    2.3953604909480447E-01 
    2.3061657718817447E-01 
    2.2152467054600375E-01 
    2.1271936520698859E-01 
    2.0483930446797205E-01 
    1.9870807554234060E-01 
    1.9522580767695236E-01 
    1.9507690152908974E-01 
    2.7187332143265447E-01 
    2.7152647153493448E-01 
    2.6985663493385470E-01 
    2.6684119905540243E-01 
    2.6249413234025321E-01 
    2.5686184639717091E-01 
    2.5001487258653299E-01 
    2.4204112046070675E-01 
    2.3305012370479297E-01 
    2.2319500407210408E-01 
    2.1271850945717821E-01 
    2.0203217378294691E-01 
    1.9183173952672511E-01 
    1.8321654903618051E-01 
    1.7768221703668594E-01 
    1.7670853244471188E-01 
    2.6780195270473567E-01 
    2.6729880890830349E-01 
    2.6556231236561806E-01 
    2.6254323697631943E-01 
    2.5821347766343872E-01 
    2.5256358783875460E-01 
    2.4559583346619748E-01 
    2.3731706775871561E-01 
    2.2773754990310019E-01 
    2.1688364859456818E-01 
    2.0483773028716173E-01 
    1.9183102435179075E-01 
    1.7843293063549337E-01 
    1.6587973680469459E-01 
    1.5646370608921725E-01 
    1.5339129107942701E-01 
    2.6497686770007073E-01 
    2.6434437771413577E-01 
    2.6256138852059385E-01 
    2.5955087635465141E-01 
    2.5524969033765793E-01 
    2.4960416364332955E-01 
    2.4256075599161603E-01 
    2.3405395385657479E-01 
    2.2399414595198958E-01 
    2.1225997003320238E-01 
    1.9870592632295198E-01 
    1.8321526158612000E-01 
    1.6587916742902306E-01 
    1.4750018182521757E-01 
    1.3078544115010968E-01 
    1.2215354700827145E-01 
    2.6328013276831319E-01 
    2.6256591023280534E-01 
    2.6078584561150686E-01 
    2.5783174047070218E-01 
    2.5361149008002265E-01 
    2.4803963099513138E-01 
    2.4102375172274082E-01 
    2.3244633182599583E-01 
    2.2214060968671354E-01 
    2.0985791583856697E-01 
    1.9522322253836635E-01 
    1.7768049905486286E-01 
    1.5646271428709232E-01 
    1.3078502524661637E-01 
    1.0120705618785346E-01 
    7.6469314044414968E-02 
    2.6256644956592667E-01 
    2.6185271160344437E-01 
    2.6015670057104645E-01 
    2.5733562595945791E-01 
    2.5327623469884486E-01 
    2.4787555128232105E-01 
    2.4102297654783361E-01 
    2.3257845760528006E-01 
    2.2234190958336250E-01 
    2.1000582927657807E-01 
    1.9507400913907841E-01 
    1.7670652051411292E-01 
    1.5339002224611920E-01 
    1.2215287145131774E-01 
    7.6469068016992783E-02 
    0.0000000000000000E+00 

SCALARS Saturarion double 1 
LOOKUP_TABLE default 

    1.0000000038738184E+00 
    9.8595221118890919E-01 
    9.5430300830418258E-01 
    9.1556307074985588E-01 
    8.7377116601802352E-01 
    8.3016798790927493E-01 
    7.5733348316711713E-01 
    2.6266460180577766E-01 
    1.1334793829772855E-03 
    1.0385002277782017E-06 
    1.0000000002099362E-06 
    9.9999999999999974E-07 
    9.9999999999999995E-07 
    9.9999999999999995E-07 
    9.9999999999999995E-07 
    9.9999999999999995E-07 
    9.8617395893972026E-01 
    9.7481364367987189E-01 
    9.4605915300117860E-01 
    9.0996579806673539E-01 
    8.7045588871587387E-01 
    8.2853851317538019E-01 
    7.6185311928693578E-01 
    2.8581771625679758E-01 
    1.3230512815094216E-04 
    1.0000671731964081E-06 
    1.0000000000067307E-06 
    9.9999999999999995E-07 
    9.9999999999999995E-07 
    9.9999999999999995E-07 
    9.9999999999999995E-07 
    9.9999999999999995E-07 
    9.5431685000504085E-01 
    9.4605063527217192E-01 
    9.2414940068633999E-01 
    8.9399741043479297E-01 
    8.5924910011010902E-01 
    8.1942562044162759E-01 
    7.4563398037789619E-01 
    2.2695714467774419E-01 
    2.8367586280644707E-05 
    1.0000572590832443E-06 
    1.0000000000022789E-06 
    9.9999999999999995E-07 
    9.9999999999999995E-07 
    9.9999999999999995E-07 
    9.9999999999999995E-07 
    9.9999999999999995E-07 
    9.1548711489469969E-01 
    9.0987662110716261E-01 
    8.9392398130348927E-01 
    8.7006965937555281E-01 
    8.4057708175474344E-01 
    7.9973622541751455E-01 
    6.9196129300975240E-01 
    1.0187802569241657E-01 
    5.0389856831915635E-05 
    1.0000339527677084E-06 
    1.0000000000002009E-06 
    9.9999999999999995E-07 
    9.9999999999999995E-07 
    9.9999999999999995E-07 
    9.9999999999999995E-07 
    9.9999999999999995E-07 
    8.7300330863945785E-01 
    8.6967949543454637E-01 
    8.5874875183929200E-01 
    8.4070708690283269E-01 
    8.1498494645874431E-01 
    7.6518870117699367E-01 
    4.7354900079817414E-01 
    6.8648272905889561E-03 
    6.6636739447604922E-06 
    1.0000021355227536E-06 
    1.0000000000000620E-06 
    9.9999999999999995E-07 
    9.9999999999999995E-07 
    9.9999999999999995E-07 
    9.9999999999999995E-07 
    9.9999999999999995E-07 
    8.2945952310680315E-01 
    8.2830418055508193E-01 
    8.1959575561912479E-01 
    8.0007944757508176E-01 
    7.6561765054779363E-01 
    6.3073571107239457E-01 
    8.8123568130813942E-02 
    5.2228575286953044E-04 
    1.0240304742581327E-06 
    1.0000000038896508E-06 
    1.0000000000000002E-06 
    9.9999999999999995E-07 
    9.9999999999999995E-07 
    9.9999999999999995E-07 
    9.9999999999999995E-07 
    9.9999999999999995E-07 
    7.5780789377919011E-01 
    7.5881861781467097E-01 
    7.4565713632708819E-01 
    6.9318193741676826E-01 
    4.7286090436372746E-01 
    8.6594989759786203E-02 
    4.7884611173364496E-04 
    1.0080458152396546E-06 
    1.0000000024586058E-06 
    1.0000000000000008E-06 
    9.9999999999999995E-07 
    9.9999999999999995E-07 
    9.9999999999999995E-07 
    9.9999999999999995E-07 
    9.9999999999999995E-07 
    9.9999999999999995E-07 
    2.6440063893928933E-01 
    2.8865760935175044E-01 
    2.2682820053802649E-01 
    1.0408209302657925E-01 
    7.1342723607274346E-03 
    9.0309518593389504E-04 
    1.0094278473786054E-06 
    1.0000000005905327E-06 
    1.0000000000000004E-06 
    9.9999999999999995E-07 
    9.9999999999999995E-07 
    9.9999999999999995E-07 
    9.9999999999999995E-07 
    9.9999999999999995E-07 
    9.9999999999999995E-07 
    9.9999999999999995E-07 
    9.9835863946830402E-04 
    1.3510767787499684E-04 
    2.9199894767045364E-05 
    3.5076343310016796E-05 
    8.5597202983917605E-06 
    1.0564139376833271E-06 
    1.0000000011691881E-06 
    1.0000000000000002E-06 
    9.9999999999999995E-07 
    9.9999999999999995E-07 
    9.9999999999999995E-07 
    9.9999999999999995E-07 
    9.9999999999999995E-07 
    9.9999999999999995E-07 
    9.9999999999999995E-07 
    9.9999999999999995E-07 
    1.0124930487931475E-06 
    1.0000687505846441E-06 
    1.0000584884245915E-06 
    1.0000318540131640E-06 
    1.0000007684727846E-06 
    1.0000000055789844E-06 
    1.0000000000000002E-06 
    9.9999999999999995E-07 
    9.9999999999999995E-07 
    9.9999999999999995E-07 
    9.9999999999999995E-07 
    9.9999999999999995E-07 
    9.9999999999999995E-07 
    9.9999999999999995E-07 
    9.9999999999999995E-07 
    9.9999999999999995E-07 
    1.0000000000444787E-06 
    1.0000000000050292E-06 
    1.0000000000023428E-06 
    1.0000000000001973E-06 
    1.0000000000001014E-06 
    1.0000000000000002E-06 
    9.9999999999999995E-07 
    9.9999999999999995E-07 
    9.9999999999999995E-07 
    9.9999999999999995E-07 
    9.9999999999999995E-07 
    9.9999999999999995E-07 
    9.9999999999999995E-07 
    9.9999999999999995E-07 
    9.9999999999999995E-07 
    9.9999999999999995E-07 
    9.9999999999999995E-07 
    9.9999999999999995E-07 
    9.9999999999999995E-07 
    9.9999999999999995E-07 
    9.9999999999999995E-07 
    9.9999999999999995E-07 
    9.9999999999999995E-07 
    9.9999999999999995E-07 
    9.9999999999999995E-07 
    9.9999999999999995E-07 
    9.9999999999999995E-07 
    9.9999999999999995E-07 
    9.9999999999999995E-07 
    9.9999999999999995E-07 
    9.9999999999999995E-07 
    9.9999999999999995E-07 
    9.9999999999999995E-07 
    9.9999999999999995E-07 
    9.9999999999999995E-07 
    9.9999999999999995E-07 
    9.9999999999999995E-07 
    9.9999999999999995E-07 
    9.9999999999999995E-07 
    9.9999999999999995E-07 
    9.9999999999999995E-07 
    9.9999999999999995E-07 
    9.9999999999999995E-07 
    9.9999999999999995E-07 
    9.9999999999999995E-07 
    9.9999999999999995E-07 
    9.9999999999999995E-07 
    9.9999999999999995E-07 
    9.9999999999999995E-07 
    9.9999999999999995E-07 
    9.9999999999999995E-07 
    9.9999999999999995E-07 
    9.9999999999999995E-07 
    9.9999999999999995E-07 
    9.9999999999999995E-07 
    9.9999999999999995E-07 
    9.9999999999999995E-07 
    9.9999999999999995E-07 
    9.9999999999999995E-07 
    9.9999999999999995E-07 
    9.9999999999999995E-07 
    9.9999999999999995E-07 
    9.9999999999999995E-07 
    9.9999999999999995E-07 
    9.9999999999999995E-07 
    9.9999999999999995E-07 
    9.9999999999999995E-07 
    9.9999999999999995E-07 
    9.9999999999999995E-07 
    9.9999999999999995E-07 
    9.9999999999999995E-07 
    9.9999999999999995E-07 
    9.9999999999999995E-07 
    9.9999999999999995E-07 
    9.9999999999999995E-07 
    9.9999999999999995E-07 
    9.9999999999999995E-07 
    9.9999999999999995E-07 
    9.9999999999999995E-07 
    9.9999999999999995E-07 
    9.9999999999999995E-07 
    9.9999999999999995E-07 
    9.9999999999999995E-07 
    9.9999999999999995E-07 
    9.9999999999999995E-07 
    9.9999999999999995E-07 
    9.9999999999999995E-07 
    9.9999999999999995E-07 
    9.9999999999999995E-07 
    9.9999999999999995E-07 
    9.9999999999999995E-07 
    9.9999999999999995E-07 
    9.9999999999999995E-07 
    9.9999999999999995E-07 
    9.9999999999999995E-07 
    1.0000000138521752E-06 
