# vtk DataFile Version 2.0
Pressure Field Data 
ASCII 
DATASET UNSTRUCTURED_GRID 

POINTS 289 double 

    0.0000000000000000E+00     0.0000000000000000E+00     0.0000000000000000E+00 
    1.0000000000000000E+00     0.0000000000000000E+00     0.0000000000000000E+00 
    1.0000000000000000E+00     1.0000000000000000E+00     0.0000000000000000E+00 
    0.0000000000000000E+00     1.0000000000000000E+00     0.0000000000000000E+00 
    6.2499999999872928E-02     0.0000000000000000E+00     0.0000000000000000E+00 
    1.2499999999977310E-01     0.0000000000000000E+00     0.0000000000000000E+00 
    1.8749999999959341E-01     0.0000000000000000E+00     0.0000000000000000E+00 
    2.4999999999941089E-01     0.0000000000000000E+00     0.0000000000000000E+00 
    3.1249999999922851E-01     0.0000000000000000E+00     0.0000000000000000E+00 
    3.7499999999904610E-01     0.0000000000000000E+00     0.0000000000000000E+00 
    4.3749999999886358E-01     0.0000000000000000E+00     0.0000000000000000E+00 
    4.9999999999869210E-01     0.0000000000000000E+00     0.0000000000000000E+00 
    5.6249999999884603E-01     0.0000000000000000E+00     0.0000000000000000E+00 
    6.2499999999901090E-01     0.0000000000000000E+00     0.0000000000000000E+00 
    6.8749999999917577E-01     0.0000000000000000E+00     0.0000000000000000E+00 
    7.4999999999934064E-01     0.0000000000000000E+00     0.0000000000000000E+00 
    8.1249999999950551E-01     0.0000000000000000E+00     0.0000000000000000E+00 
    8.7499999999967026E-01     0.0000000000000000E+00     0.0000000000000000E+00 
    9.3749999999983513E-01     0.0000000000000000E+00     0.0000000000000000E+00 
    1.0000000000000000E+00     6.2499999999872928E-02     0.0000000000000000E+00 
    1.0000000000000000E+00     1.2499999999977310E-01     0.0000000000000000E+00 
    1.0000000000000000E+00     1.8749999999959341E-01     0.0000000000000000E+00 
    1.0000000000000000E+00     2.4999999999941089E-01     0.0000000000000000E+00 
    1.0000000000000000E+00     3.1249999999922851E-01     0.0000000000000000E+00 
    1.0000000000000000E+00     3.7499999999904610E-01     0.0000000000000000E+00 
    1.0000000000000000E+00     4.3749999999886358E-01     0.0000000000000000E+00 
    1.0000000000000000E+00     4.9999999999869210E-01     0.0000000000000000E+00 
    1.0000000000000000E+00     5.6249999999884603E-01     0.0000000000000000E+00 
    1.0000000000000000E+00     6.2499999999901090E-01     0.0000000000000000E+00 
    1.0000000000000000E+00     6.8749999999917577E-01     0.0000000000000000E+00 
    1.0000000000000000E+00     7.4999999999934064E-01     0.0000000000000000E+00 
    1.0000000000000000E+00     8.1249999999950551E-01     0.0000000000000000E+00 
    1.0000000000000000E+00     8.7499999999967026E-01     0.0000000000000000E+00 
    1.0000000000000000E+00     9.3749999999983513E-01     0.0000000000000000E+00 
    9.3749999999973976E-01     1.0000000000000000E+00     0.0000000000000000E+00 
    8.7499999999950118E-01     1.0000000000000000E+00     0.0000000000000000E+00 
    8.1249999999991318E-01     1.0000000000000000E+00     0.0000000000000000E+00 
    7.5000000000034706E-01     1.0000000000000000E+00     0.0000000000000000E+00 
    6.8750000000078049E-01     1.0000000000000000E+00     0.0000000000000000E+00 
    6.2500000000121403E-01     1.0000000000000000E+00     0.0000000000000000E+00 
    5.6250000000164757E-01     1.0000000000000000E+00     0.0000000000000000E+00 
    5.0000000000205946E-01     1.0000000000000000E+00     0.0000000000000000E+00 
    4.3750000000182099E-01     1.0000000000000000E+00     0.0000000000000000E+00 
    3.7500000000156092E-01     1.0000000000000000E+00     0.0000000000000000E+00 
    3.1250000000130068E-01     1.0000000000000000E+00     0.0000000000000000E+00 
    2.5000000000104050E-01     1.0000000000000000E+00     0.0000000000000000E+00 
    1.8750000000078040E-01     1.0000000000000000E+00     0.0000000000000000E+00 
    1.2500000000052031E-01     1.0000000000000000E+00     0.0000000000000000E+00 
    6.2500000000260125E-02     1.0000000000000000E+00     0.0000000000000000E+00 
    0.0000000000000000E+00     9.3749999999973976E-01     0.0000000000000000E+00 
    0.0000000000000000E+00     8.7499999999950118E-01     0.0000000000000000E+00 
    0.0000000000000000E+00     8.1249999999991318E-01     0.0000000000000000E+00 
    0.0000000000000000E+00     7.5000000000034706E-01     0.0000000000000000E+00 
    0.0000000000000000E+00     6.8750000000078049E-01     0.0000000000000000E+00 
    0.0000000000000000E+00     6.2500000000121403E-01     0.0000000000000000E+00 
    0.0000000000000000E+00     5.6250000000164757E-01     0.0000000000000000E+00 
    0.0000000000000000E+00     5.0000000000205946E-01     0.0000000000000000E+00 
    0.0000000000000000E+00     4.3750000000182099E-01     0.0000000000000000E+00 
    0.0000000000000000E+00     3.7500000000156092E-01     0.0000000000000000E+00 
    0.0000000000000000E+00     3.1250000000130068E-01     0.0000000000000000E+00 
    0.0000000000000000E+00     2.5000000000104050E-01     0.0000000000000000E+00 
    0.0000000000000000E+00     1.8750000000078040E-01     0.0000000000000000E+00 
    0.0000000000000000E+00     1.2500000000052031E-01     0.0000000000000000E+00 
    0.0000000000000000E+00     6.2500000000260125E-02     0.0000000000000000E+00 
    6.2499999999897131E-02     6.2500000000235922E-02     0.0000000000000000E+00 
    6.2499999999921327E-02     1.2500000000047351E-01     0.0000000000000000E+00 
    6.2499999999945530E-02     1.8750000000070621E-01     0.0000000000000000E+00 
    6.2499999999969733E-02     2.5000000000093858E-01     0.0000000000000000E+00 
    6.2499999999993928E-02     3.1250000000117117E-01     0.0000000000000000E+00 
    6.2500000000018124E-02     3.7500000000140382E-01     0.0000000000000000E+00 
    6.2500000000042327E-02     4.3750000000163619E-01     0.0000000000000000E+00 
    6.2500000000066530E-02     5.0000000000184897E-01     0.0000000000000000E+00 
    6.2500000000090733E-02     5.6250000000147260E-01     0.0000000000000000E+00 
    6.2500000000114922E-02     6.2500000000107636E-01     0.0000000000000000E+00 
    6.2500000000139125E-02     6.8750000000068034E-01     0.0000000000000000E+00 
    6.2500000000163328E-02     7.5000000000028411E-01     0.0000000000000000E+00 
    6.2500000000187531E-02     8.1249999999988787E-01     0.0000000000000000E+00 
    6.2500000000211720E-02     8.7499999999951172E-01     0.0000000000000000E+00 
    6.2500000000235922E-02     9.3749999999974565E-01     0.0000000000000000E+00 
    1.2499999999981980E-01     6.2500000000211733E-02     0.0000000000000000E+00 
    1.2499999999986650E-01     1.2500000000042691E-01     0.0000000000000000E+00 
    1.2499999999991319E-01     1.8750000000063199E-01     0.0000000000000000E+00 
    1.2499999999995989E-01     2.5000000000083678E-01     0.0000000000000000E+00 
    1.2500000000000661E-01     3.1250000000104172E-01     0.0000000000000000E+00 
    1.2500000000005329E-01     3.7500000000124661E-01     0.0000000000000000E+00 
    1.2500000000010000E-01     4.3750000000145117E-01     0.0000000000000000E+00 
    1.2500000000014669E-01     5.0000000000163858E-01     0.0000000000000000E+00 
    1.2500000000019340E-01     5.6250000000129741E-01     0.0000000000000000E+00 
    1.2500000000024011E-01     6.2500000000093847E-01     0.0000000000000000E+00 
    1.2500000000028680E-01     6.8750000000057998E-01     0.0000000000000000E+00 
    1.2500000000033351E-01     7.5000000000022127E-01     0.0000000000000000E+00 
    1.2500000000038020E-01     8.1249999999986211E-01     0.0000000000000000E+00 
    1.2500000000042691E-01     8.7499999999952238E-01     0.0000000000000000E+00 
    1.2500000000047359E-01     9.3749999999975164E-01     0.0000000000000000E+00 
    1.8749999999966760E-01     6.2500000000187531E-02     0.0000000000000000E+00 
    1.8749999999974179E-01     1.2500000000038020E-01     0.0000000000000000E+00 
    1.8749999999981601E-01     1.8750000000055780E-01     0.0000000000000000E+00 
    1.8749999999989009E-01     2.5000000000073502E-01     0.0000000000000000E+00 
    1.8749999999996431E-01     3.1250000000091221E-01     0.0000000000000000E+00 
    1.8750000000003850E-01     3.7500000000108941E-01     0.0000000000000000E+00 
    1.8750000000011269E-01     4.3750000000126649E-01     0.0000000000000000E+00 
    1.8750000000018691E-01     5.0000000000142808E-01     0.0000000000000000E+00 
    1.8750000000026110E-01     5.6250000000112244E-01     0.0000000000000000E+00 
    1.8750000000033529E-01     6.2500000000080080E-01     0.0000000000000000E+00 
    1.8750000000040951E-01     6.8750000000047962E-01     0.0000000000000000E+00 
    1.8750000000048361E-01     7.5000000000015843E-01     0.0000000000000000E+00 
    1.8750000000055780E-01     8.1249999999983680E-01     0.0000000000000000E+00 
    1.8750000000063199E-01     8.7499999999953304E-01     0.0000000000000000E+00 
    1.8750000000070621E-01     9.3749999999975764E-01     0.0000000000000000E+00 
    2.4999999999951281E-01     6.2500000000163314E-02     0.0000000000000000E+00 
    2.4999999999961461E-01     1.2500000000033351E-01     0.0000000000000000E+00 
    2.4999999999971650E-01     1.8750000000048361E-01     0.0000000000000000E+00 
    2.4999999999981831E-01     2.5000000000063310E-01     0.0000000000000000E+00 
    2.4999999999992020E-01     3.1250000000078260E-01     0.0000000000000000E+00 
    2.5000000000002198E-01     3.7500000000093209E-01     0.0000000000000000E+00 
    2.5000000000012390E-01     4.3750000000108180E-01     0.0000000000000000E+00 
    2.5000000000022571E-01     5.0000000000121769E-01     0.0000000000000000E+00 
    2.5000000000032763E-01     5.6250000000094724E-01     0.0000000000000000E+00 
    2.5000000000042938E-01     6.2500000000066314E-01     0.0000000000000000E+00 
    2.5000000000053119E-01     6.8750000000037925E-01     0.0000000000000000E+00 
[...]
CELL_DATA 256 
SCALARS Pressure double 1 
LOOKUP_TABLE default 

    6.4067363534799004E-01 
    5.4433391819995947E-01 
    4.8583380748694860E-01 
    4.4467130701545388E-01 
    4.1273615381265211E-01 
    3.8640632218740872E-01 
    3.6386592853955008E-01 
    3.4413273611746403E-01 
    3.2666076061617622E-01 
    3.1111244469407096E-01 
    2.9706472172340054E-01 
    2.8479418408886914E-01 
    2.7833861882452060E-01 
    2.7483334993112973E-01 
    2.7273857946727176E-01 
    2.7185968855042086E-01 
    5.4433041371686075E-01 
    5.1284868481575407E-01 
    4.7464717805653639E-01 
    4.4060354728831280E-01 
    4.1145427279490809E-01 
    3.8630369394583969E-01 
    3.6426917722523394E-01 
    3.4472510555698660E-01 
    3.2727760320792554E-01 
    3.1166713692878101E-01 
    2.9754393114765293E-01 
    2.8464557333491325E-01 
    2.7770293926212725E-01 
    2.7403820563766063E-01 
    2.7185282840270975E-01 
    2.7098009761145825E-01 
    4.8583245772778333E-01 
    4.7464674419122238E-01 
    4.5266199641729843E-01 
    4.2790017832884325E-01 
    4.0378140854394623E-01 
    3.8137461532188943E-01 
    3.6086148293804438E-01 
    3.4216376081966182E-01 
    3.2517301324071479E-01 
    3.0978870883634191E-01 
    2.9579186358896520E-01 
    2.8256841316558656E-01 
    2.7543208014393639E-01 
    2.7178496608316166E-01 
    2.6964612057950482E-01 
    2.6889440804192249E-01 
    4.4467119888848194E-01 
    4.4060340852506724E-01 
    4.2789982315656794E-01 
    4.1059542733377796E-01 
    3.9159355051880423E-01 
    3.7249236827748872E-01 
    3.5406292886588864E-01 
    3.3665726993939299E-01 
    3.2044785752301441E-01 
    3.0551815512029146E-01 
    2.9179106114916176E-01 
    2.7858988052399891E-01 
    2.7149979686308373E-01 
    2.6799177026063276E-01 
    2.6600119008702278E-01 
    2.6544455899910729E-01 
    4.1273297762314487E-01 
    4.1145105005085203E-01 
    4.0377810272572340E-01 
    3.9159090260455487E-01 
    3.7679513196231096E-01 
    3.6081137864034973E-01 
    3.4456291922678123E-01 
    3.2862105270280334E-01 
    3.1335100616708134E-01 
    2.9899314363298019E-01 
    2.8560259957449668E-01 
    2.7272183639641184E-01 
    2.6588862230219984E-01 
    2.6261383544908445E-01 
    2.6084180629970066E-01 
    2.6052831962587991E-01 
    3.8639909883395129E-01 
    3.8629620367426337E-01 
    3.8136667453185524E-01 
    3.7248464332086451E-01 
    3.6080577683674675E-01 
    3.4740063973714902E-01 
    3.3311588939252917E-01 
    3.1857512202002403E-01 
    3.0423506002230938E-01 
    2.9043225411928325E-01 
    2.7731493382100836E-01 
    2.6502342801960577E-01 
    2.5862826935609179E-01 
    2.5564461904136665E-01 
    2.5412558090934884E-01 
    2.5408039902058521E-01 
    3.6385506918202642E-01 
    3.6425738688572784E-01 
    3.6084802033527191E-01 
    3.5404805397743810E-01 
    3.4454830536990594E-01 
    3.3310542270925914E-01 
    3.2041346207935395E-01 
    3.0705706117926568E-01 
    2.9351239190120310E-01 
    2.8013990230875130E-01 
    2.6703854657837123E-01 
    2.5560567145557123E-01 
    2.4980236468039402E-01 
    2.4711156595366573E-01 
    2.4583262180084303E-01 
    2.4605482496959760E-01 
    3.4411432869433350E-01 
    3.4470415072079996E-01 
    3.4213916378810283E-01 
    3.3662993635098165E-01 
    3.2859269257969115E-01 
    3.1854939360405560E-01 
    3.0704072472200078E-01 
    2.9457420828804665E-01 
    2.8160638228232188E-01 
    2.6849083188668305E-01 
    2.5508541924339428E-01 
    2.4476511656990596E-01 
    2.3960193949388450E-01 
    2.3708329181108787E-01 
    2.3595028578886129E-01 
    2.3640136680355708E-01 
    3.2663297904773686E-01 
    3.2724456045410649E-01 
    3.2513463082933214E-01 
    3.2040625159572445E-01 
    3.1330733389463444E-01 
    3.0419145741099934E-01 
    2.9347485811991531E-01 
    2.8158345060484424E-01 
    2.6890952332404555E-01 
    2.5577821024782504E-01 
    2.4233300751941217E-01 
    2.3322534465439237E-01 
    2.2840507245477457E-01 
    2.2566903838402294E-01 
    2.2444253904801753E-01 
    2.2502553386855897E-01 
    3.1107847761269608E-01 
    3.1162589658773032E-01 
    3.0974342549248413E-01 
    3.0546920640491221E-01 
    2.9893755493176383E-01 
    2.9036776543237475E-01 
    2.8007328179413427E-01 
    2.6843825766051266E-01 
    2.5573196436094037E-01 
    2.4199743045357971E-01 
    2.2963597098027091E-01 
    2.2159883615470100E-01 
    2.1649477697576705E-01 
    2.1291245901610661E-01 
    2.1117668409323137E-01 
    2.1171667510796560E-01 
    2.9703121327520826E-01 
    2.9750478966045996E-01 
    2.9575024447839748E-01 
    2.9174332935383518E-01 
    2.8554135344389991E-01 
    2.7722575639891794E-01 
    2.6691725891244056E-01 
    2.5497169275516590E-01 
    2.4227522967023724E-01 
    2.2964097235260761E-01 
    2.1884307464477984E-01 
    2.1058637694296578E-01 
    2.0396971004635286E-01 
    1.9872629628928037E-01 
    1.9583932918395552E-01 
    1.9604013278858762E-01 
    2.8475341870044857E-01 
    2.8460820730921244E-01 
    2.8253382647267727E-01 
    2.7855249023663176E-01 
    2.7268038257366317E-01 
    2.6497358382509933E-01 
    2.5555110823856780E-01 
    2.4473774238014917E-01 
    2.3325184687250469E-01 
    2.2165013061655078E-01 
    2.1061766049462802E-01 
    2.0046987125146681E-01 
    1.9097134361110396E-01 
    1.8296163668187157E-01 
    1.7787376540888339E-01 
    1.7717023507820226E-01 
    2.7830104501613540E-01 
    2.7766790965541954E-01 
    2.7540075506113770E-01 
    2.7147024154239757E-01 
    2.6586130054451285E-01 
    2.5860376716941086E-01 
    2.4978648938186052E-01 
    2.3961245471637313E-01 
    2.2845162013754788E-01 
    2.1655087494727945E-01 
    2.0400281079500288E-01 
    1.9098413851051776E-01 
    1.7783667768583875E-01 
    1.6559988810006032E-01 
    1.5645883002243147E-01 
    1.5356403095244836E-01 
    2.7480015624322118E-01 
    2.7400640970654350E-01 
    2.7175589273063439E-01 
    2.6796574837499942E-01 
    2.6259165039670412E-01 
    2.5562740537175666E-01 
    2.4710264078495034E-01 
    2.3708946996746852E-01 
    2.2569310623955474E-01 
    2.1294470324638096E-01 
    1.9875251200313701E-01 
    1.8297729561950063E-01 
    1.6560623095922788E-01 
    1.4732015697338485E-01 
    1.3073116305577506E-01 
    1.2219348057079014E-01 
    2.7270757063894235E-01 
    2.7182284787963640E-01 
    2.6961837032179464E-01 
    2.6597658483183512E-01 
    2.6082137394808719E-01 
    2.5411067034823714E-01 
    2.4582534871709016E-01 
    2.3595338542925065E-01 
    2.2445660361514444E-01 
    2.1119729216821823E-01 
    1.9585940948756839E-01 
    1.7788885153201131E-01 
    1.5646777086053798E-01 
    1.3073482803635747E-01 
    1.0117510048656680E-01 
    7.6469812402153489E-02 
    2.7182955528706459E-01 
    2.7095085561608778E-01 
    2.6886714330453093E-01 
    2.6542031529276167E-01 
    2.6050821248923095E-01 
    2.5406574955671241E-01 
    2.4604724241415396E-01 
    2.3640237311986695E-01 
    2.2503517030582254E-01 
    2.1173220973730597E-01 
    1.9605700250803751E-01 
    1.7718460031920608E-01 
    1.5357401944328872E-01 
    1.2219899592379993E-01 
    7.6471830424069603E-02 
    0.0000000000000000E+00 

SCALARS Saturarion double 1 
LOOKUP_TABLE default 

    1.0000000002249498E+00 
    9.9445037476316600E-01 
    9.8342216991236120E-01 
    9.6651026064226897E-01 
    9.4601327663620849E-01 
    9.2291826634602292E-01 
    8.9769957687307045E-01 
    8.7091573780501064E-01 
    8.4342144794970708E-01 
    8.1347861570659397E-01 
    7.6263512278182322E-01 
    3.5397968713506373E-01 
    8.3085133943599479E-04 
    1.0023586291326131E-06 
    1.0000000000563082E-06 
    9.9999999999999995E-07 
    9.9447751035912180E-01 
    9.9062646167187418E-01 
    9.8000878305826611E-01 
    9.6387623733089467E-01 
    9.4430354198601529E-01 
    9.2206874811542949E-01 
    8.9763401527202524E-01 
    8.7153681155800300E-01 
    8.4454059768772649E-01 
    8.1512180063958839E-01 
    7.6770152439065131E-01 
    4.4711759224509429E-01 
    1.1828814093274831E-03 
    1.0090686751401219E-06 
    1.0000000005103333E-06 
    9.9999999999999995E-07 
    9.8353233413171415E-01 
    9.8009976699766188E-01 
    9.7037604895215512E-01 
    9.5616875578688221E-01 
    9.3827669508553602E-01 
    9.1760060325973702E-01 
    8.9464148897187268E-01 
    8.6995324241857597E-01 
    8.4402313900821180E-01 
    8.1531122527005107E-01 
    7.7282727702158160E-01 
    5.0191077522516347E-01 
    3.0997801813017782E-03 
    1.0129573357747220E-06 
    1.0000000002302618E-06 
    9.9999999999999995E-07 
    9.6654106017906927E-01 
    9.6389970457915575E-01 
    9.5617697933604084E-01 
    9.4383960093651509E-01 
    9.2806729027207324E-01 
    9.0934094061344384E-01 
    8.8822051787667389E-01 
    8.6533268230713123E-01 
    8.4108005920055640E-01 
    8.1396841779741869E-01 
    7.7399935435227252E-01 
    5.2652208357742114E-01 
    5.5774375572419498E-03 
    1.0074035477904991E-06 
    1.0000000005081945E-06 
    9.9999999999999995E-07 
    9.4599233206990296E-01 
    9.4428900649075453E-01 
    9.3825818808258099E-01 
    9.2804928675638443E-01 
    9.1422827357460723E-01 
    8.9771842010679859E-01 
    8.7881784542872277E-01 
    8.5798827665004807E-01 
    8.3554779517835254E-01 
    8.1001854641887372E-01 
    7.7103866737353577E-01 
    5.2185255081623694E-01 
    4.9279141788787931E-03 
    1.0219044472583879E-06 
    1.0000000004146311E-06 
    9.9999999999999995E-07 
    9.2288069759675140E-01 
    9.2205399168029190E-01 
    9.1758922570469492E-01 
    9.0931540523828391E-01 
    8.9770273831527814E-01 
    8.8335154480593370E-01 
    8.6686012576148808E-01 
    8.4819540196427756E-01 
    8.2766718839108766E-01 
    8.0429224224138252E-01 
    7.6581349226866458E-01 
    4.7502562811493965E-01 
    1.4380967691879749E-03 
    1.0093269380448395E-06 
    9.9999999998327296E-07 
    9.9999999999999995E-07 
    8.9765167518532141E-01 
    8.9760934383786650E-01 
    8.9461753577146375E-01 
    8.8818499811494411E-01 
    8.7878465669624339E-01 
    8.6683999174509763E-01 
    8.5258478281768213E-01 
    8.3619573827082871E-01 
    8.1759441222031426E-01 
    7.9592956464040943E-01 
    7.5678640147425069E-01 
    4.0681056469900528E-01 
    1.6499275869592857E-04 
    1.0010631888704590E-06 
    1.0000000000400485E-06 
    9.9999999999999995E-07 
    8.7058492616618777E-01 
    8.7122821894999614E-01 
    8.6962361148255796E-01 
    8.6505646418966586E-01 
    8.5781573169712189E-01 
    8.4817878608070951E-01 
    8.3633084825772397E-01 
    8.2251976920822223E-01 
    8.0602797829364259E-01 
    7.8347661008159974E-01 
    7.3549069330535877E-01 
    2.8587708344351226E-01 
    1.1581658578941310E-04 
    1.0007601341145720E-06 
    1.0000000000213558E-06 
    9.9999999999999995E-07 
    8.4295211260904435E-01 
    8.4415499827151108E-01 
    8.4387102574174544E-01 
    8.4099158741300861E-01 
    8.3551476163616134E-01 
    8.2776145835181936E-01 
    8.1779684980221645E-01 
    8.0610136309271785E-01 
    7.9263361854253178E-01 
    7.6846129259131590E-01 
    6.8334534878373843E-01 
    1.1727177673205255E-01 
    5.3130135471906616E-05 
    1.0000620021831450E-06 
    1.0000000000004535E-06 
    9.9999999999999995E-07 
    8.1265948527835941E-01 
    8.1487047102260535E-01 
    8.1572603826908852E-01 
    8.1429102716559854E-01 
    8.1013703017470895E-01 
    8.0424403870442585E-01 
    7.9583271143078793E-01 
    7.8365025174989378E-01 
    7.6869838849749783E-01 
    7.4143447439857013E-01 
    4.6903994608330091E-01 
    6.8248207804844493E-03 
    2.8052679724113314E-06 
    1.0000000852736740E-06 
    1.0000000000000004E-06 
    9.9999999999999995E-07 
    7.6108290543867851E-01 
    7.6898416223848132E-01 
    7.7341981019866224E-01 
    7.7428004355883207E-01 
    7.7129954905461329E-01 
    7.6578482712449347E-01 
    7.5702420266536741E-01 
    7.3395216048588119E-01 
    6.7778035729879405E-01 
    4.5137153152446768E-01 
    4.1255302620499507E-02 
    7.2024521480008440E-05 
    1.0000073286461162E-06 
    1.0000000000001734E-06 
    9.9999999999999995E-07 
    9.9999999999999995E-07 
    3.5661726329062465E-01 
    4.4643611897696800E-01 
    5.0161411183507532E-01 
    5.2647686091980572E-01 
    5.1886009792179655E-01 
    4.7208938056127708E-01 
    3.9746836237423250E-01 
    2.7138517916243782E-01 
    1.0385963963796661E-01 
    5.0335566492426716E-03 
    7.6196003728547012E-05 
    1.0001747988969084E-06 
    1.0000000000084644E-06 
    9.9999999999999995E-07 
    9.9999999999999995E-07 
    9.9999999999999995E-07 
    7.4653105778833113E-04 
    1.0055809198141743E-03 
    2.8808471029415886E-03 
    5.1950391856981212E-03 
    4.3349807837762648E-03 
    1.3305664485225115E-03 
    1.1630835622699262E-04 
    1.1327069994802274E-04 
    4.3149155251668051E-05 
    1.8007338253785049E-06 
    1.0000082785296263E-06 
    1.0000000000122900E-06 
    9.9999999999999995E-07 
    9.9999999999999995E-07 
    9.9999999999999995E-07 
    9.9999999999999995E-07 
    1.0000543581961216E-06 
    1.0031807079722102E-06 
    1.0294945875041153E-06 
    1.0752964233427222E-06 
    1.0123411672599895E-06 
    1.0026048805503864E-06 
    1.0005084269967219E-06 
    1.0006209158051874E-06 
    1.0000378734795371E-06 
    1.0000000238963344E-06 
    1.0000000000004008E-06 
    9.9999999999999995E-07 
    9.9999999999999995E-07 
    9.9999999999999995E-07 
    9.9999999999999995E-07 
    9.9999999999999995E-07 
    1.0000000000040138E-06 
    1.0000000001756456E-06 
    1.0000000000238143E-06 
    9.9999999997552494E-07 
    1.0000000000388277E-06 
    1.0000000000080538E-06 
    1.0000000000129566E-06 
    1.0000000000144990E-06 
    1.0000000000005228E-06 
    1.0000000000000012E-06 
    9.9999999999999995E-07 
    9.9999999999999995E-07 
    9.9999999999999995E-07 
    9.9999999999999995E-07 
    9.9999999999999995E-07 
    9.9999999999999995E-07 
    9.9999999999999995E-07 
    9.9999999999999995E-07 
    9.9999999999999995E-07 
    9.9999999999999995E-07 
    9.9999999999999995E-07 
    9.9999999999999995E-07 
    9.9999999999999995E-07 
    9.9999999999999995E-07 
    9.9999999999999995E-07 
    9.9999999999999995E-07 
    9.9999999999999995E-07 
    9.9999999999999995E-07 
    9.9999999999999995E-07 
    9.9999999999999995E-07 
    9.9999999999999995E-07 
    1.0000000378148787E-06 
