# vtk DataFile Version 2.0
Pressure Field Data 
ASCII 
DATASET UNSTRUCTURED_GRID 

POINTS 289 double 

    0.0000000000000000E+00     0.0000000000000000E+00     0.0000000000000000E+00 
    1.0000000000000000E+00     0.0000000000000000E+00     0.0000000000000000E+00 
    1.0000000000000000E+00     1.0000000000000000E+00     0.0000000000000000E+00 
    0.0000000000000000E+00     1.0000000000000000E+00     0.0000000000000000E+00 
    6.2499999999872928E-02     0.0000000000000000E+00     0.0000000000000000E+00 
    1.2499999999977310E-01     0.0000000000000000E+00     0.0000000000000000E+00 
    1.8749999999959341E-01     0.0000000000000000E+00     0.0000000000000000E+00 
    2.4999999999941089E-01     0.0000000000000000E+00     0.0000000000000000E+00 
    3.1249999999922851E-01     0.0000000000000000E+00     0.0000000000000000E+00 
    3.7499999999904610E-01     0.0000000000000000E+00     0.0000000000000000E+00 
    4.3749999999886358E-01     0.0000000000000000E+00     0.0000000000000000E+00 
    4.9999999999869210E-01     0.0000000000000000E+00     0.0000000000000000E+00 
    5.6249999999884603E-01     0.0000000000000000E+00     0.0000000000000000E+00 
    6.2499999999901090E-01     0.0000000000000000E+00     0.0000000000000000E+00 
    6.8749999999917577E-01     0.0000000000000000E+00     0.0000000000000000E+00 
    7.4999999999934064E-01     0.0000000000000000E+00     0.0000000000000000E+00 
    8.1249999999950551E-01     0.0000000000000000E+00     0.0000000000000000E+00 
    8.7499999999967026E-01     0.0000000000000000E+00     0.0000000000000000E+00 
    9.3749999999983513E-01     0.0000000000000000E+00     0.0000000000000000E+00 
    1.0000000000000000E+00     6.2499999999872928E-02     0.0000000000000000E+00 
    1.0000000000000000E+00     1.2499999999977310E-01     0.0000000000000000E+00 
    1.0000000000000000E+00     1.8749999999959341E-01     0.0000000000000000E+00 
    1.0000000000000000E+00     2.4999999999941089E-01     0.0000000000000000E+00 
    1.0000000000000000E+00     3.1249999999922851E-01     0.0000000000000000E+00 
    1.0000000000000000E+00     3.7499999999904610E-01     0.0000000000000000E+00 
    1.0000000000000000E+00     4.3749999999886358E-01     0.0000000000000000E+00 
    1.0000000000000000E+00     4.9999999999869210E-01     0.0000000000000000E+00 
    1.0000000000000000E+00     5.6249999999884603E-01     0.0000000000000000E+00 
    1.0000000000000000E+00     6.2499999999901090E-01     0.0000000000000000E+00 
    1.0000000000000000E+00     6.8749999999917577E-01     0.0000000000000000E+00 
    1.0000000000000000E+00     7.4999999999934064E-01     0.0000000000000000E+00 
    1.0000000000000000E+00     8.1249999999950551E-01     0.0000000000000000E+00 
    1.0000000000000000E+00     8.7499999999967026E-01     0.0000000000000000E+00 
    1.0000000000000000E+00     9.3749999999983513E-01     0.0000000000000000E+00 
    9.3749999999973976E-01     1.0000000000000000E+00     0.0000000000000000E+00 
    8.7499999999950118E-01     1.0000000000000000E+00     0.0000000000000000E+00 
    8.1249999999991318E-01     1.0000000000000000E+00     0.0000000000000000E+00 
    7.5000000000034706E-01     1.0000000000000000E+00     0.0000000000000000E+00 
    6.8750000000078049E-01     1.0000000000000000E+00     0.0000000000000000E+00 
    6.2500000000121403E-01     1.0000000000000000E+00     0.0000000000000000E+00 
    5.6250000000164757E-01     1.0000000000000000E+00     0.0000000000000000E+00 
    5.0000000000205946E-01     1.0000000000000000E+00     0.0000000000000000E+00 
    4.3750000000182099E-01     1.0000000000000000E+00     0.0000000000000000E+00 
    3.7500000000156092E-01     1.0000000000000000E+00     0.0000000000000000E+00 
    3.1250000000130068E-01     1.0000000000000000E+00     0.0000000000000000E+00 
    2.5000000000104050E-01     1.0000000000000000E+00     0.0000000000000000E+00 
    1.8750000000078040E-01     1.0000000000000000E+00     0.0000000000000000E+00 
    1.2500000000052031E-01     1.0000000000000000E+00     0.0000000000000000E+00 
    6.2500000000260125E-02     1.0000000000000000E+00     0.0000000000000000E+00 
    0.0000000000000000E+00     9.3749999999973976E-01     0.0000000000000000E+00 
    0.0000000000000000E+00     8.7499999999950118E-01     0.0000000000000000E+00 
    0.0000000000000000E+00     8.1249999999991318E-01     0.0000000000000000E+00 
    0.0000000000000000E+00     7.5000000000034706E-01     0.0000000000000000E+00 
    0.0000000000000000E+00     6.8750000000078049E-01     0.0000000000000000E+00 
    0.0000000000000000E+00     6.2500000000121403E-01     0.0000000000000000E+00 
    0.0000000000000000E+00     5.6250000000164757E-01     0.0000000000000000E+00 
    0.0000000000000000E+00     5.0000000000205946E-01     0.0000000000000000E+00 
    0.0000000000000000E+00     4.3750000000182099E-01     0.0000000000000000E+00 
    0.0000000000000000E+00     3.7500000000156092E-01     0.0000000000000000E+00 
    0.0000000000000000E+00     3.1250000000130068E-01     0.0000000000000000E+00 
    0.0000000000000000E+00     2.5000000000104050E-01     0.0000000000000000E+00 
    0.0000000000000000E+00     1.8750000000078040E-01     0.0000000000000000E+00 
    0.0000000000000000E+00     1.2500000000052031E-01     0.0000000000000000E+00 
    0.0000000000000000E+00     6.2500000000260125E-02     0.0000000000000000E+00 
    6.2499999999897131E-02     6.2500000000235922E-02     0.0000000000000000E+00 
    6.2499999999921327E-02     1.2500000000047351E-01     0.0000000000000000E+00 
    6.2499999999945530E-02     1.8750000000070621E-01     0.0000000000000000E+00 
    6.2499999999969733E-02     2.5000000000093858E-01     0.0000000000000000E+00 
    6.2499999999993928E-02     3.1250000000117117E-01     0.0000000000000000E+00 
    6.2500000000018124E-02     3.7500000000140382E-01     0.0000000000000000E+00 
    6.2500000000042327E-02     4.3750000000163619E-01     0.0000000000000000E+00 
    6.2500000000066530E-02     5.0000000000184897E-01     0.0000000000000000E+00 
    6.2500000000090733E-02     5.6250000000147260E-01     0.0000000000000000E+00 
    6.2500000000114922E-02     6.2500000000107636E-01     0.0000000000000000E+00 
    6.2500000000139125E-02     6.8750000000068034E-01     0.0000000000000000E+00 
    6.2500000000163328E-02     7.5000000000028411E-01     0.0000000000000000E+00 
    6.2500000000187531E-02     8.1249999999988787E-01     0.0000000000000000E+00 
    6.2500000000211720E-02     8.7499999999951172E-01     0.0000000000000000E+00 
    6.2500000000235922E-02     9.3749999999974565E-01     0.0000000000000000E+00 
    1.2499999999981980E-01     6.2500000000211733E-02     0.0000000000000000E+00 
    1.2499999999986650E-01     1.2500000000042691E-01     0.0000000000000000E+00 
    1.2499999999991319E-01     1.8750000000063199E-01     0.0000000000000000E+00 
    1.2499999999995989E-01     2.5000000000083678E-01     0.0000000000000000E+00 
    1.2500000000000661E-01     3.1250000000104172E-01     0.0000000000000000E+00 
    1.2500000000005329E-01     3.7500000000124661E-01     0.0000000000000000E+00 
    1.2500000000010000E-01     4.3750000000145117E-01     0.0000000000000000E+00 
    1.2500000000014669E-01     5.0000000000163858E-01     0.0000000000000000E+00 
    1.2500000000019340E-01     5.6250000000129741E-01     0.0000000000000000E+00 
    1.2500000000024011E-01     6.2500000000093847E-01     0.0000000000000000E+00 
    1.2500000000028680E-01     6.8750000000057998E-01     0.0000000000000000E+00 
    1.2500000000033351E-01     7.5000000000022127E-01     0.0000000000000000E+00 
    1.2500000000038020E-01     8.1249999999986211E-01     0.0000000000000000E+00 
    1.2500000000042691E-01     8.7499999999952238E-01     0.0000000000000000E+00 
    1.2500000000047359E-01     9.3749999999975164E-01     0.0000000000000000E+00 
    1.8749999999966760E-01     6.2500000000187531E-02     0.0000000000000000E+00 
    1.8749999999974179E-01     1.2500000000038020E-01     0.0000000000000000E+00 
    1.8749999999981601E-01     1.8750000000055780E-01     0.0000000000000000E+00 
    1.8749999999989009E-01     2.5000000000073502E-01     0.0000000000000000E+00 
    1.8749999999996431E-01     3.1250000000091221E-01     0.0000000000000000E+00 
    1.8750000000003850E-01     3.7500000000108941E-01     0.0000000000000000E+00 
    1.8750000000011269E-01     4.3750000000126649E-01     0.0000000000000000E+00 
    1.8750000000018691E-01     5.0000000000142808E-01     0.0000000000000000E+00 
    1.8750000000026110E-01     5.6250000000112244E-01     0.0000000000000000E+00 
    1.8750000000033529E-01     6.2500000000080080E-01     0.0000000000000000E+00 
    1.8750000000040951E-01     6.8750000000047962E-01     0.0000000000000000E+00 
    1.8750000000048361E-01     7.5000000000015843E-01     0.0000000000000000E+00 
    1.8750000000055780E-01     8.1249999999983680E-01     0.0000000000000000E+00 
    1.8750000000063199E-01     8.7499999999953304E-01     0.0000000000000000E+00 
    1.8750000000070621E-01     9.3749999999975764E-01     0.0000000000000000E+00 
    2.4999999999951281E-01     6.2500000000163314E-02     0.0000000000000000E+00 
    2.4999999999961461E-01     1.2500000000033351E-01     0.0000000000000000E+00 
    2.4999999999971650E-01     1.8750000000048361E-01     0.0000000000000000E+00 
    2.4999999999981831E-01     2.5000000000063310E-01     0.0000000000000000E+00 
    2.4999999999992020E-01     3.1250000000078260E-01     0.0000000000000000E+00 
    2.5000000000002198E-01     3.7500000000093209E-01     0.0000000000000000E+00 
    2.5000000000012390E-01     4.3750000000108180E-01     0.0000000000000000E+00 
    2.5000000000022571E-01     5.0000000000121769E-01     0.0000000000000000E+00 
    2.5000000000032763E-01     5.6250000000094724E-01     0.0000000000000000E+00 
    2.5000000000042938E-01     6.2500000000066314E-01     0.0000000000000000E+00 
    2.5000000000053119E-01     6.8750000000037925E-01     0.0000000000000000E+00 
[...]
CELL_DATA 256 
SCALARS Pressure double 1 
LOOKUP_TABLE default 

    6.1389031036936992E-01 
    5.0748401211729222E-01 
    4.3329242271642959E-01 
    3.7716847304271967E-01 
    3.4763453484832918E-01 
    3.2946092598466081E-01 
    3.1462875775924792E-01 
    3.0235265429438191E-01 
    2.9216092844388902E-01 
    2.8375527201753381E-01 
    2.7693835164987479E-01 
    2.7156987070224037E-01 
    2.6753774087874921E-01 
    2.6473738130297819E-01 
    2.6305455970728026E-01 
    2.6234653279575132E-01 
    5.0749647117444263E-01 
    4.6927388725471952E-01 
    4.1678761988751878E-01 
    3.7316472391050576E-01 
    3.4699368516857404E-01 
    3.2941529864972718E-01 
    3.1480917919599455E-01 
    3.0256171513884478E-01 
    2.9229171252816172E-01 
    2.8375042203098161E-01 
    2.7677062149886267E-01 
    2.7123303747604699E-01 
    2.6704273020672170E-01 
    2.6411180875504858E-01 
    2.6234659085532230E-01 
    2.6163851183276660E-01 
    4.3330572360947223E-01 
    4.1678684794304216E-01 
    3.8727922861358488E-01 
    3.6090103978016380E-01 
    3.4161074220380000E-01 
    3.2602758849176633E-01 
    3.1245057229812234E-01 
    3.0072305291920520E-01 
    2.9068534930346240E-01 
    2.8221000664995061E-01 
    2.7520351282929184E-01 
    2.6959621738536521E-01 
    2.6533000046077609E-01 
    2.6234706031758376E-01 
    2.6058154303684888E-01 
    2.5995561259084360E-01 
    3.7715408417345780E-01 
    3.7315549836232281E-01 
    3.6089885672379668E-01 
    3.4673633074021049E-01 
    3.3306241265457431E-01 
    3.1994754934820951E-01 
    3.0785322285031008E-01 
    2.9698639878986793E-01 
    2.8741748065449479E-01 
    2.7916651167189127E-01 
    2.7223866488364612E-01 
    2.6663451359145063E-01 
    2.6234881203649935E-01 
    2.5936509530435503E-01 
    2.5765060536607476E-01 
    2.5715482661738381E-01 
    3.4761970416357318E-01 
    3.4698370400462730E-01 
    3.4160657619894286E-01 
    3.3306073459769875E-01 
    3.2281171889542065E-01 
    3.1205960362037105E-01 
    3.0153770650745265E-01 
    2.9166169661514574E-01 
    2.8267387618398621E-01 
    2.7472648718766096E-01 
    2.6792608840670523E-01 
    2.6235301125856531E-01 
    2.5806605360977986E-01 
    2.5509969879323363E-01 
    2.5345963959131840E-01 
    2.5312141909646629E-01 
    3.2945118640948284E-01 
    3.2940756374001756E-01 
    3.2602288355209691E-01 
    3.1994495680780655E-01 
    3.1205849835504829E-01 
    3.0321760226853200E-01 
    2.9408771360573494E-01 
    2.8514236620269395E-01 
    2.7671636644630127E-01 
    2.6905721496784973E-01 
    2.6236012110906276E-01 
    2.5678590926522449E-01 
    2.5246507306918936E-01 
    2.4949268544696185E-01 
    2.4792007901282992E-01 
    2.4774997778779145E-01 
    3.1462174820335304E-01 
    3.1480299320307514E-01 
    3.1244596788301315E-01 
    3.0785016307911656E-01 
    3.0153592707982996E-01 
    2.9408694824124565E-01 
    2.8603842677846569E-01 
    2.7783662065306186E-01 
    2.6984530241405774E-01 
    2.6236848489277276E-01 
    2.5567152564906920E-01 
    2.4999248319563061E-01 
    2.4554098747535702E-01 
    2.4248574306141538E-01 
    2.4093605493657672E-01 
    2.4092704700787065E-01 
    3.0234726003819712E-01 
    3.0255669803637875E-01 
    3.0071890801831652E-01 
    2.9698329261693401E-01 
    2.9165958351876403E-01 
    2.8514111512167367E-01 
    2.7783607353531048E-01 
    2.7012944055313870E-01 
    2.6237422161815738E-01 
    2.5489945816737247E-01 
    2.4802236363206093E-01 
    2.4205465989671238E-01 
    2.3729583253020298E-01 
    2.3400962343493337E-01 
    2.3238705007040000E-01 
    2.3250992139430596E-01 
    2.9215656189248540E-01 
    2.9228753844829902E-01 
    2.9068168800349126E-01 
    2.8741451246760935E-01 
    2.8267164663377392E-01 
    2.7671483513616829E-01 
    2.6984438419737139E-01 
    2.6237381384268232E-01 
    2.5462159432270459E-01 
    2.4691657670050743E-01 
    2.3960966391965896E-01 
    2.3308204188452250E-01 
    2.2773831263461616E-01 
    2.2397277111411490E-01 
    2.2210435073977941E-01 
    2.2229657218400090E-01 
    2.8375159128130961E-01 
    2.8374685115669473E-01 
    2.8220675830405101E-01 
    2.7916373630428226E-01 
    2.7472425738851947E-01 
    2.6905553861922749E-01 
    2.6236732617754877E-01 
    2.5489875644517596E-01 
    2.4691626118616045E-01 
    2.3872378628647534E-01 
    2.3068241780528664E-01 
    2.2323153036276189E-01 
    2.1689588907260809E-01 
    2.1225365290979306E-01 
    2.0983855466500539E-01 
    2.0997850046818189E-01 
    2.7693514104850936E-01 
    2.7676748163447618E-01 
    2.7520059038651101E-01 
    2.7223607747724271E-01 
    2.6792390953689538E-01 
    2.6235838020859126E-01 
    2.5567021644124976E-01 
    2.4802145490027599E-01 
    2.3960910990316997E-01 
    2.3068216668462402E-01 
    2.2157437891309617E-01 
    2.1275073270231490E-01 
    2.0485342150492461E-01 
    1.9870784891539758E-01 
    1.9521493831399603E-01 
    1.9505941311665873E-01 
    2.7156698479732017E-01 
    2.7123020330175390E-01 
    2.6959354049565981E-01 
    2.6663208522083498E-01 
    2.6235089729413452E-01 
    2.5678414656784315E-01 
    2.4999108152158828E-01 
    2.4205360709366694E-01 
    2.3308131037232530E-01 
    2.2323108345245674E-01 
    2.1275052976539136E-01 
    2.0205550519567470E-01 
    1.9184494814796174E-01 
    1.8322029900475759E-01 
    1.7767845295874360E-01 
    1.7669998352658309E-01 
    2.6753507591098602E-01 
    2.6704010792392441E-01 
    2.6532750024005758E-01 
    2.6234650590660896E-01 
    2.5806399859429074E-01 
    2.5246330697122660E-01 
    2.4553952795858780E-01 
    2.3729467905107565E-01 
    2.2773745009578281E-01 
    2.1689529215350217E-01 
    2.0485305862959277E-01 
    1.9184478459804219E-01 
    1.7844235724512966E-01 
    1.6588399741612461E-01 
    1.5646335980814630E-01 
    1.5338787298196563E-01 
    2.6473485950332132E-01 
    2.6410932564975576E-01 
    2.6234467834531039E-01 
    2.5936287326193708E-01 
    2.5509768627392015E-01 
    2.4949091885669469E-01 
    2.4248424365407861E-01 
    2.3400839746478286E-01 
    2.2397181169847849E-01 
    2.1225294281818061E-01 
    1.9870736345494658E-01 
    1.8322000856377979E-01 
    1.6588386935770025E-01 
    1.4750309741873371E-01 
    1.3078613597877675E-01 
    1.2215258023615701E-01 
    2.6305212033826980E-01 
    2.6234418833785816E-01 
    2.6057922883439272E-01 
    2.5764842981660957E-01 
    2.5345764721277331E-01 
    2.4791830471807272E-01 
    2.4093452169221383E-01 
    2.3238576814474524E-01 
    2.2210331850196982E-01 
    2.0983776034818377E-01 
    1.9521436211708429E-01 
    1.7767806908178777E-01 
    1.5646313808276974E-01 
    1.3078604305983357E-01 
    1.0120757911394869E-01 
    7.6469191774843986E-02 
    2.6234412745320929E-01 
    2.6163614092693377E-01 
    2.5995332100757762E-01 
    2.5715266040646234E-01 
    2.5311942050112396E-01 
    2.4774818140997140E-01 
    2.4092547720151103E-01 
    2.3250859106285068E-01 
    2.2229548303781357E-01 
    2.0997764418863571E-01 
    1.9505877304515781E-01 
    1.7669953636660463E-01 
    1.5338759032941229E-01 
    1.2215242960873390E-01 
    7.6469136911804056E-02 
    0.0000000000000000E+00 

SCALARS Saturarion double 1 
LOOKUP_TABLE default 

    9.9734407883594323E-01 
    9.2347503213744087E-01 
    8.1889086397799182E-01 
    4.5263740006191244E-01 
    6.1200212854470315E-04 
    1.0007399791591053E-06 
    1.0000000000166533E-06 
    9.9999999999999995E-07 
    9.9999999999999995E-07 
    9.9999999999999995E-07 
    9.9999999999999995E-07 
    9.9999999999999995E-07 
    9.9999999999999995E-07 
    9.9999999999999995E-07 
    9.9999999999999995E-07 
    9.9999999999999995E-07 
    9.2356735606685170E-01 
    8.8012725863959906E-01 
    7.8977550209371528E-01 
    3.1749420982652227E-01 
    1.5028988850507977E-03 
    1.0828967750316880E-06 
    1.0000000018861083E-06 
    9.9999999999999974E-07 
    9.9999999999999995E-07 
    9.9999999999999995E-07 
    9.9999999999999995E-07 
    9.9999999999999995E-07 
    9.9999999999999995E-07 
    9.9999999999999995E-07 
    9.9999999999999995E-07 
    9.9999999999999995E-07 
    8.1813824943412827E-01 
    7.9002991569490089E-01 
    5.8167437925060606E-01 
    4.4867294175664416E-02 
    2.7897938226270191E-04 
    1.0067614901398713E-06 
    1.0000000003259844E-06 
    9.9999999999999974E-07 
    9.9999999999999995E-07 
    9.9999999999999995E-07 
    9.9999999999999995E-07 
    9.9999999999999995E-07 
    9.9999999999999995E-07 
    9.9999999999999995E-07 
    9.9999999999999995E-07 
    9.9999999999999995E-07 
    4.5461522812545108E-01 
    3.1722932608770227E-01 
    4.4902543620976537E-02 
    1.5443549946999558E-04 
    1.0015844249341453E-06 
    1.0000000002528232E-06 
    1.0000000000000002E-06 
    9.9999999999999995E-07 
    9.9999999999999995E-07 
    9.9999999999999995E-07 
    9.9999999999999995E-07 
    9.9999999999999995E-07 
    9.9999999999999995E-07 
    9.9999999999999995E-07 
    9.9999999999999995E-07 
    9.9999999999999995E-07 
    6.5148699315481333E-04 
    1.4379863589700967E-03 
    2.4171291725419799E-04 
    1.0014000041012599E-06 
    1.0000000000642389E-06 
    9.9999999999999995E-07 
    9.9999999999999995E-07 
    9.9999999999999995E-07 
    9.9999999999999995E-07 
    9.9999999999999995E-07 
    9.9999999999999995E-07 
    9.9999999999999995E-07 
    9.9999999999999995E-07 
    9.9999999999999995E-07 
    9.9999999999999995E-07 
    9.9999999999999995E-07 
    1.0012038575940019E-06 
    1.0651454267422867E-06 
    1.0019323605596266E-06 
    1.0000000000661795E-06 
    9.9999999999999995E-07 
    9.9999999999999995E-07 
    9.9999999999999995E-07 
    9.9999999999999995E-07 
    9.9999999999999995E-07 
    9.9999999999999995E-07 
    9.9999999999999995E-07 
    9.9999999999999995E-07 
    9.9999999999999995E-07 
    9.9999999999999995E-07 
    9.9999999999999995E-07 
    9.9999999999999995E-07 
    1.0000000000097586E-06 
    1.0000000014812317E-06 
    1.0000000000770071E-06 
    1.0000000000000002E-06 
    9.9999999999999995E-07 
    9.9999999999999995E-07 
    9.9999999999999995E-07 
    9.9999999999999995E-07 
    9.9999999999999995E-07 
    9.9999999999999995E-07 
    9.9999999999999995E-07 
    9.9999999999999995E-07 
    9.9999999999999995E-07 
    9.9999999999999995E-07 
    9.9999999999999995E-07 
    9.9999999999999995E-07 
    9.9999999999999995E-07 
    9.9999999999999995E-07 
    9.9999999999999995E-07 
    9.9999999999999995E-07 
    9.9999999999999995E-07 
    9.9999999999999995E-07 
    9.9999999999999995E-07 
    9.9999999999999995E-07 
    9.9999999999999995E-07 
    9.9999999999999995E-07 
    9.9999999999999995E-07 
    9.9999999999999995E-07 
    9.9999999999999995E-07 
    9.9999999999999995E-07 
    9.9999999999999995E-07 
    9.9999999999999995E-07 
    9.9999999999999995E-07 
    9.9999999999999995E-07 
    9.9999999999999995E-07 
    9.9999999999999995E-07 
    9.9999999999999995E-07 
    9.9999999999999995E-07 
    9.9999999999999995E-07 
    9.9999999999999995E-07 
    9.9999999999999995E-07 
    9.9999999999999995E-07 
    9.9999999999999995E-07 
    9.9999999999999995E-07 
    9.9999999999999995E-07 
    9.9999999999999995E-07 
    9.9999999999999995E-07 
    9.9999999999999995E-07 
    9.9999999999999995E-07 
    9.9999999999999995E-07 
    9.9999999999999995E-07 
    9.9999999999999995E-07 
    9.9999999999999995E-07 
    9.9999999999999995E-07 
    9.9999999999999995E-07 
    9.9999999999999995E-07 
    9.9999999999999995E-07 
    9.9999999999999995E-07 
    9.9999999999999995E-07 
    9.9999999999999995E-07 
    9.9999999999999995E-07 
    9.9999999999999995E-07 
    9.9999999999999995E-07 
    9.9999999999999995E-07 
    9.9999999999999995E-07 
    9.9999999999999995E-07 
    9.9999999999999995E-07 
    9.9999999999999995E-07 
    9.9999999999999995E-07 
    9.9999999999999995E-07 
    9.9999999999999995E-07 
    9.9999999999999995E-07 
    9.9999999999999995E-07 
    9.9999999999999995E-07 
    9.9999999999999995E-07 
    9.9999999999999995E-07 
    9.9999999999999995E-07 
    9.9999999999999995E-07 
    9.9999999999999995E-07 
    9.9999999999999995E-07 
    9.9999999999999995E-07 
    9.9999999999999995E-07 
    9.9999999999999995E-07 
    9.9999999999999995E-07 
    9.9999999999999995E-07 
    9.9999999999999995E-07 
    9.9999999999999995E-07 
    9.9999999999999995E-07 
    9.9999999999999995E-07 
    9.9999999999999995E-07 
    9.9999999999999995E-07 
    9.9999999999999995E-07 
    9.9999999999999995E-07 
    9.9999999999999995E-07 
    9.9999999999999995E-07 
    9.9999999999999995E-07 
    9.9999999999999995E-07 
    9.9999999999999995E-07 
    9.9999999999999995E-07 
    9.9999999999999995E-07 
    9.9999999999999995E-07 
    9.9999999999999995E-07 
    9.9999999999999995E-07 
    9.9999999999999995E-07 
    9.9999999999999995E-07 
    9.9999999999999995E-07 
    9.9999999999999995E-07 
    9.9999999999999995E-07 
    9.9999999999999995E-07 
    9.9999999999999995E-07 
    9.9999999999999995E-07 
    9.9999999999999995E-07 
    9.9999999999999995E-07 
    9.9999999999999995E-07 
    9.9999999999999995E-07 
    9.9999999999999995E-07 
    9.9999999999999995E-07 
    9.9999999999999995E-07 
    9.9999999999999995E-07 
    9.9999999999999995E-07 
    9.9999999999999995E-07 
    9.9999999999999995E-07 
    9.9999999999999995E-07 
    9.9999999999999995E-07 
    9.9999999999999995E-07 
    9.9999999999999995E-07 
    9.9999999999999995E-07 
    9.9999999999999995E-07 
    9.9999999999999995E-07 
    9.9999999999999995E-07 
    9.9999999999999995E-07 
    9.9999999999999995E-07 
    9.9999999999999995E-07 
    9.9999999999999995E-07 
    9.9999999999999995E-07 
    9.9999999999999995E-07 
    9.9999999999999995E-07 
    9.9999999999999995E-07 
    9.9999999999999995E-07 
    9.9999999999999995E-07 
    9.9999999999999995E-07 
    9.9999999999999995E-07 
    9.9999999999999995E-07 
    9.9999999999999995E-07 
    9.9999999999999995E-07 
    9.9999999999999995E-07 
    9.9999999999999995E-07 
    9.9999999999999995E-07 
    9.9999999999999995E-07 
    9.9999999999999995E-07 
    9.9999999999999995E-07 
    9.9999999999999995E-07 
    9.9999999999999995E-07 
    9.9999999999999995E-07 
    9.9999999999999995E-07 
    9.9999999999999995E-07 
    9.9999999999999995E-07 
    9.9999999999999995E-07 
    9.9999999999999995E-07 
    1.0000000031537114E-06 
