# vtk DataFile Version 2.0
Pressure Field Data 
ASCII 
DATASET UNSTRUCTURED_GRID 

POINTS 289 double 

    0.0000000000000000E+00     0.0000000000000000E+00     0.0000000000000000E+00 
    1.0000000000000000E+00     0.0000000000000000E+00     0.0000000000000000E+00 
    1.0000000000000000E+00     1.0000000000000000E+00     0.0000000000000000E+00 
    0.0000000000000000E+00     1.0000000000000000E+00     0.0000000000000000E+00 
    6.2499999999872928E-02     0.0000000000000000E+00     0.0000000000000000E+00 
    1.2499999999977310E-01     0.0000000000000000E+00     0.0000000000000000E+00 
    1.8749999999959341E-01     0.0000000000000000E+00     0.0000000000000000E+00 
    2.4999999999941089E-01     0.0000000000000000E+00     0.0000000000000000E+00 
    3.1249999999922851E-01     0.0000000000000000E+00     0.0000000000000000E+00 
    3.7499999999904610E-01     0.0000000000000000E+00     0.0000000000000000E+00 
    4.3749999999886358E-01     0.0000000000000000E+00     0.0000000000000000E+00 
    4.9999999999869210E-01     0.0000000000000000E+00     0.0000000000000000E+00 
    5.6249999999884603E-01     0.0000000000000000E+00     0.0000000000000000E+00 
    6.2499999999901090E-01     0.0000000000000000E+00     0.0000000000000000E+00 
    6.8749999999917577E-01     0.0000000000000000E+00     0.0000000000000000E+00 
    7.4999999999934064E-01     0.0000000000000000E+00     0.0000000000000000E+00 
    8.1249999999950551E-01     0.0000000000000000E+00     0.0000000000000000E+00 
    8.7499999999967026E-01     0.0000000000000000E+00     0.0000000000000000E+00 
    9.3749999999983513E-01     0.0000000000000000E+00     0.0000000000000000E+00 
    1.0000000000000000E+00     6.2499999999872928E-02     0.0000000000000000E+00 
    1.0000000000000000E+00     1.2499999999977310E-01     0.0000000000000000E+00 
    1.0000000000000000E+00     1.8749999999959341E-01     0.0000000000000000E+00 
    1.0000000000000000E+00     2.4999999999941089E-01     0.0000000000000000E+00 
    1.0000000000000000E+00     3.1249999999922851E-01     0.0000000000000000E+00 
    1.0000000000000000E+00     3.7499999999904610E-01     0.0000000000000000E+00 
    1.0000000000000000E+00     4.3749999999886358E-01     0.0000000000000000E+00 
    1.0000000000000000E+00     4.9999999999869210E-01     0.0000000000000000E+00 
    1.0000000000000000E+00     5.6249999999884603E-01     0.0000000000000000E+00 
    1.0000000000000000E+00     6.2499999999901090E-01     0.0000000000000000E+00 
    1.0000000000000000E+00     6.8749999999917577E-01     0.0000000000000000E+00 
    1.0000000000000000E+00     7.4999999999934064E-01     0.0000000000000000E+00 
    1.0000000000000000E+00     8.1249999999950551E-01     0.0000000000000000E+00 
    1.0000000000000000E+00     8.7499999999967026E-01     0.0000000000000000E+00 
    1.0000000000000000E+00     9.3749999999983513E-01     0.0000000000000000E+00 
    9.3749999999973976E-01     1.0000000000000000E+00     0.0000000000000000E+00 
    8.7499999999950118E-01     1.0000000000000000E+00     0.0000000000000000E+00 
    8.1249999999991318E-01     1.0000000000000000E+00     0.0000000000000000E+00 
    7.5000000000034706E-01     1.0000000000000000E+00     0.0000000000000000E+00 
    6.8750000000078049E-01     1.0000000000000000E+00     0.0000000000000000E+00 
    6.2500000000121403E-01     1.0000000000000000E+00     0.0000000000000000E+00 
    5.6250000000164757E-01     1.0000000000000000E+00     0.0000000000000000E+00 
    5.0000000000205946E-01     1.0000000000000000E+00     0.0000000000000000E+00 
    4.3750000000182099E-01     1.0000000000000000E+00     0.0000000000000000E+00 
    3.7500000000156092E-01     1.0000000000000000E+00     0.0000000000000000E+00 
    3.1250000000130068E-01     1.0000000000000000E+00     0.0000000000000000E+00 
    2.5000000000104050E-01     1.0000000000000000E+00     0.0000000000000000E+00 
    1.8750000000078040E-01     1.0000000000000000E+00     0.0000000000000000E+00 
    1.2500000000052031E-01     1.0000000000000000E+00     0.0000000000000000E+00 
    6.2500000000260125E-02     1.0000000000000000E+00     0.0000000000000000E+00 
    0.0000000000000000E+00     9.3749999999973976E-01     0.0000000000000000E+00 
    0.0000000000000000E+00     8.7499999999950118E-01     0.0000000000000000E+00 
    0.0000000000000000E+00     8.1249999999991318E-01     0.0000000000000000E+00 
    0.0000000000000000E+00     7.5000000000034706E-01     0.0000000000000000E+00 
    0.0000000000000000E+00     6.8750000000078049E-01     0.0000000000000000E+00 
    0.0000000000000000E+00     6.2500000000121403E-01     0.0000000000000000E+00 
    0.0000000000000000E+00     5.6250000000164757E-01     0.0000000000000000E+00 
    0.0000000000000000E+00     5.0000000000205946E-01     0.0000000000000000E+00 
    0.0000000000000000E+00     4.3750000000182099E-01     0.0000000000000000E+00 
    0.0000000000000000E+00     3.7500000000156092E-01     0.0000000000000000E+00 
    0.0000000000000000E+00     3.1250000000130068E-01     0.0000000000000000E+00 
    0.0000000000000000E+00     2.5000000000104050E-01     0.0000000000000000E+00 
    0.0000000000000000E+00     1.8750000000078040E-01     0.0000000000000000E+00 
    0.0000000000000000E+00     1.2500000000052031E-01     0.0000000000000000E+00 
    0.0000000000000000E+00     6.2500000000260125E-02     0.0000000000000000E+00 
    6.2499999999897131E-02     6.2500000000235922E-02     0.0000000000000000E+00 
    6.2499999999921327E-02     1.2500000000047351E-01     0.0000000000000000E+00 
    6.2499999999945530E-02     1.8750000000070621E-01     0.0000000000000000E+00 
    6.2499999999969733E-02     2.5000000000093858E-01     0.0000000000000000E+00 
    6.2499999999993928E-02     3.1250000000117117E-01     0.0000000000000000E+00 
    6.2500000000018124E-02     3.7500000000140382E-01     0.0000000000000000E+00 
    6.2500000000042327E-02     4.3750000000163619E-01     0.0000000000000000E+00 
    6.2500000000066530E-02     5.0000000000184897E-01     0.0000000000000000E+00 
    6.2500000000090733E-02     5.6250000000147260E-01     0.0000000000000000E+00 
    6.2500000000114922E-02     6.2500000000107636E-01     0.0000000000000000E+00 
    6.2500000000139125E-02     6.8750000000068034E-01     0.0000000000000000E+00 
    6.2500000000163328E-02     7.5000000000028411E-01     0.0000000000000000E+00 
    6.2500000000187531E-02     8.1249999999988787E-01     0.0000000000000000E+00 
    6.2500000000211720E-02     8.7499999999951172E-01     0.0000000000000000E+00 
    6.2500000000235922E-02     9.3749999999974565E-01     0.0000000000000000E+00 
    1.2499999999981980E-01     6.2500000000211733E-02     0.0000000000000000E+00 
    1.2499999999986650E-01     1.2500000000042691E-01     0.0000000000000000E+00 
    1.2499999999991319E-01     1.8750000000063199E-01     0.0000000000000000E+00 
    1.2499999999995989E-01     2.5000000000083678E-01     0.0000000000000000E+00 
    1.2500000000000661E-01     3.1250000000104172E-01     0.0000000000000000E+00 
    1.2500000000005329E-01     3.7500000000124661E-01     0.0000000000000000E+00 
    1.2500000000010000E-01     4.3750000000145117E-01     0.0000000000000000E+00 
    1.2500000000014669E-01     5.0000000000163858E-01     0.0000000000000000E+00 
    1.2500000000019340E-01     5.6250000000129741E-01     0.0000000000000000E+00 
    1.2500000000024011E-01     6.2500000000093847E-01     0.0000000000000000E+00 
    1.2500000000028680E-01     6.8750000000057998E-01     0.0000000000000000E+00 
    1.2500000000033351E-01     7.5000000000022127E-01     0.0000000000000000E+00 
    1.2500000000038020E-01     8.1249999999986211E-01     0.0000000000000000E+00 
    1.2500000000042691E-01     8.7499999999952238E-01     0.0000000000000000E+00 
    1.2500000000047359E-01     9.3749999999975164E-01     0.0000000000000000E+00 
    1.8749999999966760E-01     6.2500000000187531E-02     0.0000000000000000E+00 
    1.8749999999974179E-01     1.2500000000038020E-01     0.0000000000000000E+00 
    1.8749999999981601E-01     1.8750000000055780E-01     0.0000000000000000E+00 
    1.8749999999989009E-01     2.5000000000073502E-01     0.0000000000000000E+00 
    1.8749999999996431E-01     3.1250000000091221E-01     0.0000000000000000E+00 
    1.8750000000003850E-01     3.7500000000108941E-01     0.0000000000000000E+00 
    1.8750000000011269E-01     4.3750000000126649E-01     0.0000000000000000E+00 
    1.8750000000018691E-01     5.0000000000142808E-01     0.0000000000000000E+00 
    1.8750000000026110E-01     5.6250000000112244E-01     0.0000000000000000E+00 
    1.8750000000033529E-01     6.2500000000080080E-01     0.0000000000000000E+00 
    1.8750000000040951E-01     6.8750000000047962E-01     0.0000000000000000E+00 
    1.8750000000048361E-01     7.5000000000015843E-01     0.0000000000000000E+00 
    1.8750000000055780E-01     8.1249999999983680E-01     0.0000000000000000E+00 
    1.8750000000063199E-01     8.7499999999953304E-01     0.0000000000000000E+00 
    1.8750000000070621E-01     9.3749999999975764E-01     0.0000000000000000E+00 
    2.4999999999951281E-01     6.2500000000163314E-02     0.0000000000000000E+00 
    2.4999999999961461E-01     1.2500000000033351E-01     0.0000000000000000E+00 
    2.4999999999971650E-01     1.8750000000048361E-01     0.0000000000000000E+00 
    2.4999999999981831E-01     2.5000000000063310E-01     0.0000000000000000E+00 
    2.4999999999992020E-01     3.1250000000078260E-01     0.0000000000000000E+00 
    2.5000000000002198E-01     3.7500000000093209E-01     0.0000000000000000E+00 
    2.5000000000012390E-01     4.3750000000108180E-01     0.0000000000000000E+00 
    2.5000000000022571E-01     5.0000000000121769E-01     0.0000000000000000E+00 
    2.5000000000032763E-01     5.6250000000094724E-01     0.0000000000000000E+00 
    2.5000000000042938E-01     6.2500000000066314E-01     0.0000000000000000E+00 
    2.5000000000053119E-01     6.8750000000037925E-01     0.0000000000000000E+00 
[...]
CELL_DATA 256 
SCALARS Pressure double 1 
LOOKUP_TABLE default 

    6.4376320524543107E-01 
    5.4748425966365866E-01 
    4.8910614696491911E-01 
    4.4813043974606276E-01 
    4.1643137219370285E-01 
    3.9037277080282645E-01 
    3.6813051125692797E-01 
    3.4871466740729845E-01 
    3.3157110380488336E-01 
    3.1638887808227195E-01 
    3.0290412070742312E-01 
    2.9028850062831324E-01 
    2.8299115213519704E-01 
    2.7918440182761001E-01 
    2.7698101214374587E-01 
    2.7605594093112745E-01 
    5.4748110380900394E-01 
    5.1604838329921743E-01 
    4.7795643950238154E-01 
    4.4408524206914657E-01 
    4.1515878631090736E-01 
    3.9026795853716939E-01 
    3.6852053631143361E-01 
    3.4928071604999988E-01 
    3.3214295424130291E-01 
    3.1686175552803569E-01 
    3.0321672576976744E-01 
    2.9043222322188145E-01 
    2.8245328336048958E-01 
    2.7835808094431708E-01 
    2.7605105585779993E-01 
    2.7513037120938444E-01 
    4.8910536035276014E-01 
    4.7795637349690462E-01 
    4.5607074833173228E-01 
    4.3146705387700252E-01 
    4.0755547622471000E-01 
    3.8539371342121581E-01 
    3.6515305811883148E-01 
    3.4674256707078310E-01 
    3.3003929763009526E-01 
    3.1494691091924276E-01 
    3.0134378587585142E-01 
    2.8861871070285677E-01 
    2.8023258746102414E-01 
    2.7598816091127709E-01 
    2.7372747829715283E-01 
    2.7293333413422066E-01 
    4.4813194153346397E-01 
    4.4408648316981281E-01 
    4.3146765774609780E-01 
    4.1430499557094747E-01 
    3.9549363818017680E-01 
    3.7662172617099621E-01 
    3.5844936099747954E-01 
    3.4131481532706193E-01 
    3.2537392998321063E-01 
    3.1070655629396116E-01 
    2.9731218840605700E-01 
    2.8474170998793741E-01 
    2.7621132405399007E-01 
    2.7198411030716674E-01 
    2.6988359756511016E-01 
    2.6929661350091560E-01 
    4.1643139206874413E-01 
    4.1515857579226056E-01 
    4.0755480991580201E-01 
    3.9549275192748085E-01 
    3.8087125482613143E-01 
    3.6510145117358228E-01 
    3.4909564818058308E-01 
    3.3341284737682780E-01 
    3.1840232811287583E-01 
    3.0429532681469090E-01 
    2.9120252711299738E-01 
    2.7877420996822766E-01 
    2.7034616107246856E-01 
    2.6629895801513764E-01 
    2.6443951784015196E-01 
    2.6411317847411231E-01 
    3.9036995301417793E-01 
    3.9026496920870940E-01 
    3.8539033184442067E-01 
    3.7661819844178968E-01 
    3.6509873290873690E-01 
    3.5189357128900528E-01 
    3.3783918072756425E-01 
    3.2355011872712347E-01 
    3.0947365945608701E-01 
    2.9594632043999791E-01 
    2.8316664944817327E-01 
    2.7079806274452278E-01 
    2.6267296238817012E-01 
    2.5893140824588434E-01 
    2.5735491443511443E-01 
    2.5731830702886577E-01 
    3.6812540047720221E-01 
    3.6851511732647479E-01 
    3.6514682216498351E-01 
    3.5844227136723061E-01 
    3.4908847688555400E-01 
    3.3783387344181742E-01 
    3.2536256317580248E-01 
    3.1225143192540272E-01 
    2.9897710970471025E-01 
    2.8594049851091624E-01 
    2.7340909592264062E-01 
    2.6099633906523906E-01 
    2.5330153638612180E-01 
    2.4992131822250938E-01 
    2.4861693183060554E-01 
    2.4887153146778407E-01 
    3.4870493778585793E-01 
    3.4927038584206654E-01 
    3.4673058634354881E-01 
    3.4130115360673985E-01 
    3.3339824112819721E-01 
    3.2353632081849493E-01 
    3.1224210445103945E-01 
    3.0001066892166600E-01 
    2.8730390025518177E-01 
    2.7456071230901696E-01 
    2.6212121364311053E-01 
    2.4960583304408154E-01 
    2.4238957787088816E-01 
    2.3932991427161168E-01 
    2.3821847406861207E-01 
    2.3873185340558115E-01 
    3.3155190623711056E-01 
    3.3212245491035874E-01 
    3.3001605999418432E-01 
    3.2534926989922580E-01 
    3.1837783466150626E-01 
    3.0945043763787505E-01 
    2.9895699417242988E-01 
    2.8729027744882307E-01 
    2.7485306511864721E-01 
    2.6208313782901704E-01 
    2.4932447534716901E-01 
    2.3690157690318786E-01 
    2.3016739294072977E-01 
    2.2724449317794621E-01 
    2.2613251487666230E-01 
    2.2682170355733058E-01 
    3.1636001036421391E-01 
    3.1683351460484638E-01 
    3.1491692501495405E-01 
    3.1067520019106137E-01 
    3.0426377440142216E-01 
    2.9591486943738116E-01 
    2.8590847954356252E-01 
    2.7452769485497408E-01 
    2.6205434691281260E-01 
    2.4887447081837707E-01 
    2.3510963840692084E-01 
    2.2328207834442340E-01 
    2.1691605037579847E-01 
    2.1372946485185362E-01 
    2.1226193414096600E-01 
    2.1296618098749168E-01 
    3.0287024651916739E-01 
    3.0318427664664543E-01 
    3.0131126052966206E-01 
    2.9727780546563926E-01 
    2.9116651114068820E-01 
    2.8312860198686279E-01 
    2.7336605764974153E-01 
    2.6206671352961297E-01 
    2.4923649288105229E-01 
    2.3503461571386711E-01 
    2.2106344729103339E-01 
    2.1027427398296794E-01 
    2.0337852522437763E-01 
    1.9887998638218490E-01 
    1.9638590843027734E-01 
    1.9679390971348068E-01 
    2.9025498601395539E-01 
    2.9039888509460898E-01 
    2.8858494295235970E-01 
    2.8470088398568777E-01 
    2.7872429611149457E-01 
    2.7074459123890665E-01 
    2.6093085350816592E-01 
    2.4953517220607083E-01 
    2.3683788524221347E-01 
    2.2326032506407784E-01 
    2.1030448992741405E-01 
    1.9929228577285982E-01 
    1.9020464726126529E-01 
    1.8278014300306111E-01 
    1.7805474593433701E-01 
    1.7754743686156280E-01 
    2.8295556131502769E-01 
    2.8241746634683984E-01 
    2.8019536558898961E-01 
    2.7616975081555956E-01 
    2.7030279000393909E-01 
    2.6263311373458093E-01 
    2.5325856528918944E-01 
    2.4235313249678170E-01 
    2.3015596766885155E-01 
    2.1693453067475998E-01 
    2.0342595227339738E-01 
    1.9023573748075287E-01 
    1.7731806386296187E-01 
    1.6536937784762834E-01 
    1.5646287329931552E-01 
    1.5370952256523643E-01 
    2.7914812871759742E-01 
    2.7832161921511822E-01 
    2.7595092964058493E-01 
    2.7194543347510797E-01 
    2.6626194821414112E-01 
    2.5890031281319048E-01 
    2.4989391448437281E-01 
    2.3931121488832655E-01 
    2.2724654956255197E-01 
    2.1374688439906386E-01 
    1.9890538507826674E-01 
    1.8280110851031486E-01 
    1.6537760289199932E-01 
    1.4717032854614295E-01 
    1.3068872908148785E-01 
    1.2222879965332960E-01 
    2.7694492510865376E-01 
    2.7601497876929387E-01 
    2.7369142587912992E-01 
    2.6984785750577273E-01 
    2.6440579050805091E-01 
    2.5732553096643690E-01 
    2.4859294018515038E-01 
    2.3820263271914022E-01 
    2.2612893988760971E-01 
    2.1226945371574418E-01 
    1.9640006669768026E-01 
    1.7806892000041763E-01 
    1.5647192933904344E-01 
    1.3069237383734639E-01 
    1.0114904392197067E-01 
    7.6471227386950544E-02 
    2.7601996384628175E-01 
    2.7509449394418650E-01 
    2.7289776398697124E-01 
    2.6926187681222241E-01 
    2.6408053622643879E-01 
    2.5728951507379977E-01 
    2.4884818685938509E-01 
    2.3871599823213990E-01 
    2.2681540702241151E-01 
    2.1296904974565722E-01 
    1.9680300754877200E-01 
    1.7755827909987143E-01 
    1.5371818876283064E-01 
    1.2223381761309907E-01 
    7.6473074266142749E-02 
    0.0000000000000000E+00 

SCALARS Saturarion double 1 
LOOKUP_TABLE default 

    1.0000000001397638E+00 
    9.9489305356088098E-01 
    9.8488698294278765E-01 
    9.6940333553430358E-01 
    9.5038663922555111E-01 
    9.2883079826919113E-01 
    9.0517146275567983E-01 
    8.7982970999417420E-01 
    8.5337307739854851E-01 
    8.2599171526801063E-01 
    7.8839872838504088E-01 
    6.3336617749912449E-01 
    4.0849866205704355E-02 
    9.7402963209954678E-06 
    1.0000001791640636E-06 
    1.0000000000000002E-06 
    9.9491125696779181E-01 
    9.9138467914159412E-01 
    9.8178647162945976E-01 
    9.6696998570650217E-01 
    9.4879981812427894E-01 
    9.2804553557243308E-01 
    9.0512134870715244E-01 
    8.8042687402178843E-01 
    8.5451056614657472E-01 
    8.2749604502873675E-01 
    7.9270522134765642E-01 
    6.7626437070179690E-01 
    9.5577352440217020E-02 
    1.2796401521429651E-04 
    1.0000332654597725E-06 
    1.0000000000000527E-06 
    9.8499086773230571E-01 
    9.8187682807478815E-01 
    9.7295128613020720E-01 
    9.5982321758540112E-01 
    9.4318320089132990E-01 
    9.2386397503076245E-01 
    9.0230896214110090E-01 
    8.7892176668408362E-01 
    8.5420162171070146E-01 
    8.2771621686709484E-01 
    7.9526601431202559E-01 
    7.0311773293971036E-01 
    1.4236178232799387E-01 
    1.3525071042833848E-04 
    1.0001376365992471E-06 
    1.0000000000004715E-06 
    9.6944141633981595E-01 
    9.6700055835874621E-01 
    9.5983617544643418E-01 
    9.4836756003560296E-01 
    9.3365475159645861E-01 
    9.1612228546480468E-01 
    8.9626178775568843E-01 
    8.7453506848870199E-01 
    8.5141321397476721E-01 
    8.2637500439557221E-01 
    7.9556939468321597E-01 
    7.1500879917524396E-01 
    1.7082997147536697E-01 
    3.5633847357240373E-05 
    1.0000004970265398E-06 
    1.0000000000000036E-06 
    9.5037503692410674E-01 
    9.4879345083528632E-01 
    9.4317220930016754E-01 
    9.3364216984996606E-01 
    9.2070508087508263E-01 
    9.0518998575841481E-01 
    8.8734303125702774E-01 
    8.6755823431941981E-01 
    8.4621966673269822E-01 
    8.2286925749376616E-01 
    7.9341108115358860E-01 
    7.1913825039339274E-01 
    1.8111867378004257E-01 
    3.5853565603547305E-05 
    1.0000003286176300E-06 
    1.0000000000000031E-06 
    9.2879146232627963E-01 
    9.2802542645786890E-01 
    9.2384754653247503E-01 
    9.1609549339118801E-01 
    9.0517053864311037E-01 
    8.9160116179476689E-01 
    8.7598073301370150E-01 
    8.5835929018607993E-01 
    8.3884328949398912E-01 
    8.1753889830823889E-01 
    7.8930008467267276E-01 
    7.1283209500021871E-01 
    1.6459057584460501E-01 
    7.3802974374274300E-06 
    1.0000026446518774E-06 
    1.0000000000000419E-06 
    9.0515134772838368E-01 
    9.0512098765738813E-01 
    9.0231522700067956E-01 
    8.9625274202783745E-01 
    8.8733022548961671E-01 
    8.7597200969674061E-01 
    8.6247804152021634E-01 
    8.4703628604797587E-01 
    8.2948255899788148E-01 
    8.1029789311425759E-01 
    7.8354816802132077E-01 
    6.9760387868473561E-01 
    1.2812002911409887E-01 
    6.6023020639291763E-06 
    1.0000012149161243E-06 
    1.0000000000000091E-06 
    8.7963127028752119E-01 
    8.8025493484609552E-01 
    8.7874051937099418E-01 
    8.7436664565083233E-01 
    8.6743445804684138E-01 
    8.5829016435658345E-01 
    8.4707326810618955E-01 
    8.3393397089175880E-01 
    8.1865089958266379E-01 
    8.0092407911629715E-01 
    7.7443042423053898E-01 
    6.7122096489781369E-01 
    8.2800435586327339E-02 
    8.2467809878628819E-06 
    1.0000012909556266E-06 
    1.0000000000000084E-06 
    8.5293602250096789E-01 
    8.5410988636186080E-01 
    8.5384194189183771E-01 
    8.5112234328809411E-01 
    8.4607071112923971E-01 
    8.3886726277214907E-01 
    8.2970386356023162E-01 
    8.1884221782462374E-01 
    8.0640521922084851E-01 
    7.9059165036499424E-01 
    7.6154810367995895E-01 
    6.0557837310076734E-01 
    2.6638575425905905E-02 
    2.9362201239505418E-06 
    1.0000000901774382E-06 
    1.0000000000000002E-06 
    8.2548697593558640E-01 
    8.2723606709708586E-01 
    8.2799494686263997E-01 
    8.2670704246944904E-01 
    8.2299454818852780E-01 
    8.1754547725420568E-01 
    8.1027452115152521E-01 
    8.0094248481182306E-01 
    7.9072231841853280E-01 
    7.7714726903422937E-01 
    7.4098564101097897E-01 
    4.2200052714907615E-01 
    1.6977190810001765E-03 
    1.0935892184590953E-06 
    1.0000000027697509E-06 
    1.0000000000000002E-06 
    7.8858312753467041E-01 
    7.9200583738774810E-01 
    7.9513531532898329E-01 
    7.9569540191483701E-01 
    7.9348068489315615E-01 
    7.8936903024008054E-01 
    7.8348055105652548E-01 
    7.7442135960295211E-01 
    7.6148930497003320E-01 
    7.3979908861003485E-01 
    6.5563507908448115E-01 
    1.2069554497789914E-01 
    4.5751796693625991E-04 
    1.0037329067230264E-06 
    1.0000000002306432E-06 
    9.9999999999999995E-07 
    6.3354861971596943E-01 
    6.7671733251936694E-01 
    7.0234346223005339E-01 
    7.1521951413365625E-01 
    7.1872754947190132E-01 
    7.1136147639887770E-01 
    6.9607993170289773E-01 
    6.6752972017313583E-01 
    5.9381494186601624E-01 
    3.9998535966469151E-01 
    1.1209283263867649E-01 
    8.7471524042494512E-04 
    1.0447438135835984E-06 
    1.0000000032663041E-06 
    9.9999999999999995E-07 
    9.9999999999999995E-07 
    4.1174226567325417E-02 
    9.5509291445637703E-02 
    1.4346977036149289E-01 
    1.7270721094636265E-01 
    1.7910087741142158E-01 
    1.6179080974155421E-01 
    1.2778511696910935E-01 
    7.7768833270645710E-02 
    2.1446442851773728E-02 
    6.9892943477485462E-04 
    2.3264477618067180E-04 
    1.0293445051151588E-06 
    1.0000000052872840E-06 
    1.0000000000000008E-06 
    9.9999999999999995E-07 
    9.9999999999999995E-07 
    1.1860346141024326E-05 
    7.6462196426281139E-05 
    1.4616299527002685E-04 
    2.4358159202972723E-06 
    2.6600115576035455E-06 
    2.0213933679939117E-05 
    7.3071135950526873E-06 
    8.1447420946113661E-06 
    2.3359709977072182E-06 
    1.0070215587168151E-06 
    1.0020828313766160E-06 
    1.0000000019589934E-06 
    1.0000000000000008E-06 
    9.9999999999999995E-07 
    9.9999999999999995E-07 
    9.9999999999999995E-07 
    1.0000001772413765E-06 
    1.0000222858596379E-06 
    1.0001748360737420E-06 
    1.0000001072712001E-06 
    1.0000000858529143E-06 
    1.0000042835562367E-06 
    1.0000015044100223E-06 
    1.0000011548769312E-06 
    1.0000000509550035E-06 
    1.0000000002730910E-06 
    1.0000000000294432E-06 
    9.9999999999999995E-07 
    9.9999999999999995E-07 
    9.9999999999999995E-07 
    9.9999999999999995E-07 
    9.9999999999999995E-07 
    1.0000000000000004E-06 
    1.0000000000000465E-06 
    1.0000000000010371E-06 
    1.0000000000000025E-06 
    1.0000000000000012E-06 
    1.0000000000000944E-06 
    1.0000000000000205E-06 
    1.0000000000000088E-06 
    1.0000000000000002E-06 
    9.9999999999999995E-07 
    9.9999999999999995E-07 
    9.9999999999999995E-07 
    9.9999999999999995E-07 
    9.9999999999999995E-07 
    9.9999999999999995E-07 
    1.0000000415293041E-06 
