# vtk DataFile Version 2.0
Pressure Field Data 
ASCII 
DATASET UNSTRUCTURED_GRID 

POINTS 289 double 

    0.0000000000000000E+00     0.0000000000000000E+00     0.0000000000000000E+00 
    1.0000000000000000E+00     0.0000000000000000E+00     0.0000000000000000E+00 
    1.0000000000000000E+00     1.0000000000000000E+00     0.0000000000000000E+00 
    0.0000000000000000E+00     1.0000000000000000E+00     0.0000000000000000E+00 
    6.2499999999872928E-02     0.0000000000000000E+00     0.0000000000000000E+00 
    1.2499999999977310E-01     0.0000000000000000E+00     0.0000000000000000E+00 
    1.8749999999959341E-01     0.0000000000000000E+00     0.0000000000000000E+00 
    2.4999999999941089E-01     0.0000000000000000E+00     0.0000000000000000E+00 
    3.1249999999922851E-01     0.0000000000000000E+00     0.0000000000000000E+00 
    3.7499999999904610E-01     0.0000000000000000E+00     0.0000000000000000E+00 
    4.3749999999886358E-01     0.0000000000000000E+00     0.0000000000000000E+00 
    4.9999999999869210E-01     0.0000000000000000E+00     0.0000000000000000E+00 
    5.6249999999884603E-01     0.0000000000000000E+00     0.0000000000000000E+00 
    6.2499999999901090E-01     0.0000000000000000E+00     0.0000000000000000E+00 
    6.8749999999917577E-01     0.0000000000000000E+00     0.0000000000000000E+00 
    7.4999999999934064E-01     0.0000000000000000E+00     0.0000000000000000E+00 
    8.1249999999950551E-01     0.0000000000000000E+00     0.0000000000000000E+00 
    8.7499999999967026E-01     0.0000000000000000E+00     0.0000000000000000E+00 
    9.3749999999983513E-01     0.0000000000000000E+00     0.0000000000000000E+00 
    1.0000000000000000E+00     6.2499999999872928E-02     0.0000000000000000E+00 
    1.0000000000000000E+00     1.2499999999977310E-01     0.0000000000000000E+00 
    1.0000000000000000E+00     1.8749999999959341E-01     0.0000000000000000E+00 
    1.0000000000000000E+00     2.4999999999941089E-01     0.0000000000000000E+00 
    1.0000000000000000E+00     3.1249999999922851E-01     0.0000000000000000E+00 
    1.0000000000000000E+00     3.7499999999904610E-01     0.0000000000000000E+00 
    1.0000000000000000E+00     4.3749999999886358E-01     0.0000000000000000E+00 
    1.0000000000000000E+00     4.9999999999869210E-01     0.0000000000000000E+00 
    1.0000000000000000E+00     5.6249999999884603E-01     0.0000000000000000E+00 
    1.0000000000000000E+00     6.2499999999901090E-01     0.0000000000000000E+00 
    1.0000000000000000E+00     6.8749999999917577E-01     0.0000000000000000E+00 
    1.0000000000000000E+00     7.4999999999934064E-01     0.0000000000000000E+00 
    1.0000000000000000E+00     8.1249999999950551E-01     0.0000000000000000E+00 
    1.0000000000000000E+00     8.7499999999967026E-01     0.0000000000000000E+00 
    1.0000000000000000E+00     9.3749999999983513E-01     0.0000000000000000E+00 
    9.3749999999973976E-01     1.0000000000000000E+00     0.0000000000000000E+00 
    8.7499999999950118E-01     1.0000000000000000E+00     0.0000000000000000E+00 
    8.1249999999991318E-01     1.0000000000000000E+00     0.0000000000000000E+00 
    7.5000000000034706E-01     1.0000000000000000E+00     0.0000000000000000E+00 
    6.8750000000078049E-01     1.0000000000000000E+00     0.0000000000000000E+00 
    6.2500000000121403E-01     1.0000000000000000E+00     0.0000000000000000E+00 
    5.6250000000164757E-01     1.0000000000000000E+00     0.0000000000000000E+00 
    5.0000000000205946E-01     1.0000000000000000E+00     0.0000000000000000E+00 
    4.3750000000182099E-01     1.0000000000000000E+00     0.0000000000000000E+00 
    3.7500000000156092E-01     1.0000000000000000E+00     0.0000000000000000E+00 
    3.1250000000130068E-01     1.0000000000000000E+00     0.0000000000000000E+00 
    2.5000000000104050E-01     1.0000000000000000E+00     0.0000000000000000E+00 
    1.8750000000078040E-01     1.0000000000000000E+00     0.0000000000000000E+00 
    1.2500000000052031E-01     1.0000000000000000E+00     0.0000000000000000E+00 
    6.2500000000260125E-02     1.0000000000000000E+00     0.0000000000000000E+00 
    0.0000000000000000E+00     9.3749999999973976E-01     0.0000000000000000E+00 
    0.0000000000000000E+00     8.7499999999950118E-01     0.0000000000000000E+00 
    0.0000000000000000E+00     8.1249999999991318E-01     0.0000000000000000E+00 
    0.0000000000000000E+00     7.5000000000034706E-01     0.0000000000000000E+00 
    0.0000000000000000E+00     6.8750000000078049E-01     0.0000000000000000E+00 
    0.0000000000000000E+00     6.2500000000121403E-01     0.0000000000000000E+00 
    0.0000000000000000E+00     5.6250000000164757E-01     0.0000000000000000E+00 
    0.0000000000000000E+00     5.0000000000205946E-01     0.0000000000000000E+00 
    0.0000000000000000E+00     4.3750000000182099E-01     0.0000000000000000E+00 
    0.0000000000000000E+00     3.7500000000156092E-01     0.0000000000000000E+00 
    0.0000000000000000E+00     3.1250000000130068E-01     0.0000000000000000E+00 
    0.0000000000000000E+00     2.5000000000104050E-01     0.0000000000000000E+00 
    0.0000000000000000E+00     1.8750000000078040E-01     0.0000000000000000E+00 
    0.0000000000000000E+00     1.2500000000052031E-01     0.0000000000000000E+00 
    0.0000000000000000E+00     6.2500000000260125E-02     0.0000000000000000E+00 
    6.2499999999897131E-02     6.2500000000235922E-02     0.0000000000000000E+00 
    6.2499999999921327E-02     1.2500000000047351E-01     0.0000000000000000E+00 
    6.2499999999945530E-02     1.8750000000070621E-01     0.0000000000000000E+00 
    6.2499999999969733E-02     2.5000000000093858E-01     0.0000000000000000E+00 
    6.2499999999993928E-02     3.1250000000117117E-01     0.0000000000000000E+00 
    6.2500000000018124E-02     3.7500000000140382E-01     0.0000000000000000E+00 
    6.2500000000042327E-02     4.3750000000163619E-01     0.0000000000000000E+00 
    6.2500000000066530E-02     5.0000000000184897E-01     0.0000000000000000E+00 
    6.2500000000090733E-02     5.6250000000147260E-01     0.0000000000000000E+00 
    6.2500000000114922E-02     6.2500000000107636E-01     0.0000000000000000E+00 
    6.2500000000139125E-02     6.8750000000068034E-01     0.0000000000000000E+00 
    6.2500000000163328E-02     7.5000000000028411E-01     0.0000000000000000E+00 
    6.2500000000187531E-02     8.1249999999988787E-01     0.0000000000000000E+00 
    6.2500000000211720E-02     8.7499999999951172E-01     0.0000000000000000E+00 
    6.2500000000235922E-02     9.3749999999974565E-01     0.0000000000000000E+00 
    1.2499999999981980E-01     6.2500000000211733E-02     0.0000000000000000E+00 
    1.2499999999986650E-01     1.2500000000042691E-01     0.0000000000000000E+00 
    1.2499999999991319E-01     1.8750000000063199E-01     0.0000000000000000E+00 
    1.2499999999995989E-01     2.5000000000083678E-01     0.0000000000000000E+00 
    1.2500000000000661E-01     3.1250000000104172E-01     0.0000000000000000E+00 
    1.2500000000005329E-01     3.7500000000124661E-01     0.0000000000000000E+00 
    1.2500000000010000E-01     4.3750000000145117E-01     0.0000000000000000E+00 
    1.2500000000014669E-01     5.0000000000163858E-01     0.0000000000000000E+00 
    1.2500000000019340E-01     5.6250000000129741E-01     0.0000000000000000E+00 
    1.2500000000024011E-01     6.2500000000093847E-01     0.0000000000000000E+00 
    1.2500000000028680E-01     6.8750000000057998E-01     0.0000000000000000E+00 
    1.2500000000033351E-01     7.5000000000022127E-01     0.0000000000000000E+00 
    1.2500000000038020E-01     8.1249999999986211E-01     0.0000000000000000E+00 
    1.2500000000042691E-01     8.7499999999952238E-01     0.0000000000000000E+00 
    1.2500000000047359E-01     9.3749999999975164E-01     0.0000000000000000E+00 
    1.8749999999966760E-01     6.2500000000187531E-02     0.0000000000000000E+00 
    1.8749999999974179E-01     1.2500000000038020E-01     0.0000000000000000E+00 
    1.8749999999981601E-01     1.8750000000055780E-01     0.0000000000000000E+00 
    1.8749999999989009E-01     2.5000000000073502E-01     0.0000000000000000E+00 
    1.8749999999996431E-01     3.1250000000091221E-01     0.0000000000000000E+00 
    1.8750000000003850E-01     3.7500000000108941E-01     0.0000000000000000E+00 
    1.8750000000011269E-01     4.3750000000126649E-01     0.0000000000000000E+00 
    1.8750000000018691E-01     5.0000000000142808E-01     0.0000000000000000E+00 
    1.8750000000026110E-01     5.6250000000112244E-01     0.0000000000000000E+00 
    1.8750000000033529E-01     6.2500000000080080E-01     0.0000000000000000E+00 
    1.8750000000040951E-01     6.8750000000047962E-01     0.0000000000000000E+00 
    1.8750000000048361E-01     7.5000000000015843E-01     0.0000000000000000E+00 
    1.8750000000055780E-01     8.1249999999983680E-01     0.0000000000000000E+00 
    1.8750000000063199E-01     8.7499999999953304E-01     0.0000000000000000E+00 
    1.8750000000070621E-01     9.3749999999975764E-01     0.0000000000000000E+00 
    2.4999999999951281E-01     6.2500000000163314E-02     0.0000000000000000E+00 
    2.4999999999961461E-01     1.2500000000033351E-01     0.0000000000000000E+00 
    2.4999999999971650E-01     1.8750000000048361E-01     0.0000000000000000E+00 
    2.4999999999981831E-01     2.5000000000063310E-01     0.0000000000000000E+00 
    2.4999999999992020E-01     3.1250000000078260E-01     0.0000000000000000E+00 
    2.5000000000002198E-01     3.7500000000093209E-01     0.0000000000000000E+00 
    2.5000000000012390E-01     4.3750000000108180E-01     0.0000000000000000E+00 
    2.5000000000022571E-01     5.0000000000121769E-01     0.0000000000000000E+00 
    2.5000000000032763E-01     5.6250000000094724E-01     0.0000000000000000E+00 
    2.5000000000042938E-01     6.2500000000066314E-01     0.0000000000000000E+00 
    2.5000000000053119E-01     6.8750000000037925E-01     0.0000000000000000E+00 
[...]
CELL_DATA 256 
SCALARS Pressure double 1 
LOOKUP_TABLE default 

    6.2686604711139249E-01 
    5.2972500427950708E-01 
    4.6958577732187534E-01 
    4.2601341875998022E-01 
    3.9116231483642877E-01 
    3.6161194471302727E-01 
    3.3562325244624652E-01 
    3.1148192092379701E-01 
    2.9480647135830873E-01 
    2.8499423970965215E-01 
    2.7793335909496264E-01 
    2.7240007725398452E-01 
    2.6825944376438493E-01 
    2.6539101175439556E-01 
    2.6366997706810719E-01 
    2.6294643207563401E-01 
    5.2972663841414391E-01 
    4.9758670332576332E-01 
    4.5793218737991831E-01 
    4.2168448300692074E-01 
    3.8979352111711640E-01 
    3.6155685728109904E-01 
    3.3614042549539186E-01 
    3.1209617320463234E-01 
    2.9504759456566865E-01 
    2.8495764836775356E-01 
    2.7772932966017888E-01 
    2.7203406949656694E-01 
    2.6774147145097055E-01 
    2.6474623135844644E-01 
    2.6294478848498831E-01 
    2.6222271934649383E-01 
    4.6959550231459390E-01 
    4.5793788291482412E-01 
    4.3468962910004494E-01 
    4.0796263736083310E-01 
    3.8134498235714953E-01 
    3.5607686882616629E-01 
    3.3236914285046953E-01 
    3.0914428978333874E-01 
    2.9294252833493900E-01 
    2.8319092176124172E-01 
    2.7602230085670293E-01 
    2.7030398571125697E-01 
    2.6596252221870587E-01 
    2.6293111032511118E-01 
    2.6113849057390875E-01 
    2.6050388641677874E-01 
    4.2602415276660172E-01 
    4.2169136850081340E-01 
    4.0796393308548745E-01 
    3.8896766696375390E-01 
    3.6774813355746122E-01 
    3.4605806390517724E-01 
    3.2467645530677697E-01 
    3.0311676192384424E-01 
    2.8871818883623462E-01 
    2.7979415713119737E-01 
    2.7283409945085180E-01 
    2.6719396792961020E-01 
    2.6287705168061232E-01 
    2.5987081928778616E-01 
    2.5814414403191671E-01 
    2.5764763660158502E-01 
    3.9116868282449047E-01 
    3.8979499288606662E-01 
    3.8133911689889521E-01 
    3.6773951448005004E-01 
    3.5099469955051704E-01 
    3.3263996158507131E-01 
    3.1329838760645418E-01 
    2.9490690417850701E-01 
    2.8293126799889262E-01 
    2.7495965074990941E-01 
    2.6826175159819782E-01 
    2.6273430578704221E-01 
    2.5846625389899697E-01 
    2.5550785781070628E-01 
    2.5387335242614151E-01 
    2.5354340590597813E-01 
    3.6159679275256856E-01 
    3.6153731572720166E-01 
    3.5605457952137137E-01 
    3.4603489721255626E-01 
    3.3261794745382656E-01 
    3.1687917117229636E-01 
    2.9989960035535301E-01 
    2.8583022077044484E-01 
    2.7625925530294465E-01 
    2.6895467215113206E-01 
    2.6245554276557026E-01 
    2.5699179709666220E-01 
    2.5273302433811634E-01 
    2.4979640973398867E-01 
    2.4824607582807992E-01 
    2.4809248811746260E-01 
    3.3559926015327451E-01 
    3.3611376702303486E-01 
    3.3233617667329252E-01 
    3.2464297907592082E-01 
    3.1324188420590027E-01 
    2.9986921619794638E-01 
    2.8723434730808745E-01 
    2.7715578071255137E-01 
    2.6917242800425789E-01 
    2.6205995750430977E-01 
    2.5559193268871155E-01 
    2.5005482221971642E-01 
    2.4569137968366855E-01 
    2.4269095050222222E-01 
    2.4117578510375462E-01 
    2.4118917800772929E-01 
    3.1146728517379113E-01 
    3.1207948811465808E-01 
    3.0910394408208891E-01 
    3.0308108165789743E-01 
    2.9488696712404733E-01 
    2.8583030918853214E-01 
    2.7717189624882843E-01 
    2.6922746475285375E-01 
    2.6176591662800713E-01 
    2.5453812428886391E-01 
    2.4785277524027913E-01 
    2.4202159342439009E-01 
    2.3735612803794409E-01 
    2.3413214864241877E-01 
    2.3254996965440669E-01 
    2.3269789053329429E-01 
    2.9479181289522716E-01 
    2.9503189519912293E-01 
    2.9292517482877095E-01 
    2.8871420055380004E-01 
    2.8294215870681022E-01 
    2.7627437262542465E-01 
    2.6919570870312348E-01 
    2.6177428373610334E-01 
    2.5414547591301340E-01 
    2.4658857019652058E-01 
    2.3941775397143161E-01 
    2.3300039882011697E-01 
    2.2773969814174946E-01 
    2.2403345213146350E-01 
    2.2220504693790868E-01 
    2.2242175310620768E-01 
    2.8498303285443577E-01 
    2.8494770766105548E-01 
    2.8318606706807925E-01 
    2.7980183554979177E-01 
    2.7497537705823855E-01 
    2.6896515465891874E-01 
    2.6207362770486864E-01 
    2.5454667323881403E-01 
    2.4659189685528685E-01 
    2.3846971419372270E-01 
    2.3051085407338320E-01 
    2.2313734539391847E-01 
    2.1686624584984671E-01 
    2.1227357769319807E-01 
    2.0989345930282091E-01 
    2.1005485565848667E-01 
    2.7792701175665968E-01 
    2.7772422472764258E-01 
    2.7602081794283839E-01 
    2.7283851727375452E-01 
    2.6827031522605427E-01 
    2.6246416195500383E-01 
    2.5560088186379482E-01 
    2.4785976145410676E-01 
    2.3942187447802241E-01 
    2.3051251581372179E-01 
    2.2144432335477574E-01 
    2.1266712222798606E-01 
    2.0481386797400020E-01 
    1.9870511602001187E-01 
    1.9523959157193452E-01 
    1.9510107139746427E-01 
    2.7239658969421565E-01 
    2.7203136289441676E-01 
    2.7030338411944727E-01 
    2.6719646505124378E-01 
    2.6273942072840600E-01 
    2.5699795404609160E-01 
    2.5006121222529210E-01 
    2.4202712689097766E-01 
    2.3300437153347273E-01 
    2.2313967297679504E-01 
    2.1266809275833087E-01 
    2.0199438056142360E-01 
    1.9180919975525906E-01 
    1.8320849288255942E-01 
    1.7768575280707133E-01 
    1.7671943933404552E-01 
    2.6825763487483339E-01 
    2.6774015074933871E-01 
    2.6596245561584841E-01 
    2.6287876689873169E-01 
    2.5846964721204307E-01 
    2.5273743100273516E-01 
    2.4569613591409620E-01 
    2.3736054888119101E-01 
    2.2774326655256882E-01 
    2.1686874789259147E-01 
    2.0481534613699931E-01 
    1.9180983220362915E-01 
    1.7841764408715277E-01 
    1.6587196136736593E-01 
    1.5646278348391185E-01 
    1.5339495591346045E-01 
    2.6539016236857654E-01 
    2.6474570715537649E-01 
    2.6293137966552144E-01 
    2.5987220361555624E-01 
    2.5551036621456930E-01 
    2.4979973745253869E-01 
    2.4269466504334788E-01 
    2.3413578639528540E-01 
    2.2403662530750512E-01 
    2.1227605653505693E-01 
    1.9870683673517309E-01 
    1.8320951235417818E-01 
    1.6587240041873053E-01 
    1.4749545112010609E-01 
    1.3078369237977441E-01 
    1.2215411163123401E-01 
    2.6366963216706191E-01 
    2.6294468672166021E-01 
    2.6113894421848743E-01 
    2.5814537448716662E-01 
    2.5387540170382900E-01 
    2.4824878921051846E-01 
    2.4117888017495909E-01 
    2.3255311402984158E-01 
    2.2220793556395468E-01 
    2.0989587486318803E-01 
    1.9524142759379298E-01 
    1.7768700181094529E-01 
    1.5646350778135099E-01 
    1.3078399427089096E-01 
    1.0120620748348709E-01 
    7.6469146593336854E-02 
    2.6294628500544659E-01 
    2.6222277482457701E-01 
    2.6050438623571937E-01 
    2.5764876364706468E-01 
    2.5354521735027824E-01 
    2.4809489258272377E-01 
    2.4119196701292175E-01 
    2.3270079571798094E-01 
    2.2242450931183452E-01 
    2.1005725338436371E-01 
    1.9510298506308801E-01 
    1.7672082913205397E-01 
    1.5339585207353282E-01 
    1.2215459288276750E-01 
    7.6469322052800187E-02 
    0.0000000000000000E+00 

SCALARS Saturarion double 1 
LOOKUP_TABLE default 

    1.0000000027631950E+00 
    9.8880878030747965E-01 
    9.6369892348364727E-01 
    9.3110891852884758E-01 
    8.9474250543027634E-01 
    8.5704616574539627E-01 
    8.1559970297511386E-01 
    7.2507485028139906E-01 
    1.5808496906509545E-01 
    2.1537155603731659E-04 
    1.0002745621126050E-06 
    1.0000000000005243E-06 
    9.9999999999999995E-07 
    9.9999999999999995E-07 
    9.9999999999999995E-07 
    9.9999999999999995E-07 
    9.8897641613758291E-01 
    9.8018126797969363E-01 
    9.5680416531055590E-01 
    9.2632722152234359E-01 
    8.9178787508985013E-01 
    8.5563773262202525E-01 
    8.1432402340944476E-01 
    7.3461209590236409E-01 
    1.9213210807009082E-01 
    1.8793556644380393E-06 
    1.0000001746498949E-06 
    1.0000000000000014E-06 
    9.9999999999999995E-07 
    9.9999999999999995E-07 
    9.9999999999999995E-07 
    9.9999999999999995E-07 
    9.6375989161094922E-01 
    9.5683123483166133E-01 
    9.3839717754092244E-01 
    9.1254562097255465E-01 
    8.8167460727447089E-01 
    8.4873539525686437E-01 
    8.0933550127421994E-01 
    7.2424636354299676E-01 
    1.6011630868976495E-01 
    5.1327193512211336E-04 
    1.0026069925766451E-06 
    1.0000000000625423E-06 
    9.9999999999999995E-07 
    9.9999999999999995E-07 
    9.9999999999999995E-07 
    9.9999999999999995E-07 
    9.3104563750780267E-01 
    9.2626419892529266E-01 
    9.1248823327029094E-01 
    8.9119577158250896E-01 
    8.6534796426214511E-01 
    8.3546184116735422E-01 
    7.9679868158736622E-01 
    6.8071074726900038E-01 
    9.7649876233325855E-02 
    2.1938466868000626E-04 
    1.0001019312440479E-06 
    1.0000000000051478E-06 
    9.9999999999999995E-07 
    9.9999999999999995E-07 
    9.9999999999999995E-07 
    9.9999999999999995E-07 
    8.9457033596387037E-01 
    8.9160144750103176E-01 
    8.8148884170123587E-01 
    8.6525873954359256E-01 
    8.4377711670120747E-01 
    8.1637926981224751E-01 
    7.7144850530978404E-01 
    5.4099830446337560E-01 
    1.2720965642299392E-02 
    1.1386325835842143E-05 
    1.0000026639920581E-06 
    1.0000000000000254E-06 
    9.9999999999999995E-07 
    9.9999999999999995E-07 
    9.9999999999999995E-07 
    9.9999999999999995E-07 
    8.5612774989674389E-01 
    8.5483517156450606E-01 
    8.4823414446170420E-01 
    8.3554424282867656E-01 
    8.1664835696243399E-01 
    7.8972245400311725E-01 
    7.1274024310142325E-01 
    2.0810126021355246E-01 
    1.6729096700774026E-03 
    1.1057457060982010E-06 
    1.0000000120899524E-06 
    1.0000000000000006E-06 
    9.9999999999999995E-07 
    9.9999999999999995E-07 
    9.9999999999999995E-07 
    9.9999999999999995E-07 
    8.1507460216219663E-01 
    8.1534565546474358E-01 
    8.0973610056463641E-01 
    7.9636963590176402E-01 
    7.7141746888688545E-01 
    7.1358345436562087E-01 
    3.5026156533901659E-01 
    4.5996162406624890E-03 
    1.4079546254279102E-06 
    1.0000000662918816E-06 
    1.0000000000000048E-06 
    9.9999999999999995E-07 
    9.9999999999999995E-07 
    9.9999999999999995E-07 
    9.9999999999999995E-07 
    9.9999999999999995E-07 
    7.2510165790258085E-01 
    7.3388666290964810E-01 
    7.2334558583444741E-01 
    6.8157128023567393E-01 
    5.4644969083366746E-01 
    2.0064347275109970E-01 
    4.1778785293959389E-03 
    2.0438390127437664E-06 
    1.0000002372936600E-06 
    1.0000000000000235E-06 
    9.9999999999999995E-07 
    9.9999999999999995E-07 
    9.9999999999999995E-07 
    9.9999999999999995E-07 
    9.9999999999999995E-07 
    9.9999999999999995E-07 
    1.5887649203251689E-01 
    1.9178356740557176E-01 
    1.6299389055559463E-01 
    8.9538901998111015E-02 
    1.8508123326373631E-02 
    9.1589254567746227E-04 
    1.2998089489827137E-06 
    1.0000002406484785E-06 
    1.0000000000000307E-06 
    9.9999999999999995E-07 
    9.9999999999999995E-07 
    9.9999999999999995E-07 
    9.9999999999999995E-07 
    9.9999999999999995E-07 
    9.9999999999999995E-07 
    9.9999999999999995E-07 
    2.1560241050673620E-04 
    1.8084929939651585E-06 
    8.5370774171828072E-06 
    1.5179613680433405E-04 
    2.3794279241762291E-05 
    1.0134421764979938E-06 
    1.0000000523026488E-06 
    1.0000000000000277E-06 
    9.9999999999999995E-07 
    9.9999999999999995E-07 
    9.9999999999999995E-07 
    9.9999999999999995E-07 
    9.9999999999999995E-07 
    9.9999999999999995E-07 
    9.9999999999999995E-07 
    9.9999999999999995E-07 
    1.0002690156231756E-06 
    1.0000001669073096E-06 
    1.0000032941360321E-06 
    1.0000020992273850E-06 
    1.0000045911660849E-06 
    1.0000000016810933E-06 
    1.0000000000000105E-06 
    9.9999999999999995E-07 
    9.9999999999999995E-07 
    9.9999999999999995E-07 
    9.9999999999999995E-07 
    9.9999999999999995E-07 
    9.9999999999999995E-07 
    9.9999999999999995E-07 
    9.9999999999999995E-07 
    9.9999999999999995E-07 
    1.0000000000005097E-06 
    1.0000000000000076E-06 
    1.0000000000000586E-06 
    1.0000000000000508E-06 
    1.0000000000000031E-06 
    1.0000000000000002E-06 
    9.9999999999999995E-07 
    9.9999999999999995E-07 
    9.9999999999999995E-07 
    9.9999999999999995E-07 
    9.9999999999999995E-07 
    9.9999999999999995E-07 
    9.9999999999999995E-07 
    9.9999999999999995E-07 
    9.9999999999999995E-07 
    9.9999999999999995E-07 
    9.9999999999999995E-07 
    9.9999999999999995E-07 
    9.9999999999999995E-07 
    9.9999999999999995E-07 
    9.9999999999999995E-07 
    9.9999999999999995E-07 
    9.9999999999999995E-07 
    9.9999999999999995E-07 
    9.9999999999999995E-07 
    9.9999999999999995E-07 
    9.9999999999999995E-07 
    9.9999999999999995E-07 
    9.9999999999999995E-07 
    9.9999999999999995E-07 
    9.9999999999999995E-07 
    9.9999999999999995E-07 
    9.9999999999999995E-07 
    9.9999999999999995E-07 
    9.9999999999999995E-07 
    9.9999999999999995E-07 
    9.9999999999999995E-07 
    9.9999999999999995E-07 
    9.9999999999999995E-07 
    9.9999999999999995E-07 
    9.9999999999999995E-07 
    9.9999999999999995E-07 
    9.9999999999999995E-07 
    9.9999999999999995E-07 
    9.9999999999999995E-07 
    9.9999999999999995E-07 
    9.9999999999999995E-07 
    9.9999999999999995E-07 
    9.9999999999999995E-07 
    9.9999999999999995E-07 
    9.9999999999999995E-07 
    9.9999999999999995E-07 
    9.9999999999999995E-07 
    9.9999999999999995E-07 
    9.9999999999999995E-07 
    9.9999999999999995E-07 
    9.9999999999999995E-07 
    9.9999999999999995E-07 
    9.9999999999999995E-07 
    9.9999999999999995E-07 
    9.9999999999999995E-07 
    9.9999999999999995E-07 
    9.9999999999999995E-07 
    9.9999999999999995E-07 
    9.9999999999999995E-07 
    9.9999999999999995E-07 
    9.9999999999999995E-07 
    9.9999999999999995E-07 
    9.9999999999999995E-07 
    9.9999999999999995E-07 
    9.9999999999999995E-07 
    9.9999999999999995E-07 
    9.9999999999999995E-07 
    9.9999999999999995E-07 
    9.9999999999999995E-07 
    9.9999999999999995E-07 
    9.9999999999999995E-07 
    9.9999999999999995E-07 
    9.9999999999999995E-07 
    1.0000000174236987E-06 
