# vtk DataFile Version 2.0
Pressure Field Data 
ASCII 
DATASET UNSTRUCTURED_GRID 

POINTS 289 double 

    0.0000000000000000E+00     0.0000000000000000E+00     0.0000000000000000E+00 
    1.0000000000000000E+00     0.0000000000000000E+00     0.0000000000000000E+00 
    1.0000000000000000E+00     1.0000000000000000E+00     0.0000000000000000E+00 
    0.0000000000000000E+00     1.0000000000000000E+00     0.0000000000000000E+00 
    6.2499999999872928E-02     0.0000000000000000E+00     0.0000000000000000E+00 
    1.2499999999977310E-01     0.0000000000000000E+00     0.0000000000000000E+00 
    1.8749999999959341E-01     0.0000000000000000E+00     0.0000000000000000E+00 
    2.4999999999941089E-01     0.0000000000000000E+00     0.0000000000000000E+00 
    3.1249999999922851E-01     0.0000000000000000E+00     0.0000000000000000E+00 
    3.7499999999904610E-01     0.0000000000000000E+00     0.0000000000000000E+00 
    4.3749999999886358E-01     0.0000000000000000E+00     0.0000000000000000E+00 
    4.9999999999869210E-01     0.0000000000000000E+00     0.0000000000000000E+00 
    5.6249999999884603E-01     0.0000000000000000E+00     0.0000000000000000E+00 
    6.2499999999901090E-01     0.0000000000000000E+00     0.0000000000000000E+00 
    6.8749999999917577E-01     0.0000000000000000E+00     0.0000000000000000E+00 
    7.4999999999934064E-01     0.0000000000000000E+00     0.0000000000000000E+00 
    8.1249999999950551E-01     0.0000000000000000E+00     0.0000000000000000E+00 
    8.7499999999967026E-01     0.0000000000000000E+00     0.0000000000000000E+00 
    9.3749999999983513E-01     0.0000000000000000E+00     0.0000000000000000E+00 
    1.0000000000000000E+00     6.2499999999872928E-02     0.0000000000000000E+00 
    1.0000000000000000E+00     1.2499999999977310E-01     0.0000000000000000E+00 
    1.0000000000000000E+00     1.8749999999959341E-01     0.0000000000000000E+00 
    1.0000000000000000E+00     2.4999999999941089E-01     0.0000000000000000E+00 
    1.0000000000000000E+00     3.1249999999922851E-01     0.0000000000000000E+00 
    1.0000000000000000E+00     3.7499999999904610E-01     0.0000000000000000E+00 
    1.0000000000000000E+00     4.3749999999886358E-01     0.0000000000000000E+00 
    1.0000000000000000E+00     4.9999999999869210E-01     0.0000000000000000E+00 
    1.0000000000000000E+00     5.6249999999884603E-01     0.0000000000000000E+00 
    1.0000000000000000E+00     6.2499999999901090E-01     0.0000000000000000E+00 
    1.0000000000000000E+00     6.8749999999917577E-01     0.0000000000000000E+00 
    1.0000000000000000E+00     7.4999999999934064E-01     0.0000000000000000E+00 
    1.0000000000000000E+00     8.1249999999950551E-01     0.0000000000000000E+00 
    1.0000000000000000E+00     8.7499999999967026E-01     0.0000000000000000E+00 
    1.0000000000000000E+00     9.3749999999983513E-01     0.0000000000000000E+00 
    9.3749999999973976E-01     1.0000000000000000E+00     0.0000000000000000E+00 
    8.7499999999950118E-01     1.0000000000000000E+00     0.0000000000000000E+00 
    8.1249999999991318E-01     1.0000000000000000E+00     0.0000000000000000E+00 
    7.5000000000034706E-01     1.0000000000000000E+00     0.0000000000000000E+00 
    6.8750000000078049E-01     1.0000000000000000E+00     0.0000000000000000E+00 
    6.2500000000121403E-01     1.0000000000000000E+00     0.0000000000000000E+00 
    5.6250000000164757E-01     1.0000000000000000E+00     0.0000000000000000E+00 
    5.0000000000205946E-01     1.0000000000000000E+00     0.0000000000000000E+00 
    4.3750000000182099E-01     1.0000000000000000E+00     0.0000000000000000E+00 
    3.7500000000156092E-01     1.0000000000000000E+00     0.0000000000000000E+00 
    3.1250000000130068E-01     1.0000000000000000E+00     0.0000000000000000E+00 
    2.5000000000104050E-01     1.0000000000000000E+00     0.0000000000000000E+00 
    1.8750000000078040E-01     1.0000000000000000E+00     0.0000000000000000E+00 
    1.2500000000052031E-01     1.0000000000000000E+00     0.0000000000000000E+00 
    6.2500000000260125E-02     1.0000000000000000E+00     0.0000000000000000E+00 
    0.0000000000000000E+00     9.3749999999973976E-01     0.0000000000000000E+00 
    0.0000000000000000E+00     8.7499999999950118E-01     0.0000000000000000E+00 
    0.0000000000000000E+00     8.1249999999991318E-01     0.0000000000000000E+00 
    0.0000000000000000E+00     7.5000000000034706E-01     0.0000000000000000E+00 
    0.0000000000000000E+00     6.8750000000078049E-01     0.0000000000000000E+00 
    0.0000000000000000E+00     6.2500000000121403E-01     0.0000000000000000E+00 
    0.0000000000000000E+00     5.6250000000164757E-01     0.0000000000000000E+00 
    0.0000000000000000E+00     5.0000000000205946E-01     0.0000000000000000E+00 
    0.0000000000000000E+00     4.3750000000182099E-01     0.0000000000000000E+00 
    0.0000000000000000E+00     3.7500000000156092E-01     0.0000000000000000E+00 
    0.0000000000000000E+00     3.1250000000130068E-01     0.0000000000000000E+00 
    0.0000000000000000E+00     2.5000000000104050E-01     0.0000000000000000E+00 
    0.0000000000000000E+00     1.8750000000078040E-01     0.0000000000000000E+00 
    0.0000000000000000E+00     1.2500000000052031E-01     0.0000000000000000E+00 
    0.0000000000000000E+00     6.2500000000260125E-02     0.0000000000000000E+00 
    6.2499999999897131E-02     6.2500000000235922E-02     0.0000000000000000E+00 
    6.2499999999921327E-02     1.2500000000047351E-01     0.0000000000000000E+00 
    6.2499999999945530E-02     1.8750000000070621E-01     0.0000000000000000E+00 
    6.2499999999969733E-02     2.5000000000093858E-01     0.0000000000000000E+00 
    6.2499999999993928E-02     3.1250000000117117E-01     0.0000000000000000E+00 
    6.2500000000018124E-02     3.7500000000140382E-01     0.0000000000000000E+00 
    6.2500000000042327E-02     4.3750000000163619E-01     0.0000000000000000E+00 
    6.2500000000066530E-02     5.0000000000184897E-01     0.0000000000000000E+00 
    6.2500000000090733E-02     5.6250000000147260E-01     0.0000000000000000E+00 
    6.2500000000114922E-02     6.2500000000107636E-01     0.0000000000000000E+00 
    6.2500000000139125E-02     6.8750000000068034E-01     0.0000000000000000E+00 
    6.2500000000163328E-02     7.5000000000028411E-01     0.0000000000000000E+00 
    6.2500000000187531E-02     8.1249999999988787E-01     0.0000000000000000E+00 
    6.2500000000211720E-02     8.7499999999951172E-01     0.0000000000000000E+00 
    6.2500000000235922E-02     9.3749999999974565E-01     0.0000000000000000E+00 
    1.2499999999981980E-01     6.2500000000211733E-02     0.0000000000000000E+00 
    1.2499999999986650E-01     1.2500000000042691E-01     0.0000000000000000E+00 
    1.2499999999991319E-01     1.8750000000063199E-01     0.0000000000000000E+00 
    1.2499999999995989E-01     2.5000000000083678E-01     0.0000000000000000E+00 
    1.2500000000000661E-01     3.1250000000104172E-01     0.0000000000000000E+00 
    1.2500000000005329E-01     3.7500000000124661E-01     0.0000000000000000E+00 
    1.2500000000010000E-01     4.3750000000145117E-01     0.0000000000000000E+00 
    1.2500000000014669E-01     5.0000000000163858E-01     0.0000000000000000E+00 
    1.2500000000019340E-01     5.6250000000129741E-01     0.0000000000000000E+00 
    1.2500000000024011E-01     6.2500000000093847E-01     0.0000000000000000E+00 
    1.2500000000028680E-01     6.8750000000057998E-01     0.0000000000000000E+00 
    1.2500000000033351E-01     7.5000000000022127E-01     0.0000000000000000E+00 
    1.2500000000038020E-01     8.1249999999986211E-01     0.0000000000000000E+00 
    1.2500000000042691E-01     8.7499999999952238E-01     0.0000000000000000E+00 
    1.2500000000047359E-01     9.3749999999975164E-01     0.0000000000000000E+00 
    1.8749999999966760E-01     6.2500000000187531E-02     0.0000000000000000E+00 
    1.8749999999974179E-01     1.2500000000038020E-01     0.0000000000000000E+00 
    1.8749999999981601E-01     1.8750000000055780E-01     0.0000000000000000E+00 
    1.8749999999989009E-01     2.5000000000073502E-01     0.0000000000000000E+00 
    1.8749999999996431E-01     3.1250000000091221E-01     0.0000000000000000E+00 
    1.8750000000003850E-01     3.7500000000108941E-01     0.0000000000000000E+00 
    1.8750000000011269E-01     4.3750000000126649E-01     0.0000000000000000E+00 
    1.8750000000018691E-01     5.0000000000142808E-01     0.0000000000000000E+00 
    1.8750000000026110E-01     5.6250000000112244E-01     0.0000000000000000E+00 
    1.8750000000033529E-01     6.2500000000080080E-01     0.0000000000000000E+00 
    1.8750000000040951E-01     6.8750000000047962E-01     0.0000000000000000E+00 
    1.8750000000048361E-01     7.5000000000015843E-01     0.0000000000000000E+00 
    1.8750000000055780E-01     8.1249999999983680E-01     0.0000000000000000E+00 
    1.8750000000063199E-01     8.7499999999953304E-01     0.0000000000000000E+00 
    1.8750000000070621E-01     9.3749999999975764E-01     0.0000000000000000E+00 
    2.4999999999951281E-01     6.2500000000163314E-02     0.0000000000000000E+00 
    2.4999999999961461E-01     1.2500000000033351E-01     0.0000000000000000E+00 
    2.4999999999971650E-01     1.8750000000048361E-01     0.0000000000000000E+00 
    2.4999999999981831E-01     2.5000000000063310E-01     0.0000000000000000E+00 
    2.4999999999992020E-01     3.1250000000078260E-01     0.0000000000000000E+00 
    2.5000000000002198E-01     3.7500000000093209E-01     0.0000000000000000E+00 
    2.5000000000012390E-01     4.3750000000108180E-01     0.0000000000000000E+00 
    2.5000000000022571E-01     5.0000000000121769E-01     0.0000000000000000E+00 
    2.5000000000032763E-01     5.6250000000094724E-01     0.0000000000000000E+00 
    2.5000000000042938E-01     6.2500000000066314E-01     0.0000000000000000E+00 
    2.5000000000053119E-01     6.8750000000037925E-01     0.0000000000000000E+00 
[...]
CELL_DATA 256 
SCALARS Pressure double 1 
LOOKUP_TABLE default 

    8.8061300022039080E-01 
    8.6843151697146093E-01 
    8.5642546062002989E-01 
    8.4560246662527483E-01 
    8.3774140940209763E-01 
    8.3441856730517927E-01 
    8.2840516785840335E-01 
    8.2345564708683561E-01 
    8.2000170421757967E-01 
    8.1791312543049821E-01 
    8.1522558797328004E-01 
    8.1258365394656940E-01 
    8.0971641527288996E-01 
    8.0661244349167593E-01 
    8.0384395801456709E-01 
    8.0208792605708390E-01 
    8.3560296722809557E-01 
    8.3242389197792266E-01 
    8.2864118515153062E-01 
    8.2453775425863352E-01 
    8.2042872429201741E-01 
    8.1580751497253723E-01 
    8.1081239111292713E-01 
    8.0777517451180503E-01 
    8.0449294312139952E-01 
    8.0119051036967659E-01 
    7.9838327398198128E-01 
    7.9632749168121064E-01 
    7.9428003303065675E-01 
    7.9252370850296250E-01 
    7.9115262652186169E-01 
    7.9028090092921199E-01 
    8.0290584023001277E-01 
    8.0148519151136854E-01 
    7.9981544770882684E-01 
    7.9771038256081517E-01 
    7.9499106937010267E-01 
    7.9130426589115355E-01 
    7.8718502538845447E-01 
    7.8464475901490560E-01 
    7.8137009860758500E-01 
    7.7797239344905533E-01 
    7.7537363110588531E-01 
    7.7379830757108503E-01 
    7.7228426824390473E-01 
    7.7133017676107052E-01 
    7.7092760530500126E-01 
    7.7089760140861341E-01 
    7.6953893270847484E-01 
    7.6939590870849184E-01 
    7.6912430231984241E-01 
    7.6838156082109654E-01 
    7.6684805278784030E-01 
    7.6412266564157960E-01 
    7.6077944414130838E-01 
    7.5855137548172435E-01 
    7.5550515500675364E-01 
    7.5231099058489348E-01 
    7.5003706529893788E-01 
    7.4884851063393998E-01 
    7.4765087613396808E-01 
    7.4714554495679131E-01 
    7.4731662927194387E-01 
    7.4764057715663312E-01 
    7.3844189150794315E-01 
    7.4066819740127410E-01 
    7.4062979973846488E-01 
    7.3993049221579454E-01 
    7.3846548382350519E-01 
    7.3577851574806663E-01 
    7.3263484935424472E-01 
    7.3120351378212511E-01 
    7.2877422979344408E-01 
    7.2593938948654446E-01 
    7.2402928312125159E-01 
    7.2362520335286240E-01 
    7.2254801349161224E-01 
    7.2200927711236562E-01 
    7.2190343816364499E-01 
    7.2153216129874365E-01 
    7.1343574125639031E-01 
    7.1191684060716287E-01 
    7.0956009394044028E-01 
    7.0621547376300442E-01 
    7.0268438219664375E-01 
    7.0027309267286864E-01 
    6.9918991420997056E-01 
    6.9863931903849530E-01 
    6.9800010405102875E-01 
    6.9792660648294425E-01 
    6.9777929145471074E-01 
    6.9686352465192214E-01 
    6.9512522080619010E-01 
    6.9341365430328017E-01 
    6.9199028404951168E-01 
    6.9116285728190363E-01 
    6.6738329773057659E-01 
    6.6700840921316940E-01 
    6.6610023445387545E-01 
    6.6477848112363447E-01 
    6.6360711270932415E-01 
    6.6348952162755503E-01 
    6.6364206526386549E-01 
    6.6138356548218480E-01 
    6.6055996092256541E-01 
    6.6077204467627182E-01 
    6.6079596253329242E-01 
    6.5946674427219965E-01 
    6.5864483577767885E-01 
    6.5783859274128820E-01 
    6.5742099941210330E-01 
    6.5724278343010989E-01 
    6.2486914469694410E-01 
    6.2578866959043111E-01 
    6.2642630304872127E-01 
    6.2674088061589028E-01 
    6.2668988211280552E-01 
    6.2633154305635319E-01 
    6.2542018069957905E-01 
    6.2403198706962626E-01 
    6.2269116190554441E-01 
    6.2174453832632637E-01 
    6.2099839207145613E-01 
    6.2036080063025989E-01 
    6.1968876347537538E-01 
    6.1945155131503804E-01 
    6.1989229767731446E-01 
    6.2016638351557674E-01 
    5.8805320679095086E-01 
    5.9003806569939221E-01 
    5.9012796278293855E-01 
    5.8991762952313709E-01 
    5.8910503493916277E-01 
    5.8756380756814786E-01 
    5.8558397365841619E-01 
    5.8452984538597796E-01 
    5.8289345756512956E-01 
    5.8176586101816585E-01 
    5.8124528003071008E-01 
    5.8130457494123899E-01 
    5.8059584912831286E-01 
    5.8045731077897655E-01 
    5.8073517052164436E-01 
    5.8016429562921601E-01 
    5.5411562497391309E-01 
    5.5333894765492375E-01 
    5.5166892903617004E-01 
    5.4924864613993796E-01 
    5.4671339000511210E-01 
    5.4465202431094639E-01 
    5.4298893885033794E-01 
    5.4185850574403005E-01 
    5.4127820913955804E-01 
    5.4180935528811225E-01 
    5.4252295627670954E-01 
    5.4149929364799165E-01 
    5.3944547658461384E-01 
    5.3728152678960772E-01 
    5.3528007909506792E-01 
    5.3410080187918341E-01 
    5.1325090390458328E-01 
    5.1240677849245120E-01 
    5.1093035999549508E-01 
    5.0907170577194782E-01 
    5.0738740679159022E-01 
    5.0590943948853939E-01 
    5.0342171283114256E-01 
    5.0028002999991417E-01 
    4.9848317726407371E-01 
    4.9681959207859833E-01 
    4.9398517571380574E-01 
    4.9001127786935716E-01 
    4.8652734546243598E-01 
    4.8398797523322584E-01 
    4.8292765261568565E-01 
    4.8266463570074863E-01 
    4.7569825883129696E-01 
    4.7506260267358635E-01 
    4.7389510043253363E-01 
    4.7207133472441043E-01 
    4.6952949320000564E-01 
    4.6628826749957347E-01 
    4.6278726756041977E-01 
    4.5867472649279406E-01 
    4.5323481116835274E-01 
    4.4676705817780055E-01 
    4.4029795162050506E-01 
    4.3350832293478397E-01 
    4.2737925420519435E-01 
    4.2412315780350401E-01 
    4.2358657248042797E-01 
    4.2430549130470868E-01 
    4.3377340338008630E-01 
    4.3301018673942110E-01 
    4.3140285118851296E-01 
    4.2858422485840658E-01 
    4.2452276215713947E-01 
    4.1966959069278820E-01 
    4.1452566734469359E-01 
    4.0768485518775083E-01 
    3.9877959521938799E-01 
    3.8915513716452282E-01 
    3.7970211671723564E-01 
    3.7019963217843710E-01 
    3.6267451175399484E-01 
    3.5891741077998573E-01 
    3.5848628819510814E-01 
    3.5967436699568939E-01 
    3.8134109009359812E-01 
    3.8036617632226083E-01 
    3.7816299609081389E-01 
    3.7434219340754166E-01 
    3.6908033402261642E-01 
    3.6303078197884797E-01 
    3.5650301738242934E-01 
    3.4779724371390630E-01 
    3.3709423334822070E-01 
    3.2595262123497248E-01 
    3.1509706620317457E-01 
    3.0460714688101348E-01 
    2.9575513258276920E-01 
    2.9016758646560120E-01 
    2.8769350621350548E-01 
    2.8711782508498102E-01 
    3.2993607169401523E-01 
    3.2889787952762434E-01 
    3.2652127886168048E-01 
    3.2233683453778783E-01 
    3.1656637770586515E-01 
    3.1002026022952578E-01 
    3.0322634612874194E-01 
    2.9428572777588252E-01 
    2.8313407212323821E-01 
    2.7089476011259639E-01 
    2.5797936876827160E-01 
    2.4413142413759659E-01 
    2.2940763831018421E-01 
    2.1494047323842461E-01 
    2.0150519612904161E-01 
    1.9157719166863246E-01 
    2.9943477135542645E-01 
    2.9829844407098882E-01 
    2.9576980318985974E-01 
    2.9139161305107503E-01 
    2.8534635831614430E-01 
    2.7858960955944928E-01 
    2.7213398862204125E-01 
    2.6390819958578088E-01 
    2.5231733355689628E-01 
    2.3680583469399333E-01 
    2.1857444389752162E-01 
    1.9602474745004692E-01 
    1.6492737324314313E-01 
    1.2269916787143556E-01 
    6.8208326958914961E-02 
    0.0000000000000000E+00 

SCALARS Saturarion double 1 
LOOKUP_TABLE default 

    1.0000000000000133E+00 
    9.8307079031558142E-01 
    9.5658164113189614E-01 
    9.1185050782199073E-01 
    8.6486134076425281E-01 
    8.1617067094900997E-01 
    7.6704551937289045E-01 
    7.1714783479322020E-01 
    6.6579172461767477E-01 
    6.1805695858260701E-01 
    5.7559827485444659E-01 
    5.4024564081625071E-01 
    5.0838236942827453E-01 
    4.4454975072630615E-01 
    1.6047829420295620E-01 
    1.0302921402955950E-06 
    9.6108898227479611E-01 
    9.4465127547192951E-01 
    9.1884023409973303E-01 
    8.7986278955839747E-01 
    8.3569950618193423E-01 
    7.9176610267441250E-01 
    7.4911695021926750E-01 
    7.0607105596209607E-01 
    6.5991644393547799E-01 
    6.1441665604779871E-01 
    5.7281813013439975E-01 
    5.3561858951624375E-01 
    4.9619861510925251E-01 
    3.9639173757526786E-01 
    5.3363619896601058E-02 
    2.6844133257065189E-05 
    8.9706241366539952E-01 
    8.7623376164231392E-01 
    8.4919477440587654E-01 
    8.1810383553012533E-01 
    7.8456992520087887E-01 
    7.5037910269166863E-01 
    7.1685954649973416E-01 
    6.8343209727937082E-01 
    6.4659588161280124E-01 
    6.0635635685627709E-01 
    5.6749187084792230E-01 
    5.2973000942953352E-01 
    4.8224257555898975E-01 
    3.0458580923756706E-01 
    5.2258212148396299E-03 
    1.2804354489914359E-06 
    8.1631973970680261E-01 
    8.0382178099270130E-01 
    7.8317168284222027E-01 
    7.5955387595717883E-01 
    7.3580410773600136E-01 
    7.1023446539995017E-01 
    6.8378997043775613E-01 
    6.5746857179216645E-01 
    6.2893783298711725E-01 
    5.9454596453675324E-01 
    5.5792445819870240E-01 
    5.2001645760746251E-01 
    4.6418527536932530E-01 
    2.0909484811204088E-01 
    3.4533766492412962E-04 
    1.0017178479662775E-06 
    7.4973560173187248E-01 
    7.4369686152757752E-01 
    7.3014877477305351E-01 
    7.1303945411815262E-01 
    6.9173304539525715E-01 
    6.7189803997958120E-01 
    6.5116343012310651E-01 
    6.2967594713502262E-01 
    6.0783056536075464E-01 
    5.7998238918494571E-01 
    5.4708182590592203E-01 
    5.1082073887346047E-01 
    4.4276729830398692E-01 
    1.4100945300317019E-01 
    4.0174252501593621E-05 
    1.0004445914277195E-06 
    7.0042971101440299E-01 
    6.9791731706146942E-01 
    6.8999394685851545E-01 
    6.7919380416105557E-01 
    6.6285260745343455E-01 
    6.4220675583052045E-01 
    6.2117325312410976E-01 
    6.0095222536038273E-01 
    5.8237482587166756E-01 
    5.6087196097531133E-01 
    5.3449210645518452E-01 
    5.0416528399688409E-01 
    4.2348347297633437E-01 
    9.8505669430082141E-02 
    8.8856129631941440E-06 
    1.0000130014203488E-06 
    6.5606004579861499E-01 
    6.5409095072536794E-01 
    6.4870958719427452E-01 
    6.4109671177310046E-01 
    6.3529465584734635E-01 
    6.1911397733184270E-01 
    5.9666199183443092E-01 
    5.7601000102262778E-01 
    5.5570248613296114E-01 
    5.3904353056403009E-01 
    5.1778158315937595E-01 
    4.8812800250034505E-01 
    3.8682086680505140E-01 
    3.9838914072244651E-02 
    1.1812955838783602E-05 
    1.0000031466803116E-06 
    6.1646396485147392E-01 
    6.1435804277479977E-01 
    6.0947530656881987E-01 
    6.0258477364058338E-01 
    6.0382191538266794E-01 
    5.9380185922576811E-01 
    5.7485776414358591E-01 
    5.5597699667915723E-01 
    5.3606325929579257E-01 
    5.1991247652972061E-01 
    4.9988530997636527E-01 
    4.6714421220568986E-01 
    2.8690510815899301E-01 
    2.9594950252483684E-03 
    1.0945854615983320E-06 
    1.0000000045909717E-06 
    5.8334062217007931E-01 
    5.8157263260133429E-01 
    5.7744564332413306E-01 
    5.7169589795181774E-01 
    5.7229988478653826E-01 
    5.6687828550726183E-01 
    5.5320848216360985E-01 
    5.3809627004725025E-01 
    5.2252317561120321E-01 
    5.0354133637624521E-01 
    4.8393577933528098E-01 
    4.4714467990320983E-01 
    2.2733370718865559E-01 
    9.1865213285598441E-04 
    1.0342198572384397E-06 
    1.0000000104312450E-06 
    5.5647847645930004E-01 
    5.5508986275950112E-01 
    5.5170605446468779E-01 
    5.4744270741628831E-01 
    5.4291543837375267E-01 
    5.3957020271376166E-01 
    5.3073690823757991E-01 
    5.1973268161232777E-01 
    5.0869075798931018E-01 
    4.8999393457529411E-01 
    4.6941671398298207E-01 
    4.2003013434381686E-01 
    1.4604011200889472E-01 
    9.3869314421605511E-05 
    1.0019965903390120E-06 
    1.0000000000020784E-06 
    5.2882986051463521E-01 
    5.2770218559092097E-01 
    5.2506886624758065E-01 
    5.2200713852932612E-01 
    5.1761601464951734E-01 
    5.1260701189428304E-01 
    5.0755529897859197E-01 
    4.9990566766751188E-01 
    4.8971241880242122E-01 
    4.7572124653953601E-01 
    4.5147299285002468E-01 
    3.7440890122045395E-01 
    6.6673006234462831E-02 
    1.0864484609519048E-04 
    1.0007793614652803E-06 
    1.0000000000000002E-06 
    4.9644243095153107E-01 
    4.9553968967303735E-01 
    4.9321418983386939E-01 
    4.9077097563568550E-01 
    4.8753724328793885E-01 
    4.8239121070547158E-01 
    4.7858182468452248E-01 
    4.7427029658244485E-01 
    4.6477571059776329E-01 
    4.4988859220302702E-01 
    4.1942985093769508E-01 
    2.9068220614954488E-01 
    1.5056501610722112E-02 
    6.2789894590041720E-06 
    1.0000017531754259E-06 
    1.0000000000000004E-06 
    4.2462905446228388E-01 
    4.2275672194808328E-01 
    4.1957516324336025E-01 
    4.1596616544116694E-01 
    4.1217242615319905E-01 
    4.0638477345407226E-01 
    3.9907252376384628E-01 
    3.9254715953230901E-01 
    3.8952084314348800E-01 
    3.7851037770601947E-01 
    2.8732190321359391E-01 
    9.2715033788797974E-02 
    2.8625985434162308E-04 
    1.0127178813769998E-06 
    1.0000000000019865E-06 
    9.9999999999999995E-07 
    1.2387829015559897E-01 
    1.1950414741733932E-01 
    1.1338586090873987E-01 
    1.0640743210836086E-01 
    1.0146019781182941E-01 
    9.2736298744604942E-02 
    7.9823212287316578E-02 
    7.0148279265723507E-02 
    9.3875784765990941E-02 
    8.1348164901856923E-02 
    1.7271692914980593E-02 
    2.8203016692417067E-04 
    1.0480237936107973E-06 
    1.0000000125499658E-06 
    1.0000000000000008E-06 
    9.9999999999999995E-07 
    1.0000001297607229E-06 
    1.5327988909393188E-06 
    2.3780289188631414E-06 
    2.5062886629626227E-06 
    2.9512903357184400E-06 
    5.6316640741374350E-06 
    3.6011277460543539E-06 
    2.4589966589053588E-06 
    3.1132164258018127E-06 
    1.0352192178581643E-04 
    1.2761688660689230E-05 
    1.0179293009215827E-06 
    1.0000000221765192E-06 
    1.0000000000000048E-06 
    9.9999999999999995E-07 
    9.9999999999999995E-07 
    1.0000000000000904E-06 
    1.0000001439239551E-06 
    1.0000004506889714E-06 
    1.0000010065382865E-06 
    1.0000008863934540E-06 
    1.0000024099042313E-06 
    1.0000019874629527E-06 
    1.0000008577067075E-06 
    1.0000011387737183E-06 
    1.0007520701408586E-06 
    1.0000106897725164E-06 
    1.0000000000063883E-06 
    1.0000000000000025E-06 
    9.9999999999999995E-07 
    9.9999999999999995E-07 
    1.0000004302266082E-06 
