# vtk DataFile Version 2.0
Pressure Field Data 
ASCII 
DATASET UNSTRUCTURED_GRID 

POINTS 289 double 

    0.0000000000000000E+00     0.0000000000000000E+00     0.0000000000000000E+00 
    1.0000000000000000E+00     0.0000000000000000E+00     0.0000000000000000E+00 
    1.0000000000000000E+00     1.0000000000000000E+00     0.0000000000000000E+00 
    0.0000000000000000E+00     1.0000000000000000E+00     0.0000000000000000E+00 
    6.2499999999872928E-02     0.0000000000000000E+00     0.0000000000000000E+00 
    1.2499999999977310E-01     0.0000000000000000E+00     0.0000000000000000E+00 
    1.8749999999959341E-01     0.0000000000000000E+00     0.0000000000000000E+00 
    2.4999999999941089E-01     0.0000000000000000E+00     0.0000000000000000E+00 
    3.1249999999922851E-01     0.0000000000000000E+00     0.0000000000000000E+00 
    3.7499999999904610E-01     0.0000000000000000E+00     0.0000000000000000E+00 
    4.3749999999886358E-01     0.0000000000000000E+00     0.0000000000000000E+00 
    4.9999999999869210E-01     0.0000000000000000E+00     0.0000000000000000E+00 
    5.6249999999884603E-01     0.0000000000000000E+00     0.0000000000000000E+00 
    6.2499999999901090E-01     0.0000000000000000E+00     0.0000000000000000E+00 
    6.8749999999917577E-01     0.0000000000000000E+00     0.0000000000000000E+00 
    7.4999999999934064E-01     0.0000000000000000E+00     0.0000000000000000E+00 
    8.1249999999950551E-01     0.0000000000000000E+00     0.0000000000000000E+00 
    8.7499999999967026E-01     0.0000000000000000E+00     0.0000000000000000E+00 
    9.3749999999983513E-01     0.0000000000000000E+00     0.0000000000000000E+00 
    1.0000000000000000E+00     6.2499999999872928E-02     0.0000000000000000E+00 
    1.0000000000000000E+00     1.2499999999977310E-01     0.0000000000000000E+00 
    1.0000000000000000E+00     1.8749999999959341E-01     0.0000000000000000E+00 
    1.0000000000000000E+00     2.4999999999941089E-01     0.0000000000000000E+00 
    1.0000000000000000E+00     3.1249999999922851E-01     0.0000000000000000E+00 
    1.0000000000000000E+00     3.7499999999904610E-01     0.0000000000000000E+00 
    1.0000000000000000E+00     4.3749999999886358E-01     0.0000000000000000E+00 
    1.0000000000000000E+00     4.9999999999869210E-01     0.0000000000000000E+00 
    1.0000000000000000E+00     5.6249999999884603E-01     0.0000000000000000E+00 
    1.0000000000000000E+00     6.2499999999901090E-01     0.0000000000000000E+00 
    1.0000000000000000E+00     6.8749999999917577E-01     0.0000000000000000E+00 
    1.0000000000000000E+00     7.4999999999934064E-01     0.0000000000000000E+00 
    1.0000000000000000E+00     8.1249999999950551E-01     0.0000000000000000E+00 
    1.0000000000000000E+00     8.7499999999967026E-01     0.0000000000000000E+00 
    1.0000000000000000E+00     9.3749999999983513E-01     0.0000000000000000E+00 
    9.3749999999973976E-01     1.0000000000000000E+00     0.0000000000000000E+00 
    8.7499999999950118E-01     1.0000000000000000E+00     0.0000000000000000E+00 
    8.1249999999991318E-01     1.0000000000000000E+00     0.0000000000000000E+00 
    7.5000000000034706E-01     1.0000000000000000E+00     0.0000000000000000E+00 
    6.8750000000078049E-01     1.0000000000000000E+00     0.0000000000000000E+00 
    6.2500000000121403E-01     1.0000000000000000E+00     0.0000000000000000E+00 
    5.6250000000164757E-01     1.0000000000000000E+00     0.0000000000000000E+00 
    5.0000000000205946E-01     1.0000000000000000E+00     0.0000000000000000E+00 
    4.3750000000182099E-01     1.0000000000000000E+00     0.0000000000000000E+00 
    3.7500000000156092E-01     1.0000000000000000E+00     0.0000000000000000E+00 
    3.1250000000130068E-01     1.0000000000000000E+00     0.0000000000000000E+00 
    2.5000000000104050E-01     1.0000000000000000E+00     0.0000000000000000E+00 
    1.8750000000078040E-01     1.0000000000000000E+00     0.0000000000000000E+00 
    1.2500000000052031E-01     1.0000000000000000E+00     0.0000000000000000E+00 
    6.2500000000260125E-02     1.0000000000000000E+00     0.0000000000000000E+00 
    0.0000000000000000E+00     9.3749999999973976E-01     0.0000000000000000E+00 
    0.0000000000000000E+00     8.7499999999950118E-01     0.0000000000000000E+00 
    0.0000000000000000E+00     8.1249999999991318E-01     0.0000000000000000E+00 
    0.0000000000000000E+00     7.5000000000034706E-01     0.0000000000000000E+00 
    0.0000000000000000E+00     6.8750000000078049E-01     0.0000000000000000E+00 
    0.0000000000000000E+00     6.2500000000121403E-01     0.0000000000000000E+00 
    0.0000000000000000E+00     5.6250000000164757E-01     0.0000000000000000E+00 
    0.0000000000000000E+00     5.0000000000205946E-01     0.0000000000000000E+00 
    0.0000000000000000E+00     4.3750000000182099E-01     0.0000000000000000E+00 
    0.0000000000000000E+00     3.7500000000156092E-01     0.0000000000000000E+00 
    0.0000000000000000E+00     3.1250000000130068E-01     0.0000000000000000E+00 
    0.0000000000000000E+00     2.5000000000104050E-01     0.0000000000000000E+00 
    0.0000000000000000E+00     1.8750000000078040E-01     0.0000000000000000E+00 
    0.0000000000000000E+00     1.2500000000052031E-01     0.0000000000000000E+00 
    0.0000000000000000E+00     6.2500000000260125E-02     0.0000000000000000E+00 
    6.2499999999897131E-02     6.2500000000235922E-02     0.0000000000000000E+00 
    6.2499999999921327E-02     1.2500000000047351E-01     0.0000000000000000E+00 
    6.2499999999945530E-02     1.8750000000070621E-01     0.0000000000000000E+00 
    6.2499999999969733E-02     2.5000000000093858E-01     0.0000000000000000E+00 
    6.2499999999993928E-02     3.1250000000117117E-01     0.0000000000000000E+00 
    6.2500000000018124E-02     3.7500000000140382E-01     0.0000000000000000E+00 
    6.2500000000042327E-02     4.3750000000163619E-01     0.0000000000000000E+00 
    6.2500000000066530E-02     5.0000000000184897E-01     0.0000000000000000E+00 
    6.2500000000090733E-02     5.6250000000147260E-01     0.0000000000000000E+00 
    6.2500000000114922E-02     6.2500000000107636E-01     0.0000000000000000E+00 
    6.2500000000139125E-02     6.8750000000068034E-01     0.0000000000000000E+00 
    6.2500000000163328E-02     7.5000000000028411E-01     0.0000000000000000E+00 
    6.2500000000187531E-02     8.1249999999988787E-01     0.0000000000000000E+00 
    6.2500000000211720E-02     8.7499999999951172E-01     0.0000000000000000E+00 
    6.2500000000235922E-02     9.3749999999974565E-01     0.0000000000000000E+00 
    1.2499999999981980E-01     6.2500000000211733E-02     0.0000000000000000E+00 
    1.2499999999986650E-01     1.2500000000042691E-01     0.0000000000000000E+00 
    1.2499999999991319E-01     1.8750000000063199E-01     0.0000000000000000E+00 
    1.2499999999995989E-01     2.5000000000083678E-01     0.0000000000000000E+00 
    1.2500000000000661E-01     3.1250000000104172E-01     0.0000000000000000E+00 
    1.2500000000005329E-01     3.7500000000124661E-01     0.0000000000000000E+00 
    1.2500000000010000E-01     4.3750000000145117E-01     0.0000000000000000E+00 
    1.2500000000014669E-01     5.0000000000163858E-01     0.0000000000000000E+00 
    1.2500000000019340E-01     5.6250000000129741E-01     0.0000000000000000E+00 
    1.2500000000024011E-01     6.2500000000093847E-01     0.0000000000000000E+00 
    1.2500000000028680E-01     6.8750000000057998E-01     0.0000000000000000E+00 
    1.2500000000033351E-01     7.5000000000022127E-01     0.0000000000000000E+00 
    1.2500000000038020E-01     8.1249999999986211E-01     0.0000000000000000E+00 
    1.2500000000042691E-01     8.7499999999952238E-01     0.0000000000000000E+00 
    1.2500000000047359E-01     9.3749999999975164E-01     0.0000000000000000E+00 
    1.8749999999966760E-01     6.2500000000187531E-02     0.0000000000000000E+00 
    1.8749999999974179E-01     1.2500000000038020E-01     0.0000000000000000E+00 
    1.8749999999981601E-01     1.8750000000055780E-01     0.0000000000000000E+00 
    1.8749999999989009E-01     2.5000000000073502E-01     0.0000000000000000E+00 
    1.8749999999996431E-01     3.1250000000091221E-01     0.0000000000000000E+00 
    1.8750000000003850E-01     3.7500000000108941E-01     0.0000000000000000E+00 
    1.8750000000011269E-01     4.3750000000126649E-01     0.0000000000000000E+00 
    1.8750000000018691E-01     5.0000000000142808E-01     0.0000000000000000E+00 
    1.8750000000026110E-01     5.6250000000112244E-01     0.0000000000000000E+00 
    1.8750000000033529E-01     6.2500000000080080E-01     0.0000000000000000E+00 
    1.8750000000040951E-01     6.8750000000047962E-01     0.0000000000000000E+00 
    1.8750000000048361E-01     7.5000000000015843E-01     0.0000000000000000E+00 
    1.8750000000055780E-01     8.1249999999983680E-01     0.0000000000000000E+00 
    1.8750000000063199E-01     8.7499999999953304E-01     0.0000000000000000E+00 
    1.8750000000070621E-01     9.3749999999975764E-01     0.0000000000000000E+00 
    2.4999999999951281E-01     6.2500000000163314E-02     0.0000000000000000E+00 
    2.4999999999961461E-01     1.2500000000033351E-01     0.0000000000000000E+00 
    2.4999999999971650E-01     1.8750000000048361E-01     0.0000000000000000E+00 
    2.4999999999981831E-01     2.5000000000063310E-01     0.0000000000000000E+00 
    2.4999999999992020E-01     3.1250000000078260E-01     0.0000000000000000E+00 
    2.5000000000002198E-01     3.7500000000093209E-01     0.0000000000000000E+00 
    2.5000000000012390E-01     4.3750000000108180E-01     0.0000000000000000E+00 
    2.5000000000022571E-01     5.0000000000121769E-01     0.0000000000000000E+00 
    2.5000000000032763E-01     5.6250000000094724E-01     0.0000000000000000E+00 
    2.5000000000042938E-01     6.2500000000066314E-01     0.0000000000000000E+00 
    2.5000000000053119E-01     6.8750000000037925E-01     0.0000000000000000E+00 
[...]
CELL_DATA 256 
SCALARS Pressure double 1 
LOOKUP_TABLE default 

    9.2468535018933196E-01 
    9.1252529202388066E-01 
    9.0047055536296072E-01 
    8.8953616141907066E-01 
    8.8155355312125450E-01 
    8.7797302429436008E-01 
    8.7164376244660335E-01 
    8.6644956012639873E-01 
    8.6277704202068317E-01 
    8.6032088393854689E-01 
    8.5722105851312513E-01 
    8.5413649686694615E-01 
    8.5085441801352013E-01 
    8.4746993005569782E-01 
    8.4455896856410140E-01 
    8.4268298670035879E-01 
    8.7894190037659803E-01 
    8.7573818069700704E-01 
    8.7189494899750686E-01 
    8.6768260326177082E-01 
    8.6339353937606955E-01 
    8.5850567753994689E-01 
    8.5327031243917628E-01 
    8.4999150260461953E-01 
    8.4640344113999144E-01 
    8.4279551509795014E-01 
    8.3978794880671126E-01 
    8.3753035838298440E-01 
    8.3525152410785364E-01 
    8.3316034895462432E-01 
    8.3162366614566019E-01 
    8.3071238615666587E-01 
    8.4517516548073623E-01 
    8.4368814207114728E-01 
    8.4192209426440912E-01 
    8.3966717104810296E-01 
    8.3671698144919171E-01 
    8.3272745330468778E-01 
    8.2836562973286287E-01 
    8.2558567290999718E-01 
    8.2200164668279352E-01 
    8.1836522787129096E-01 
    8.1570630864834948E-01 
    8.1404636143187881E-01 
    8.1231018208882533E-01 
    8.1105482552554131E-01 
    8.1059391097913291E-01 
    8.1057304115761530E-01 
    8.1035813050407191E-01 
    8.1015156418786383E-01 
    8.0978318822529793E-01 
    8.0887956391509530E-01 
    8.0709222540641656E-01 
    8.0403961472636976E-01 
    8.0044454520715325E-01 
    7.9797475562449760E-01 
    7.9464698901816477E-01 
    7.9130906235156628E-01 
    7.8912470931077250E-01 
    7.8797109344834237E-01 
    7.8657155890385788E-01 
    7.8583024194087592E-01 
    7.8600436171106247E-01 
    7.8631168226918235E-01 
    7.7781438484322152E-01 
    7.7995165515886100E-01 
    7.7973285336763110E-01 
    7.7880921653054580E-01 
    7.7703119917046259E-01 
    7.7398979501337029E-01 
    7.7062026028278263E-01 
    7.6893263267802558E-01 
    7.6625592802805953E-01 
    7.6341107568595434E-01 
    7.6173913584555275E-01 
    7.6140629054535491E-01 
    7.6018600279006954E-01 
    7.5951523379120101E-01 
    7.5938689076965049E-01 
    7.5885875753347087E-01 
    7.5053773412636116E-01 
    7.4893385667902213E-01 
    7.4643727340137744E-01 
    7.4291872709059548E-01 
    7.3922378831747404E-01 
    7.3665203294167902E-01 
    7.3541109149271677E-01 
    7.3465361175920929E-01 
    7.3386585483432387E-01 
    7.3373969597726574E-01 
    7.3352954024007189E-01 
    7.3241550788147447E-01 
    7.3063721215916655E-01 
    7.2888974357483882E-01 
    7.2725324382877454E-01 
    7.2617230859357329E-01 
    7.0200288810476985E-01 
    7.0159635882835314E-01 
    7.0062625194568540E-01 
    6.9924332937576295E-01 
    6.9806453313008754E-01 
    6.9794688207462352E-01 
    6.9789877495027053E-01 
    6.9545207905381590E-01 
    6.9442811905628432E-01 
    6.9436572382889761E-01 
    6.9396975202358935E-01 
    6.9217947446625472E-01 
    6.9078707882887491E-01 
    6.8964259824861829E-01 
    6.8918137139746483E-01 
    6.8902959006309128E-01 
    6.5707635982650847E-01 
    6.5798748619536940E-01 
    6.5859047929943648E-01 
    6.5888054855468270E-01 
    6.5884796452516847E-01 
    6.5851966696849140E-01 
    6.5752648451498241E-01 
    6.5588418360815059E-01 
    6.5410034110434223E-01 
    6.5262561288721155E-01 
    6.5133141935248162E-01 
    6.4977476256219857E-01 
    6.4798872832540255E-01 
    6.4723356613168370E-01 
    6.4773244117528239E-01 
    6.4826126518179739E-01 
    6.1780570604887919E-01 
    6.1963767397650626E-01 
    6.1959033288110699E-01 
    6.1930961825813946E-01 
    6.1850090225189791E-01 
    6.1704249217312501E-01 
    6.1509007965268037E-01 
    6.1378559426472401E-01 
    6.1166411652619357E-01 
    6.0997943500308349E-01 
    6.0870713702177737E-01 
    6.0719171591563637E-01 
    6.0509752676798656E-01 
    6.0441523260567287E-01 
    6.0472827103475757E-01 
    6.0440852772327436E-01 
    5.8013971198589276E-01 
    5.7932235424951084E-01 
    5.7759714572298437E-01 
    5.7520773294978600E-01 
    5.7284126965628845E-01 
    5.7096121342040795E-01 
    5.6929007185720548E-01 
    5.6800161274948480E-01 
    5.6706065183635657E-01 
    5.6654242426621748E-01 
    5.6539935285318232E-01 
    5.6267918735928801E-01 
    5.5983824372918201E-01 
    5.5728117056417936E-01 
    5.5510336976449159E-01 
    5.5386019881694326E-01 
    5.3535714569473480E-01 
    5.3460894572493811E-01 
    5.3322730467849933E-01 
    5.3144521450025306E-01 
    5.2954912629292261E-01 
    5.2721182009529077E-01 
    5.2366020944787384E-01 
    5.1994759358671705E-01 
    5.1689867505897558E-01 
    5.1304266403309173E-01 
    5.0806438952200317E-01 
    5.0350966680375009E-01 
    5.0037942064410468E-01 
    4.9818555911717877E-01 
    4.9708980105955353E-01 
    4.9666441864052008E-01 
    4.8689868738674458E-01 
    4.8617302479343283E-01 
    4.8460972912245842E-01 
    4.8205972631737198E-01 
    4.7851172469050451E-01 
    4.7418583392754887E-01 
    4.6947002929966908E-01 
    4.6374527270204557E-01 
    4.5700280494704137E-01 
    4.5011709202394162E-01 
    4.4410962757329081E-01 
    4.3885197190700098E-01 
    4.3463573386129112E-01 
    4.3233463609373135E-01 
    4.3201399580947902E-01 
    4.3262768426919385E-01 
    4.3080116879127828E-01 
    4.2987070346561101E-01 
    4.2780923229816298E-01 
    4.2440013386439812E-01 
    4.1985735209425457E-01 
    4.1475568051066691E-01 
    4.0938833156080878E-01 
    4.0253039082996483E-01 
    3.9453334446243166E-01 
    3.8659758261679622E-01 
    3.7930462375664237E-01 
    3.7231814349784731E-01 
    3.6651080655469681E-01 
    3.6346037509094109E-01 
    3.6317353991082607E-01 
    3.6425408536165377E-01 
    3.7741310359049390E-01 
    3.7648020660323323E-01 
    3.7435153666928228E-01 
    3.7065473902582885E-01 
    3.6559944967696539E-01 
    3.5986461294747768E-01 
    3.5379770519668263E-01 
    3.4574082227342834E-01 
    3.3592891982240231E-01 
    3.2584506432577476E-01 
    3.1613389485213422E-01 
    3.0660962155469834E-01 
    2.9821980897211992E-01 
    2.9277694425184575E-01 
    2.9028806519535894E-01 
    2.8963810757931496E-01 
    3.2969807956545422E-01 
    3.2872614158726093E-01 
    3.2645420280891657E-01 
    3.2238380411666662E-01 
    3.1670786915632859E-01 
    3.1024336857356022E-01 
    3.0356683764370707E-01 
    2.9475120736789834E-01 
    2.8370173522500569E-01 
    2.7152554306980375E-01 
    2.5863305218619015E-01 
    2.4477618700460846E-01 
    2.3006253755587500E-01 
    2.1565475196941830E-01 
    2.0234511437920996E-01 
    1.9254961342512689E-01 
    2.9960652182316877E-01 
    2.9857739415684836E-01 
    2.9613893510154182E-01 
    2.9182535822824096E-01 
    2.8579148620823658E-01 
    2.7898363866757164E-01 
    2.7246748276608285E-01 
    2.6409020353053769E-01 
    2.5225163637608206E-01 
    2.3645992663071738E-01 
    2.1803888383602402E-01 
    1.9535611507330483E-01 
    1.6422703964583954E-01 
    1.2213069034772990E-01 
    6.7902371865225714E-02 
    0.0000000000000000E+00 

SCALARS Saturarion double 1 
LOOKUP_TABLE default 

    1.0000000000000315E+00 
    9.8054957989650882E-01 
    9.4983287388628845E-01 
    8.9906058923171384E-01 
    8.4719218647713146E-01 
    7.9489688512723855E-01 
    7.4346759475632784E-01 
    6.9216496077976142E-01 
    6.3995450706839963E-01 
    5.9146885631273260E-01 
    5.5106650632530296E-01 
    5.1772569732760931E-01 
    4.7359132205965504E-01 
    3.0326466717054235E-01 
    4.4853678833320209E-03 
    1.0000280818213209E-06 
    9.5670734001823454E-01 
    9.3802632831956523E-01 
    9.0911081003604299E-01 
    8.6490775429802991E-01 
    8.1666898757771778E-01 
    7.7005393113151177E-01 
    7.2569772353656836E-01 
    6.8158693709501827E-01 
    6.3521727806437278E-01 
    5.9059151769736162E-01 
    5.5137483600390735E-01 
    5.1443987071320185E-01 
    4.5429631237911255E-01 
    1.9998019327332167E-01 
    1.6058673554643203E-04 
    1.0002844022843332E-06 
    8.8734861909656726E-01 
    8.6421085444586387E-01 
    8.3443308348621148E-01 
    8.0008688938449279E-01 
    7.6459997179543404E-01 
    7.2872140194243218E-01 
    6.9385323336975224E-01 
    6.5959724122325125E-01 
    6.2278601175717496E-01 
    5.8386817564035054E-01 
    5.4689450918665283E-01 
    5.0790211006057606E-01 
    4.3227590629275153E-01 
    1.2082293825123881E-01 
    2.4231971308514714E-05 
    1.0000622041645767E-06 
    8.0013680245095353E-01 
    7.8733732816259372E-01 
    7.6608797743152324E-01 
    7.4113792581160809E-01 
    7.1565907176052967E-01 
    6.8876916463874049E-01 
    6.6142582866572419E-01 
    6.3449182266981596E-01 
    6.0584915805538286E-01 
    5.7233744832671996E-01 
    5.3732295423104492E-01 
    4.9750418598999757E-01 
    3.9221035802766613E-01 
    4.2209814617562527E-02 
    1.7644506436987387E-05 
    1.0000124186776834E-06 
    7.2928794429566879E-01 
    7.2349179354047932E-01 
    7.1047050626019403E-01 
    6.9337616954335657E-01 
    6.7172206387885636E-01 
    6.5115876726154787E-01 
    6.2982245200366904E-01 
    6.0778582708748408E-01 
    5.8542287751016964E-01 
    5.5806068878153514E-01 
    5.2741440337292433E-01 
    4.8723724250401546E-01 
    3.3145456435495491E-01 
    1.2608839615385770E-02 
    3.4039196399417417E-06 
    1.0000006268625634E-06 
    6.7852328150194052E-01 
    6.7605052659428588E-01 
    6.6829880154351839E-01 
    6.5760028523263270E-01 
    6.4201173028205261E-01 
    6.2193019749325185E-01 
    6.0080105428886188E-01 
    5.7979121711000248E-01 
    5.6052045459684774E-01 
    5.3982010554162185E-01 
    5.1472947157740345E-01 
    4.7448278211764561E-01 
    2.8108284287724988E-01 
    2.2120166716214666E-03 
    1.0529038674450051E-06 
    1.0000000040170300E-06 
    6.3328678976802844E-01 
    6.3117916107134830E-01 
    6.2555370868075266E-01 
    6.1784690729165803E-01 
    6.1313184759241746E-01 
    5.9767817485716768E-01 
    5.7544657625618967E-01 
    5.5484648605764542E-01 
    5.3517739307883672E-01 
    5.1950018366548845E-01 
    4.9565834276928672E-01 
    4.5162788288019906E-01 
    2.1152968307308639E-01 
    3.1452391966478192E-04 
    1.0038098808755852E-06 
    1.0000000002279579E-06 
    5.9255006968524204E-01 
    5.9038806253858644E-01 
    5.8534608259351539E-01 
    5.7861039998864272E-01 
    5.8014657602869835E-01 
    5.6991946624707912E-01 
    5.5197571631349540E-01 
    5.3478504943000238E-01 
    5.1597056080184533E-01 
    4.9788570984686964E-01 
    4.7441936889471165E-01 
    4.1063687007038430E-01 
    1.1692566124261573E-01 
    6.4431073546636534E-05 
    1.0006308255655513E-06 
    1.0000000000000038E-06 
    5.5744142839538791E-01 
    5.5566600100495822E-01 
    5.5164971872242996E-01 
    5.4647217919538194E-01 
    5.4556827092546734E-01 
    5.3996247596095126E-01 
    5.2863016156865528E-01 
    5.1607073597224951E-01 
    5.0152137777023731E-01 
    4.7811248049626548E-01 
    4.4801139968444936E-01 
    3.0941736877513382E-01 
    2.1796500844630230E-02 
    1.3461905510855568E-05 
    1.0000086843542130E-06 
    1.0000000000000002E-06 
    5.2657224487468213E-01 
    5.2512630186170017E-01 
    5.2176499371502649E-01 
    5.1790052276513376E-01 
    5.1187894851388371E-01 
    5.0756991845640309E-01 
    5.0060586966455856E-01 
    4.9039334259528905E-01 
    4.7713881764399207E-01 
    4.5128598667603204E-01 
    3.7196098785613496E-01 
    1.1389943799871434E-01 
    2.1197129466061848E-04 
    1.0057302855657888E-06 
    1.0000000000041570E-06 
    9.9999999999999995E-07 
    4.8753159043659117E-01 
    4.8563603624026075E-01 
    4.8172053460754982E-01 
    4.7735522402203800E-01 
    4.6946896981273312E-01 
    4.6189034011469232E-01 
    4.5420698315985925E-01 
    4.4178020858368883E-01 
    4.0956087077681230E-01 
    3.3562996236469195E-01 
    1.4536497838830958E-01 
    1.9060122775275334E-03 
    1.0831374672354679E-06 
    1.0000000142124359E-06 
    1.0000000000000010E-06 
    9.9999999999999995E-07 
    3.8743732330688835E-01 
    3.8098118771578798E-01 
    3.7049143591626532E-01 
    3.5618845517345321E-01 
    3.3034024421049091E-01 
    3.0265084343417059E-01 
    2.7629092365577129E-01 
    2.3741461970812269E-01 
    1.4216508543761958E-01 
    3.5503376465706879E-02 
    8.5234784599134614E-04 
    1.2501951824498808E-06 
    1.0000001228133989E-06 
    1.0000000000000241E-06 
    9.9999999999999995E-07 
    9.9999999999999995E-07 
    5.6790874036168337E-02 
    4.9389954230370965E-02 
    3.8389846411192238E-02 
    2.6986768221592801E-02 
    1.5129422974511805E-02 
    7.3027358194019789E-03 
    3.5385296084281680E-03 
    1.1826919422102354E-03 
    1.7581132562051243E-04 
    4.5124751002787190E-05 
    1.1028666631281990E-06 
    1.0000001505827649E-06 
    1.0000000000000741E-06 
    9.9999999999999995E-07 
    9.9999999999999995E-07 
    9.9999999999999995E-07 
    1.0000002976538445E-06 
    1.6384731070070855E-06 
    2.9173919166878142E-06 
    2.6961157314082850E-06 
    2.7525247245911344E-06 
    1.2838498815089047E-06 
    1.1189118174336173E-06 
    1.0232339628820634E-06 
    1.0053678278691983E-06 
    1.0002286926087235E-06 
    1.0000000001332020E-06 
    1.0000000000000419E-06 
    9.9999999999999995E-07 
    9.9999999999999995E-07 
    9.9999999999999995E-07 
    9.9999999999999995E-07 
    1.0000000000001526E-06 
    1.0000001002378770E-06 
    1.0000003252029334E-06 
    1.0000006674112175E-06 
    1.0000004361353854E-06 
    1.0000000499177954E-06 
    1.0000000160013879E-06 
    1.0000000023543064E-06 
    1.0000000014806472E-06 
    1.0000000000000103E-06 
    9.9999999999999995E-07 
    9.9999999999999995E-07 
    9.9999999999999995E-07 
    9.9999999999999995E-07 
    9.9999999999999995E-07 
    9.9999999999999995E-07 
    9.9999999999999995E-07 
    1.0000000000000139E-06 
    1.0000000000000360E-06 
    9.9999999999999995E-07 
    9.9999999999999995E-07 
    9.9999999999999995E-07 
    9.9999999999999995E-07 
    9.9999999999999995E-07 
    1.0000000000000004E-06 
    9.9999999999999995E-07 
    9.9999999999999995E-07 
    9.9999999999999995E-07 
    9.9999999999999995E-07 
    9.9999999999999995E-07 
    9.9999999999999995E-07 
    1.0000003675975882E-06 
