# vtk DataFile Version 2.0
Pressure Field Data 
ASCII 
DATASET UNSTRUCTURED_GRID 

POINTS 289 double 

    0.0000000000000000E+00     0.0000000000000000E+00     0.0000000000000000E+00 
    1.0000000000000000E+00     0.0000000000000000E+00     0.0000000000000000E+00 
    1.0000000000000000E+00     1.0000000000000000E+00     0.0000000000000000E+00 
    0.0000000000000000E+00     1.0000000000000000E+00     0.0000000000000000E+00 
    6.2499999999872928E-02     0.0000000000000000E+00     0.0000000000000000E+00 
    1.2499999999977310E-01     0.0000000000000000E+00     0.0000000000000000E+00 
    1.8749999999959341E-01     0.0000000000000000E+00     0.0000000000000000E+00 
    2.4999999999941089E-01     0.0000000000000000E+00     0.0000000000000000E+00 
    3.1249999999922851E-01     0.0000000000000000E+00     0.0000000000000000E+00 
    3.7499999999904610E-01     0.0000000000000000E+00     0.0000000000000000E+00 
    4.3749999999886358E-01     0.0000000000000000E+00     0.0000000000000000E+00 
    4.9999999999869210E-01     0.0000000000000000E+00     0.0000000000000000E+00 
    5.6249999999884603E-01     0.0000000000000000E+00     0.0000000000000000E+00 
    6.2499999999901090E-01     0.0000000000000000E+00     0.0000000000000000E+00 
    6.8749999999917577E-01     0.0000000000000000E+00     0.0000000000000000E+00 
    7.4999999999934064E-01     0.0000000000000000E+00     0.0000000000000000E+00 
    8.1249999999950551E-01     0.0000000000000000E+00     0.0000000000000000E+00 
    8.7499999999967026E-01     0.0000000000000000E+00     0.0000000000000000E+00 
    9.3749999999983513E-01     0.0000000000000000E+00     0.0000000000000000E+00 
    1.0000000000000000E+00     6.2499999999872928E-02     0.0000000000000000E+00 
    1.0000000000000000E+00     1.2499999999977310E-01     0.0000000000000000E+00 
    1.0000000000000000E+00     1.8749999999959341E-01     0.0000000000000000E+00 
    1.0000000000000000E+00     2.4999999999941089E-01     0.0000000000000000E+00 
    1.0000000000000000E+00     3.1249999999922851E-01     0.0000000000000000E+00 
    1.0000000000000000E+00     3.7499999999904610E-01     0.0000000000000000E+00 
    1.0000000000000000E+00     4.3749999999886358E-01     0.0000000000000000E+00 
    1.0000000000000000E+00     4.9999999999869210E-01     0.0000000000000000E+00 
    1.0000000000000000E+00     5.6249999999884603E-01     0.0000000000000000E+00 
    1.0000000000000000E+00     6.2499999999901090E-01     0.0000000000000000E+00 
    1.0000000000000000E+00     6.8749999999917577E-01     0.0000000000000000E+00 
    1.0000000000000000E+00     7.4999999999934064E-01     0.0000000000000000E+00 
    1.0000000000000000E+00     8.1249999999950551E-01     0.0000000000000000E+00 
    1.0000000000000000E+00     8.7499999999967026E-01     0.0000000000000000E+00 
    1.0000000000000000E+00     9.3749999999983513E-01     0.0000000000000000E+00 
    9.3749999999973976E-01     1.0000000000000000E+00     0.0000000000000000E+00 
    8.7499999999950118E-01     1.0000000000000000E+00     0.0000000000000000E+00 
    8.1249999999991318E-01     1.0000000000000000E+00     0.0000000000000000E+00 
    7.5000000000034706E-01     1.0000000000000000E+00     0.0000000000000000E+00 
    6.8750000000078049E-01     1.0000000000000000E+00     0.0000000000000000E+00 
    6.2500000000121403E-01     1.0000000000000000E+00     0.0000000000000000E+00 
    5.6250000000164757E-01     1.0000000000000000E+00     0.0000000000000000E+00 
    5.0000000000205946E-01     1.0000000000000000E+00     0.0000000000000000E+00 
    4.3750000000182099E-01     1.0000000000000000E+00     0.0000000000000000E+00 
    3.7500000000156092E-01     1.0000000000000000E+00     0.0000000000000000E+00 
    3.1250000000130068E-01     1.0000000000000000E+00     0.0000000000000000E+00 
    2.5000000000104050E-01     1.0000000000000000E+00     0.0000000000000000E+00 
    1.8750000000078040E-01     1.0000000000000000E+00     0.0000000000000000E+00 
    1.2500000000052031E-01     1.0000000000000000E+00     0.0000000000000000E+00 
    6.2500000000260125E-02     1.0000000000000000E+00     0.0000000000000000E+00 
    0.0000000000000000E+00     9.3749999999973976E-01     0.0000000000000000E+00 
    0.0000000000000000E+00     8.7499999999950118E-01     0.0000000000000000E+00 
    0.0000000000000000E+00     8.1249999999991318E-01     0.0000000000000000E+00 
    0.0000000000000000E+00     7.5000000000034706E-01     0.0000000000000000E+00 
    0.0000000000000000E+00     6.8750000000078049E-01     0.0000000000000000E+00 
    0.0000000000000000E+00     6.2500000000121403E-01     0.0000000000000000E+00 
    0.0000000000000000E+00     5.6250000000164757E-01     0.0000000000000000E+00 
    0.0000000000000000E+00     5.0000000000205946E-01     0.0000000000000000E+00 
    0.0000000000000000E+00     4.3750000000182099E-01     0.0000000000000000E+00 
    0.0000000000000000E+00     3.7500000000156092E-01     0.0000000000000000E+00 
    0.0000000000000000E+00     3.1250000000130068E-01     0.0000000000000000E+00 
    0.0000000000000000E+00     2.5000000000104050E-01     0.0000000000000000E+00 
    0.0000000000000000E+00     1.8750000000078040E-01     0.0000000000000000E+00 
    0.0000000000000000E+00     1.2500000000052031E-01     0.0000000000000000E+00 
    0.0000000000000000E+00     6.2500000000260125E-02     0.0000000000000000E+00 
    6.2499999999897131E-02     6.2500000000235922E-02     0.0000000000000000E+00 
    6.2499999999921327E-02     1.2500000000047351E-01     0.0000000000000000E+00 
    6.2499999999945530E-02     1.8750000000070621E-01     0.0000000000000000E+00 
    6.2499999999969733E-02     2.5000000000093858E-01     0.0000000000000000E+00 
    6.2499999999993928E-02     3.1250000000117117E-01     0.0000000000000000E+00 
    6.2500000000018124E-02     3.7500000000140382E-01     0.0000000000000000E+00 
    6.2500000000042327E-02     4.3750000000163619E-01     0.0000000000000000E+00 
    6.2500000000066530E-02     5.0000000000184897E-01     0.0000000000000000E+00 
    6.2500000000090733E-02     5.6250000000147260E-01     0.0000000000000000E+00 
    6.2500000000114922E-02     6.2500000000107636E-01     0.0000000000000000E+00 
    6.2500000000139125E-02     6.8750000000068034E-01     0.0000000000000000E+00 
    6.2500000000163328E-02     7.5000000000028411E-01     0.0000000000000000E+00 
    6.2500000000187531E-02     8.1249999999988787E-01     0.0000000000000000E+00 
    6.2500000000211720E-02     8.7499999999951172E-01     0.0000000000000000E+00 
    6.2500000000235922E-02     9.3749999999974565E-01     0.0000000000000000E+00 
    1.2499999999981980E-01     6.2500000000211733E-02     0.0000000000000000E+00 
    1.2499999999986650E-01     1.2500000000042691E-01     0.0000000000000000E+00 
    1.2499999999991319E-01     1.8750000000063199E-01     0.0000000000000000E+00 
    1.2499999999995989E-01     2.5000000000083678E-01     0.0000000000000000E+00 
    1.2500000000000661E-01     3.1250000000104172E-01     0.0000000000000000E+00 
    1.2500000000005329E-01     3.7500000000124661E-01     0.0000000000000000E+00 
    1.2500000000010000E-01     4.3750000000145117E-01     0.0000000000000000E+00 
    1.2500000000014669E-01     5.0000000000163858E-01     0.0000000000000000E+00 
    1.2500000000019340E-01     5.6250000000129741E-01     0.0000000000000000E+00 
    1.2500000000024011E-01     6.2500000000093847E-01     0.0000000000000000E+00 
    1.2500000000028680E-01     6.8750000000057998E-01     0.0000000000000000E+00 
    1.2500000000033351E-01     7.5000000000022127E-01     0.0000000000000000E+00 
    1.2500000000038020E-01     8.1249999999986211E-01     0.0000000000000000E+00 
    1.2500000000042691E-01     8.7499999999952238E-01     0.0000000000000000E+00 
    1.2500000000047359E-01     9.3749999999975164E-01     0.0000000000000000E+00 
    1.8749999999966760E-01     6.2500000000187531E-02     0.0000000000000000E+00 
    1.8749999999974179E-01     1.2500000000038020E-01     0.0000000000000000E+00 
    1.8749999999981601E-01     1.8750000000055780E-01     0.0000000000000000E+00 
    1.8749999999989009E-01     2.5000000000073502E-01     0.0000000000000000E+00 
    1.8749999999996431E-01     3.1250000000091221E-01     0.0000000000000000E+00 
    1.8750000000003850E-01     3.7500000000108941E-01     0.0000000000000000E+00 
    1.8750000000011269E-01     4.3750000000126649E-01     0.0000000000000000E+00 
    1.8750000000018691E-01     5.0000000000142808E-01     0.0000000000000000E+00 
    1.8750000000026110E-01     5.6250000000112244E-01     0.0000000000000000E+00 
    1.8750000000033529E-01     6.2500000000080080E-01     0.0000000000000000E+00 
    1.8750000000040951E-01     6.8750000000047962E-01     0.0000000000000000E+00 
    1.8750000000048361E-01     7.5000000000015843E-01     0.0000000000000000E+00 
    1.8750000000055780E-01     8.1249999999983680E-01     0.0000000000000000E+00 
    1.8750000000063199E-01     8.7499999999953304E-01     0.0000000000000000E+00 
    1.8750000000070621E-01     9.3749999999975764E-01     0.0000000000000000E+00 
    2.4999999999951281E-01     6.2500000000163314E-02     0.0000000000000000E+00 
    2.4999999999961461E-01     1.2500000000033351E-01     0.0000000000000000E+00 
    2.4999999999971650E-01     1.8750000000048361E-01     0.0000000000000000E+00 
    2.4999999999981831E-01     2.5000000000063310E-01     0.0000000000000000E+00 
    2.4999999999992020E-01     3.1250000000078260E-01     0.0000000000000000E+00 
    2.5000000000002198E-01     3.7500000000093209E-01     0.0000000000000000E+00 
    2.5000000000012390E-01     4.3750000000108180E-01     0.0000000000000000E+00 
    2.5000000000022571E-01     5.0000000000121769E-01     0.0000000000000000E+00 
    2.5000000000032763E-01     5.6250000000094724E-01     0.0000000000000000E+00 
    2.5000000000042938E-01     6.2500000000066314E-01     0.0000000000000000E+00 
    2.5000000000053119E-01     6.8750000000037925E-01     0.0000000000000000E+00 
[...]
CELL_DATA 256 
SCALARS Pressure double 1 
LOOKUP_TABLE default 

    8.9870485566575442E-01 
    8.8652650254836907E-01 
    8.7449969735912880E-01 
    8.6363455466377981E-01 
    8.5572973674705599E-01 
    8.5232366934431769E-01 
    8.4620810345804176E-01 
    8.4117932208892654E-01 
    8.3765471091843946E-01 
    8.3544372476105067E-01 
    8.3261890711083542E-01 
    8.2983976634587664E-01 
    8.2684817723163251E-01 
    8.2366725617410264E-01 
    8.2084726652168172E-01 
    8.1904490992746593E-01 
    8.5340407863669454E-01 
    8.5021835472218710E-01 
    8.4641684408266760E-01 
    8.4227881412397110E-01 
    8.3811238756936068E-01 
    8.3340579267807513E-01 
    8.2833420676404002E-01 
    8.2521773218958816E-01 
    8.2183717168714865E-01 
    8.1843973420597549E-01 
    8.1557051546672577E-01 
    8.1345802247818277E-01 
    8.1136190738315683E-01 
    8.0950769678646450E-01 
    8.0806362427157552E-01 
    8.0717667408690086E-01 
    8.2030415558523939E-01 
    8.1886594508543231E-01 
    8.1716915495800402E-01 
    8.1502005514776055E-01 
    8.1223059612916282E-01 
    8.0845005396908520E-01 
    8.0425509374692805E-01 
    8.0163554916793778E-01 
    7.9825955400904902E-01 
    7.9478332785387962E-01 
    7.9215886711480243E-01 
    7.9055647375454507E-01 
    7.8899868799826278E-01 
    7.8794874066453857E-01 
    7.8750561079177617E-01 
    7.8748228263846565E-01 
    7.8640783899514788E-01 
    7.8625098339313393E-01 
    7.8595536564969581E-01 
    7.8516858196881556E-01 
    7.8356142539895490E-01 
    7.8073850737283856E-01 
    7.7731929847034231E-01 
    7.7501197174550451E-01 
    7.7187001399690536E-01 
    7.6861656953798063E-01 
    7.6634776697472273E-01 
    7.6515095974470371E-01 
    7.6388821373806881E-01 
    7.6328727035542543E-01 
    7.6343994537776150E-01 
    7.6376486822856759E-01 
    7.5478838458608288E-01 
    7.5699861346315722E-01 
    7.5691103124056724E-01 
    7.5614928926165570E-01 
    7.5459388764954904E-01 
    7.5180160626390413E-01 
    7.4858566885900191E-01 
    7.4707202602487344E-01 
    7.4455466387954217E-01 
    7.4169716466413349E-01 
    7.3983963974782774E-01 
    7.3943709564417859E-01 
    7.3829116562787567E-01 
    7.3768031031898951E-01 
    7.3756332299509197E-01 
    7.3715107570222693E-01 
    7.2900038699029390E-01 
    7.2745978714678339E-01 
    7.2506201386997526E-01 
    7.2166453717483658E-01 
    7.1808381972977919E-01 
    7.1562209309721247E-01 
    7.1447784449830565E-01 
    7.1386101952790382E-01 
    7.1317407082978945E-01 
    7.1307771672821374E-01 
    7.1290604233375954E-01 
    7.1194101740115423E-01 
    7.1020982424445156E-01 
    7.0847359658520592E-01 
    7.0695361083276786E-01 
    7.0602916802743043E-01 
    6.8199528830107548E-01 
    6.8160829974362580E-01 
    6.8067448717569923E-01 
    6.7932062126937676E-01 
    6.7812838712340484E-01 
    6.7799957198584992E-01 
    6.7808801493280213E-01 
    6.7576236528589229E-01 
    6.7487640733204002E-01 
    6.7500865148803679E-01 
    6.7491952276125577E-01 
    6.7347410647346873E-01 
    6.7251585226791233E-01 
    6.7160616054057398E-01 
    6.7115802862370444E-01 
    6.7097888576220510E-01 
    6.3853957837188913E-01 
    6.3944665554697133E-01 
    6.4005744941905918E-01 
    6.4033651930131452E-01 
    6.4025600985379083E-01 
    6.3989138109447274E-01 
    6.3895383910480541E-01 
    6.3748649175258554E-01 
    6.3600572771062203E-01 
    6.3488825858884523E-01 
    6.3396846197714485E-01 
    6.3308062836143286E-01 
    6.3210428474796432E-01 
    6.3170160778785500E-01 
    6.3215606993264351E-01 
    6.3251964940923211E-01 
    6.0075925569424415E-01 
    6.0268174213283088E-01 
    6.0269906499801040E-01 
    6.0242295428188397E-01 
    6.0157041201469441E-01 
    6.0005756164320179E-01 
    5.9810382198946310E-01 
    5.9699219885771770E-01 
    5.9522238193425392E-01 
    5.9392612985693172E-01 
    5.9319379553201224E-01 
    5.9285144789035260E-01 
    5.9166526980608725E-01 
    5.9127765752789219E-01 
    5.9155781805138463E-01 
    5.9108139730353337E-01 
    5.6553602122641777E-01 
    5.6471294943548800E-01 
    5.6298125576555447E-01 
    5.6051227676785553E-01 
    5.5798170854384055E-01 
    5.5598350020436693E-01 
    5.5440135857901363E-01 
    5.5326905798916559E-01 
    5.5262951551976724E-01 
    5.5295063551024159E-01 
    5.5323413192505222E-01 
    5.5172437795210916E-01 
    5.4923757846963872E-01 
    5.4676274034613515E-01 
    5.4462767904207221E-01 
    5.4340973279094351E-01 
    5.2349983978043868E-01 
    5.2266892713001789E-01 
    5.2119782884047416E-01 
    5.1934708946383168E-01 
    5.1763495506321067E-01 
    5.1600992735453521E-01 
    5.1332864331237038E-01 
    5.1009182081870286E-01 
    5.0811085043606108E-01 
    5.0598426887325465E-01 
    5.0232807399851320E-01 
    4.9758943882375395E-01 
    4.9377557340220740E-01 
    4.9121862970005348E-01 
    4.9004112961933927E-01 
    4.8967705101606551E-01 
    4.8385940317549458E-01 
    4.8326085444017564E-01 
    4.8205958967239965E-01 
    4.8010108282141795E-01 
    4.7729215857930929E-01 
    4.7367669413322150E-01 
    4.6967009597294268E-01 
    4.6476382316963688E-01 
    4.5843183976961732E-01 
    4.5113326779595941E-01 
    4.4378882305815687E-01 
    4.3666150909176699E-01 
    4.3115841781509406E-01 
    4.2830298794219396E-01 
    4.2783303677125539E-01 
    4.2849495516029817E-01 
    4.3495769592761335E-01 
    4.3415666679459536E-01 
    4.3235735413797122E-01 
    4.2923427588049234E-01 
    4.2485165461249197E-01 
    4.1968964059047020E-01 
    4.1402687664618437E-01 
    4.0647129531769899E-01 
    3.9718956009920980E-01 
    3.8761450503579292E-01 
    3.7875868868903562E-01 
    3.7061822642357417E-01 
    3.6418317439922643E-01 
    3.6085231730585321E-01 
    3.6053306717160821E-01 
    3.6168662536126200E-01 
    3.7826228033742859E-01 
    3.7724367537740783E-01 
    3.7494947335177231E-01 
    3.7102300247052866E-01 
    3.6570209997006842E-01 
    3.5967559526008741E-01 
    3.5323872932882366E-01 
    3.4474519670871484E-01 
    3.3460242649409927E-01 
    3.2435161316572370E-01 
    3.1457018030238343E-01 
    3.0497203281032464E-01 
    2.9650956814758017E-01 
    2.9105126439757950E-01 
    2.8859437815005401E-01 
    2.8799073395880886E-01 
    3.2947065240984313E-01 
    3.2844603895243218E-01 
    3.2609269971657734E-01 
    3.2192193259040258E-01 
    3.1615340974320411E-01 
    3.0962246230622270E-01 
    3.0290203413925698E-01 
    2.9403888344687812E-01 
    2.8297542591797437E-01 
    2.7082871666764180E-01 
    2.5795273828544613E-01 
    2.4410923234417334E-01 
    2.2941115273511839E-01 
    2.1499351366869990E-01 
    2.0163549177683879E-01 
    1.9178461185995430E-01 
    2.9883186333123379E-01 
    2.9776243549630149E-01 
    2.9530485297776032E-01 
    2.9100972627439026E-01 
    2.8504266054719885E-01 
    2.7832636522112325E-01 
    2.7189426495791469E-01 
    2.6361713410789789E-01 
    2.5191560559028708E-01 
    2.3628913927898751E-01 
    2.1799545241728133E-01 
    1.9541265036134589E-01 
    1.6434553260886456E-01 
    1.2224709695801719E-01 
    6.7967669078494136E-02 
    0.0000000000000000E+00 

SCALARS Saturarion double 1 
LOOKUP_TABLE default 

    1.0000000000000191E+00 
    9.8221729166532501E-01 
    9.5430615148607190E-01 
    9.0750169562883909E-01 
    8.5880923936092779E-01 
    8.0883445035115231E-01 
    7.5884854879970642E-01 
    7.0841019807579764E-01 
    6.5671385815078986E-01 
    6.0862032297105750E-01 
    5.6670272090390228E-01 
    5.3241107770055440E-01 
    4.9862582652389514E-01 
    4.1416109624088548E-01 
    8.7882451661859817E-02 
    1.0038166867368621E-06 
    9.5958796980660488E-01 
    9.4238209194429678E-01 
    9.1551254732149623E-01 
    8.7474806115826176E-01 
    8.2913882510546622E-01 
    7.8422373766831810E-01 
    7.4095033975336577E-01 
    6.9749646085841976E-01 
    6.5120116350662782E-01 
    6.0586638121921865E-01 
    5.6499851501430698E-01 
    5.2836480364914107E-01 
    4.8438591097185385E-01 
    3.3964657152233702E-01 
    1.5084784248890939E-02 
    3.8521793253745338E-06 
    8.9369432803946802E-01 
    8.7206773066846976E-01 
    8.4408474529936650E-01 
    8.1184810887747860E-01 
    7.7760419998532149E-01 
    7.4280974185648729E-01 
    7.0880343875092822E-01 
    6.7505081943057033E-01 
    6.3815794065067355E-01 
    5.9828171994514001E-01 
    5.6009886352596150E-01 
    5.2237269265230535E-01 
    4.6830977775831101E-01 
    2.3741521858990353E-01 
    6.7693509664449171E-04 
    1.0054026091992655E-06 
    8.1072839993918488E-01 
    7.9810331661874634E-01 
    7.7721063879152852E-01 
    7.5310825559932204E-01 
    7.2875859518576869E-01 
    7.0269807744943213E-01 
    6.7591250579120299E-01 
    6.4934372767959914E-01 
    6.2073372235119118E-01 
    5.8659335112163880E-01 
    5.5049608291897845E-01 
    5.1249391378401232E-01 
    4.4602585631302538E-01 
    1.4718051038926563E-01 
    5.5473402024387361E-05 
    1.0002114835180723E-06 
    7.4260370783743646E-01 
    7.3664873554868981E-01 
    7.2328416048931832E-01 
    7.0618137688468252E-01 
    6.8470063777731183E-01 
    6.6456862553243601E-01 
    6.4360706504259624E-01 
    6.2192048643948938E-01 
    5.9989135361827095E-01 
    5.7213582872220858E-01 
    5.3990402244535984E-01 
    5.0320815088257598E-01 
    4.1527360841330596E-01 
    7.9432568387922398E-02 
    3.3638519276495690E-05 
    1.0001391997990544E-06 
    6.9271964816244425E-01 
    6.9022245916784231E-01 
    6.8238255552111093E-01 
    6.7162922018520799E-01 
    6.5550842781468699E-01 
    6.3506264621390796E-01 
    6.1402391628850705E-01 
    5.9350898095868798E-01 
    5.7458515005728938E-01 
    5.5322462676834128E-01 
    5.2745234385489526E-01 
    4.9522369023576485E-01 
    3.8808613086915744E-01 
    4.2571776379788033E-02 
    6.5746665106712912E-06 
    1.0000025418738646E-06 
    6.4805988819150073E-01 
    6.4604948214421698E-01 
    6.4058784204066799E-01 
    6.3292812771916307E-01 
    6.2751841136256359E-01 
    6.1168447677833804E-01 
    5.8935101804893331E-01 
    5.6858234155506326E-01 
    5.4831757773108658E-01 
    5.3206645247789564E-01 
    5.1050417954742666E-01 
    4.7699985273828771E-01 
    3.2992877332844001E-01 
    1.0444383059783367E-02 
    2.1364017451126900E-06 
    1.0000000906519006E-06 
    6.0809965063686011E-01 
    6.0596288350707717E-01 
    6.0101264670721866E-01 
    5.9414235054969899E-01 
    5.9567312591822164E-01 
    5.8563156877979805E-01 
    5.6693703109108262E-01 
    5.4849090481972607E-01 
    5.2908929021081175E-01 
    5.1271739711023367E-01 
    4.9188327890635375E-01 
    4.5482300492852507E-01 
    2.3182676293378399E-01 
    4.8346944356829992E-04 
    1.0041591331273164E-06 
    1.0000000002778589E-06 
    5.7445137058028850E-01 
    5.7268046595689903E-01 
    5.6857147786652751E-01 
    5.6297757911943402E-01 
    5.6325540740567936E-01 
    5.5769261442540241E-01 
    5.4471371607716457E-01 
    5.3052728642542346E-01 
    5.1553936415979118E-01 
    4.9534275867300387E-01 
    4.7454575496561513E-01 
    4.2664074687642434E-01 
    1.5908437483747104E-01 
    1.6140003388546780E-04 
    1.0054482894871501E-06 
    1.0000000001089398E-06 
    5.4660157558638300E-01 
    5.4519954418877914E-01 
    5.4186771100668907E-01 
    5.3780513624763149E-01 
    5.3287721935318677E-01 
    5.2918423025929062E-01 
    5.2127582225094549E-01 
    5.1115125429146702E-01 
    5.0055421993246296E-01 
    4.8117859968610788E-01 
    4.5538573227146689E-01 
    3.6213143130781034E-01 
    5.0215721307506032E-02 
    4.6556368709866661E-05 
    1.0001236616910846E-06 
    1.0000000000000002E-06 
    5.1726197388041473E-01 
    5.1606723068308247E-01 
    5.1329530448334448E-01 
    5.1023538280225433E-01 
    5.0518406697524310E-01 
    4.9969707105710987E-01 
    4.9473101436408567E-01 
    4.8715620981368174E-01 
    4.7490481919733124E-01 
    4.5797577041396115E-01 
    4.1685896418702639E-01 
    2.2913131466863276E-01 
    3.6259082690212633E-03 
    1.2524282906028640E-06 
    1.0000000210212700E-06 
    1.0000000000000002E-06 
    4.7577463113924667E-01 
    4.7443230341974196E-01 
    4.7143041537775260E-01 
    4.6823794627799892E-01 
    4.6343500024597595E-01 
    4.5642244272197496E-01 
    4.5109543931257506E-01 
    4.4509420714284914E-01 
    4.3069715748493304E-01 
    3.9554527260376987E-01 
    2.8581765117925556E-01 
    5.7712439771509409E-02 
    1.4340101188619817E-04 
    1.0014581824483629E-06 
    1.0000000000000218E-06 
    9.9999999999999995E-07 
    3.4071298246059406E-01 
    3.3463331083129727E-01 
    3.2541620551354422E-01 
    3.1407168078983644E-01 
    3.0166275920391566E-01 
    2.8047611171698883E-01 
    2.5959958105853170E-01 
    2.4297407474065663E-01 
    2.2602227318699664E-01 
    1.3329392995419340E-01 
    2.0840108944450514E-02 
    2.3352131404437841E-04 
    1.0149009879660136E-06 
    1.0000000008883753E-06 
    9.9999999999999995E-07 
    9.9999999999999995E-07 
    1.6521042031430986E-02 
    1.4042288911096412E-02 
    1.0993473047974085E-02 
    7.7758365756593643E-03 
    5.8392616058782435E-03 
    3.2831626092384024E-03 
    1.5500612235895097E-03 
    8.0682850305630266E-04 
    1.0173136677210173E-03 
    1.8172743792453218E-04 
    1.8299711387814554E-05 
    1.0020841426894223E-06 
    1.0000000023134274E-06 
    1.0000000000000004E-06 
    9.9999999999999995E-07 
    9.9999999999999995E-07 
    1.0000000317009261E-06 
    1.0511756248676538E-06 
    1.1251637687547490E-06 
    1.0937779808685389E-06 
    1.1137696779146413E-06 
    1.0617271814543118E-06 
    1.0105346083985663E-06 
    1.0047015924880826E-06 
    1.0292833882244111E-06 
    1.0138000097292281E-06 
    1.0000279161466239E-06 
    1.0000000001471685E-06 
    9.9999999999999995E-07 
    9.9999999999999995E-07 
    9.9999999999999995E-07 
    9.9999999999999995E-07 
    1.0000000000000072E-06 
    1.0000000026884597E-06 
    1.0000000057460129E-06 
    1.0000000101179085E-06 
    1.0000000101006377E-06 
    1.0000000064792915E-06 
    1.0000000008617164E-06 
    1.0000000001578185E-06 
    1.0000000037076069E-06 
    1.0000000000000093E-06 
    1.0000000000000093E-06 
    9.9999999999999974E-07 
    9.9999999999999995E-07 
    9.9999999999999995E-07 
    9.9999999999999995E-07 
    1.0000004069590329E-06 
