# vtk DataFile Version 2.0
Pressure Field Data 
ASCII 
DATASET UNSTRUCTURED_GRID 

POINTS 289 double 

    0.0000000000000000E+00     0.0000000000000000E+00     0.0000000000000000E+00 
    1.0000000000000000E+00     0.0000000000000000E+00     0.0000000000000000E+00 
    1.0000000000000000E+00     1.0000000000000000E+00     0.0000000000000000E+00 
    0.0000000000000000E+00     1.0000000000000000E+00     0.0000000000000000E+00 
    6.2499999999872928E-02     0.0000000000000000E+00     0.0000000000000000E+00 
    1.2499999999977310E-01     0.0000000000000000E+00     0.0000000000000000E+00 
    1.8749999999959341E-01     0.0000000000000000E+00     0.0000000000000000E+00 
    2.4999999999941089E-01     0.0000000000000000E+00     0.0000000000000000E+00 
    3.1249999999922851E-01     0.0000000000000000E+00     0.0000000000000000E+00 
    3.7499999999904610E-01     0.0000000000000000E+00     0.0000000000000000E+00 
    4.3749999999886358E-01     0.0000000000000000E+00     0.0000000000000000E+00 
    4.9999999999869210E-01     0.0000000000000000E+00     0.0000000000000000E+00 
    5.6249999999884603E-01     0.0000000000000000E+00     0.0000000000000000E+00 
    6.2499999999901090E-01     0.0000000000000000E+00     0.0000000000000000E+00 
    6.8749999999917577E-01     0.0000000000000000E+00     0.0000000000000000E+00 
    7.4999999999934064E-01     0.0000000000000000E+00     0.0000000000000000E+00 
    8.1249999999950551E-01     0.0000000000000000E+00     0.0000000000000000E+00 
    8.7499999999967026E-01     0.0000000000000000E+00     0.0000000000000000E+00 
    9.3749999999983513E-01     0.0000000000000000E+00     0.0000000000000000E+00 
    1.0000000000000000E+00     6.2499999999872928E-02     0.0000000000000000E+00 
    1.0000000000000000E+00     1.2499999999977310E-01     0.0000000000000000E+00 
    1.0000000000000000E+00     1.8749999999959341E-01     0.0000000000000000E+00 
    1.0000000000000000E+00     2.4999999999941089E-01     0.0000000000000000E+00 
    1.0000000000000000E+00     3.1249999999922851E-01     0.0000000000000000E+00 
    1.0000000000000000E+00     3.7499999999904610E-01     0.0000000000000000E+00 
    1.0000000000000000E+00     4.3749999999886358E-01     0.0000000000000000E+00 
    1.0000000000000000E+00     4.9999999999869210E-01     0.0000000000000000E+00 
    1.0000000000000000E+00     5.6249999999884603E-01     0.0000000000000000E+00 
    1.0000000000000000E+00     6.2499999999901090E-01     0.0000000000000000E+00 
    1.0000000000000000E+00     6.8749999999917577E-01     0.0000000000000000E+00 
    1.0000000000000000E+00     7.4999999999934064E-01     0.0000000000000000E+00 
    1.0000000000000000E+00     8.1249999999950551E-01     0.0000000000000000E+00 
    1.0000000000000000E+00     8.7499999999967026E-01     0.0000000000000000E+00 
    1.0000000000000000E+00     9.3749999999983513E-01     0.0000000000000000E+00 
    9.3749999999973976E-01     1.0000000000000000E+00     0.0000000000000000E+00 
    8.7499999999950118E-01     1.0000000000000000E+00     0.0000000000000000E+00 
    8.1249999999991318E-01     1.0000000000000000E+00     0.0000000000000000E+00 
    7.5000000000034706E-01     1.0000000000000000E+00     0.0000000000000000E+00 
    6.8750000000078049E-01     1.0000000000000000E+00     0.0000000000000000E+00 
    6.2500000000121403E-01     1.0000000000000000E+00     0.0000000000000000E+00 
    5.6250000000164757E-01     1.0000000000000000E+00     0.0000000000000000E+00 
    5.0000000000205946E-01     1.0000000000000000E+00     0.0000000000000000E+00 
    4.3750000000182099E-01     1.0000000000000000E+00     0.0000000000000000E+00 
    3.7500000000156092E-01     1.0000000000000000E+00     0.0000000000000000E+00 
    3.1250000000130068E-01     1.0000000000000000E+00     0.0000000000000000E+00 
    2.5000000000104050E-01     1.0000000000000000E+00     0.0000000000000000E+00 
    1.8750000000078040E-01     1.0000000000000000E+00     0.0000000000000000E+00 
    1.2500000000052031E-01     1.0000000000000000E+00     0.0000000000000000E+00 
    6.2500000000260125E-02     1.0000000000000000E+00     0.0000000000000000E+00 
    0.0000000000000000E+00     9.3749999999973976E-01     0.0000000000000000E+00 
    0.0000000000000000E+00     8.7499999999950118E-01     0.0000000000000000E+00 
    0.0000000000000000E+00     8.1249999999991318E-01     0.0000000000000000E+00 
    0.0000000000000000E+00     7.5000000000034706E-01     0.0000000000000000E+00 
    0.0000000000000000E+00     6.8750000000078049E-01     0.0000000000000000E+00 
    0.0000000000000000E+00     6.2500000000121403E-01     0.0000000000000000E+00 
    0.0000000000000000E+00     5.6250000000164757E-01     0.0000000000000000E+00 
    0.0000000000000000E+00     5.0000000000205946E-01     0.0000000000000000E+00 
    0.0000000000000000E+00     4.3750000000182099E-01     0.0000000000000000E+00 
    0.0000000000000000E+00     3.7500000000156092E-01     0.0000000000000000E+00 
    0.0000000000000000E+00     3.1250000000130068E-01     0.0000000000000000E+00 
    0.0000000000000000E+00     2.5000000000104050E-01     0.0000000000000000E+00 
    0.0000000000000000E+00     1.8750000000078040E-01     0.0000000000000000E+00 
    0.0000000000000000E+00     1.2500000000052031E-01     0.0000000000000000E+00 
    0.0000000000000000E+00     6.2500000000260125E-02     0.0000000000000000E+00 
    6.2499999999897131E-02     6.2500000000235922E-02     0.0000000000000000E+00 
    6.2499999999921327E-02     1.2500000000047351E-01     0.0000000000000000E+00 
    6.2499999999945530E-02     1.8750000000070621E-01     0.0000000000000000E+00 
    6.2499999999969733E-02     2.5000000000093858E-01     0.0000000000000000E+00 
    6.2499999999993928E-02     3.1250000000117117E-01     0.0000000000000000E+00 
    6.2500000000018124E-02     3.7500000000140382E-01     0.0000000000000000E+00 
    6.2500000000042327E-02     4.3750000000163619E-01     0.0000000000000000E+00 
    6.2500000000066530E-02     5.0000000000184897E-01     0.0000000000000000E+00 
    6.2500000000090733E-02     5.6250000000147260E-01     0.0000000000000000E+00 
    6.2500000000114922E-02     6.2500000000107636E-01     0.0000000000000000E+00 
    6.2500000000139125E-02     6.8750000000068034E-01     0.0000000000000000E+00 
    6.2500000000163328E-02     7.5000000000028411E-01     0.0000000000000000E+00 
    6.2500000000187531E-02     8.1249999999988787E-01     0.0000000000000000E+00 
    6.2500000000211720E-02     8.7499999999951172E-01     0.0000000000000000E+00 
    6.2500000000235922E-02     9.3749999999974565E-01     0.0000000000000000E+00 
    1.2499999999981980E-01     6.2500000000211733E-02     0.0000000000000000E+00 
    1.2499999999986650E-01     1.2500000000042691E-01     0.0000000000000000E+00 
    1.2499999999991319E-01     1.8750000000063199E-01     0.0000000000000000E+00 
    1.2499999999995989E-01     2.5000000000083678E-01     0.0000000000000000E+00 
    1.2500000000000661E-01     3.1250000000104172E-01     0.0000000000000000E+00 
    1.2500000000005329E-01     3.7500000000124661E-01     0.0000000000000000E+00 
    1.2500000000010000E-01     4.3750000000145117E-01     0.0000000000000000E+00 
    1.2500000000014669E-01     5.0000000000163858E-01     0.0000000000000000E+00 
    1.2500000000019340E-01     5.6250000000129741E-01     0.0000000000000000E+00 
    1.2500000000024011E-01     6.2500000000093847E-01     0.0000000000000000E+00 
    1.2500000000028680E-01     6.8750000000057998E-01     0.0000000000000000E+00 
    1.2500000000033351E-01     7.5000000000022127E-01     0.0000000000000000E+00 
    1.2500000000038020E-01     8.1249999999986211E-01     0.0000000000000000E+00 
    1.2500000000042691E-01     8.7499999999952238E-01     0.0000000000000000E+00 
    1.2500000000047359E-01     9.3749999999975164E-01     0.0000000000000000E+00 
    1.8749999999966760E-01     6.2500000000187531E-02     0.0000000000000000E+00 
    1.8749999999974179E-01     1.2500000000038020E-01     0.0000000000000000E+00 
    1.8749999999981601E-01     1.8750000000055780E-01     0.0000000000000000E+00 
    1.8749999999989009E-01     2.5000000000073502E-01     0.0000000000000000E+00 
    1.8749999999996431E-01     3.1250000000091221E-01     0.0000000000000000E+00 
    1.8750000000003850E-01     3.7500000000108941E-01     0.0000000000000000E+00 
    1.8750000000011269E-01     4.3750000000126649E-01     0.0000000000000000E+00 
    1.8750000000018691E-01     5.0000000000142808E-01     0.0000000000000000E+00 
    1.8750000000026110E-01     5.6250000000112244E-01     0.0000000000000000E+00 
    1.8750000000033529E-01     6.2500000000080080E-01     0.0000000000000000E+00 
    1.8750000000040951E-01     6.8750000000047962E-01     0.0000000000000000E+00 
    1.8750000000048361E-01     7.5000000000015843E-01     0.0000000000000000E+00 
    1.8750000000055780E-01     8.1249999999983680E-01     0.0000000000000000E+00 
    1.8750000000063199E-01     8.7499999999953304E-01     0.0000000000000000E+00 
    1.8750000000070621E-01     9.3749999999975764E-01     0.0000000000000000E+00 
    2.4999999999951281E-01     6.2500000000163314E-02     0.0000000000000000E+00 
    2.4999999999961461E-01     1.2500000000033351E-01     0.0000000000000000E+00 
    2.4999999999971650E-01     1.8750000000048361E-01     0.0000000000000000E+00 
    2.4999999999981831E-01     2.5000000000063310E-01     0.0000000000000000E+00 
    2.4999999999992020E-01     3.1250000000078260E-01     0.0000000000000000E+00 
    2.5000000000002198E-01     3.7500000000093209E-01     0.0000000000000000E+00 
    2.5000000000012390E-01     4.3750000000108180E-01     0.0000000000000000E+00 
    2.5000000000022571E-01     5.0000000000121769E-01     0.0000000000000000E+00 
    2.5000000000032763E-01     5.6250000000094724E-01     0.0000000000000000E+00 
    2.5000000000042938E-01     6.2500000000066314E-01     0.0000000000000000E+00 
    2.5000000000053119E-01     6.8750000000037925E-01     0.0000000000000000E+00 
[...]
CELL_DATA 256 
SCALARS Pressure double 1 
LOOKUP_TABLE default 

    8.1891688093556003E-01 
    8.0668471679018938E-01 
    7.9470719887769470E-01 
    7.8398382872615813E-01 
    7.7624075370818801E-01 
    7.7320581534880650E-01 
    7.6753433811509453E-01 
    7.6283512470291104E-01 
    7.5954184937764890E-01 
    7.5769570580348145E-01 
    7.5520298627334959E-01 
    7.5282920417756649E-01 
    7.5035756100590256E-01 
    7.4768377933715346E-01 
    7.4518468717458120E-01 
    7.4359789042489943E-01 
    7.7488754305444629E-01 
    7.7171479326747294E-01 
    7.6798079303691991E-01 
    7.6397973488725324E-01 
    7.6005080997489749E-01 
    7.5570036853561007E-01 
    7.5092585706161807E-01 
    7.4812059863468605E-01 
    7.4511849720324885E-01 
    7.4206382625294331E-01 
    7.3937859560591535E-01 
    7.3749276226897720E-01 
    7.3560000990404206E-01 
    7.3411130679094805E-01 
    7.3309365610151977E-01 
    7.3238816258007133E-01 
    7.4360582107603512E-01 
    7.4224332930179371E-01 
    7.4066487385894531E-01 
    7.3870905071518145E-01 
    7.3622438993484940E-01 
    7.3283978838917518E-01 
    7.2893042820689080E-01 
    7.2661112566524633E-01 
    7.2363851317771122E-01 
    7.2047791956631102E-01 
    7.1795002796403817E-01 
    7.1646274204249927E-01 
    7.1494201179941363E-01 
    7.1416737284501364E-01 
    7.1400940522125689E-01 
    7.1400150500256954E-01 
    7.1216005814390848E-01 
    7.1207240579646569E-01 
    7.1189127174990285E-01 
    7.1130743753541514E-01 
    7.1002748459627651E-01 
    7.0761807378340946E-01 
    7.0447875870317511E-01 
    7.0246515696721501E-01 
    6.9971396562094212E-01 
    6.9672656205143213E-01 
    6.9447720423339443E-01 
    6.9332913551014175E-01 
    6.9207503473389897E-01 
    6.9169463176009860E-01 
    6.9199142051407225E-01 
    6.9225598892954221E-01 
    6.8297879661022531E-01 
    6.8527292287944608E-01 
    6.8542941060799778E-01 
    6.8497065788478051E-01 
    6.8382737524412152E-01 
    6.8147356656625879E-01 
    6.7848446532898976E-01 
    6.7726341464430595E-01 
    6.7512645140508176E-01 
    6.7244996480163566E-01 
    6.7049724145427025E-01 
    6.7018594048636315E-01 
    6.6918351382904218E-01 
    6.6881630341814913E-01 
    6.6884611967516749E-01 
    6.6853384745863897E-01 
    6.6079898424594463E-01 
    6.5938577390947761E-01 
    6.5720656154071488E-01 
    6.5408525453011224E-01 
    6.5073772166669119E-01 
    6.4844053558805759E-01 
    6.4745301575352787E-01 
    6.4706600037652939E-01 
    6.4658174251684641E-01 
    6.4668462627005774E-01 
    6.4683132655630793E-01 
    6.4632557693324921E-01 
    6.4491121004273222E-01 
    6.4338430414121439E-01 
    6.4207768887469174E-01 
    6.4138269165128492E-01 
    6.1810614826233146E-01 
    6.1774920543049516E-01 
    6.1690875111277066E-01 
    6.1569485058950757E-01 
    6.1463698336344452E-01 
    6.1464391013524255E-01 
    6.1509898675196806E-01 
    6.1312412134473260E-01 
    6.1249347578762625E-01 
    6.1288160352443333E-01 
    6.1318314683011221E-01 
    6.1207142559402239E-01 
    6.1156709191203296E-01 
    6.1118215523094610E-01 
    6.1092495993304241E-01 
    6.1074894179456407E-01 
    5.7880868969481991E-01 
    5.7969226848074817E-01 
    5.8035289141038515E-01 
    5.8077727054482053E-01 
    5.8096380931246516E-01 
    5.8091482787962423E-01 
    5.8033491626566114E-01 
    5.7936442261997267E-01 
    5.7845823709088617E-01 
    5.7779771827030313E-01 
    5.7719826857956857E-01 
    5.7672063040408283E-01 
    5.7640074746128500E-01 
    5.7654252523023086E-01 
    5.7705348856437788E-01 
    5.7722614717532517E-01 
    5.4510989062806681E-01 
    5.4718576251846140E-01 
    5.4743103935858628E-01 
    5.4744285302959805E-01 
    5.4701523065707547E-01 
    5.4590597338754154E-01 
    5.4435308636277790E-01 
    5.4384472218843194E-01 
    5.4269692352056542E-01 
    5.4172997605346229E-01 
    5.4124611720757476E-01 
    5.4157855372310892E-01 
    5.4130557307528115E-01 
    5.4147041227368120E-01 
    5.4178759269236076E-01 
    5.4118720623772387E-01 
    5.1576718542629851E-01 
    5.1501788215474031E-01 
    5.1345434112559651E-01 
    5.1118210870657732E-01 
    5.0885966467289112E-01 
    5.0716783067851534E-01 
    5.0594808465312147E-01 
    5.0516371016708939E-01 
    5.0480446384057798E-01 
    5.0550366909671418E-01 
    5.0655544611683800E-01 
    5.0615098272010206E-01 
    5.0456704307826050E-01 
    5.0281732993311912E-01 
    5.0124390738990776E-01 
    5.0027077586513180E-01 
    4.8016920872710145E-01 
    4.7930758613006808E-01 
    4.7786178796467610E-01 
    4.7600307640151590E-01 
    4.7426437860540716E-01 
    4.7281219515664047E-01 
    4.7046074481329975E-01 
    4.6731222922433518E-01 
    4.6558749194272175E-01 
    4.6445618505492009E-01 
    4.6256344474187927E-01 
    4.5966505631267551E-01 
    4.5771226195793141E-01 
    4.5616048950086363E-01 
    4.5546339477256415E-01 
    4.5537699940665705E-01 
    4.4848461711934146E-01 
    4.4778821361488119E-01 
    4.4663857679856556E-01 
    4.4487500838698385E-01 
    4.4233765647675843E-01 
    4.3889189479126756E-01 
    4.3510358095295576E-01 
    4.3131881086681539E-01 
    4.2655715595942983E-01 
    4.2089864012455980E-01 
    4.1545034038149659E-01 
    4.1100037581014393E-01 
    4.0724138815850969E-01 
    4.0512119643702155E-01 
    4.0499261552239835E-01 
    4.0583833568559108E-01 
    4.1580802982586224E-01 
    4.1501920301518136E-01 
    4.1366135263425663E-01 
    4.1126948874729696E-01 
    4.0749852202493786E-01 
    4.0251437306191318E-01 
    3.9743439106551931E-01 
    3.9181268823399101E-01 
    3.8402659236002973E-01 
    3.7498755308860349E-01 
    3.6667514641264909E-01 
    3.5987428125771947E-01 
    3.5404112464716192E-01 
    3.5103832754372744E-01 
    3.5091669999041486E-01 
    3.5198955794413817E-01 
    3.7966198351972136E-01 
    3.7877375624785636E-01 
    3.7703934915572812E-01 
    3.7383456608992588E-01 
    3.6894861404189355E-01 
    3.6292352366488961E-01 
    3.5674193150257821E-01 
    3.4902821213798652E-01 
    3.3850486354868403E-01 
    3.2683441827521148E-01 
    3.1609297655460572E-01 
    3.0685530581278014E-01 
    2.9856345226847542E-01 
    2.9348497838938098E-01 
    2.9109001194279882E-01 
    2.9009626708185743E-01 
    3.3660939114363653E-01 
    3.3561081287013084E-01 
    3.3342773521254221E-01 
    3.2955027467752285E-01 
    3.2410242271634204E-01 
    3.1778266165003244E-01 
    3.1103601026685845E-01 
    3.0221784806020680E-01 
    2.9092561929255423E-01 
    2.7865537487654279E-01 
    2.6642725806282974E-01 
    2.5398339670751613E-01 
    2.4054474945113524E-01 
    2.2693930600595719E-01 
    2.1265218772832684E-01 
    2.0145735727409680E-01 
    3.0493799392695065E-01 
    3.0375468100282016E-01 
    3.0126307752771775E-01 
    2.9706015041455386E-01 
    2.9135444654703541E-01 
    2.8500903879693906E-01 
    2.7863048707457017E-01 
    2.7077508129574845E-01 
    2.5978069752719390E-01 
    2.4509686802530242E-01 
    2.2743739715208403E-01 
    2.0508653538240815E-01 
    1.7408026443024002E-01 
    1.3151317591377112E-01 
    7.4657785122692999E-02 
    0.0000000000000000E+00 

SCALARS Saturarion double 1 
LOOKUP_TABLE default 

    1.0000000000000009E+00 
    9.8608527842222982E-01 
    9.6451502657321464E-01 
    9.2736680410991146E-01 
    8.8688988131395785E-01 
    8.4341558987163845E-01 
    7.9813998034962452E-01 
    7.5090613122252292E-01 
    7.0129577651197761E-01 
    6.5511134616585498E-01 
    6.1230611520778266E-01 
    5.7312573390941368E-01 
    5.3914758952403663E-01 
    5.0488681832170235E-01 
    4.1978403709869322E-01 
    9.5345598349482030E-02 
    9.6656159011083143E-01 
    9.5291158607141502E-01 
    9.3093737939497190E-01 
    8.9840227091405700E-01 
    8.5993828726031019E-01 
    8.2019440320282588E-01 
    7.8033660700105489E-01 
    7.3926509627562598E-01 
    6.9423319019581775E-01 
    6.4912637885839530E-01 
    6.0640559147483031E-01 
    5.6603844372092460E-01 
    5.2972549636385091E-01 
    4.8735881903189465E-01 
    3.0310234121311891E-01 
    6.5873510256005052E-03 
    9.0973329721627860E-01 
    8.9185534397135191E-01 
    8.6829614606668515E-01 
    8.4155456254402272E-01 
    8.1112757642773348E-01 
    7.7947523053335088E-01 
    7.4797215120975213E-01 
    7.1610958962827420E-01 
    6.8009925975624497E-01 
    6.3960852805116442E-01 
    5.9905810121876579E-01 
    5.5935308314023657E-01 
    5.2063176607115702E-01 
    4.6451858463284273E-01 
    1.8944430672048584E-01 
    1.2001718802665005E-04 
    8.3708615660475083E-01 
    8.2531263727765236E-01 
    8.0593809088435409E-01 
    7.8444816658662853E-01 
    7.6296907445050899E-01 
    7.3946245082146189E-01 
    7.1458497462722992E-01 
    6.8952740576935234E-01 
    6.6175321207911375E-01 
    6.2717879465496906E-01 
    5.8918909384738460E-01 
    5.5001324511241789E-01 
    5.0962474347244091E-01 
    4.3441915895228461E-01 
    9.7684417048443467E-02 
    2.9615595180502356E-05 
    7.7664855745492045E-01 
    7.7029061202855442E-01 
    7.5618869726015803E-01 
    7.3918983860408605E-01 
    7.1901024316969764E-01 
    7.0076108213596811E-01 
    6.8111997937779400E-01 
    6.6058957080215130E-01 
    6.3955596109907087E-01 
    6.1177374188303080E-01 
    5.7752338837982253E-01 
    5.3969637252681579E-01 
    4.9788288529558017E-01 
    3.9414201546359295E-01 
    4.1993201833363386E-02 
    1.2922769279829831E-05 
    7.3001345483217983E-01 
    7.2747186784747375E-01 
    7.1911951824452636E-01 
    7.0802968143936196E-01 
    6.9144160817225564E-01 
    6.7053633340549912E-01 
    6.4968606623127079E-01 
    6.3052066101559723E-01 
    6.1343884966583873E-01 
    5.9209539633001385E-01 
    5.6400799713353433E-01 
    5.3217970586567853E-01 
    4.9122312683773034E-01 
    3.5760912527659167E-01 
    1.5641717266503045E-02 
    1.6574216698557885E-06 
    6.8694733809913477E-01 
    6.8505418606284474E-01 
    6.7978664486005380E-01 
    6.7228513994016714E-01 
    6.6576531683282092E-01 
    6.4792998984404970E-01 
    6.2453318497777099E-01 
    6.0487431875641084E-01 
    5.8612817699584518E-01 
    5.6893816078474502E-01 
    5.4650242714117581E-01 
    5.2151017185813631E-01 
    4.8063094050714733E-01 
    2.8907307747980820E-01 
    2.4405381594909846E-03 
    1.0419741909955620E-06 
    6.4864037978851896E-01 
    6.4663756957261698E-01 
    6.4197788225147523E-01 
    6.3518269209730105E-01 
    6.3512965839994540E-01 
    6.2381517201779524E-01 
    6.0398406970608087E-01 
    5.8491019872726591E-01 
    5.6452813594949691E-01 
    5.4790397397214408E-01 
    5.2848642250719979E-01 
    5.0467247541745419E-01 
    4.5696714161806401E-01 
    1.9286616537024739E-01 
    1.1985384274455027E-04 
    1.0001197896326685E-06 
    6.1700858508230916E-01 
    6.1516263882163602E-01 
    6.1105846027325916E-01 
    6.0509718659432432E-01 
    6.0556203042655532E-01 
    5.9979732965457178E-01 
    5.8451919262970597E-01 
    5.6740759823793985E-01 
    5.4940715430686360E-01 
    5.3174220028516628E-01 
    5.1414136145168954E-01 
    4.8711753229936322E-01 
    4.2253287769347658E-01 
    1.1430651182296826E-01 
    4.5377374171317515E-05 
    1.0009517101139604E-06 
    5.9198205627606271E-01 
    5.9066586850189562E-01 
    5.8724706267421245E-01 
    5.8259300528478242E-01 
    5.7830261219571499E-01 
    5.7611424874815964E-01 
    5.6443523866060796E-01 
    5.4995163681362502E-01 
    5.3576792374558335E-01 
    5.1914515441878017E-01 
    5.0345489079723760E-01 
    4.7794720839434734E-01 
    3.9352797158319802E-01 
    8.2229156399996242E-02 
    6.7024928400753047E-06 
    1.0000093628979056E-06 
    5.6723376451474572E-01 
    5.6622708352825224E-01 
    5.6363588919294805E-01 
    5.6023420094075005E-01 
    5.5563981125251627E-01 
    5.5239405268965491E-01 
    5.4569300635643880E-01 
    5.3466345688949279E-01 
    5.2301330978079186E-01 
    5.0930066695905440E-01 
    4.9402130150165285E-01 
    4.7385304938400630E-01 
    3.9764467222170263E-01 
    9.1025810122014203E-02 
    4.3862095199759064E-06 
    1.0000026506943750E-06 
    5.4130478575378016E-01 
    5.4067988101370890E-01 
    5.3889903813118289E-01 
    5.3662374886042175E-01 
    5.3403259943249171E-01 
    5.3080106158684548E-01 
    5.2747915690313507E-01 
    5.2211681801705190E-01 
    5.1395424751674412E-01 
    5.0360660893100806E-01 
    4.8982930104857186E-01 
    4.7243072069441450E-01 
    4.1786824166903008E-01 
    1.5115605297242057E-01 
    2.4777412123104775E-04 
    1.0010003086238437E-06 
    5.1341684894852557E-01 
    5.1317949868527302E-01 
    5.1218901565336294E-01 
    5.1092712982917732E-01 
    5.0981829314573623E-01 
    5.0840520766230402E-01 
    5.0623561178770271E-01 
    5.0430773350428093E-01 
    5.0287222010593768E-01 
    4.9811633355388579E-01 
    4.8853654684813214E-01 
    4.7495592151111066E-01 
    4.4124032692545406E-01 
    2.7391830628980224E-01 
    2.1435918943428514E-02 
    2.4237704020929487E-05 
    4.6170048744704045E-01 
    4.6177332930185555E-01 
    4.6164284293681224E-01 
    4.6148312811412245E-01 
    4.6106269338104749E-01 
    4.6017498956273423E-01 
    4.5935586995094818E-01 
    4.5896093264963633E-01 
    4.6572211493894072E-01 
    4.7427085562262855E-01 
    4.7667504536663413E-01 
    4.7194287085584180E-01 
    4.5465505213826729E-01 
    3.7745491750713300E-01 
    1.0696846444855659E-01 
    7.8772205135896223E-05 
    2.0097091334286801E-01 
    2.0334782737019291E-01 
    2.0550254746424623E-01 
    2.0813247657982265E-01 
    2.0953740229316126E-01 
    2.0429190997085986E-01 
    2.0220018216749847E-01 
    2.0357931787546643E-01 
    2.9600502265992651E-01 
    3.8373941101412012E-01 
    4.1792519445160931E-01 
    4.3562336357603937E-01 
    4.4278855323791305E-01 
    4.2066284920201452E-01 
    2.8705469822284002E-01 
    6.6611969183731676E-02 
    2.0866143476329048E-06 
    3.8347828624824674E-06 
    5.9706712557291318E-06 
    9.2069530503215344E-06 
    2.2211849651897580E-05 
    5.6862584838312438E-06 
    4.0250237738474160E-06 
    0.0000000000000000E+00 
    5.5157002344248057E-02 
    1.4443817187377325E-01 
    1.9834845665221087E-01 
    2.3850566081836380E-01 
    2.6996598293467816E-01 
    2.9405480531312966E-01 
    2.9528724897650693E-01 
    2.4861800096325115E-01 
