# vtk DataFile Version 2.0
Pressure Field Data 
ASCII 
DATASET UNSTRUCTURED_GRID 

POINTS 289 double 

    0.0000000000000000E+00     0.0000000000000000E+00     0.0000000000000000E+00 
    1.0000000000000000E+00     0.0000000000000000E+00     0.0000000000000000E+00 
    1.0000000000000000E+00     1.0000000000000000E+00     0.0000000000000000E+00 
    0.0000000000000000E+00     1.0000000000000000E+00     0.0000000000000000E+00 
    6.2499999999872928E-02     0.0000000000000000E+00     0.0000000000000000E+00 
    1.2499999999977310E-01     0.0000000000000000E+00     0.0000000000000000E+00 
    1.8749999999959341E-01     0.0000000000000000E+00     0.0000000000000000E+00 
    2.4999999999941089E-01     0.0000000000000000E+00     0.0000000000000000E+00 
    3.1249999999922851E-01     0.0000000000000000E+00     0.0000000000000000E+00 
    3.7499999999904610E-01     0.0000000000000000E+00     0.0000000000000000E+00 
    4.3749999999886358E-01     0.0000000000000000E+00     0.0000000000000000E+00 
    4.9999999999869210E-01     0.0000000000000000E+00     0.0000000000000000E+00 
    5.6249999999884603E-01     0.0000000000000000E+00     0.0000000000000000E+00 
    6.2499999999901090E-01     0.0000000000000000E+00     0.0000000000000000E+00 
    6.8749999999917577E-01     0.0000000000000000E+00     0.0000000000000000E+00 
    7.4999999999934064E-01     0.0000000000000000E+00     0.0000000000000000E+00 
    8.1249999999950551E-01     0.0000000000000000E+00     0.0000000000000000E+00 
    8.7499999999967026E-01     0.0000000000000000E+00     0.0000000000000000E+00 
    9.3749999999983513E-01     0.0000000000000000E+00     0.0000000000000000E+00 
    1.0000000000000000E+00     6.2499999999872928E-02     0.0000000000000000E+00 
    1.0000000000000000E+00     1.2499999999977310E-01     0.0000000000000000E+00 
    1.0000000000000000E+00     1.8749999999959341E-01     0.0000000000000000E+00 
    1.0000000000000000E+00     2.4999999999941089E-01     0.0000000000000000E+00 
    1.0000000000000000E+00     3.1249999999922851E-01     0.0000000000000000E+00 
    1.0000000000000000E+00     3.7499999999904610E-01     0.0000000000000000E+00 
    1.0000000000000000E+00     4.3749999999886358E-01     0.0000000000000000E+00 
    1.0000000000000000E+00     4.9999999999869210E-01     0.0000000000000000E+00 
    1.0000000000000000E+00     5.6249999999884603E-01     0.0000000000000000E+00 
    1.0000000000000000E+00     6.2499999999901090E-01     0.0000000000000000E+00 
    1.0000000000000000E+00     6.8749999999917577E-01     0.0000000000000000E+00 
    1.0000000000000000E+00     7.4999999999934064E-01     0.0000000000000000E+00 
    1.0000000000000000E+00     8.1249999999950551E-01     0.0000000000000000E+00 
    1.0000000000000000E+00     8.7499999999967026E-01     0.0000000000000000E+00 
    1.0000000000000000E+00     9.3749999999983513E-01     0.0000000000000000E+00 
    9.3749999999973976E-01     1.0000000000000000E+00     0.0000000000000000E+00 
    8.7499999999950118E-01     1.0000000000000000E+00     0.0000000000000000E+00 
    8.1249999999991318E-01     1.0000000000000000E+00     0.0000000000000000E+00 
    7.5000000000034706E-01     1.0000000000000000E+00     0.0000000000000000E+00 
    6.8750000000078049E-01     1.0000000000000000E+00     0.0000000000000000E+00 
    6.2500000000121403E-01     1.0000000000000000E+00     0.0000000000000000E+00 
    5.6250000000164757E-01     1.0000000000000000E+00     0.0000000000000000E+00 
    5.0000000000205946E-01     1.0000000000000000E+00     0.0000000000000000E+00 
    4.3750000000182099E-01     1.0000000000000000E+00     0.0000000000000000E+00 
    3.7500000000156092E-01     1.0000000000000000E+00     0.0000000000000000E+00 
    3.1250000000130068E-01     1.0000000000000000E+00     0.0000000000000000E+00 
    2.5000000000104050E-01     1.0000000000000000E+00     0.0000000000000000E+00 
    1.8750000000078040E-01     1.0000000000000000E+00     0.0000000000000000E+00 
    1.2500000000052031E-01     1.0000000000000000E+00     0.0000000000000000E+00 
    6.2500000000260125E-02     1.0000000000000000E+00     0.0000000000000000E+00 
    0.0000000000000000E+00     9.3749999999973976E-01     0.0000000000000000E+00 
    0.0000000000000000E+00     8.7499999999950118E-01     0.0000000000000000E+00 
    0.0000000000000000E+00     8.1249999999991318E-01     0.0000000000000000E+00 
    0.0000000000000000E+00     7.5000000000034706E-01     0.0000000000000000E+00 
    0.0000000000000000E+00     6.8750000000078049E-01     0.0000000000000000E+00 
    0.0000000000000000E+00     6.2500000000121403E-01     0.0000000000000000E+00 
    0.0000000000000000E+00     5.6250000000164757E-01     0.0000000000000000E+00 
    0.0000000000000000E+00     5.0000000000205946E-01     0.0000000000000000E+00 
    0.0000000000000000E+00     4.3750000000182099E-01     0.0000000000000000E+00 
    0.0000000000000000E+00     3.7500000000156092E-01     0.0000000000000000E+00 
    0.0000000000000000E+00     3.1250000000130068E-01     0.0000000000000000E+00 
    0.0000000000000000E+00     2.5000000000104050E-01     0.0000000000000000E+00 
    0.0000000000000000E+00     1.8750000000078040E-01     0.0000000000000000E+00 
    0.0000000000000000E+00     1.2500000000052031E-01     0.0000000000000000E+00 
    0.0000000000000000E+00     6.2500000000260125E-02     0.0000000000000000E+00 
    6.2499999999897131E-02     6.2500000000235922E-02     0.0000000000000000E+00 
    6.2499999999921327E-02     1.2500000000047351E-01     0.0000000000000000E+00 
    6.2499999999945530E-02     1.8750000000070621E-01     0.0000000000000000E+00 
    6.2499999999969733E-02     2.5000000000093858E-01     0.0000000000000000E+00 
    6.2499999999993928E-02     3.1250000000117117E-01     0.0000000000000000E+00 
    6.2500000000018124E-02     3.7500000000140382E-01     0.0000000000000000E+00 
    6.2500000000042327E-02     4.3750000000163619E-01     0.0000000000000000E+00 
    6.2500000000066530E-02     5.0000000000184897E-01     0.0000000000000000E+00 
    6.2500000000090733E-02     5.6250000000147260E-01     0.0000000000000000E+00 
    6.2500000000114922E-02     6.2500000000107636E-01     0.0000000000000000E+00 
    6.2500000000139125E-02     6.8750000000068034E-01     0.0000000000000000E+00 
    6.2500000000163328E-02     7.5000000000028411E-01     0.0000000000000000E+00 
    6.2500000000187531E-02     8.1249999999988787E-01     0.0000000000000000E+00 
    6.2500000000211720E-02     8.7499999999951172E-01     0.0000000000000000E+00 
    6.2500000000235922E-02     9.3749999999974565E-01     0.0000000000000000E+00 
    1.2499999999981980E-01     6.2500000000211733E-02     0.0000000000000000E+00 
    1.2499999999986650E-01     1.2500000000042691E-01     0.0000000000000000E+00 
    1.2499999999991319E-01     1.8750000000063199E-01     0.0000000000000000E+00 
    1.2499999999995989E-01     2.5000000000083678E-01     0.0000000000000000E+00 
    1.2500000000000661E-01     3.1250000000104172E-01     0.0000000000000000E+00 
    1.2500000000005329E-01     3.7500000000124661E-01     0.0000000000000000E+00 
    1.2500000000010000E-01     4.3750000000145117E-01     0.0000000000000000E+00 
    1.2500000000014669E-01     5.0000000000163858E-01     0.0000000000000000E+00 
    1.2500000000019340E-01     5.6250000000129741E-01     0.0000000000000000E+00 
    1.2500000000024011E-01     6.2500000000093847E-01     0.0000000000000000E+00 
    1.2500000000028680E-01     6.8750000000057998E-01     0.0000000000000000E+00 
    1.2500000000033351E-01     7.5000000000022127E-01     0.0000000000000000E+00 
    1.2500000000038020E-01     8.1249999999986211E-01     0.0000000000000000E+00 
    1.2500000000042691E-01     8.7499999999952238E-01     0.0000000000000000E+00 
    1.2500000000047359E-01     9.3749999999975164E-01     0.0000000000000000E+00 
    1.8749999999966760E-01     6.2500000000187531E-02     0.0000000000000000E+00 
    1.8749999999974179E-01     1.2500000000038020E-01     0.0000000000000000E+00 
    1.8749999999981601E-01     1.8750000000055780E-01     0.0000000000000000E+00 
    1.8749999999989009E-01     2.5000000000073502E-01     0.0000000000000000E+00 
    1.8749999999996431E-01     3.1250000000091221E-01     0.0000000000000000E+00 
    1.8750000000003850E-01     3.7500000000108941E-01     0.0000000000000000E+00 
    1.8750000000011269E-01     4.3750000000126649E-01     0.0000000000000000E+00 
    1.8750000000018691E-01     5.0000000000142808E-01     0.0000000000000000E+00 
    1.8750000000026110E-01     5.6250000000112244E-01     0.0000000000000000E+00 
    1.8750000000033529E-01     6.2500000000080080E-01     0.0000000000000000E+00 
    1.8750000000040951E-01     6.8750000000047962E-01     0.0000000000000000E+00 
    1.8750000000048361E-01     7.5000000000015843E-01     0.0000000000000000E+00 
    1.8750000000055780E-01     8.1249999999983680E-01     0.0000000000000000E+00 
    1.8750000000063199E-01     8.7499999999953304E-01     0.0000000000000000E+00 
    1.8750000000070621E-01     9.3749999999975764E-01     0.0000000000000000E+00 
    2.4999999999951281E-01     6.2500000000163314E-02     0.0000000000000000E+00 
    2.4999999999961461E-01     1.2500000000033351E-01     0.0000000000000000E+00 
    2.4999999999971650E-01     1.8750000000048361E-01     0.0000000000000000E+00 
    2.4999999999981831E-01     2.5000000000063310E-01     0.0000000000000000E+00 
    2.4999999999992020E-01     3.1250000000078260E-01     0.0000000000000000E+00 
    2.5000000000002198E-01     3.7500000000093209E-01     0.0000000000000000E+00 
    2.5000000000012390E-01     4.3750000000108180E-01     0.0000000000000000E+00 
    2.5000000000022571E-01     5.0000000000121769E-01     0.0000000000000000E+00 
    2.5000000000032763E-01     5.6250000000094724E-01     0.0000000000000000E+00 
    2.5000000000042938E-01     6.2500000000066314E-01     0.0000000000000000E+00 
    2.5000000000053119E-01     6.8750000000037925E-01     0.0000000000000000E+00 
[...]
CELL_DATA 256 
SCALARS Pressure double 1 
LOOKUP_TABLE default 

    8.3291746978335701E-01 
    8.2069774698233278E-01 
    8.0871080975113574E-01 
    7.9795833508712921E-01 
    7.9018225244457241E-01 
    7.8707050636355891E-01 
    7.8130671195340506E-01 
    7.7654033926345178E-01 
    7.7321018581275325E-01 
    7.7131365987015410E-01 
    7.6879383440221538E-01 
    7.6637353852842460E-01 
    7.6381583870969538E-01 
    7.6102397708150149E-01 
    7.5844255154470397E-01 
    7.5679704836346462E-01 
    7.8860184945390044E-01 
    7.8542817770612161E-01 
    7.8168150379806089E-01 
    7.7765333858563657E-01 
    7.7367669102852166E-01 
    7.6925412087993561E-01 
    7.6442226003891123E-01 
    7.6155625150073147E-01 
    7.5848184823643217E-01 
    7.5536565455739912E-01 
    7.5265525163443447E-01 
    7.5072712805189890E-01 
    7.4879737427033888E-01 
    7.4726103670176125E-01 
    7.4615566525965848E-01 
    7.4539524035394911E-01 
    7.5691196850684805E-01 
    7.5553546178907249E-01 
    7.5393419127081174E-01 
    7.5194016399704955E-01 
    7.4939433402002764E-01 
    7.4592997259345395E-01 
    7.4196692542727316E-01 
    7.3958947132432584E-01 
    7.3653390709026856E-01 
    7.3330103608154851E-01 
    7.3074054994456927E-01 
    7.2920958702260741E-01 
    7.2767318878029830E-01 
    7.2684979047874632E-01 
    7.2660166971783546E-01 
    7.2657227846977301E-01 
    7.2491768536742418E-01 
    7.2481729111845239E-01 
    7.2461437873644530E-01 
    7.2399067447939669E-01 
    7.2264495545304719E-01 
    7.2015109400317023E-01 
    7.1695746595815191E-01 
    7.1488547544570002E-01 
    7.1205077690791663E-01 
    7.0899956350378002E-01 
    7.0673667751501801E-01 
    7.0557035472890495E-01 
    7.0434685861858737E-01 
    7.0394229180697021E-01 
    7.0418798894845125E-01 
    7.0447592369072276E-01 
    6.9519568497078532E-01 
    6.9747427563929010E-01 
    6.9757902026066021E-01 
    6.9705647289097927E-01 
    6.9582612689677470E-01 
    6.9337798127068517E-01 
    6.9034367368949590E-01 
    6.8906316298783021E-01 
    6.8684089379071034E-01 
    6.8411673422824659E-01 
    6.8218126176080540E-01 
    6.8185048161498552E-01 
    6.8086765175400843E-01 
    6.8048768917996549E-01 
    6.8048927441109575E-01 
    6.8017960100571406E-01 
    6.7222735686472057E-01 
    6.7078487123339214E-01 
    6.6855577738644423E-01 
    6.6537096618331903E-01 
    6.6197102283297171E-01 
    6.5964192929128973E-01 
    6.5863074679481570E-01 
    6.5819769308566245E-01 
    6.5766801808037956E-01 
    6.5771929601909385E-01 
    6.5777861068855892E-01 
    6.5713543486052606E-01 
    6.5560245336376577E-01 
    6.5406566593798521E-01 
    6.5278703769354429E-01 
    6.5207556984834725E-01 
    6.2864369719454782E-01 
    6.2827906130999722E-01 
    6.2741770950350217E-01 
    6.2617214217874595E-01 
    6.2508149136692381E-01 
    6.2505144383429778E-01 
    6.2541473174398143E-01 
    6.2336412702942590E-01 
    6.2268710996246923E-01 
    6.2303804569787569E-01 
    6.2325834037036487E-01 
    6.2208244044157657E-01 
    6.2149711347961634E-01 
    6.2101159623456970E-01 
    6.2072501674989466E-01 
    6.2055267960575433E-01 
    5.8849720770594416E-01 
    5.8938733045331171E-01 
    5.9003917057784205E-01 
    5.9043171304536157E-01 
    5.9055026562202795E-01 
    5.9040867639496930E-01 
    5.8973521159804931E-01 
    5.8865761185097376E-01 
    5.8764741045866331E-01 
    5.8693851417305332E-01 
    5.8632828176203311E-01 
    5.8583935887146632E-01 
    5.8545264565853838E-01 
    5.8548407911561295E-01 
    5.8597067049353457E-01 
    5.8615853469074641E-01 
    5.5399911593408346E-01 
    5.5603933916287074E-01 
    5.5623584303479712E-01 
    5.5618434861634891E-01 
    5.5564815972901493E-01 
    5.5441223715700261E-01 
    5.5274702500842343E-01 
    5.5209582138980196E-01 
    5.5083274635842772E-01 
    5.4986815523319454E-01 
    5.4944105309353752E-01 
    5.4978442094032454E-01 
    5.4947787251513847E-01 
    5.4959137374800449E-01 
    5.4990544565375499E-01 
    5.4929234367707502E-01 
    5.2343569166787907E-01 
    5.2268148704391793E-01 
    5.2109365162337107E-01 
    5.1879013098981985E-01 
    5.1642413527758757E-01 
    5.1464460507966536E-01 
    5.1330533231573827E-01 
    5.1241628455438992E-01 
    5.1199615979639002E-01 
    5.1268384173261428E-01 
    5.1374354985515180E-01 
    5.1328244399075751E-01 
    5.1173658255202281E-01 
    5.0999737590230909E-01 
    5.0832521239876183E-01 
    5.0729028609627014E-01 
    4.8661396548861441E-01 
    4.8576972616970765E-01 
    4.8433121182044225E-01 
    4.8249205198862699E-01 
    4.8079292734889562E-01 
    4.7935747877528384E-01 
    4.7695912507901755E-01 
    4.7381724561359750E-01 
    4.7209531809802940E-01 
    4.7087111173178148E-01 
    4.6879370625651118E-01 
    4.6576194713414815E-01 
    4.6359949118982802E-01 
    4.6189582197167733E-01 
    4.6117997641075092E-01 
    4.6109256514229613E-01 
    4.5364922023370441E-01 
    4.5298596085361370E-01 
    4.5185810960870032E-01 
    4.5012013650178451E-01 
    4.4764182808776620E-01 
    4.4432758757391683E-01 
    4.4070217870632900E-01 
    4.3692907418502969E-01 
    4.3207786533657272E-01 
    4.2622812105531682E-01 
    4.2055405585859246E-01 
    4.1582519170819920E-01 
    4.1170650621437821E-01 
    4.0928667099958166E-01 
    4.0904938183820322E-01 
    4.0993173527381993E-01 
    4.1944168240507185E-01 
    4.1870289780591508E-01 
    4.1736410285092368E-01 
    4.1499032401887120E-01 
    4.1132043021027831E-01 
    4.0660474523941875E-01 
    4.0179239591458471E-01 
    3.9608842470502476E-01 
    3.8809932516934431E-01 
    3.7882502000360291E-01 
    3.7026072625947742E-01 
    3.6309068375928921E-01 
    3.5688912792333388E-01 
    3.5325182679345618E-01 
    3.5266396780521042E-01 
    3.5381283110155259E-01 
    3.8045732573671509E-01 
    3.7960828890331516E-01 
    3.7785117089753040E-01 
    3.7462836917985470E-01 
    3.6985300560239248E-01 
    3.6411765974422211E-01 
    3.5814535592501018E-01 
    3.5035854784142056E-01 
    3.3984912897329872E-01 
    3.2824497793466945E-01 
    3.1744505133571710E-01 
    3.0783344510795302E-01 
    2.9918032078994294E-01 
    2.9281897239988991E-01 
    2.8936264227704084E-01 
    2.8833357247204816E-01 
    3.3488478612578138E-01 
    3.3389892956858358E-01 
    3.3165871110740719E-01 
    3.2767413981717769E-01 
    3.2210708103600050E-01 
    3.1568840911803953E-01 
    3.0886164579378417E-01 
    2.9999880775409271E-01 
    2.8881026829492601E-01 
    2.7657093421342455E-01 
    2.6413188881994693E-01 
    2.5108648657652094E-01 
    2.3661084172721436E-01 
    2.2061412195034930E-01 
    2.0523698915664290E-01 
    1.9467020241430150E-01 
    3.0328063748636880E-01 
    3.0210942665397994E-01 
    2.9951378587879779E-01 
    2.9505089607588325E-01 
    2.8893565493218554E-01 
    2.8213826593328273E-01 
    2.7551227810566825E-01 
    2.6747819969697584E-01 
    2.5649095184770071E-01 
    2.4201679531540110E-01 
    2.2430062948923207E-01 
    2.0095949516552181E-01 
    1.6785098039224935E-01 
    1.2264711595192476E-01 
    6.6745247854060871E-02 
    0.0000000000000000E+00 

SCALARS Saturarion double 1 
LOOKUP_TABLE default 

    1.0000000000000042E+00 
    9.8525667993574884E-01 
    9.6235540871099001E-01 
    9.2307461982355699E-01 
    8.8073229979178957E-01 
    8.3570289736593462E-01 
    7.8922885198970749E-01 
    7.4111932915792589E-01 
    6.9091580477670544E-01 
    6.4429496244889406E-01 
    6.0137190973207677E-01 
    5.6306502132430003E-01 
    5.3045254939540998E-01 
    4.9249938940545568E-01 
    3.7282599145599804E-01 
    3.0647191836673967E-02 
    9.6502826296778699E-01 
    9.5060020324115724E-01 
    9.2755254005138865E-01 
    8.9322714391061775E-01 
    8.5310441875868437E-01 
    8.1208834087861048E-01 
    7.7135242266128756E-01 
    7.2963938303417286E-01 
    6.8419033003730367E-01 
    6.3884398986455659E-01 
    5.9618013948609438E-01 
    5.5664126995109919E-01 
    5.2091367918409326E-01 
    4.7063643713011971E-01 
    2.2798481530039319E-01 
    8.0718527698094413E-04 
    9.0611801169107675E-01 
    8.8740862131617548E-01 
    8.6286895120653351E-01 
    8.3489068795927013E-01 
    8.0350512433704691E-01 
    7.7107701289393793E-01 
    7.3896636546249195E-01 
    7.0660761904769043E-01 
    6.7026822438514300E-01 
    6.2967923459150843E-01 
    5.8941138828753126E-01 
    5.5038755085744739E-01 
    5.1106575307945779E-01 
    4.3971665551543193E-01 
    1.1847612466434880E-01 
    3.2827041804127376E-05 
    8.3120729609397004E-01 
    8.1918657048629828E-01 
    7.9938930746681891E-01 
    7.7723907288541849E-01 
    7.5510587041608357E-01 
    7.3098726120195545E-01 
    7.0562058326623822E-01 
    6.8015158301774914E-01 
    6.5208068306244060E-01 
    6.1740460140145970E-01 
    5.7964457822227611E-01 
    5.4087419737728992E-01 
    4.9855050876658841E-01 
    3.8678602479577717E-01 
    3.4401088227630904E-02 
    1.1226735296792352E-05 
    7.6896663813371302E-01 
    7.6269691511862137E-01 
    7.4872368858080540E-01 
    7.3166146171684887E-01 
    7.1110404522191029E-01 
    6.9232965840965355E-01 
    6.7233364906467274E-01 
    6.5149205121522502E-01 
    6.3019625095611698E-01 
    6.0231733349136252E-01 
    5.6826097248779017E-01 
    5.3093395766222806E-01 
    4.8574458887062627E-01 
    3.2365358444975445E-01 
    7.6013284757698273E-03 
    1.6638961295160261E-06 
    7.2149902485032757E-01 
    7.1896279100038485E-01 
    7.1074255659465657E-01 
    6.9975104033229241E-01 
    6.8315711410103253E-01 
    6.6221508602640689E-01 
    6.4125544260959377E-01 
    6.2179693713219286E-01 
    6.0431112144511401E-01 
    5.8287597641790001E-01 
    5.5512883648729394E-01 
    5.2437591292289809E-01 
    4.7838114670143184E-01 
    2.8372777265921306E-01 
    1.9608930012758193E-03 
    1.0214311695387356E-06 
    6.7800441180329662E-01 
    6.7609774820884361E-01 
    6.7083057865864471E-01 
    6.6331843392934631E-01 
    6.5688117706299487E-01 
    6.3949472097035676E-01 
    6.1641939281876879E-01 
    5.9644484566918066E-01 
    5.7706799225734695E-01 
    5.5985210513987427E-01 
    5.3787489283413414E-01 
    5.1326424299452966E-01 
    4.6461904127413273E-01 
    2.2021889597516295E-01 
    2.5702018781337092E-04 
    1.0006671282253821E-06 
    6.3933581581686583E-01 
    6.3731457679956260E-01 
    6.3260808054586359E-01 
    6.2576223531226760E-01 
    6.2602554126200205E-01 
    6.1527023272626957E-01 
    5.9574243118341774E-01 
    5.7654791638975922E-01 
    5.5594531674688596E-01 
    5.3939837248827238E-01 
    5.2019881055180917E-01 
    4.9443071569760061E-01 
    4.3373617194416947E-01 
    1.1081653082511596E-01 
    4.3616025062101297E-05 
    1.0000142893960502E-06 
    6.0727217862352800E-01 
    6.0545502607978019E-01 
    6.0134321681606140E-01 
    5.9540133733582201E-01 
    5.9607099506148575E-01 
    5.9065924982651286E-01 
    5.7574261501887192E-01 
    5.5892717510915113E-01 
    5.4144676288151838E-01 
    5.2375428375683486E-01 
    5.0585851356461486E-01 
    4.7650212563275834E-01 
    3.7692247627389536E-01 
    4.0944639476937404E-02 
    1.6183336661641823E-05 
    1.0000331283545306E-06 
    5.8191858845052380E-01 
    5.8059771426145257E-01 
    5.7717128944798901E-01 
    5.7255913638573874E-01 
    5.6836004503988891E-01 
    5.6600025064751003E-01 
    5.5498068433597669E-01 
    5.4129114885564034E-01 
    5.2802469686839049E-01 
    5.1107191852170664E-01 
    4.9437169185900270E-01 
    4.6764561628553591E-01 
    3.4597772401554466E-01 
    2.6710350131679224E-02 
    4.3820704994603410E-06 
    1.0000015279249626E-06 
    5.5656444949079353E-01 
    5.5550691389338902E-01 
    5.5289415551844678E-01 
    5.4955050320253895E-01 
    5.4526356940098430E-01 
    5.4163231357378083E-01 
    5.3533227180311060E-01 
    5.2544095256848100E-01 
    5.1470665213045430E-01 
    5.0100558869936951E-01 
    4.8449839583402093E-01 
    4.6198311566358491E-01 
    3.5353395935863469E-01 
    3.1784030807096672E-02 
    1.4621103399301178E-06 
    1.0000001057445170E-06 
    5.3008527941171801E-01 
    5.2942081528859364E-01 
    5.2758823601905025E-01 
    5.2532550506640763E-01 
    5.2292987281717151E-01 
    5.1930820662781652E-01 
    5.1584085749636976E-01 
    5.1119862200646593E-01 
    5.0362077510811476E-01 
    4.9341219513902623E-01 
    4.7957018250545214E-01 
    4.5924557067761984E-01 
    3.7913318374865906E-01 
    7.5136293755942510E-02 
    1.9934141753211290E-05 
    1.0000308181207002E-06 
    4.9966088309416257E-01 
    4.9934392647776205E-01 
    4.9822537390177035E-01 
    4.9688854929231452E-01 
    4.9556402747863715E-01 
    4.9363042776843952E-01 
    4.9124416148616695E-01 
    4.8942931519674360E-01 
    4.8812453154479324E-01 
    4.8278108530970820E-01 
    4.7376382780895837E-01 
    4.5911144318070379E-01 
    4.0684424695091931E-01 
    1.6517793306559600E-01 
    5.0607161144631727E-04 
    1.0039293455768115E-06 
    4.2498083483556381E-01 
    4.2476605290283892E-01 
    4.2423085454612131E-01 
    4.2388246396302537E-01 
    4.2163003939684124E-01 
    4.1892705757514520E-01 
    4.1804137568942973E-01 
    4.1802405174429114E-01 
    4.2802668187080573E-01 
    4.4255993758948153E-01 
    4.5070088467644936E-01 
    4.4812360955374303E-01 
    4.2115635424442721E-01 
    2.6002932309309784E-01 
    3.6248661179651438E-03 
    1.0496330347803181E-06 
    1.0706018761013543E-01 
    1.0710884687151316E-01 
    1.0709225279426525E-01 
    1.0792614093251714E-01 
    1.0159728136227569E-01 
    9.6144940496522405E-02 
    9.7059357818908273E-02 
    9.8669153410337260E-02 
    1.7940999971021038E-01 
    2.8225262175092258E-01 
    3.5408657398355198E-01 
    3.8148013643589640E-01 
    3.8568663795345143E-01 
    3.1445018455409662E-01 
    4.6551614352850282E-02 
    2.8815013140612280E-06 
    1.0000000141865694E-06 
    1.0675462239487968E-06 
    1.0943474792317952E-06 
    1.0482102398097707E-06 
    1.5185269862680739E-06 
    1.0184332387836454E-06 
    1.0647592991848857E-06 
    1.0829249621086758E-06 
    6.3109801221590467E-03 
    2.2351796252131805E-02 
    7.0073923901473698E-02 
    1.1631154349297906E-01 
    1.3368657843434362E-01 
    1.1604848306424935E-01 
    2.7510105790938988E-02 
    1.0759636796943506E-06 
