# vtk DataFile Version 2.0
Pressure Field Data 
ASCII 
DATASET UNSTRUCTURED_GRID 

POINTS 289 double 

    0.0000000000000000E+00     0.0000000000000000E+00     0.0000000000000000E+00 
    1.0000000000000000E+00     0.0000000000000000E+00     0.0000000000000000E+00 
    1.0000000000000000E+00     1.0000000000000000E+00     0.0000000000000000E+00 
    0.0000000000000000E+00     1.0000000000000000E+00     0.0000000000000000E+00 
    6.2499999999872928E-02     0.0000000000000000E+00     0.0000000000000000E+00 
    1.2499999999977310E-01     0.0000000000000000E+00     0.0000000000000000E+00 
    1.8749999999959341E-01     0.0000000000000000E+00     0.0000000000000000E+00 
    2.4999999999941089E-01     0.0000000000000000E+00     0.0000000000000000E+00 
    3.1249999999922851E-01     0.0000000000000000E+00     0.0000000000000000E+00 
    3.7499999999904610E-01     0.0000000000000000E+00     0.0000000000000000E+00 
    4.3749999999886358E-01     0.0000000000000000E+00     0.0000000000000000E+00 
    4.9999999999869210E-01     0.0000000000000000E+00     0.0000000000000000E+00 
    5.6249999999884603E-01     0.0000000000000000E+00     0.0000000000000000E+00 
    6.2499999999901090E-01     0.0000000000000000E+00     0.0000000000000000E+00 
    6.8749999999917577E-01     0.0000000000000000E+00     0.0000000000000000E+00 
    7.4999999999934064E-01     0.0000000000000000E+00     0.0000000000000000E+00 
    8.1249999999950551E-01     0.0000000000000000E+00     0.0000000000000000E+00 
    8.7499999999967026E-01     0.0000000000000000E+00     0.0000000000000000E+00 
    9.3749999999983513E-01     0.0000000000000000E+00     0.0000000000000000E+00 
    1.0000000000000000E+00     6.2499999999872928E-02     0.0000000000000000E+00 
    1.0000000000000000E+00     1.2499999999977310E-01     0.0000000000000000E+00 
    1.0000000000000000E+00     1.8749999999959341E-01     0.0000000000000000E+00 
    1.0000000000000000E+00     2.4999999999941089E-01     0.0000000000000000E+00 
    1.0000000000000000E+00     3.1249999999922851E-01     0.0000000000000000E+00 
    1.0000000000000000E+00     3.7499999999904610E-01     0.0000000000000000E+00 
    1.0000000000000000E+00     4.3749999999886358E-01     0.0000000000000000E+00 
    1.0000000000000000E+00     4.9999999999869210E-01     0.0000000000000000E+00 
    1.0000000000000000E+00     5.6249999999884603E-01     0.0000000000000000E+00 
    1.0000000000000000E+00     6.2499999999901090E-01     0.0000000000000000E+00 
    1.0000000000000000E+00     6.8749999999917577E-01     0.0000000000000000E+00 
    1.0000000000000000E+00     7.4999999999934064E-01     0.0000000000000000E+00 
    1.0000000000000000E+00     8.1249999999950551E-01     0.0000000000000000E+00 
    1.0000000000000000E+00     8.7499999999967026E-01     0.0000000000000000E+00 
    1.0000000000000000E+00     9.3749999999983513E-01     0.0000000000000000E+00 
    9.3749999999973976E-01     1.0000000000000000E+00     0.0000000000000000E+00 
    8.7499999999950118E-01     1.0000000000000000E+00     0.0000000000000000E+00 
    8.1249999999991318E-01     1.0000000000000000E+00     0.0000000000000000E+00 
    7.5000000000034706E-01     1.0000000000000000E+00     0.0000000000000000E+00 
    6.8750000000078049E-01     1.0000000000000000E+00     0.0000000000000000E+00 
    6.2500000000121403E-01     1.0000000000000000E+00     0.0000000000000000E+00 
    5.6250000000164757E-01     1.0000000000000000E+00     0.0000000000000000E+00 
    5.0000000000205946E-01     1.0000000000000000E+00     0.0000000000000000E+00 
    4.3750000000182099E-01     1.0000000000000000E+00     0.0000000000000000E+00 
    3.7500000000156092E-01     1.0000000000000000E+00     0.0000000000000000E+00 
    3.1250000000130068E-01     1.0000000000000000E+00     0.0000000000000000E+00 
    2.5000000000104050E-01     1.0000000000000000E+00     0.0000000000000000E+00 
    1.8750000000078040E-01     1.0000000000000000E+00     0.0000000000000000E+00 
    1.2500000000052031E-01     1.0000000000000000E+00     0.0000000000000000E+00 
    6.2500000000260125E-02     1.0000000000000000E+00     0.0000000000000000E+00 
    0.0000000000000000E+00     9.3749999999973976E-01     0.0000000000000000E+00 
    0.0000000000000000E+00     8.7499999999950118E-01     0.0000000000000000E+00 
    0.0000000000000000E+00     8.1249999999991318E-01     0.0000000000000000E+00 
    0.0000000000000000E+00     7.5000000000034706E-01     0.0000000000000000E+00 
    0.0000000000000000E+00     6.8750000000078049E-01     0.0000000000000000E+00 
    0.0000000000000000E+00     6.2500000000121403E-01     0.0000000000000000E+00 
    0.0000000000000000E+00     5.6250000000164757E-01     0.0000000000000000E+00 
    0.0000000000000000E+00     5.0000000000205946E-01     0.0000000000000000E+00 
    0.0000000000000000E+00     4.3750000000182099E-01     0.0000000000000000E+00 
    0.0000000000000000E+00     3.7500000000156092E-01     0.0000000000000000E+00 
    0.0000000000000000E+00     3.1250000000130068E-01     0.0000000000000000E+00 
    0.0000000000000000E+00     2.5000000000104050E-01     0.0000000000000000E+00 
    0.0000000000000000E+00     1.8750000000078040E-01     0.0000000000000000E+00 
    0.0000000000000000E+00     1.2500000000052031E-01     0.0000000000000000E+00 
    0.0000000000000000E+00     6.2500000000260125E-02     0.0000000000000000E+00 
    6.2499999999897131E-02     6.2500000000235922E-02     0.0000000000000000E+00 
    6.2499999999921327E-02     1.2500000000047351E-01     0.0000000000000000E+00 
    6.2499999999945530E-02     1.8750000000070621E-01     0.0000000000000000E+00 
    6.2499999999969733E-02     2.5000000000093858E-01     0.0000000000000000E+00 
    6.2499999999993928E-02     3.1250000000117117E-01     0.0000000000000000E+00 
    6.2500000000018124E-02     3.7500000000140382E-01     0.0000000000000000E+00 
    6.2500000000042327E-02     4.3750000000163619E-01     0.0000000000000000E+00 
    6.2500000000066530E-02     5.0000000000184897E-01     0.0000000000000000E+00 
    6.2500000000090733E-02     5.6250000000147260E-01     0.0000000000000000E+00 
    6.2500000000114922E-02     6.2500000000107636E-01     0.0000000000000000E+00 
    6.2500000000139125E-02     6.8750000000068034E-01     0.0000000000000000E+00 
    6.2500000000163328E-02     7.5000000000028411E-01     0.0000000000000000E+00 
    6.2500000000187531E-02     8.1249999999988787E-01     0.0000000000000000E+00 
    6.2500000000211720E-02     8.7499999999951172E-01     0.0000000000000000E+00 
    6.2500000000235922E-02     9.3749999999974565E-01     0.0000000000000000E+00 
    1.2499999999981980E-01     6.2500000000211733E-02     0.0000000000000000E+00 
    1.2499999999986650E-01     1.2500000000042691E-01     0.0000000000000000E+00 
    1.2499999999991319E-01     1.8750000000063199E-01     0.0000000000000000E+00 
    1.2499999999995989E-01     2.5000000000083678E-01     0.0000000000000000E+00 
    1.2500000000000661E-01     3.1250000000104172E-01     0.0000000000000000E+00 
    1.2500000000005329E-01     3.7500000000124661E-01     0.0000000000000000E+00 
    1.2500000000010000E-01     4.3750000000145117E-01     0.0000000000000000E+00 
    1.2500000000014669E-01     5.0000000000163858E-01     0.0000000000000000E+00 
    1.2500000000019340E-01     5.6250000000129741E-01     0.0000000000000000E+00 
    1.2500000000024011E-01     6.2500000000093847E-01     0.0000000000000000E+00 
    1.2500000000028680E-01     6.8750000000057998E-01     0.0000000000000000E+00 
    1.2500000000033351E-01     7.5000000000022127E-01     0.0000000000000000E+00 
    1.2500000000038020E-01     8.1249999999986211E-01     0.0000000000000000E+00 
    1.2500000000042691E-01     8.7499999999952238E-01     0.0000000000000000E+00 
    1.2500000000047359E-01     9.3749999999975164E-01     0.0000000000000000E+00 
    1.8749999999966760E-01     6.2500000000187531E-02     0.0000000000000000E+00 
    1.8749999999974179E-01     1.2500000000038020E-01     0.0000000000000000E+00 
    1.8749999999981601E-01     1.8750000000055780E-01     0.0000000000000000E+00 
    1.8749999999989009E-01     2.5000000000073502E-01     0.0000000000000000E+00 
    1.8749999999996431E-01     3.1250000000091221E-01     0.0000000000000000E+00 
    1.8750000000003850E-01     3.7500000000108941E-01     0.0000000000000000E+00 
    1.8750000000011269E-01     4.3750000000126649E-01     0.0000000000000000E+00 
    1.8750000000018691E-01     5.0000000000142808E-01     0.0000000000000000E+00 
    1.8750000000026110E-01     5.6250000000112244E-01     0.0000000000000000E+00 
    1.8750000000033529E-01     6.2500000000080080E-01     0.0000000000000000E+00 
    1.8750000000040951E-01     6.8750000000047962E-01     0.0000000000000000E+00 
    1.8750000000048361E-01     7.5000000000015843E-01     0.0000000000000000E+00 
    1.8750000000055780E-01     8.1249999999983680E-01     0.0000000000000000E+00 
    1.8750000000063199E-01     8.7499999999953304E-01     0.0000000000000000E+00 
    1.8750000000070621E-01     9.3749999999975764E-01     0.0000000000000000E+00 
    2.4999999999951281E-01     6.2500000000163314E-02     0.0000000000000000E+00 
    2.4999999999961461E-01     1.2500000000033351E-01     0.0000000000000000E+00 
    2.4999999999971650E-01     1.8750000000048361E-01     0.0000000000000000E+00 
    2.4999999999981831E-01     2.5000000000063310E-01     0.0000000000000000E+00 
    2.4999999999992020E-01     3.1250000000078260E-01     0.0000000000000000E+00 
    2.5000000000002198E-01     3.7500000000093209E-01     0.0000000000000000E+00 
    2.5000000000012390E-01     4.3750000000108180E-01     0.0000000000000000E+00 
    2.5000000000022571E-01     5.0000000000121769E-01     0.0000000000000000E+00 
    2.5000000000032763E-01     5.6250000000094724E-01     0.0000000000000000E+00 
    2.5000000000042938E-01     6.2500000000066314E-01     0.0000000000000000E+00 
    2.5000000000053119E-01     6.8750000000037925E-01     0.0000000000000000E+00 
[...]
CELL_DATA 256 
SCALARS Pressure double 1 
LOOKUP_TABLE default 

    9.6728542648532223E-01 
    9.5521936892141834E-01 
    9.4316451699962611E-01 
    9.3214740126267648E-01 
    9.2404486994158908E-01 
    9.2007623527543891E-01 
    9.1334624293880962E-01 
    9.0785963162957939E-01 
    9.0390192206763242E-01 
    9.0091829351320518E-01 
    8.9724787771668324E-01 
    8.9365058670562603E-01 
    8.8990684870223380E-01 
    8.8625023108762324E-01 
    8.8324763386128602E-01 
    8.8123381128839695E-01 
    9.2082843676948722E-01 
    9.1759846011498847E-01 
    9.1367922712345151E-01 
    9.0931783161601376E-01 
    9.0477017847662522E-01 
    8.9951326393590036E-01 
    8.9399247770260837E-01 
    8.9041107974978884E-01 
    8.8644369744391172E-01 
    8.8248764602651963E-01 
    8.7925785828063974E-01 
    8.7672024365889389E-01 
    8.7385141093933361E-01 
    8.7134848021379530E-01 
    8.6979413928301175E-01 
    8.6882552897446164E-01 
    8.8590068789748833E-01 
    8.8429838880529210E-01 
    8.8236925134122146E-01 
    8.7986682370866831E-01 
    8.7655305226687408E-01 
    8.7213121791811110E-01 
    8.6749088523285844E-01 
    8.6442910973156217E-01 
    8.6048940127462836E-01 
    8.5662715587316973E-01 
    8.5394024633008847E-01 
    8.5210806491895963E-01 
    8.4983700849374866E-01 
    8.4823723282667118E-01 
    8.4779940054482206E-01 
    8.4778169643437540E-01 
    8.4940887064521553E-01 
    8.4906280211993967E-01 
    8.4849792994784357E-01 
    8.4729574149085030E-01 
    8.4508733112762824E-01 
    8.4157535336898914E-01 
    8.3772823871473789E-01 
    8.3500888225652170E-01 
    8.3137650486412662E-01 
    8.2790003145161695E-01 
    8.2577644259740757E-01 
    8.2442469196460255E-01 
    8.2256172476729850E-01 
    8.2160863824772579E-01 
    8.2183297137295852E-01 
    8.2214263992357250E-01 
    8.1511531668704051E-01 
    8.1702251167402196E-01 
    8.1647206176362874E-01 
    8.1514810861055242E-01 
    8.1288573029996924E-01 
    8.0943624069303555E-01 
    8.0595857679145277E-01 
    8.0405102755658675E-01 
    8.0114814279672641E-01 
    7.9829196014011206E-01 
    7.9672101598960388E-01 
    7.9604506199559955E-01 
    7.9436872287039129E-01 
    7.9355536660002313E-01 
    7.9340494977410636E-01 
    7.9273901060956942E-01 
    7.8489429903882824E-01 
    7.8312973720575918E-01 
    7.8040554539842188E-01 
    7.7662720382993800E-01 
    7.7274309096765326E-01 
    7.7010202110645387E-01 
    7.6887870285840465E-01 
    7.6795307832014903E-01 
    7.6702865630982942E-01 
    7.6678292933872083E-01 
    7.6629159447198614E-01 
    7.6468602204099934E-01 
    7.6244378946241209E-01 
    7.6032647117154506E-01 
    7.5842744153426189E-01 
    7.5713389265263853E-01 
    7.3406820688654539E-01 
    7.3363152421258671E-01 
    7.3259876600600038E-01 
    7.3116425783720262E-01 
    7.2999643027986849E-01 
    7.2984144312169796E-01 
    7.2940021966427826E-01 
    7.2667910663519841E-01 
    7.2538961537133928E-01 
    7.2491648509232431E-01 
    7.2361314016644063E-01 
    7.2070665833768821E-01 
    7.1833158650920059E-01 
    7.1678159287408927E-01 
    7.1614094480136148E-01 
    7.1595194060501333E-01 
    6.8723980868558243E-01 
    6.8819358976711942E-01 
    6.8878193522060183E-01 
    6.8900364797122471E-01 
    6.8878787013095166E-01 
    6.8809576000273598E-01 
    6.8653341925141464E-01 
    6.8411006957953024E-01 
    6.8142962004486052E-01 
    6.7895728027416713E-01 
    6.7606576275231089E-01 
    6.7255533256254862E-01 
    6.6988538377319040E-01 
    6.6894447551168468E-01 
    6.6945165719421817E-01 
    6.7015746063623061E-01 
    6.4546313465814831E-01 
    6.4696502235830711E-01 
    6.4663452378926212E-01 
    6.4600744792223197E-01 
    6.4463257140886177E-01 
    6.4247652161389091E-01 
    6.3972850510544932E-01 
    6.3691511858104499E-01 
    6.3314342953427860E-01 
    6.2976006994552858E-01 
    6.2646152972613811E-01 
    6.2345100527654596E-01 
    6.2114229911535335E-01 
    6.2056506713511983E-01 
    6.2111361089975003E-01 
    6.2104432237020402E-01 
    5.9803979239234961E-01 
    5.9696184162384869E-01 
    5.9484091903934333E-01 
    5.9211520991827127E-01 
    5.8938377223299065E-01 
    5.8681516718998528E-01 
    5.8407518953678361E-01 
    5.8130492528487032E-01 
    5.7869304585761205E-01 
    5.7670065287047334E-01 
    5.7529869001660194E-01 
    5.7321763293766836E-01 
    5.7097775549639529E-01 
    5.6878252417904251E-01 
    5.6682242990124421E-01 
    5.6566693488701314E-01 
    5.3704110615661949E-01 
    5.3609402586659294E-01 
    5.3440919841235324E-01 
    5.3234298672156999E-01 
    5.3004242948222935E-01 
    5.2710403997098243E-01 
    5.2326953314830082E-01 
    5.2006425103114085E-01 
    5.1782762520091530E-01 
    5.1542245285815358E-01 
    5.1244671889233506E-01 
    5.0952784772635384E-01 
    5.0748374978874733E-01 
    5.0587932069148212E-01 
    5.0503439020460872E-01 
    5.0463965193113991E-01 
    4.7920539661501860E-01 
    4.7865292066840748E-01 
    4.7748295512112349E-01 
    4.7563325243110849E-01 
    4.7309164384016750E-01 
    4.6998835614300383E-01 
    4.6661006326632914E-01 
    4.6255806040473696E-01 
    4.5767471574557750E-01 
    4.5244817207706617E-01 
    4.4768056865105088E-01 
    4.4334417251757524E-01 
    4.3976882020119451E-01 
    4.3781857889579112E-01 
    4.3759804192489538E-01 
    4.3816022866017307E-01 
    4.2744357485170986E-01 
    4.2674294618229397E-01 
    4.2518814889634032E-01 
    4.2256311424835047E-01 
    4.1897924643398166E-01 
    4.1484190003282850E-01 
    4.1034431933389259E-01 
    4.0436213304790614E-01 
    3.9700992632232468E-01 
    3.8943244617169426E-01 
    3.8241650059239018E-01 
    3.7579054119493299E-01 
    3.7028531348485971E-01 
    3.6737790792177699E-01 
    3.6709428059596971E-01 
    3.6810190708151819E-01 
    3.7665316796583981E-01 
    3.7578790143441904E-01 
    3.7384084345771013E-01 
    3.7045264665853461E-01 
    3.6578339874577165E-01 
    3.6042482883408206E-01 
    3.5467250699235842E-01 
    3.4698586952754090E-01 
    3.3751635384495671E-01 
    3.2767788583216528E-01 
    3.1815417172580629E-01 
    3.0883993732355675E-01 
    3.0060152793085532E-01 
    2.9521869508510168E-01 
    2.9272526668311544E-01 
    2.9205124778492852E-01 
    3.3033865813933183E-01 
    3.2937557036578802E-01 
    3.2714640544313389E-01 
    3.2314577665476024E-01 
    3.1753052450956332E-01 
    3.1108503407181515E-01 
    3.0440583250501924E-01 
    2.9565852291799721E-01 
    2.8468477131909864E-01 
    2.7255515491696214E-01 
    2.5968816557605107E-01 
    2.4587747147563482E-01 
    2.3118355503437921E-01 
    2.1677883394823660E-01 
    2.0347804113453707E-01 
    1.9371874073501796E-01 
    3.0089668526190516E-01 
    2.9983593415384635E-01 
    2.9734674615842277E-01 
    2.9293845524570677E-01 
    2.8675408807993319E-01 
    2.7976284230510623E-01 
    2.7311441866031899E-01 
    2.6469685717455133E-01 
    2.5283459118200990E-01 
    2.3697942864194482E-01 
    2.1846003945176934E-01 
    1.9570876047023839E-01 
    1.6451396044723868E-01 
    1.2234947913261737E-01 
    6.8036106974175461E-02 
    0.0000000000000000E+00 

SCALARS Saturarion double 1 
LOOKUP_TABLE default 

    1.0000000000000575E+00 
    9.7690092943080842E-01 
    9.3994120819327598E-01 
    8.8091634539773644E-01 
    8.2283677070047834E-01 
    7.6641109387858108E-01 
    7.1266736061935765E-01 
    6.6013632505689057E-01 
    6.0765188311434093E-01 
    5.6062626027930862E-01 
    5.2283359150764519E-01 
    4.7868981178144981E-01 
    3.4215606384872771E-01 
    1.6449923960990549E-02 
    1.0000011690294404E-06 
    1.0000000000002801E-06 
    9.5060289657839070E-01 
    9.2880537181498490E-01 
    8.9544973466311695E-01 
    8.4402918536276927E-01 
    7.9110058245827730E-01 
    7.4156379822311702E-01 
    6.9533911896753564E-01 
    6.5037623327205352E-01 
    6.0481247471065724E-01 
    5.6313671191326498E-01 
    5.2599782942914852E-01 
    4.7686016120731334E-01 
    3.0949819240939885E-01 
    6.1549184299747785E-03 
    1.0025320927514174E-06 
    1.0000000005231904E-06 
    8.7435551344519913E-01 
    8.4812917090930340E-01 
    8.1465247063500501E-01 
    7.7629501020887992E-01 
    7.3862310442777135E-01 
    7.0078100404357346E-01 
    6.6454293702319989E-01 
    6.2981431318091796E-01 
    5.9403709497299884E-01 
    5.5764481311654091E-01 
    5.2171959315233452E-01 
    4.7055382778033988E-01 
    2.6553760083168237E-01 
    1.5076555563949482E-03 
    1.0211331354071176E-06 
    1.0000000005179026E-06 
    7.7838378837530819E-01 
    7.6542898467663101E-01 
    7.4375905758708571E-01 
    7.1718815494373522E-01 
    6.8965247066102275E-01 
    6.6157760629106177E-01 
    6.3351935695181394E-01 
    6.0624987900529004E-01 
    5.7801166531132797E-01 
    5.4648141069230460E-01 
    5.1373720910643828E-01 
    4.5738233350755503E-01 
    1.9840062289449287E-01 
    1.7803507742710062E-04 
    1.0007298963803316E-06 
    1.0000000000542325E-06 
    7.0310055285407502E-01 
    6.9764856919053886E-01 
    6.8512245873152289E-01 
    6.6795223242116053E-01 
    6.4632509381187031E-01 
    6.2531696562492944E-01 
    6.0342338114400207E-01 
    5.8069940749161775E-01 
    5.5810784292753179E-01 
    5.3273633878163962E-01 
    5.0329083538369923E-01 
    4.3548128048974472E-01 
    1.2353965112557840E-01 
    5.1838547830401222E-05 
    1.0006918716126810E-06 
    1.0000000000007701E-06 
    6.5125655815229000E-01 
    6.4870975093609773E-01 
    6.4085485443312051E-01 
    6.3025856825279203E-01 
    6.1553486696784687E-01 
    5.9589325007250682E-01 
    5.7424647529413231E-01 
    5.5320074179368328E-01 
    5.3503404757909789E-01 
    5.1542720921536267E-01 
    4.8354735138578414E-01 
    3.8755916884180891E-01 
    5.6629394489940484E-02 
    4.2633056820304168E-05 
    1.0001300859970600E-06 
    9.9999999999999995E-07 
    6.0441296596210414E-01 
    6.0211432109154639E-01 
    5.9623278488533349E-01 
    5.8868581889473459E-01 
    5.8387087628632128E-01 
    5.6828073368418563E-01 
    5.4674785884985722E-01 
    5.2816979406259712E-01 
    5.0868074058562951E-01 
    4.8916284599662541E-01 
    4.4888747652429151E-01 
    2.8046292863776129E-01 
    8.2517100439816540E-03 
    2.3914113963959916E-06 
    1.0000001650271491E-06 
    9.9999999999999995E-07 
    5.6087606451828720E-01 
    5.5875154992410736E-01 
    5.5355634267243703E-01 
    5.4730690633606116E-01 
    5.4596983308416602E-01 
    5.3566193901797832E-01 
    5.2073266853578204E-01 
    5.0534545574991629E-01 
    4.8241506318162786E-01 
    4.4623402467553569E-01 
    3.4140720863390922E-01 
    9.0505034621666217E-02 
    1.9368223540559200E-04 
    1.0035195321582790E-06 
    1.0000000000000952E-06 
    9.9999999999999995E-07 
    5.1746384252347766E-01 
    5.1547570530235842E-01 
    5.1105266524711923E-01 
    5.0564399561926410E-01 
    5.0047459617378309E-01 
    4.9393417476421908E-01 
    4.8340334922767847E-01 
    4.6652909038804224E-01 
    4.3096321846394797E-01 
    3.0693253523939845E-01 
    7.0850232342109576E-02 
    5.4058365502612598E-04 
    1.0374708315712083E-06 
    1.0000000025150458E-06 
    9.9999999999999995E-07 
    9.9999999999999995E-07 
    4.5222482164305750E-01 
    4.4729377621027416E-01 
    4.3889997038161566E-01 
    4.2681474804031583E-01 
    4.1133641335180049E-01 
    3.9398753909299600E-01 
    3.6426600540684129E-01 
    2.9656881745172431E-01 
    1.8850192569495050E-01 
    4.2841284686441987E-02 
    3.0392379769922156E-04 
    1.0619955026268384E-06 
    1.0000000178719253E-06 
    1.0000000000000006E-06 
    9.9999999999999995E-07 
    9.9999999999999995E-07 
    1.9796008177445587E-01 
    1.8107549309804141E-01 
    1.5386637664275021E-01 
    1.2167391488103164E-01 
    9.2309033872978799E-02 
    6.5324255404013043E-02 
    3.4827029488974717E-02 
    8.1893256832019125E-03 
    4.1960557316171132E-04 
    1.1961935699727389E-04 
    1.0155061718755232E-06 
    1.0000000031911716E-06 
    1.0000000000000016E-06 
    9.9999999999999995E-07 
    9.9999999999999995E-07 
    9.9999999999999995E-07 
    7.4724418682096396E-05 
    1.9953643269130064E-05 
    1.2043620713225585E-05 
    1.8224848356774699E-05 
    1.5949778568610860E-05 
    1.5091303425072906E-05 
    1.3616233260448208E-05 
    3.2448853566822002E-06 
    1.0352310644687653E-06 
    1.0014135123103119E-06 
    1.0000000002117758E-06 
    1.0000000000000002E-06 
    9.9999999999999995E-07 
    9.9999999999999995E-07 
    9.9999999999999995E-07 
    9.9999999999999995E-07 
    1.0000000005609016E-06 
    1.0000060169886839E-06 
    1.0000397066775342E-06 
    1.0000628741779404E-06 
    1.0000811100606857E-06 
    1.0000489942147337E-06 
    1.0000244232817318E-06 
    1.0000008146599746E-06 
    1.0000000000097942E-06 
    1.0000000000000097E-06 
    9.9999999999999995E-07 
    9.9999999999999995E-07 
    9.9999999999999995E-07 
    9.9999999999999995E-07 
    9.9999999999999995E-07 
    9.9999999999999995E-07 
    9.9999999999999572E-07 
    1.0000000000037549E-06 
    1.0000000000159714E-06 
    1.0000000000181127E-06 
    9.9999999999999974E-07 
    9.9999999999999974E-07 
    1.0000000000000002E-06 
    1.0000000000000027E-06 
    9.9999999999999995E-07 
    9.9999999999999995E-07 
    9.9999999999999995E-07 
    9.9999999999999995E-07 
    9.9999999999999995E-07 
    9.9999999999999995E-07 
    9.9999999999999995E-07 
    9.9999999999999995E-07 
    9.9999999999999995E-07 
    9.9999999999999995E-07 
    9.9999999999999995E-07 
    9.9999999999999995E-07 
    9.9999999999999995E-07 
    9.9999999999999995E-07 
    9.9999999999999995E-07 
    9.9999999999999995E-07 
    9.9999999999999995E-07 
    9.9999999999999995E-07 
    9.9999999999999995E-07 
    9.9999999999999995E-07 
    9.9999999999999995E-07 
    9.9999999999999995E-07 
    9.9999999999999995E-07 
    9.9999999999999995E-07 
    9.9999999999999995E-07 
    9.9999999999999995E-07 
    9.9999999999999995E-07 
    9.9999999999999995E-07 
    9.9999999999999995E-07 
    9.9999999999999995E-07 
    9.9999999999999995E-07 
    9.9999999999999995E-07 
    9.9999999999999995E-07 
    9.9999999999999995E-07 
    9.9999999999999995E-07 
    9.9999999999999995E-07 
    9.9999999999999995E-07 
    9.9999999999999995E-07 
    9.9999999999999995E-07 
    1.0000003016051124E-06 
