# vtk DataFile Version 2.0
Pressure Field Data 
ASCII 
DATASET UNSTRUCTURED_GRID 

POINTS 289 double 

    0.0000000000000000E+00     0.0000000000000000E+00     0.0000000000000000E+00 
    1.0000000000000000E+00     0.0000000000000000E+00     0.0000000000000000E+00 
    1.0000000000000000E+00     1.0000000000000000E+00     0.0000000000000000E+00 
    0.0000000000000000E+00     1.0000000000000000E+00     0.0000000000000000E+00 
    6.2499999999872928E-02     0.0000000000000000E+00     0.0000000000000000E+00 
    1.2499999999977310E-01     0.0000000000000000E+00     0.0000000000000000E+00 
    1.8749999999959341E-01     0.0000000000000000E+00     0.0000000000000000E+00 
    2.4999999999941089E-01     0.0000000000000000E+00     0.0000000000000000E+00 
    3.1249999999922851E-01     0.0000000000000000E+00     0.0000000000000000E+00 
    3.7499999999904610E-01     0.0000000000000000E+00     0.0000000000000000E+00 
    4.3749999999886358E-01     0.0000000000000000E+00     0.0000000000000000E+00 
    4.9999999999869210E-01     0.0000000000000000E+00     0.0000000000000000E+00 
    5.6249999999884603E-01     0.0000000000000000E+00     0.0000000000000000E+00 
    6.2499999999901090E-01     0.0000000000000000E+00     0.0000000000000000E+00 
    6.8749999999917577E-01     0.0000000000000000E+00     0.0000000000000000E+00 
    7.4999999999934064E-01     0.0000000000000000E+00     0.0000000000000000E+00 
    8.1249999999950551E-01     0.0000000000000000E+00     0.0000000000000000E+00 
    8.7499999999967026E-01     0.0000000000000000E+00     0.0000000000000000E+00 
    9.3749999999983513E-01     0.0000000000000000E+00     0.0000000000000000E+00 
    1.0000000000000000E+00     6.2499999999872928E-02     0.0000000000000000E+00 
    1.0000000000000000E+00     1.2499999999977310E-01     0.0000000000000000E+00 
    1.0000000000000000E+00     1.8749999999959341E-01     0.0000000000000000E+00 
    1.0000000000000000E+00     2.4999999999941089E-01     0.0000000000000000E+00 
    1.0000000000000000E+00     3.1249999999922851E-01     0.0000000000000000E+00 
    1.0000000000000000E+00     3.7499999999904610E-01     0.0000000000000000E+00 
    1.0000000000000000E+00     4.3749999999886358E-01     0.0000000000000000E+00 
    1.0000000000000000E+00     4.9999999999869210E-01     0.0000000000000000E+00 
    1.0000000000000000E+00     5.6249999999884603E-01     0.0000000000000000E+00 
    1.0000000000000000E+00     6.2499999999901090E-01     0.0000000000000000E+00 
    1.0000000000000000E+00     6.8749999999917577E-01     0.0000000000000000E+00 
    1.0000000000000000E+00     7.4999999999934064E-01     0.0000000000000000E+00 
    1.0000000000000000E+00     8.1249999999950551E-01     0.0000000000000000E+00 
    1.0000000000000000E+00     8.7499999999967026E-01     0.0000000000000000E+00 
    1.0000000000000000E+00     9.3749999999983513E-01     0.0000000000000000E+00 
    9.3749999999973976E-01     1.0000000000000000E+00     0.0000000000000000E+00 
    8.7499999999950118E-01     1.0000000000000000E+00     0.0000000000000000E+00 
    8.1249999999991318E-01     1.0000000000000000E+00     0.0000000000000000E+00 
    7.5000000000034706E-01     1.0000000000000000E+00     0.0000000000000000E+00 
    6.8750000000078049E-01     1.0000000000000000E+00     0.0000000000000000E+00 
    6.2500000000121403E-01     1.0000000000000000E+00     0.0000000000000000E+00 
    5.6250000000164757E-01     1.0000000000000000E+00     0.0000000000000000E+00 
    5.0000000000205946E-01     1.0000000000000000E+00     0.0000000000000000E+00 
    4.3750000000182099E-01     1.0000000000000000E+00     0.0000000000000000E+00 
    3.7500000000156092E-01     1.0000000000000000E+00     0.0000000000000000E+00 
    3.1250000000130068E-01     1.0000000000000000E+00     0.0000000000000000E+00 
    2.5000000000104050E-01     1.0000000000000000E+00     0.0000000000000000E+00 
    1.8750000000078040E-01     1.0000000000000000E+00     0.0000000000000000E+00 
    1.2500000000052031E-01     1.0000000000000000E+00     0.0000000000000000E+00 
    6.2500000000260125E-02     1.0000000000000000E+00     0.0000000000000000E+00 
    0.0000000000000000E+00     9.3749999999973976E-01     0.0000000000000000E+00 
    0.0000000000000000E+00     8.7499999999950118E-01     0.0000000000000000E+00 
    0.0000000000000000E+00     8.1249999999991318E-01     0.0000000000000000E+00 
    0.0000000000000000E+00     7.5000000000034706E-01     0.0000000000000000E+00 
    0.0000000000000000E+00     6.8750000000078049E-01     0.0000000000000000E+00 
    0.0000000000000000E+00     6.2500000000121403E-01     0.0000000000000000E+00 
    0.0000000000000000E+00     5.6250000000164757E-01     0.0000000000000000E+00 
    0.0000000000000000E+00     5.0000000000205946E-01     0.0000000000000000E+00 
    0.0000000000000000E+00     4.3750000000182099E-01     0.0000000000000000E+00 
    0.0000000000000000E+00     3.7500000000156092E-01     0.0000000000000000E+00 
    0.0000000000000000E+00     3.1250000000130068E-01     0.0000000000000000E+00 
    0.0000000000000000E+00     2.5000000000104050E-01     0.0000000000000000E+00 
    0.0000000000000000E+00     1.8750000000078040E-01     0.0000000000000000E+00 
    0.0000000000000000E+00     1.2500000000052031E-01     0.0000000000000000E+00 
    0.0000000000000000E+00     6.2500000000260125E-02     0.0000000000000000E+00 
    6.2499999999897131E-02     6.2500000000235922E-02     0.0000000000000000E+00 
    6.2499999999921327E-02     1.2500000000047351E-01     0.0000000000000000E+00 
    6.2499999999945530E-02     1.8750000000070621E-01     0.0000000000000000E+00 
    6.2499999999969733E-02     2.5000000000093858E-01     0.0000000000000000E+00 
    6.2499999999993928E-02     3.1250000000117117E-01     0.0000000000000000E+00 
    6.2500000000018124E-02     3.7500000000140382E-01     0.0000000000000000E+00 
    6.2500000000042327E-02     4.3750000000163619E-01     0.0000000000000000E+00 
    6.2500000000066530E-02     5.0000000000184897E-01     0.0000000000000000E+00 
    6.2500000000090733E-02     5.6250000000147260E-01     0.0000000000000000E+00 
    6.2500000000114922E-02     6.2500000000107636E-01     0.0000000000000000E+00 
    6.2500000000139125E-02     6.8750000000068034E-01     0.0000000000000000E+00 
    6.2500000000163328E-02     7.5000000000028411E-01     0.0000000000000000E+00 
    6.2500000000187531E-02     8.1249999999988787E-01     0.0000000000000000E+00 
    6.2500000000211720E-02     8.7499999999951172E-01     0.0000000000000000E+00 
    6.2500000000235922E-02     9.3749999999974565E-01     0.0000000000000000E+00 
    1.2499999999981980E-01     6.2500000000211733E-02     0.0000000000000000E+00 
    1.2499999999986650E-01     1.2500000000042691E-01     0.0000000000000000E+00 
    1.2499999999991319E-01     1.8750000000063199E-01     0.0000000000000000E+00 
    1.2499999999995989E-01     2.5000000000083678E-01     0.0000000000000000E+00 
    1.2500000000000661E-01     3.1250000000104172E-01     0.0000000000000000E+00 
    1.2500000000005329E-01     3.7500000000124661E-01     0.0000000000000000E+00 
    1.2500000000010000E-01     4.3750000000145117E-01     0.0000000000000000E+00 
    1.2500000000014669E-01     5.0000000000163858E-01     0.0000000000000000E+00 
    1.2500000000019340E-01     5.6250000000129741E-01     0.0000000000000000E+00 
    1.2500000000024011E-01     6.2500000000093847E-01     0.0000000000000000E+00 
    1.2500000000028680E-01     6.8750000000057998E-01     0.0000000000000000E+00 
    1.2500000000033351E-01     7.5000000000022127E-01     0.0000000000000000E+00 
    1.2500000000038020E-01     8.1249999999986211E-01     0.0000000000000000E+00 
    1.2500000000042691E-01     8.7499999999952238E-01     0.0000000000000000E+00 
    1.2500000000047359E-01     9.3749999999975164E-01     0.0000000000000000E+00 
    1.8749999999966760E-01     6.2500000000187531E-02     0.0000000000000000E+00 
    1.8749999999974179E-01     1.2500000000038020E-01     0.0000000000000000E+00 
    1.8749999999981601E-01     1.8750000000055780E-01     0.0000000000000000E+00 
    1.8749999999989009E-01     2.5000000000073502E-01     0.0000000000000000E+00 
    1.8749999999996431E-01     3.1250000000091221E-01     0.0000000000000000E+00 
    1.8750000000003850E-01     3.7500000000108941E-01     0.0000000000000000E+00 
    1.8750000000011269E-01     4.3750000000126649E-01     0.0000000000000000E+00 
    1.8750000000018691E-01     5.0000000000142808E-01     0.0000000000000000E+00 
    1.8750000000026110E-01     5.6250000000112244E-01     0.0000000000000000E+00 
    1.8750000000033529E-01     6.2500000000080080E-01     0.0000000000000000E+00 
    1.8750000000040951E-01     6.8750000000047962E-01     0.0000000000000000E+00 
    1.8750000000048361E-01     7.5000000000015843E-01     0.0000000000000000E+00 
    1.8750000000055780E-01     8.1249999999983680E-01     0.0000000000000000E+00 
    1.8750000000063199E-01     8.7499999999953304E-01     0.0000000000000000E+00 
    1.8750000000070621E-01     9.3749999999975764E-01     0.0000000000000000E+00 
    2.4999999999951281E-01     6.2500000000163314E-02     0.0000000000000000E+00 
    2.4999999999961461E-01     1.2500000000033351E-01     0.0000000000000000E+00 
    2.4999999999971650E-01     1.8750000000048361E-01     0.0000000000000000E+00 
    2.4999999999981831E-01     2.5000000000063310E-01     0.0000000000000000E+00 
    2.4999999999992020E-01     3.1250000000078260E-01     0.0000000000000000E+00 
    2.5000000000002198E-01     3.7500000000093209E-01     0.0000000000000000E+00 
    2.5000000000012390E-01     4.3750000000108180E-01     0.0000000000000000E+00 
    2.5000000000022571E-01     5.0000000000121769E-01     0.0000000000000000E+00 
    2.5000000000032763E-01     5.6250000000094724E-01     0.0000000000000000E+00 
    2.5000000000042938E-01     6.2500000000066314E-01     0.0000000000000000E+00 
    2.5000000000053119E-01     6.8750000000037925E-01     0.0000000000000000E+00 
[...]
CELL_DATA 256 
SCALARS Pressure double 1 
LOOKUP_TABLE default 

    8.4728290201412348E-01 
    8.3507378818766320E-01 
    8.2307933284539658E-01 
    8.1230303733765818E-01 
    8.0449924845264975E-01 
    8.0132197188455800E-01 
    7.9547961217181740E-01 
    7.9065646311621962E-01 
    7.8729385374822347E-01 
    7.8535347854242266E-01 
    7.8280759241816655E-01 
    7.8033625467139967E-01 
    7.7768292132920436E-01 
    7.7477184677524336E-01 
    7.7211998914617330E-01 
    7.7043623014054163E-01 
    8.0272854791262971E-01 
    7.9955394481741870E-01 
    7.9579663163172909E-01 
    7.9174574951668353E-01 
    7.8772905064112408E-01 
    7.8324625769448208E-01 
    7.7836609074966590E-01 
    7.7544866699093717E-01 
    7.7231237152205079E-01 
    7.6914161962970817E-01 
    7.6640577649578334E-01 
    7.6443582546580469E-01 
    7.6246307463485252E-01 
    7.6086033117315599E-01 
    7.5966407961919735E-01 
    7.5885987409009703E-01 
    7.7070062922007154E-01 
    7.6931201214690637E-01 
    7.6769124114293597E-01 
    7.6566482638595801E-01 
    7.6306760792816286E-01 
    7.5953698821908988E-01 
    7.5552890814196760E-01 
    7.5310273133164596E-01 
    7.4997977638810620E-01 
    7.4669373085850255E-01 
    7.4411900764610450E-01 
    7.4256937795656108E-01 
    7.4104234783165135E-01 
    7.4018435789801751E-01 
    7.3987691093812713E-01 
    7.3984160500783192E-01 
    7.3825335760541022E-01 
    7.3814189773777883E-01 
    7.3792019619112537E-01 
    7.3726249104206187E-01 
    7.3586153640090257E-01 
    7.3329814186088282E-01 
    7.3005991770590661E-01 
    7.2794004425158609E-01 
    7.2503927974278504E-01 
    7.2194307185333095E-01 
    7.1967898225001414E-01 
    7.1851213015022286E-01 
    7.1732888242326742E-01 
    7.1691879245381440E-01 
    7.1713846216477173E-01 
    7.1744179303484357E-01 
    7.0808224703540612E-01 
    7.1034801589228358E-01 
    7.1041017251690175E-01 
    7.0983484301676414E-01 
    7.0853325383221755E-01 
    7.0601046083631325E-01 
    7.0294127391525874E-01 
    7.0161355378504409E-01 
    6.9932363613911341E-01 
    6.9656038123465069E-01 
    6.9463045075342389E-01 
    6.9427722817089454E-01 
    6.9328953760201917E-01 
    6.9287745087874841E-01 
    6.9283993270132804E-01 
    6.9251650027542377E-01 
    6.8446237170190216E-01 
    6.8299612479719274E-01 
    6.8072653721866005E-01 
    6.7749046635549459E-01 
    6.7404839486114687E-01 
    6.7169326402866425E-01 
    6.7065943927391880E-01 
    6.7018941558058132E-01 
    6.6962308343038257E-01 
    6.6962801825205054E-01 
    6.6960630068605276E-01 
    6.6885154818536119E-01 
    6.6722105155620826E-01 
    6.6563202175611147E-01 
    6.6433017597556354E-01 
    6.6359582777173365E-01 
    6.4010328164990526E-01 
    6.3973276574900406E-01 
    6.3885393831465809E-01 
    6.3758080429261532E-01 
    6.3645876593777972E-01 
    6.3639011018292546E-01 
    6.3667687362327363E-01 
    6.3455627308048534E-01 
    6.3383015859307279E-01 
    6.3413789604101578E-01 
    6.3429237084632761E-01 
    6.3305896848303356E-01 
    6.3238601126218286E-01 
    6.3178261642347966E-01 
    6.3145848265630866E-01 
    6.3129403538261397E-01 
    5.9921369001490543E-01 
    6.0010866509523908E-01 
    6.0075131325321185E-01 
    6.0111229946104050E-01 
    6.0116378646426338E-01 
    6.0092952670808442E-01 
    6.0016579427017958E-01 
    5.9898908822996844E-01 
    5.9788292385184827E-01 
    5.9712477615501935E-01 
    5.9650415780690569E-01 
    5.9601250742278289E-01 
    5.9556824509182660E-01 
    5.9550881135835887E-01 
    5.9597312289131721E-01 
    5.9617984413691949E-01 
    5.6399385665506474E-01 
    5.6600746126579993E-01 
    5.6616130532794962E-01 
    5.6604779740175426E-01 
    5.6540347261991364E-01 
    5.6403798761744173E-01 
    5.6225702088624707E-01 
    5.6146958152940074E-01 
    5.6009801455525476E-01 
    5.5912505302399207E-01 
    5.5873721954200140E-01 
    5.5908752832730768E-01 
    5.5875464926535767E-01 
    5.5883534610370400E-01 
    5.5913224224431435E-01 
    5.5850623343230965E-01 
    5.3234531087847525E-01 
    5.3157991471489230E-01 
    5.2996310311966455E-01 
    5.2761940217421255E-01 
    5.2519432347059558E-01 
    5.2331111350773218E-01 
    5.2183891550113859E-01 
    5.2084521614740842E-01 
    5.2036332467487523E-01 
    5.2103144446664529E-01 
    5.2207117143721848E-01 
    5.2152508925906771E-01 
    5.1994653123807777E-01 
    5.1815249353419701E-01 
    5.1636536756696927E-01 
    5.1527390638704906E-01 
    4.9422250583877475E-01 
    4.9339233220991091E-01 
    4.9195947002913776E-01 
    4.9013890234107022E-01 
    4.8847778705277217E-01 
    4.8706379279597578E-01 
    4.8463929782280074E-01 
    4.8149223737377178E-01 
    4.7975403689705620E-01 
    4.7841492570172373E-01 
    4.7615147369958416E-01 
    4.7295050615335527E-01 
    4.7045150372919076E-01 
    4.6843058573496982E-01 
    4.6762395966417308E-01 
    4.6751737839087892E-01 
    4.5984145042511421E-01 
    4.5921366529674762E-01 
    4.5811572384332228E-01 
    4.5642029969478870E-01 
    4.5402279434865472E-01 
    4.5085019087979028E-01 
    4.4736705558577511E-01 
    4.4359055533121655E-01 
    4.3863130556509072E-01 
    4.3257179891246489E-01 
    4.2665860710831593E-01 
    4.2158421317286909E-01 
    4.1674866720969850E-01 
    4.1375776563983346E-01 
    4.1344001156757049E-01 
    4.1433587565129337E-01 
    4.2371358920208213E-01 
    4.2302825977419467E-01 
    4.2171390907131157E-01 
    4.1937389938148228E-01 
    4.1582818791514509E-01 
    4.1138207456598053E-01 
    4.0677614367538978E-01 
    4.0093765850603946E-01 
    3.9275733589462075E-01 
    3.8337378902076785E-01 
    3.7471447391309859E-01 
    3.6714881806907773E-01 
    3.5984070892778364E-01 
    3.5528236587638046E-01 
    3.5457481960632209E-01 
    3.5573864471709021E-01 
    3.8031443788655683E-01 
    3.7948529098508987E-01 
    3.7769015591137028E-01 
    3.7445028678202885E-01 
    3.6978502119438017E-01 
    3.6428733072596864E-01 
    3.5843738544193476E-01 
    3.5061559405159115E-01 
    3.4038983130992317E-01 
    3.2937615239337414E-01 
    3.1887878501207123E-01 
    3.0864664348643722E-01 
    2.9832623004600867E-01 
    2.9105281617527973E-01 
    2.8794639493418411E-01 
    2.8714142278613997E-01 
    3.3217150530207734E-01 
    3.3119302325171701E-01 
    3.2892975288513465E-01 
    3.2487429533910067E-01 
    3.1917659461447928E-01 
    3.1260008236236175E-01 
    3.0571105936545118E-01 
    2.9693966778143149E-01 
    2.8600227234500819E-01 
    2.7386981220352724E-01 
    2.6081716180968839E-01 
    2.4633720769279702E-01 
    2.3045853041762401E-01 
    2.1528240311370647E-01 
    2.0176259492505999E-01 
    1.9173895699669888E-01 
    3.0141859501093343E-01 
    3.0027835288556182E-01 
    2.9765269180044862E-01 
    2.9302951940414257E-01 
    2.8657125230189229E-01 
    2.7932969856395728E-01 
    2.7249159236336140E-01 
    2.6437175887239805E-01 
    2.5307370959947850E-01 
    2.3780478213831283E-01 
    2.1932831512967796E-01 
    1.9612079740722882E-01 
    1.6446838500632513E-01 
    1.2218597464878198E-01 
    6.7864830628267300E-02 
    0.0000000000000000E+00 

SCALARS Saturarion double 1 
LOOKUP_TABLE default 

    1.0000000000000078E+00 
    9.8458428513164242E-01 
    9.6059077594312670E-01 
    9.1960675570166373E-01 
    8.7579237395487786E-01 
    8.2957286809020159E-01 
    7.8220789476483166E-01 
    7.3347417848029006E-01 
    6.8286734231370338E-01 
    6.3590074329947122E-01 
    5.9298783542432187E-01 
    5.5553237000510591E-01 
    5.2373632996963915E-01 
    4.8064672321729363E-01 
    3.1452695085678739E-01 
    5.5858365440016608E-03 
    9.6380095418446166E-01 
    9.4874813554447890E-01 
    9.2484074043305642E-01 
    8.8907333898517726E-01 
    8.4765602702342535E-01 
    8.0567685898015895E-01 
    7.6429566789042713E-01 
    7.2212219637464603E-01 
    6.7640002079486816E-01 
    6.3092952682270553E-01 
    5.8845567084175709E-01 
    5.4967545749658264E-01 
    5.1379190861670754E-01 
    4.5390041191911634E-01 
    1.6984672302339485E-01 
    9.8782977808574754E-05 
    9.0326181260622262E-01 
    8.8388896153455621E-01 
    8.5856741840910511E-01 
    8.2960664760656821E-01 
    7.9750442360671525E-01 
    7.6449469822423755E-01 
    7.3192338892083342E-01 
    6.9919908610170645E-01 
    6.6264944459321751E-01 
    6.2207213581898735E-01 
    5.8214663146728152E-01 
    5.4362869020431182E-01 
    5.0292155592294963E-01 
    4.1157299942201103E-01 
    6.4493968962479414E-02 
    2.5736446572747001E-05 
    8.2653656648807405E-01 
    8.1434327503578829E-01 
    7.9424486173083664E-01 
    7.7160326199657592E-01 
    7.4895855913527276E-01 
    7.2436656474252881E-01 
    6.9863579858961178E-01 
    6.7286946327790098E-01 
    6.4461033126581091E-01 
    6.0994640760174823E-01 
    5.7247490602078654E-01 
    5.3403774445774743E-01 
    4.8905282578600723E-01 
    3.3129327509232903E-01 
    1.0216996789042228E-02 
    2.1939262137031809E-06 
    7.6290078856211252E-01 
    7.5670483283501389E-01 
    7.4285059932144770E-01 
    7.2575770275770468E-01 
    7.0492465725859799E-01 
    6.8577464805122501E-01 
    6.6552414335565813E-01 
    6.4445933450279003E-01 
    6.2297792704886801E-01 
    5.9507519369403705E-01 
    5.6128757636655924E-01 
    5.2443498597150784E-01 
    4.7490845427686534E-01 
    2.6226055751416788E-01 
    1.3095148083668950E-03 
    1.0237341281059155E-06 
    7.1481690406540088E-01 
    7.1228510629904318E-01 
    7.0416507440292164E-01 
    6.9324274273153808E-01 
    6.7667517903917329E-01 
    6.5577357708748829E-01 
    6.3476841574669896E-01 
    6.1507474946646346E-01 
    5.9724709830122180E-01 
    5.7575539210807580E-01 
    5.4837418230534207E-01 
    5.1831096285084699E-01 
    4.6560453468741075E-01 
    2.2498178188537654E-01 
    2.6903131059142593E-04 
    1.0007533110430146E-06 
    6.7102168374439564E-01 
    6.6910156344612870E-01 
    6.6381686254246708E-01 
    6.5628249794814508E-01 
    6.4996598886830492E-01 
    6.3296850836342422E-01 
    6.1012924536442936E-01 
    5.8990968645089881E-01 
    5.7011015662043885E-01 
    5.5296086657948373E-01 
    5.3132701433465968E-01 
    5.0612658318892101E-01 
    4.4790080780264108E-01 
    1.6415303590497052E-01 
    5.2232919358305072E-05 
    1.0000565003733911E-06 
    6.3206590722266531E-01 
    6.3002248634009017E-01 
    6.2526680540764801E-01 
    6.1838985796261325E-01 
    6.1895081027740262E-01 
    6.0854480583654325E-01 
    5.8921140331434896E-01 
    5.6999723156212223E-01 
    5.4942790280730625E-01 
    5.3303869210365429E-01 
    5.1380002863019691E-01 
    4.8595989180782018E-01 
    4.0366745824294908E-01 
    4.7281647059779414E-02 
    2.1307118092813964E-05 
    1.0000024342866513E-06 
    5.9968830857921440E-01 
    5.9789545216283324E-01 
    5.9377429123369008E-01 
    5.8786499457290042E-01 
    5.8861236965631758E-01 
    5.8331782223612494E-01 
    5.6872063678816587E-01 
    5.5228482830185588E-01 
    5.3535884922641730E-01 
    5.1753093754511781E-01 
    4.9921843226471180E-01 
    4.6821721729678895E-01 
    3.2667031944711600E-01 
    1.5037597335085409E-02 
    2.2082140960648300E-06 
    1.0000007732322053E-06 
    5.7401094726899815E-01 
    5.7267208383051660E-01 
    5.6924286259006662E-01 
    5.6469769483048504E-01 
    5.6049498203491543E-01 
    5.5787498426144766E-01 
    5.4747249987186453E-01 
    5.3454738895112652E-01 
    5.2200257683928197E-01 
    5.0459957238582276E-01 
    4.8700059020326814E-01 
    4.5859951782674707E-01 
    2.9520834878250246E-01 
    6.0939942017770180E-03 
    1.6229257818057164E-06 
    1.0000000737741747E-06 
    5.4806715572853681E-01 
    5.4698048950902112E-01 
    5.4437024112699506E-01 
    5.4111023236782907E-01 
    5.3698240847036971E-01 
    5.3294562144003421E-01 
    5.2704331380560765E-01 
    5.1804745951457998E-01 
    5.0786178840152207E-01 
    4.9419684916397549E-01 
    4.7674968805136819E-01 
    4.4893267636905254E-01 
    2.9063528886146028E-01 
    4.6256200232755512E-03 
    1.1099588498222639E-06 
    1.0000000163043523E-06 
    5.2088354694157801E-01 
    5.2018961652826989E-01 
    5.1829309521872402E-01 
    5.1604566488856529E-01 
    5.1366747618379582E-01 
    5.0963105256940289E-01 
    5.0618751762807468E-01 
    5.0198285970746681E-01 
    4.9448492804416139E-01 
    4.8380006913809925E-01 
    4.6955744274737399E-01 
    4.4277618852674505E-01 
    3.1572170511444769E-01 
    1.2645645057262093E-02 
    1.1256858066001225E-06 
    1.0000000068211463E-06 
    4.8525049290732364E-01 
    4.8480402255517829E-01 
    4.8348496068660179E-01 
    4.8200148447876145E-01 
    4.8030004492414369E-01 
    4.7802250470704116E-01 
    4.7542738800784806E-01 
    4.7326513268899262E-01 
    4.7159342859161563E-01 
    4.6646898081812815E-01 
    4.5782652408993119E-01 
    4.3737884547002615E-01 
    3.4382401265939555E-01 
    4.5963732435764765E-02 
    2.3508817841269916E-06 
    1.0000001533198119E-06 
    3.7254377757539564E-01 
    3.7138646742729414E-01 
    3.6983763055104008E-01 
    3.6842317907368471E-01 
    3.6298881322949361E-01 
    3.5969966329194986E-01 
    3.5877859943309881E-01 
    3.5613003551483058E-01 
    3.7560036074309622E-01 
    4.0694715862550096E-01 
    4.1739536666708887E-01 
    4.0519088738083281E-01 
    3.0581287401455687E-01 
    2.5563276190366142E-02 
    1.9212246413750829E-05 
    1.0000049041092708E-06 
    3.3421602788732033E-02 
    3.2665757737981020E-02 
    3.1496654805754282E-02 
    3.0913372344954747E-02 
    2.5321410120660491E-02 
    2.4577088118819590E-02 
    2.4246608303186461E-02 
    2.2575176448101343E-02 
    9.1301072441939385E-02 
    1.5646415288194498E-01 
    2.0505769350760375E-01 
    2.1686465466709359E-01 
    1.0866175410657750E-01 
    6.7184689873897195E-04 
    1.0626615828574076E-06 
    1.0000000000111310E-06 
    1.0000000065724674E-06 
    1.0273510198547195E-06 
    1.0503107040010274E-06 
    1.0327587387706483E-06 
    1.1367633672516620E-06 
    1.0136677385497187E-06 
    1.0527585648058749E-06 
    1.0611465803636796E-06 
    2.6944847117624991E-04 
    3.0131967196557697E-04 
    4.1828180388846144E-04 
    7.7212563223596619E-04 
    2.4147118346758511E-04 
    1.1352870157491487E-06 
    1.0000002322802654E-06 
    1.0000004777554991E-06 
