# vtk DataFile Version 2.0
Pressure Field Data 
ASCII 
DATASET UNSTRUCTURED_GRID 

POINTS 289 double 

    0.0000000000000000E+00     0.0000000000000000E+00     0.0000000000000000E+00 
    1.0000000000000000E+00     0.0000000000000000E+00     0.0000000000000000E+00 
    1.0000000000000000E+00     1.0000000000000000E+00     0.0000000000000000E+00 
    0.0000000000000000E+00     1.0000000000000000E+00     0.0000000000000000E+00 
    6.2499999999872928E-02     0.0000000000000000E+00     0.0000000000000000E+00 
    1.2499999999977310E-01     0.0000000000000000E+00     0.0000000000000000E+00 
    1.8749999999959341E-01     0.0000000000000000E+00     0.0000000000000000E+00 
    2.4999999999941089E-01     0.0000000000000000E+00     0.0000000000000000E+00 
    3.1249999999922851E-01     0.0000000000000000E+00     0.0000000000000000E+00 
    3.7499999999904610E-01     0.0000000000000000E+00     0.0000000000000000E+00 
    4.3749999999886358E-01     0.0000000000000000E+00     0.0000000000000000E+00 
    4.9999999999869210E-01     0.0000000000000000E+00     0.0000000000000000E+00 
    5.6249999999884603E-01     0.0000000000000000E+00     0.0000000000000000E+00 
    6.2499999999901090E-01     0.0000000000000000E+00     0.0000000000000000E+00 
    6.8749999999917577E-01     0.0000000000000000E+00     0.0000000000000000E+00 
    7.4999999999934064E-01     0.0000000000000000E+00     0.0000000000000000E+00 
    8.1249999999950551E-01     0.0000000000000000E+00     0.0000000000000000E+00 
    8.7499999999967026E-01     0.0000000000000000E+00     0.0000000000000000E+00 
    9.3749999999983513E-01     0.0000000000000000E+00     0.0000000000000000E+00 
    1.0000000000000000E+00     6.2499999999872928E-02     0.0000000000000000E+00 
    1.0000000000000000E+00     1.2499999999977310E-01     0.0000000000000000E+00 
    1.0000000000000000E+00     1.8749999999959341E-01     0.0000000000000000E+00 
    1.0000000000000000E+00     2.4999999999941089E-01     0.0000000000000000E+00 
    1.0000000000000000E+00     3.1249999999922851E-01     0.0000000000000000E+00 
    1.0000000000000000E+00     3.7499999999904610E-01     0.0000000000000000E+00 
    1.0000000000000000E+00     4.3749999999886358E-01     0.0000000000000000E+00 
    1.0000000000000000E+00     4.9999999999869210E-01     0.0000000000000000E+00 
    1.0000000000000000E+00     5.6249999999884603E-01     0.0000000000000000E+00 
    1.0000000000000000E+00     6.2499999999901090E-01     0.0000000000000000E+00 
    1.0000000000000000E+00     6.8749999999917577E-01     0.0000000000000000E+00 
    1.0000000000000000E+00     7.4999999999934064E-01     0.0000000000000000E+00 
    1.0000000000000000E+00     8.1249999999950551E-01     0.0000000000000000E+00 
    1.0000000000000000E+00     8.7499999999967026E-01     0.0000000000000000E+00 
    1.0000000000000000E+00     9.3749999999983513E-01     0.0000000000000000E+00 
    9.3749999999973976E-01     1.0000000000000000E+00     0.0000000000000000E+00 
    8.7499999999950118E-01     1.0000000000000000E+00     0.0000000000000000E+00 
    8.1249999999991318E-01     1.0000000000000000E+00     0.0000000000000000E+00 
    7.5000000000034706E-01     1.0000000000000000E+00     0.0000000000000000E+00 
    6.8750000000078049E-01     1.0000000000000000E+00     0.0000000000000000E+00 
    6.2500000000121403E-01     1.0000000000000000E+00     0.0000000000000000E+00 
    5.6250000000164757E-01     1.0000000000000000E+00     0.0000000000000000E+00 
    5.0000000000205946E-01     1.0000000000000000E+00     0.0000000000000000E+00 
    4.3750000000182099E-01     1.0000000000000000E+00     0.0000000000000000E+00 
    3.7500000000156092E-01     1.0000000000000000E+00     0.0000000000000000E+00 
    3.1250000000130068E-01     1.0000000000000000E+00     0.0000000000000000E+00 
    2.5000000000104050E-01     1.0000000000000000E+00     0.0000000000000000E+00 
    1.8750000000078040E-01     1.0000000000000000E+00     0.0000000000000000E+00 
    1.2500000000052031E-01     1.0000000000000000E+00     0.0000000000000000E+00 
    6.2500000000260125E-02     1.0000000000000000E+00     0.0000000000000000E+00 
    0.0000000000000000E+00     9.3749999999973976E-01     0.0000000000000000E+00 
    0.0000000000000000E+00     8.7499999999950118E-01     0.0000000000000000E+00 
    0.0000000000000000E+00     8.1249999999991318E-01     0.0000000000000000E+00 
    0.0000000000000000E+00     7.5000000000034706E-01     0.0000000000000000E+00 
    0.0000000000000000E+00     6.8750000000078049E-01     0.0000000000000000E+00 
    0.0000000000000000E+00     6.2500000000121403E-01     0.0000000000000000E+00 
    0.0000000000000000E+00     5.6250000000164757E-01     0.0000000000000000E+00 
    0.0000000000000000E+00     5.0000000000205946E-01     0.0000000000000000E+00 
    0.0000000000000000E+00     4.3750000000182099E-01     0.0000000000000000E+00 
    0.0000000000000000E+00     3.7500000000156092E-01     0.0000000000000000E+00 
    0.0000000000000000E+00     3.1250000000130068E-01     0.0000000000000000E+00 
    0.0000000000000000E+00     2.5000000000104050E-01     0.0000000000000000E+00 
    0.0000000000000000E+00     1.8750000000078040E-01     0.0000000000000000E+00 
    0.0000000000000000E+00     1.2500000000052031E-01     0.0000000000000000E+00 
    0.0000000000000000E+00     6.2500000000260125E-02     0.0000000000000000E+00 
    6.2499999999897131E-02     6.2500000000235922E-02     0.0000000000000000E+00 
    6.2499999999921327E-02     1.2500000000047351E-01     0.0000000000000000E+00 
    6.2499999999945530E-02     1.8750000000070621E-01     0.0000000000000000E+00 
    6.2499999999969733E-02     2.5000000000093858E-01     0.0000000000000000E+00 
    6.2499999999993928E-02     3.1250000000117117E-01     0.0000000000000000E+00 
    6.2500000000018124E-02     3.7500000000140382E-01     0.0000000000000000E+00 
    6.2500000000042327E-02     4.3750000000163619E-01     0.0000000000000000E+00 
    6.2500000000066530E-02     5.0000000000184897E-01     0.0000000000000000E+00 
    6.2500000000090733E-02     5.6250000000147260E-01     0.0000000000000000E+00 
    6.2500000000114922E-02     6.2500000000107636E-01     0.0000000000000000E+00 
    6.2500000000139125E-02     6.8750000000068034E-01     0.0000000000000000E+00 
    6.2500000000163328E-02     7.5000000000028411E-01     0.0000000000000000E+00 
    6.2500000000187531E-02     8.1249999999988787E-01     0.0000000000000000E+00 
    6.2500000000211720E-02     8.7499999999951172E-01     0.0000000000000000E+00 
    6.2500000000235922E-02     9.3749999999974565E-01     0.0000000000000000E+00 
    1.2499999999981980E-01     6.2500000000211733E-02     0.0000000000000000E+00 
    1.2499999999986650E-01     1.2500000000042691E-01     0.0000000000000000E+00 
    1.2499999999991319E-01     1.8750000000063199E-01     0.0000000000000000E+00 
    1.2499999999995989E-01     2.5000000000083678E-01     0.0000000000000000E+00 
    1.2500000000000661E-01     3.1250000000104172E-01     0.0000000000000000E+00 
    1.2500000000005329E-01     3.7500000000124661E-01     0.0000000000000000E+00 
    1.2500000000010000E-01     4.3750000000145117E-01     0.0000000000000000E+00 
    1.2500000000014669E-01     5.0000000000163858E-01     0.0000000000000000E+00 
    1.2500000000019340E-01     5.6250000000129741E-01     0.0000000000000000E+00 
    1.2500000000024011E-01     6.2500000000093847E-01     0.0000000000000000E+00 
    1.2500000000028680E-01     6.8750000000057998E-01     0.0000000000000000E+00 
    1.2500000000033351E-01     7.5000000000022127E-01     0.0000000000000000E+00 
    1.2500000000038020E-01     8.1249999999986211E-01     0.0000000000000000E+00 
    1.2500000000042691E-01     8.7499999999952238E-01     0.0000000000000000E+00 
    1.2500000000047359E-01     9.3749999999975164E-01     0.0000000000000000E+00 
    1.8749999999966760E-01     6.2500000000187531E-02     0.0000000000000000E+00 
    1.8749999999974179E-01     1.2500000000038020E-01     0.0000000000000000E+00 
    1.8749999999981601E-01     1.8750000000055780E-01     0.0000000000000000E+00 
    1.8749999999989009E-01     2.5000000000073502E-01     0.0000000000000000E+00 
    1.8749999999996431E-01     3.1250000000091221E-01     0.0000000000000000E+00 
    1.8750000000003850E-01     3.7500000000108941E-01     0.0000000000000000E+00 
    1.8750000000011269E-01     4.3750000000126649E-01     0.0000000000000000E+00 
    1.8750000000018691E-01     5.0000000000142808E-01     0.0000000000000000E+00 
    1.8750000000026110E-01     5.6250000000112244E-01     0.0000000000000000E+00 
    1.8750000000033529E-01     6.2500000000080080E-01     0.0000000000000000E+00 
    1.8750000000040951E-01     6.8750000000047962E-01     0.0000000000000000E+00 
    1.8750000000048361E-01     7.5000000000015843E-01     0.0000000000000000E+00 
    1.8750000000055780E-01     8.1249999999983680E-01     0.0000000000000000E+00 
    1.8750000000063199E-01     8.7499999999953304E-01     0.0000000000000000E+00 
    1.8750000000070621E-01     9.3749999999975764E-01     0.0000000000000000E+00 
    2.4999999999951281E-01     6.2500000000163314E-02     0.0000000000000000E+00 
    2.4999999999961461E-01     1.2500000000033351E-01     0.0000000000000000E+00 
    2.4999999999971650E-01     1.8750000000048361E-01     0.0000000000000000E+00 
    2.4999999999981831E-01     2.5000000000063310E-01     0.0000000000000000E+00 
    2.4999999999992020E-01     3.1250000000078260E-01     0.0000000000000000E+00 
    2.5000000000002198E-01     3.7500000000093209E-01     0.0000000000000000E+00 
    2.5000000000012390E-01     4.3750000000108180E-01     0.0000000000000000E+00 
    2.5000000000022571E-01     5.0000000000121769E-01     0.0000000000000000E+00 
    2.5000000000032763E-01     5.6250000000094724E-01     0.0000000000000000E+00 
    2.5000000000042938E-01     6.2500000000066314E-01     0.0000000000000000E+00 
    2.5000000000053119E-01     6.8750000000037925E-01     0.0000000000000000E+00 
[...]
CELL_DATA 256 
SCALARS Pressure double 1 
LOOKUP_TABLE default 

    1.0094695160887612E+00 
    9.9750673147473945E-01 
    9.8540998208971864E-01 
    9.7421397792706033E-01 
    9.6582219623299714E-01 
    9.6107584003481084E-01 
    9.5342665419080286E-01 
    9.4731525073679523E-01 
    9.4294074067689437E-01 
    9.3951994546096629E-01 
    9.3545162686950922E-01 
    9.3136425363645559E-01 
    9.2725574289874158E-01 
    9.2346140272202015E-01 
    9.2016363383527899E-01 
    9.1787522160156476E-01 
    9.6189946472405341E-01 
    9.5863419452509502E-01 
    9.5460477523880327E-01 
    9.5001912032147751E-01 
    9.4507480168671021E-01 
    9.3925231114195895E-01 
    9.3323534629103466E-01 
    9.2915537885209643E-01 
    9.2465481064548882E-01 
    9.2027619168769426E-01 
    9.1674271909399330E-01 
    9.1338397417141404E-01 
    9.0979158215988776E-01 
    9.0716393799686912E-01 
    9.0547189122280436E-01 
    9.0440046778091632E-01 
    9.2525895896456833E-01 
    9.2353769741583436E-01 
    9.2142063210175995E-01 
    9.1861532757548492E-01 
    9.1486561550884382E-01 
    9.0998909984585852E-01 
    9.0508007394730949E-01 
    9.0164471489417586E-01 
    8.9722381020806607E-01 
    8.9296472414150763E-01 
    8.8991537776578877E-01 
    8.8697457568642313E-01 
    8.8373215274843420E-01 
    8.8196711605684253E-01 
    8.8149499127504916E-01 
    8.8153369961587180E-01 
    8.8639160866669753E-01 
    8.8595004982941805E-01 
    8.8521243302448205E-01 
    8.8371780662813415E-01 
    8.8112223392505595E-01 
    8.7729820579988183E-01 
    8.7335509419699042E-01 
    8.7035960273977409E-01 
    8.6630541038237940E-01 
    8.6241974654120690E-01 
    8.5977931449258405E-01 
    8.5701527009135359E-01 
    8.5402691052288116E-01 
    8.5286642195527529E-01 
    8.5310601032824507E-01 
    8.5353670455505093E-01 
    8.4963174642938566E-01 
    8.5138269388651289E-01 
    8.5055968447438246E-01 
    8.4892212063157058E-01 
    8.4635003587895097E-01 
    8.4280097585975788E-01 
    8.3935736405031003E-01 
    8.3720861441542693E-01 
    8.3386894756099172E-01 
    8.3052093035254970E-01 
    8.2816321469278820E-01 
    8.2571377731279227E-01 
    8.2297935448905146E-01 
    8.2190681073298999E-01 
    8.2169081327210169E-01 
    8.2099059899349247E-01 
    8.1552562176999555E-01 
    8.1373096591456728E-01 
    8.1090020191469225E-01 
    8.0702908958385755E-01 
    8.0320206735486133E-01 
    8.0070184802231448E-01 
    7.9935535107918498E-01 
    7.9810576024267599E-01 
    7.9666280190763183E-01 
    7.9529669034279349E-01 
    7.9304421765536559E-01 
    7.8986311204212956E-01 
    7.8693021583850609E-01 
    7.8442991289808173E-01 
    7.8223460988981752E-01 
    7.8070924370664363E-01 
    7.6174995696188030E-01 
    7.6138985387085190E-01 
    7.6031501316827543E-01 
    7.5870541485866549E-01 
    7.5717929601782752E-01 
    7.5627432945379813E-01 
    7.5458792628728288E-01 
    7.5086220330727682E-01 
    7.4824998050914193E-01 
    7.4553651512390540E-01 
    7.4182381558491273E-01 
    7.3816624844269607E-01 
    7.3578052017528728E-01 
    7.3420750949257474E-01 
    7.3349423267950897E-01 
    7.3322713349125967E-01 
    7.1083451026031119E-01 
    7.1149730683277457E-01 
    7.1132821505144384E-01 
    7.1025422932507898E-01 
    7.0825883455366700E-01 
    7.0551460012630252E-01 
    7.0173430981874185E-01 
    6.9686173785649785E-01 
    6.9193465489807504E-01 
    6.8792318295010302E-01 
    6.8464704640073548E-01 
    6.8187250735303517E-01 
    6.7983530671684222E-01 
    6.7922091320389899E-01 
    6.7994878998890496E-01 
    6.8083964185332557E-01 
    6.5316845330459317E-01 
    6.5345348169767847E-01 
    6.5193119931155197E-01 
    6.4982677503223252E-01 
    6.4692635133793919E-01 
    6.4348345064147361E-01 
    6.3949739954892593E-01 
    6.3568679949755824E-01 
    6.3220357002163008E-01 
    6.3008834025327842E-01 
    6.2840771582497534E-01 
    6.2671093394186728E-01 
    6.2522386437017896E-01 
    6.2524201441393035E-01 
    6.2627703053644235E-01 
    6.2655852280303137E-01 
    5.8565836268677396E-01 
    5.8489425245356386E-01 
    5.8330579238392299E-01 
    5.8146311492604752E-01 
    5.7983908889938629E-01 
    5.7843367344820795E-01 
    5.7694672343358955E-01 
    5.7580922276801816E-01 
    5.7517831888249249E-01 
    5.7509370357959866E-01 
    5.7512090232163959E-01 
    5.7403438509447779E-01 
    5.7251563109826531E-01 
    5.7081023952187104E-01 
    5.6913335763870698E-01 
    5.6812341180092918E-01 
    5.2701840361248986E-01 
    5.2650823955136716E-01 
    5.2555756816367727E-01 
    5.2457083589703213E-01 
    5.2361138965284693E-01 
    5.2209028360573806E-01 
    5.1954467946023941E-01 
    5.1756745984568431E-01 
    5.1636778049390597E-01 
    5.1467033009862495E-01 
    5.1222922467069354E-01 
    5.0981685979256419E-01 
    5.0816974424625272E-01 
    5.0682832096907637E-01 
    5.0610653290229901E-01 
    5.0572866180400322E-01 
    4.7484321798546703E-01 
    4.7442991997075651E-01 
    4.7347590915134385E-01 
    4.7198464777054161E-01 
    4.6994316837905625E-01 
    4.6741486745888799E-01 
    4.6458465712595676E-01 
    4.6100135515738316E-01 
    4.5662632550993487E-01 
    4.5184563376250553E-01 
    4.4743957353931779E-01 
    4.4340715637466099E-01 
    4.4009287798628394E-01 
    4.3829505263477742E-01 
    4.3811527875248413E-01 
    4.3863156283477683E-01 
    4.2439358125200177E-01 
    4.2380038170993822E-01 
    4.2241137712348314E-01 
    4.2004967773495550E-01 
    4.1681980365470150E-01 
    4.1307519658483249E-01 
    4.0892729854528531E-01 
    4.0323342631682940E-01 
    3.9620151228231715E-01 
    3.8890518894752663E-01 
    3.8211881011565402E-01 
    3.7569058043767661E-01 
    3.7035548757606640E-01 
    3.6754224304606153E-01 
    3.6727341090567739E-01 
    3.6823107454467230E-01 
    3.7484345274569802E-01 
    3.7403180076674358E-01 
    3.7217051424792713E-01 
    3.6892031279032400E-01 
    3.6443219396438170E-01 
    3.5926471891941930E-01 
    3.5367168173006330E-01 
    3.4612568074871924E-01 
    3.3682082767207000E-01 
    3.2713410152818584E-01 
    3.1774850878706018E-01 
    3.0855797378860783E-01 
    3.0042586324971199E-01 
    2.9510674481469168E-01 
    2.9263170817810269E-01 
    2.9193523852663500E-01 
    3.2963571416747756E-01 
    3.2865919711680230E-01 
    3.2642077785422913E-01 
    3.2242147589510378E-01 
    3.1681466939875980E-01 
    3.1037415588531292E-01 
    3.0368553242859114E-01 
    2.9495468573076838E-01 
    2.8402031995404103E-01 
    2.7194408610089332E-01 
    2.5914739516289648E-01 
    2.4540673108631914E-01 
    2.3077821394754808E-01 
    2.1643235653223580E-01 
    2.0318563386037533E-01 
    1.9346934903988927E-01 
    3.0087219620610772E-01 
    2.9971969428132123E-01 
    2.9712664964515778E-01 
    2.9259753612087325E-01 
    2.8630433026433943E-01 
    2.7924022152020733E-01 
    2.7248952578872282E-01 
    2.6402090708719872E-01 
    2.5214506380101603E-01 
    2.3631051383696886E-01 
    2.1782297032897552E-01 
    1.9511509656665657E-01 
    1.6398311252719816E-01 
    1.2192129756152466E-01 
    6.7779542008775104E-02 
    0.0000000000000000E+00 

SCALARS Saturarion double 1 
LOOKUP_TABLE default 

    1.0000000000001128E+00 
    9.7155570451048590E-01 
    9.2525471196342512E-01 
    8.5530661603144553E-01 
    7.9000288610293989E-01 
    7.2954174127315752E-01 
    6.7365718273143682E-01 
    6.2066533084677900E-01 
    5.7103145288926593E-01 
    5.2850528530473262E-01 
    4.8014680607889104E-01 
    3.3836155972229703E-01 
    1.6227993066169729E-02 
    1.0000315286504281E-06 
    1.0000000000075957E-06 
    9.9999999999999995E-07 
    9.4202976868189292E-01 
    9.1592049359854344E-01 
    8.7589843698273895E-01 
    8.1511125883964819E-01 
    7.5784422656813633E-01 
    7.0514929676414773E-01 
    6.5741671300876792E-01 
    6.1267518715191316E-01 
    5.7050999325342999E-01 
    5.3277511155950452E-01 
    4.8648677073910812E-01 
    3.6365046452089489E-01 
    3.3854187281412457E-02 
    3.4724770687193004E-06 
    1.0000003543931704E-06 
    1.0000000000000118E-06 
    8.5692396196963805E-01 
    8.2674472219106698E-01 
    7.8854836339951739E-01 
    7.4551901048446423E-01 
    7.0561612793727113E-01 
    6.6594587324161569E-01 
    6.2911551701420509E-01 
    5.9496477016512850E-01 
    5.6144446213332588E-01 
    5.2715370949956364E-01 
    4.8434487521023956E-01 
    3.5319904349049908E-01 
    2.2136422967617080E-02 
    2.7562071243065039E-06 
    1.0000004480700832E-06 
    9.9999999999999995E-07 
    7.4963955949986849E-01 
    7.3672150074621923E-01 
    7.1476196713837026E-01 
    6.8617181732461641E-01 
    6.5725843284427954E-01 
    6.2869178194111563E-01 
    6.0050912465169470E-01 
    5.7317304735837205E-01 
    5.4616811234456808E-01 
    5.1729191370011296E-01 
    4.7458421522965366E-01 
    2.9478829729632411E-01 
    4.8542832560086466E-03 
    1.4265199540618486E-06 
    1.0000000537962667E-06 
    9.9999999999999995E-07 
    6.7066878263514951E-01 
    6.6540826331030911E-01 
    6.5310640226865557E-01 
    6.3613893742368732E-01 
    6.1483377991288690E-01 
    5.9373691460139144E-01 
    5.7103848152348358E-01 
    5.4825322943810195E-01 
    5.2739119269463142E-01 
    5.0129456799127214E-01 
    4.4719232115504720E-01 
    1.9506388457977136E-01 
    3.3910833984752764E-04 
    1.0073715882193211E-06 
    1.0000000002926217E-06 
    9.9999999999999995E-07 
    6.1642781845777994E-01 
    6.1357093248792316E-01 
    6.0548808466252602E-01 
    5.9532447438070291E-01 
    5.8030148228302469E-01 
    5.6107389392026086E-01 
    5.3952534632402949E-01 
    5.1988999216397891E-01 
    4.9864646629409842E-01 
    4.6314449012565395E-01 
    3.5778329619515481E-01 
    6.5145193624349312E-02 
    1.2444628798130705E-04 
    1.0011794931527582E-06 
    1.0000000000000002E-06 
    9.9999999999999995E-07 
    5.6422772427405854E-01 
    5.6157059901433903E-01 
    5.5492940001967339E-01 
    5.4719123481692167E-01 
    5.3822909856531109E-01 
    5.2257091189539306E-01 
    5.0364253317443985E-01 
    4.7912141225528421E-01 
    4.2490549173069597E-01 
    3.0521764506413152E-01 
    1.0403681562352696E-01 
    6.9497422159287968E-04 
    1.0304411383379048E-06 
    1.0000000016055742E-06 
    1.0000000000000002E-06 
    9.9999999999999995E-07 
    4.9923099786619413E-01 
    4.9551164021918587E-01 
    4.8789702350138486E-01 
    4.7713507145608852E-01 
    4.6460070797082920E-01 
    4.5057939536031077E-01 
    4.2266706659469017E-01 
    3.5171613540454277E-01 
    1.6612563846033968E-01 
    1.7349814912800812E-02 
    3.9062296887504863E-04 
    1.0976488614973608E-06 
    1.0000000165670231E-06 
    1.0000000000000008E-06 
    9.9999999999999995E-07 
    9.9999999999999995E-07 
    3.1963832752354282E-01 
    3.0391813375793059E-01 
    2.7483167413798099E-01 
    2.3307664132636380E-01 
    1.9491775020532837E-01 
    1.6288666034977939E-01 
    1.1151659048686823E-01 
    3.3465413801100546E-02 
    9.4098182558706325E-04 
    1.4793754281055018E-05 
    1.0534103398920234E-06 
    1.0000000215506084E-06 
    1.0000000000000042E-06 
    9.9999999999999995E-07 
    9.9999999999999995E-07 
    9.9999999999999995E-07 
    1.0747909247614939E-02 
    6.8217371116210445E-03 
    2.8341242669607525E-03 
    7.2690676848653139E-04 
    1.2230262567450577E-04 
    2.7148835933799115E-05 
    8.0443757568530885E-05 
    4.5949912062426272E-05 
    1.0689295904979466E-06 
    1.0000191804101889E-06 
    1.0000000000020602E-06 
    1.0000000000000023E-06 
    9.9999999999999995E-07 
    9.9999999999999995E-07 
    9.9999999999999995E-07 
    9.9999999999999995E-07 
    1.0000002270560264E-06 
    1.1295750504471901E-06 
    1.0522949794837873E-06 
    1.0056402110154236E-06 
    1.0004038354879173E-06 
    1.0001962308553731E-06 
    1.0009897859828658E-06 
    1.0002276664271381E-06 
    1.0000000000107901E-06 
    1.0000000000000019E-06 
    9.9999999999999995E-07 
    9.9999999999999995E-07 
    9.9999999999999995E-07 
    9.9999999999999995E-07 
    9.9999999999999995E-07 
    9.9999999999999995E-07 
    1.0000000000001024E-06 
    1.0000000107047939E-06 
    1.0000000080670668E-06 
    1.0000000007372574E-06 
    1.0000000000103117E-06 
    1.0000000001047445E-06 
    1.0000000002437085E-06 
    1.0000000000000033E-06 
    9.9999999999999995E-07 
    9.9999999999999995E-07 
    9.9999999999999995E-07 
    9.9999999999999995E-07 
    9.9999999999999995E-07 
    9.9999999999999995E-07 
    9.9999999999999995E-07 
    9.9999999999999995E-07 
    9.9999999999999995E-07 
    1.0000000000000004E-06 
    9.9999999999999995E-07 
    9.9999999999999974E-07 
    9.9999999999999995E-07 
    9.9999999999999995E-07 
    1.0000000000000002E-06 
    9.9999999999999995E-07 
    9.9999999999999995E-07 
    9.9999999999999995E-07 
    9.9999999999999995E-07 
    9.9999999999999995E-07 
    9.9999999999999995E-07 
    9.9999999999999995E-07 
    9.9999999999999995E-07 
    9.9999999999999995E-07 
    9.9999999999999995E-07 
    9.9999999999999995E-07 
    9.9999999999999995E-07 
    9.9999999999999995E-07 
    9.9999999999999995E-07 
    9.9999999999999995E-07 
    9.9999999999999995E-07 
    9.9999999999999995E-07 
    9.9999999999999995E-07 
    9.9999999999999995E-07 
    9.9999999999999995E-07 
    9.9999999999999995E-07 
    9.9999999999999995E-07 
    9.9999999999999995E-07 
    9.9999999999999995E-07 
    9.9999999999999995E-07 
    9.9999999999999995E-07 
    9.9999999999999995E-07 
    9.9999999999999995E-07 
    9.9999999999999995E-07 
    9.9999999999999995E-07 
    9.9999999999999995E-07 
    9.9999999999999995E-07 
    9.9999999999999995E-07 
    9.9999999999999995E-07 
    9.9999999999999995E-07 
    9.9999999999999995E-07 
    9.9999999999999995E-07 
    9.9999999999999995E-07 
    9.9999999999999995E-07 
    9.9999999999999995E-07 
    9.9999999999999995E-07 
    9.9999999999999995E-07 
    9.9999999999999995E-07 
    9.9999999999999995E-07 
    9.9999999999999995E-07 
    9.9999999999999995E-07 
    9.9999999999999995E-07 
    9.9999999999999995E-07 
    9.9999999999999995E-07 
    9.9999999999999995E-07 
    9.9999999999999995E-07 
    9.9999999999999995E-07 
    9.9999999999999995E-07 
    9.9999999999999995E-07 
    9.9999999999999995E-07 
    9.9999999999999995E-07 
    1.0000002361761940E-06 
