# vtk DataFile Version 2.0
Pressure Field Data 
ASCII 
DATASET UNSTRUCTURED_GRID 

POINTS 289 double 

    0.0000000000000000E+00     0.0000000000000000E+00     0.0000000000000000E+00 
    1.0000000000000000E+00     0.0000000000000000E+00     0.0000000000000000E+00 
    1.0000000000000000E+00     1.0000000000000000E+00     0.0000000000000000E+00 
    0.0000000000000000E+00     1.0000000000000000E+00     0.0000000000000000E+00 
    6.2499999999872928E-02     0.0000000000000000E+00     0.0000000000000000E+00 
    1.2499999999977310E-01     0.0000000000000000E+00     0.0000000000000000E+00 
    1.8749999999959341E-01     0.0000000000000000E+00     0.0000000000000000E+00 
    2.4999999999941089E-01     0.0000000000000000E+00     0.0000000000000000E+00 
    3.1249999999922851E-01     0.0000000000000000E+00     0.0000000000000000E+00 
    3.7499999999904610E-01     0.0000000000000000E+00     0.0000000000000000E+00 
    4.3749999999886358E-01     0.0000000000000000E+00     0.0000000000000000E+00 
    4.9999999999869210E-01     0.0000000000000000E+00     0.0000000000000000E+00 
    5.6249999999884603E-01     0.0000000000000000E+00     0.0000000000000000E+00 
    6.2499999999901090E-01     0.0000000000000000E+00     0.0000000000000000E+00 
    6.8749999999917577E-01     0.0000000000000000E+00     0.0000000000000000E+00 
    7.4999999999934064E-01     0.0000000000000000E+00     0.0000000000000000E+00 
    8.1249999999950551E-01     0.0000000000000000E+00     0.0000000000000000E+00 
    8.7499999999967026E-01     0.0000000000000000E+00     0.0000000000000000E+00 
    9.3749999999983513E-01     0.0000000000000000E+00     0.0000000000000000E+00 
    1.0000000000000000E+00     6.2499999999872928E-02     0.0000000000000000E+00 
    1.0000000000000000E+00     1.2499999999977310E-01     0.0000000000000000E+00 
    1.0000000000000000E+00     1.8749999999959341E-01     0.0000000000000000E+00 
    1.0000000000000000E+00     2.4999999999941089E-01     0.0000000000000000E+00 
    1.0000000000000000E+00     3.1249999999922851E-01     0.0000000000000000E+00 
    1.0000000000000000E+00     3.7499999999904610E-01     0.0000000000000000E+00 
    1.0000000000000000E+00     4.3749999999886358E-01     0.0000000000000000E+00 
    1.0000000000000000E+00     4.9999999999869210E-01     0.0000000000000000E+00 
    1.0000000000000000E+00     5.6249999999884603E-01     0.0000000000000000E+00 
    1.0000000000000000E+00     6.2499999999901090E-01     0.0000000000000000E+00 
    1.0000000000000000E+00     6.8749999999917577E-01     0.0000000000000000E+00 
    1.0000000000000000E+00     7.4999999999934064E-01     0.0000000000000000E+00 
    1.0000000000000000E+00     8.1249999999950551E-01     0.0000000000000000E+00 
    1.0000000000000000E+00     8.7499999999967026E-01     0.0000000000000000E+00 
    1.0000000000000000E+00     9.3749999999983513E-01     0.0000000000000000E+00 
    9.3749999999973976E-01     1.0000000000000000E+00     0.0000000000000000E+00 
    8.7499999999950118E-01     1.0000000000000000E+00     0.0000000000000000E+00 
    8.1249999999991318E-01     1.0000000000000000E+00     0.0000000000000000E+00 
    7.5000000000034706E-01     1.0000000000000000E+00     0.0000000000000000E+00 
    6.8750000000078049E-01     1.0000000000000000E+00     0.0000000000000000E+00 
    6.2500000000121403E-01     1.0000000000000000E+00     0.0000000000000000E+00 
    5.6250000000164757E-01     1.0000000000000000E+00     0.0000000000000000E+00 
    5.0000000000205946E-01     1.0000000000000000E+00     0.0000000000000000E+00 
    4.3750000000182099E-01     1.0000000000000000E+00     0.0000000000000000E+00 
    3.7500000000156092E-01     1.0000000000000000E+00     0.0000000000000000E+00 
    3.1250000000130068E-01     1.0000000000000000E+00     0.0000000000000000E+00 
    2.5000000000104050E-01     1.0000000000000000E+00     0.0000000000000000E+00 
    1.8750000000078040E-01     1.0000000000000000E+00     0.0000000000000000E+00 
    1.2500000000052031E-01     1.0000000000000000E+00     0.0000000000000000E+00 
    6.2500000000260125E-02     1.0000000000000000E+00     0.0000000000000000E+00 
    0.0000000000000000E+00     9.3749999999973976E-01     0.0000000000000000E+00 
    0.0000000000000000E+00     8.7499999999950118E-01     0.0000000000000000E+00 
    0.0000000000000000E+00     8.1249999999991318E-01     0.0000000000000000E+00 
    0.0000000000000000E+00     7.5000000000034706E-01     0.0000000000000000E+00 
    0.0000000000000000E+00     6.8750000000078049E-01     0.0000000000000000E+00 
    0.0000000000000000E+00     6.2500000000121403E-01     0.0000000000000000E+00 
    0.0000000000000000E+00     5.6250000000164757E-01     0.0000000000000000E+00 
    0.0000000000000000E+00     5.0000000000205946E-01     0.0000000000000000E+00 
    0.0000000000000000E+00     4.3750000000182099E-01     0.0000000000000000E+00 
    0.0000000000000000E+00     3.7500000000156092E-01     0.0000000000000000E+00 
    0.0000000000000000E+00     3.1250000000130068E-01     0.0000000000000000E+00 
    0.0000000000000000E+00     2.5000000000104050E-01     0.0000000000000000E+00 
    0.0000000000000000E+00     1.8750000000078040E-01     0.0000000000000000E+00 
    0.0000000000000000E+00     1.2500000000052031E-01     0.0000000000000000E+00 
    0.0000000000000000E+00     6.2500000000260125E-02     0.0000000000000000E+00 
    6.2499999999897131E-02     6.2500000000235922E-02     0.0000000000000000E+00 
    6.2499999999921327E-02     1.2500000000047351E-01     0.0000000000000000E+00 
    6.2499999999945530E-02     1.8750000000070621E-01     0.0000000000000000E+00 
    6.2499999999969733E-02     2.5000000000093858E-01     0.0000000000000000E+00 
    6.2499999999993928E-02     3.1250000000117117E-01     0.0000000000000000E+00 
    6.2500000000018124E-02     3.7500000000140382E-01     0.0000000000000000E+00 
    6.2500000000042327E-02     4.3750000000163619E-01     0.0000000000000000E+00 
    6.2500000000066530E-02     5.0000000000184897E-01     0.0000000000000000E+00 
    6.2500000000090733E-02     5.6250000000147260E-01     0.0000000000000000E+00 
    6.2500000000114922E-02     6.2500000000107636E-01     0.0000000000000000E+00 
    6.2500000000139125E-02     6.8750000000068034E-01     0.0000000000000000E+00 
    6.2500000000163328E-02     7.5000000000028411E-01     0.0000000000000000E+00 
    6.2500000000187531E-02     8.1249999999988787E-01     0.0000000000000000E+00 
    6.2500000000211720E-02     8.7499999999951172E-01     0.0000000000000000E+00 
    6.2500000000235922E-02     9.3749999999974565E-01     0.0000000000000000E+00 
    1.2499999999981980E-01     6.2500000000211733E-02     0.0000000000000000E+00 
    1.2499999999986650E-01     1.2500000000042691E-01     0.0000000000000000E+00 
    1.2499999999991319E-01     1.8750000000063199E-01     0.0000000000000000E+00 
    1.2499999999995989E-01     2.5000000000083678E-01     0.0000000000000000E+00 
    1.2500000000000661E-01     3.1250000000104172E-01     0.0000000000000000E+00 
    1.2500000000005329E-01     3.7500000000124661E-01     0.0000000000000000E+00 
    1.2500000000010000E-01     4.3750000000145117E-01     0.0000000000000000E+00 
    1.2500000000014669E-01     5.0000000000163858E-01     0.0000000000000000E+00 
    1.2500000000019340E-01     5.6250000000129741E-01     0.0000000000000000E+00 
    1.2500000000024011E-01     6.2500000000093847E-01     0.0000000000000000E+00 
    1.2500000000028680E-01     6.8750000000057998E-01     0.0000000000000000E+00 
    1.2500000000033351E-01     7.5000000000022127E-01     0.0000000000000000E+00 
    1.2500000000038020E-01     8.1249999999986211E-01     0.0000000000000000E+00 
    1.2500000000042691E-01     8.7499999999952238E-01     0.0000000000000000E+00 
    1.2500000000047359E-01     9.3749999999975164E-01     0.0000000000000000E+00 
    1.8749999999966760E-01     6.2500000000187531E-02     0.0000000000000000E+00 
    1.8749999999974179E-01     1.2500000000038020E-01     0.0000000000000000E+00 
    1.8749999999981601E-01     1.8750000000055780E-01     0.0000000000000000E+00 
    1.8749999999989009E-01     2.5000000000073502E-01     0.0000000000000000E+00 
    1.8749999999996431E-01     3.1250000000091221E-01     0.0000000000000000E+00 
    1.8750000000003850E-01     3.7500000000108941E-01     0.0000000000000000E+00 
    1.8750000000011269E-01     4.3750000000126649E-01     0.0000000000000000E+00 
    1.8750000000018691E-01     5.0000000000142808E-01     0.0000000000000000E+00 
    1.8750000000026110E-01     5.6250000000112244E-01     0.0000000000000000E+00 
    1.8750000000033529E-01     6.2500000000080080E-01     0.0000000000000000E+00 
    1.8750000000040951E-01     6.8750000000047962E-01     0.0000000000000000E+00 
    1.8750000000048361E-01     7.5000000000015843E-01     0.0000000000000000E+00 
    1.8750000000055780E-01     8.1249999999983680E-01     0.0000000000000000E+00 
    1.8750000000063199E-01     8.7499999999953304E-01     0.0000000000000000E+00 
    1.8750000000070621E-01     9.3749999999975764E-01     0.0000000000000000E+00 
    2.4999999999951281E-01     6.2500000000163314E-02     0.0000000000000000E+00 
    2.4999999999961461E-01     1.2500000000033351E-01     0.0000000000000000E+00 
    2.4999999999971650E-01     1.8750000000048361E-01     0.0000000000000000E+00 
    2.4999999999981831E-01     2.5000000000063310E-01     0.0000000000000000E+00 
    2.4999999999992020E-01     3.1250000000078260E-01     0.0000000000000000E+00 
    2.5000000000002198E-01     3.7500000000093209E-01     0.0000000000000000E+00 
    2.5000000000012390E-01     4.3750000000108180E-01     0.0000000000000000E+00 
    2.5000000000022571E-01     5.0000000000121769E-01     0.0000000000000000E+00 
    2.5000000000032763E-01     5.6250000000094724E-01     0.0000000000000000E+00 
    2.5000000000042938E-01     6.2500000000066314E-01     0.0000000000000000E+00 
    2.5000000000053119E-01     6.8750000000037925E-01     0.0000000000000000E+00 
[...]
CELL_DATA 256 
SCALARS Pressure double 1 
LOOKUP_TABLE default 

    1.0715530568983731E+00 
    1.0190633494249886E+00 
    9.8257523354112331E-01 
    9.5191774676554630E-01 
    9.2390111465768898E-01 
    8.9860791108053717E-01 
    8.7571567727326127E-01 
    8.5303816672851296E-01 
    8.2850437013211331E-01 
    8.0825202583995015E-01 
    7.9394967012850270E-01 
    7.8389839125951999E-01 
    7.7733957954818989E-01 
    7.7353881867351659E-01 
    7.7176421462191691E-01 
    7.7128269924567827E-01 
    1.0190879106984998E+00 
    1.0080743247711192E+00 
    9.8387152347061257E-01 
    9.5727087121733234E-01 
    9.3060618181416421E-01 
    9.0548862037023059E-01 
    8.8244940136842154E-01 
    8.6020433214544212E-01 
    8.3538834989720090E-01 
    8.1309964447844585E-01 
    7.9710148311646134E-01 
    7.8562589013147022E-01 
    7.7797473748406709E-01 
    7.7343849838084855E-01 
    7.7129333437096770E-01 
    7.7080841005665013E-01 
    9.8260610356125422E-01 
    9.8388737931898440E-01 
    9.7188285609769753E-01 
    9.5243079428852773E-01 
    9.2963105146111158E-01 
    9.0631147898473685E-01 
    8.8397568290473061E-01 
    8.6235905763622189E-01 
    8.3797075623786221E-01 
    8.1422698278857886E-01 
    7.9705747910316094E-01 
    7.8458642156246550E-01 
    7.7622375812309619E-01 
    7.7132050539002761E-01 
    7.6917413314256877E-01 
    7.6905754048378527E-01 
    9.5192477442998413E-01 
    9.5727771863078848E-01 
    9.5243111194105090E-01 
    9.3947589543212451E-01 
    9.2139484859248177E-01 
    9.0094623701590704E-01 
    8.8009060409674678E-01 
    8.5934184531091740E-01 
    8.3587052074433699E-01 
    8.1141297343334085E-01 
    7.9327417226072106E-01 
    7.8012594393132961E-01 
    7.7138183225509804E-01 
    7.6645419867023379E-01 
    7.6466466701040370E-01 
    7.6528558864767626E-01 
    9.2385963173165819E-01 
    9.3057672469651098E-01 
    9.2961143440630234E-01 
    9.2138557716053315E-01 
    9.0755432317796392E-01 
    8.9021722398729464E-01 
    8.7123490139557813E-01 
    8.5152299261498177E-01 
    8.2894082589931062E-01 
    8.0435688070218425E-01 
    7.8530373991884495E-01 
    7.7167659036649072E-01 
    7.6279127362507038E-01 
    7.5812629275276477E-01 
    7.5702277022648845E-01 
    7.5873894704660572E-01 
    8.9852137074578642E-01 
    9.0541368863298721E-01 
    9.0625634780461983E-01 
    9.0091549753796374E-01 
    8.9020390439728225E-01 
    8.7549721250711088E-01 
    8.5825905693288396E-01 
    8.3949029126790842E-01 
    8.1726379184191644E-01 
    7.9261484580536501E-01 
    7.7275777805779278E-01 
    7.5874125243799306E-01 
    7.4983774991097218E-01 
    7.4563863048904711E-01 
    7.4550798759942571E-01 
    7.4866637336309272E-01 
    8.7559908410380161E-01 
    8.8233818746748061E-01 
    8.8388453298421166E-01 
    8.8003160788895862E-01 
    8.7120241855754255E-01 
    8.5824353516375751E-01 
    8.4215910756461410E-01 
    8.2378397227699673E-01 
    8.0102664224444842E-01 
    7.7591496230095369E-01 
    7.5546300309464820E-01 
    7.4094208996576294E-01 
    7.3195586698683124E-01 
    7.2829092105503568E-01 
    7.2935526767570402E-01 
    7.3429751470389659E-01 
    8.5291689556376793E-01 
    8.6008622717921501E-01 
    8.6225449731211645E-01 
    8.5926481961302492E-01 
    8.5147274376382331E-01 
    8.3945551474890179E-01 
    8.2376182587990843E-01 
    8.0434573916867713E-01 
    7.8026677083447571E-01 
    7.5444307577675329E-01 
    7.3350707985901031E-01 
    7.1809010009123087E-01 
    7.0865891557794580E-01 
    7.0536478088034305E-01 
    7.0772797684682542E-01 
    7.1478111476199446E-01 
    8.2839663302884881E-01 
    8.3528822334823150E-01 
    8.3788497906266535E-01 
    8.3579239128923910E-01 
    8.2886445891733584E-01 
    8.1718652163173411E-01 
    8.0095785702716360E-01 
    7.8022347741223930E-01 
    7.5524911055487576E-01 
    7.2921587511577945E-01 
    7.0742070585683625E-01 
    6.9032709550153848E-01 
    6.7961415666098512E-01 
    6.7611933614810593E-01 
    6.7966040223733371E-01 
    6.8912469872116144E-01 
    8.0816576261313544E-01 
    8.1301259831999839E-01 
    8.1414583636339499E-01 
    8.1134274737254275E-01 
    8.0428544860072160E-01 
    7.9253108339252687E-01 
    7.7582806898240619E-01 
    7.5437412828170314E-01 
    7.2918277250745978E-01 
    7.0304546024927794E-01 
    6.7875764688861129E-01 
    6.5845366159457908E-01 
    6.4482765855240187E-01 
    6.3982077035863516E-01 
    6.4396163323173106E-01 
    6.5606367792521680E-01 
    7.9387769034525768E-01 
    7.9702529609365969E-01 
    7.9697970205984403E-01 
    7.9320114688464205E-01 
    7.8523720421326104E-01 
    7.7269572844942247E-01 
    7.5540451868466252E-01 
    7.3345423477433258E-01 
    7.0738229088185756E-01 
    6.7873990686154706E-01 
    6.5002290849662059E-01 
    6.2421640954151647E-01 
    6.0495906477783834E-01 
    5.9585893152300051E-01 
    5.9906575166995668E-01 
    6.1380763518139236E-01 
    7.8383665918666023E-01 
    7.8555831948617250E-01 
    7.8451339264903142E-01 
    7.8005342773962971E-01 
    7.7160925898852073E-01 
    7.5867937716967093E-01 
    7.4088499715763245E-01 
    7.1803904535984475E-01 
    6.9028603479999995E-01 
    6.5842664697358644E-01 
    6.2420394569231263E-01 
    5.9052947602526940E-01 
    5.6187476944850612E-01 
    5.4412974440735751E-01 
    5.4285064750960910E-01 
    5.5951122101163564E-01 
    7.7728779965249084E-01 
    7.7791637870596830E-01 
    7.7615727085764219E-01 
    7.7131217812004893E-01 
    7.6272434745321671E-01 
    7.4977558813190259E-01 
    7.3189860355904934E-01 
    7.0860740586915638E-01 
    6.7957066575000835E-01 
    6.4479489388723277E-01 
    6.0493815272718565E-01 
    5.6186513241294056E-01 
    5.1970458955214072E-01 
    4.8621293141946720E-01 
    4.7269895235024739E-01 
    4.8815033078817899E-01 
    7.7349714170735062E-01 
    7.7339037083514994E-01 
    7.7126161217680966E-01 
    7.6638779145329305E-01 
    7.5805950644545650E-01 
    7.4557558285686187E-01 
    7.2823242098328000E-01 
    7.0531156981704102E-01 
    6.7607317859276916E-01 
    6.3978377934355857E-01 
    5.9583202315427464E-01 
    5.4411277966381100E-01 
    4.8620501959571766E-01 
    4.2835511069658438E-01 
    3.8703373908789607E-01 
    3.8992798364655895E-01 
    7.7173150825099157E-01 
    7.7125586981936611E-01 
    7.6912377993707126E-01 
    7.6460154259285140E-01 
    7.5695544070632637E-01 
    7.4544350623171118E-01 
    7.2929485595604682E-01 
    7.0767238204560923E-01 
    6.7961135033700593E-01 
    6.4392108912266421E-01 
    5.9903421270068646E-01 
    5.4282797808836092E-01 
    4.7268468667038799E-01 
    3.8702720852679251E-01 
    2.9344447880350016E-01 
    2.4379703280367870E-01 
    7.7125543352321824E-01 
    7.7077948961214449E-01 
    7.6901456172052352E-01 
    7.6522467059769561E-01 
    7.5867004386321701E-01 
    7.4860010720622494E-01 
    7.3423460518901273E-01 
    7.1472258583603554E-01 
    6.8907237120581777E-01 
    6.5601970180766267E-01 
    6.1377201280077831E-01 
    5.5948380084350968E-01 
    4.8813093395740537E-01 
    3.8991634842156864E-01 
    2.4379220079116404E-01 
    0.0000000000000000E+00 

SCALARS Saturarion double 1 
LOOKUP_TABLE default 

    9.9999999999999722E-01 
    9.5443269869321590E-01 
    8.7506325037511912E-01 
    7.5728044591461707E-01 
    6.7243719957630332E-01 
    6.1123418662759210E-01 
    5.5097823643079524E-01 
    4.2994098575975276E-01 
    6.6399215230124750E-02 
    1.0008112290093161E-06 
    1.0000000003839564E-06 
    9.9999999999999995E-07 
    9.9999999999999995E-07 
    9.9999999999999995E-07 
    9.9999999999999995E-07 
    9.9999999999999995E-07 
    9.5419025835990834E-01 
    9.1579229407599694E-01 
    8.4697426595461700E-01 
    7.5364599111323927E-01 
    6.7664359900850812E-01 
    6.1709267053464800E-01 
    5.5849403348725968E-01 
    4.6096543856284677E-01 
    1.4559239954127820E-01 
    7.6476347439149436E-05 
    1.0023262804249843E-06 
    9.9999999999999995E-07 
    9.9999999999999995E-07 
    9.9999999999999995E-07 
    9.9999999999999995E-07 
    9.9999999999999995E-07 
    8.7432918348216127E-01 
    8.4660555463373277E-01 
    7.9276244211115987E-01 
    7.2894066743373676E-01 
    6.6768427346018611E-01 
    6.1533721389722829E-01 
    5.6337013124269320E-01 
    4.8688652098128327E-01 
    2.4302664786332784E-01 
    1.5005134043544193E-03 
    1.0574491843198057E-06 
    1.0000000083152724E-06 
    9.9999999999999974E-07 
    9.9999999999999995E-07 
    9.9999999999999995E-07 
    9.9999999999999995E-07 
    7.5584459924268710E-01 
    7.5278201382867171E-01 
    7.2861169535573378E-01 
    6.8963464510922645E-01 
    6.4575329461504993E-01 
    6.0530419354308440E-01 
    5.6340450939196962E-01 
    5.0133079245812984E-01 
    3.2694915857267492E-01 
    1.2459343463196245E-02 
    4.0878546449769886E-06 
    1.0000012570373382E-06 
    9.9999999999999995E-07 
    9.9999999999999995E-07 
    9.9999999999999995E-07 
    9.9999999999999995E-07 
    6.7092354705323176E-01 
    6.7552308898686675E-01 
    6.6710435168583271E-01 
    6.4551777966210433E-01 
    6.1837670334301609E-01 
    5.8965483593852497E-01 
    5.5632220945283262E-01 
    5.0719911422628161E-01 
    3.7825730218323850E-01 
    4.0610311857719093E-02 
    8.5164320386279782E-06 
    1.0000025448487252E-06 
    1.0000000000001556E-06 
    9.9999999999999995E-07 
    9.9999999999999995E-07 
    9.9999999999999995E-07 
    6.0986668774453301E-01 
    6.1615621199016513E-01 
    6.1466949001520865E-01 
    6.0474230131462337E-01 
    5.8928697986202416E-01 
    5.6777445824755290E-01 
    5.4080474275968604E-01 
    5.0209726280675215E-01 
    3.9246061047941050E-01 
    5.4010610153236160E-02 
    2.5497044786195337E-06 
    1.0000017096405607E-06 
    1.0000000000000031E-06 
    9.9999999999999995E-07 
    9.9999999999999995E-07 
    9.9999999999999995E-07 
    5.4952627533195308E-01 
    5.5808838819551121E-01 
    5.6311638550827192E-01 
    5.6290142836864798E-01 
    5.5569604113786875E-01 
    5.4050467111104938E-01 
    5.1913567581907993E-01 
    4.8571605504893589E-01 
    3.7521968815011081E-01 
    4.1004476583682468E-02 
    1.5309046105340152E-05 
    1.0000095240902435E-06 
    1.0000000000006573E-06 
    9.9999999999999995E-07 
    9.9999999999999995E-07 
    9.9999999999999995E-07 
    4.2865030041739055E-01 
    4.6170261115881905E-01 
    4.8754792585121109E-01 
    5.0148514106958542E-01 
    5.0660765978572375E-01 
    5.0140706713468886E-01 
    4.8526269228675106E-01 
    4.4975948334328181E-01 
    2.9816065945283665E-01 
    1.0890067801425488E-02 
    4.5657540901698255E-06 
    1.0000013515901582E-06 
    1.0000000000000010E-06 
    9.9999999999999995E-07 
    9.9999999999999995E-07 
    9.9999999999999995E-07 
    6.6164312002809089E-02 
    1.4825103338477788E-01 
    2.4667912903299483E-01 
    3.2850351065987321E-01 
    3.7773113844496348E-01 
    3.9098716511040710E-01 
    3.7368234050230753E-01 
    2.9695163354861248E-01 
    1.0152210740808056E-01 
    3.4229746216199978E-04 
    1.0216409945583465E-06 
    1.0000000000005368E-06 
    9.9999999999999995E-07 
    9.9999999999999995E-07 
    9.9999999999999995E-07 
    9.9999999999999995E-07 
    1.0010035407791688E-06 
    7.8875108924819881E-05 
    1.6760475202484140E-03 
    1.2598567125369945E-02 
    3.9862495725179296E-02 
    5.2321179346292705E-02 
    3.9798412283841733E-02 
    1.0537386699643086E-02 
    3.4104774193198371E-04 
    1.0470192192567639E-06 
    1.0000000142256377E-06 
    1.0000000000000010E-06 
    9.9999999999999995E-07 
    9.9999999999999995E-07 
    9.9999999999999995E-07 
    9.9999999999999995E-07 
    1.0000000004792368E-06 
    1.0025712973298779E-06 
    1.0702069113376539E-06 
    3.8964106755866113E-06 
    7.5410161152861129E-06 
    2.4753905274866468E-06 
    1.4225550341056552E-05 
    4.3608626439483459E-06 
    1.0215826558958595E-06 
    1.0000000142063660E-06 
    1.0000000000000025E-06 
    9.9999999999999995E-07 
    9.9999999999999995E-07 
    9.9999999999999995E-07 
    9.9999999999999995E-07 
    9.9999999999999995E-07 
    9.9999999999999995E-07 
    9.9999999999999995E-07 
    1.0000000101368909E-06 
    1.0000011475460781E-06 
    1.0000020171361863E-06 
    1.0000015186771827E-06 
    1.0000082209778179E-06 
    1.0000012333783968E-06 
    1.0000000000004936E-06 
    1.0000000000000010E-06 
    9.9999999999999995E-07 
    9.9999999999999995E-07 
    9.9999999999999995E-07 
    9.9999999999999995E-07 
    9.9999999999999995E-07 
    9.9999999999999995E-07 
    9.9999999999999995E-07 
    9.9999999999999995E-07 
    9.9999999999999974E-07 
    9.9999999999999995E-07 
    1.0000000000001228E-06 
    1.0000000000000076E-06 
    1.0000000000005687E-06 
    1.0000000000000012E-06 
    9.9999999999999995E-07 
    9.9999999999999995E-07 
    9.9999999999999995E-07 
    9.9999999999999995E-07 
    9.9999999999999995E-07 
    9.9999999999999995E-07 
    9.9999999999999995E-07 
    9.9999999999999995E-07 
    9.9999999999999995E-07 
    9.9999999999999995E-07 
    9.9999999999999995E-07 
    9.9999999999999995E-07 
    9.9999999999999995E-07 
    9.9999999999999995E-07 
    9.9999999999999995E-07 
    9.9999999999999995E-07 
    9.9999999999999995E-07 
    9.9999999999999995E-07 
    9.9999999999999995E-07 
    9.9999999999999995E-07 
    9.9999999999999995E-07 
    9.9999999999999995E-07 
    9.9999999999999995E-07 
    9.9999999999999995E-07 
    9.9999999999999995E-07 
    9.9999999999999995E-07 
    9.9999999999999995E-07 
    9.9999999999999995E-07 
    9.9999999999999995E-07 
    9.9999999999999995E-07 
    9.9999999999999995E-07 
    9.9999999999999995E-07 
    9.9999999999999995E-07 
    9.9999999999999995E-07 
    9.9999999999999995E-07 
    9.9999999999999995E-07 
    9.9999999999999995E-07 
    9.9999999999999995E-07 
    9.9999999999999995E-07 
    9.9999999999999995E-07 
    9.9999999999999995E-07 
    9.9999999999999995E-07 
    9.9999999999999995E-07 
    9.9999999999999995E-07 
    9.9999999999999995E-07 
    9.9999999999999995E-07 
    9.9999999999999995E-07 
    9.9999999999999995E-07 
    9.9999999999999995E-07 
    9.9999999999999995E-07 
    9.9999999999999995E-07 
    9.9999999999999995E-07 
    9.9999999999999995E-07 
    9.9999999999999995E-07 
    9.9999999999999995E-07 
    1.0000002158342381E-06 
