# vtk DataFile Version 2.0
Pressure Field Data 
ASCII 
DATASET UNSTRUCTURED_GRID 

POINTS 289 double 

    0.0000000000000000E+00     0.0000000000000000E+00     0.0000000000000000E+00 
    1.0000000000000000E+00     0.0000000000000000E+00     0.0000000000000000E+00 
    1.0000000000000000E+00     1.0000000000000000E+00     0.0000000000000000E+00 
    0.0000000000000000E+00     1.0000000000000000E+00     0.0000000000000000E+00 
    6.2499999999872928E-02     0.0000000000000000E+00     0.0000000000000000E+00 
    1.2499999999977310E-01     0.0000000000000000E+00     0.0000000000000000E+00 
    1.8749999999959341E-01     0.0000000000000000E+00     0.0000000000000000E+00 
    2.4999999999941089E-01     0.0000000000000000E+00     0.0000000000000000E+00 
    3.1249999999922851E-01     0.0000000000000000E+00     0.0000000000000000E+00 
    3.7499999999904610E-01     0.0000000000000000E+00     0.0000000000000000E+00 
    4.3749999999886358E-01     0.0000000000000000E+00     0.0000000000000000E+00 
    4.9999999999869210E-01     0.0000000000000000E+00     0.0000000000000000E+00 
    5.6249999999884603E-01     0.0000000000000000E+00     0.0000000000000000E+00 
    6.2499999999901090E-01     0.0000000000000000E+00     0.0000000000000000E+00 
    6.8749999999917577E-01     0.0000000000000000E+00     0.0000000000000000E+00 
    7.4999999999934064E-01     0.0000000000000000E+00     0.0000000000000000E+00 
    8.1249999999950551E-01     0.0000000000000000E+00     0.0000000000000000E+00 
    8.7499999999967026E-01     0.0000000000000000E+00     0.0000000000000000E+00 
    9.3749999999983513E-01     0.0000000000000000E+00     0.0000000000000000E+00 
    1.0000000000000000E+00     6.2499999999872928E-02     0.0000000000000000E+00 
    1.0000000000000000E+00     1.2499999999977310E-01     0.0000000000000000E+00 
    1.0000000000000000E+00     1.8749999999959341E-01     0.0000000000000000E+00 
    1.0000000000000000E+00     2.4999999999941089E-01     0.0000000000000000E+00 
    1.0000000000000000E+00     3.1249999999922851E-01     0.0000000000000000E+00 
    1.0000000000000000E+00     3.7499999999904610E-01     0.0000000000000000E+00 
    1.0000000000000000E+00     4.3749999999886358E-01     0.0000000000000000E+00 
    1.0000000000000000E+00     4.9999999999869210E-01     0.0000000000000000E+00 
    1.0000000000000000E+00     5.6249999999884603E-01     0.0000000000000000E+00 
    1.0000000000000000E+00     6.2499999999901090E-01     0.0000000000000000E+00 
    1.0000000000000000E+00     6.8749999999917577E-01     0.0000000000000000E+00 
    1.0000000000000000E+00     7.4999999999934064E-01     0.0000000000000000E+00 
    1.0000000000000000E+00     8.1249999999950551E-01     0.0000000000000000E+00 
    1.0000000000000000E+00     8.7499999999967026E-01     0.0000000000000000E+00 
    1.0000000000000000E+00     9.3749999999983513E-01     0.0000000000000000E+00 
    9.3749999999973976E-01     1.0000000000000000E+00     0.0000000000000000E+00 
    8.7499999999950118E-01     1.0000000000000000E+00     0.0000000000000000E+00 
    8.1249999999991318E-01     1.0000000000000000E+00     0.0000000000000000E+00 
    7.5000000000034706E-01     1.0000000000000000E+00     0.0000000000000000E+00 
    6.8750000000078049E-01     1.0000000000000000E+00     0.0000000000000000E+00 
    6.2500000000121403E-01     1.0000000000000000E+00     0.0000000000000000E+00 
    5.6250000000164757E-01     1.0000000000000000E+00     0.0000000000000000E+00 
    5.0000000000205946E-01     1.0000000000000000E+00     0.0000000000000000E+00 
    4.3750000000182099E-01     1.0000000000000000E+00     0.0000000000000000E+00 
    3.7500000000156092E-01     1.0000000000000000E+00     0.0000000000000000E+00 
    3.1250000000130068E-01     1.0000000000000000E+00     0.0000000000000000E+00 
    2.5000000000104050E-01     1.0000000000000000E+00     0.0000000000000000E+00 
    1.8750000000078040E-01     1.0000000000000000E+00     0.0000000000000000E+00 
    1.2500000000052031E-01     1.0000000000000000E+00     0.0000000000000000E+00 
    6.2500000000260125E-02     1.0000000000000000E+00     0.0000000000000000E+00 
    0.0000000000000000E+00     9.3749999999973976E-01     0.0000000000000000E+00 
    0.0000000000000000E+00     8.7499999999950118E-01     0.0000000000000000E+00 
    0.0000000000000000E+00     8.1249999999991318E-01     0.0000000000000000E+00 
    0.0000000000000000E+00     7.5000000000034706E-01     0.0000000000000000E+00 
    0.0000000000000000E+00     6.8750000000078049E-01     0.0000000000000000E+00 
    0.0000000000000000E+00     6.2500000000121403E-01     0.0000000000000000E+00 
    0.0000000000000000E+00     5.6250000000164757E-01     0.0000000000000000E+00 
    0.0000000000000000E+00     5.0000000000205946E-01     0.0000000000000000E+00 
    0.0000000000000000E+00     4.3750000000182099E-01     0.0000000000000000E+00 
    0.0000000000000000E+00     3.7500000000156092E-01     0.0000000000000000E+00 
    0.0000000000000000E+00     3.1250000000130068E-01     0.0000000000000000E+00 
    0.0000000000000000E+00     2.5000000000104050E-01     0.0000000000000000E+00 
    0.0000000000000000E+00     1.8750000000078040E-01     0.0000000000000000E+00 
    0.0000000000000000E+00     1.2500000000052031E-01     0.0000000000000000E+00 
    0.0000000000000000E+00     6.2500000000260125E-02     0.0000000000000000E+00 
    6.2499999999897131E-02     6.2500000000235922E-02     0.0000000000000000E+00 
    6.2499999999921327E-02     1.2500000000047351E-01     0.0000000000000000E+00 
    6.2499999999945530E-02     1.8750000000070621E-01     0.0000000000000000E+00 
    6.2499999999969733E-02     2.5000000000093858E-01     0.0000000000000000E+00 
    6.2499999999993928E-02     3.1250000000117117E-01     0.0000000000000000E+00 
    6.2500000000018124E-02     3.7500000000140382E-01     0.0000000000000000E+00 
    6.2500000000042327E-02     4.3750000000163619E-01     0.0000000000000000E+00 
    6.2500000000066530E-02     5.0000000000184897E-01     0.0000000000000000E+00 
    6.2500000000090733E-02     5.6250000000147260E-01     0.0000000000000000E+00 
    6.2500000000114922E-02     6.2500000000107636E-01     0.0000000000000000E+00 
    6.2500000000139125E-02     6.8750000000068034E-01     0.0000000000000000E+00 
    6.2500000000163328E-02     7.5000000000028411E-01     0.0000000000000000E+00 
    6.2500000000187531E-02     8.1249999999988787E-01     0.0000000000000000E+00 
    6.2500000000211720E-02     8.7499999999951172E-01     0.0000000000000000E+00 
    6.2500000000235922E-02     9.3749999999974565E-01     0.0000000000000000E+00 
    1.2499999999981980E-01     6.2500000000211733E-02     0.0000000000000000E+00 
    1.2499999999986650E-01     1.2500000000042691E-01     0.0000000000000000E+00 
    1.2499999999991319E-01     1.8750000000063199E-01     0.0000000000000000E+00 
    1.2499999999995989E-01     2.5000000000083678E-01     0.0000000000000000E+00 
    1.2500000000000661E-01     3.1250000000104172E-01     0.0000000000000000E+00 
    1.2500000000005329E-01     3.7500000000124661E-01     0.0000000000000000E+00 
    1.2500000000010000E-01     4.3750000000145117E-01     0.0000000000000000E+00 
    1.2500000000014669E-01     5.0000000000163858E-01     0.0000000000000000E+00 
    1.2500000000019340E-01     5.6250000000129741E-01     0.0000000000000000E+00 
    1.2500000000024011E-01     6.2500000000093847E-01     0.0000000000000000E+00 
    1.2500000000028680E-01     6.8750000000057998E-01     0.0000000000000000E+00 
    1.2500000000033351E-01     7.5000000000022127E-01     0.0000000000000000E+00 
    1.2500000000038020E-01     8.1249999999986211E-01     0.0000000000000000E+00 
    1.2500000000042691E-01     8.7499999999952238E-01     0.0000000000000000E+00 
    1.2500000000047359E-01     9.3749999999975164E-01     0.0000000000000000E+00 
    1.8749999999966760E-01     6.2500000000187531E-02     0.0000000000000000E+00 
    1.8749999999974179E-01     1.2500000000038020E-01     0.0000000000000000E+00 
    1.8749999999981601E-01     1.8750000000055780E-01     0.0000000000000000E+00 
    1.8749999999989009E-01     2.5000000000073502E-01     0.0000000000000000E+00 
    1.8749999999996431E-01     3.1250000000091221E-01     0.0000000000000000E+00 
    1.8750000000003850E-01     3.7500000000108941E-01     0.0000000000000000E+00 
    1.8750000000011269E-01     4.3750000000126649E-01     0.0000000000000000E+00 
    1.8750000000018691E-01     5.0000000000142808E-01     0.0000000000000000E+00 
    1.8750000000026110E-01     5.6250000000112244E-01     0.0000000000000000E+00 
    1.8750000000033529E-01     6.2500000000080080E-01     0.0000000000000000E+00 
    1.8750000000040951E-01     6.8750000000047962E-01     0.0000000000000000E+00 
    1.8750000000048361E-01     7.5000000000015843E-01     0.0000000000000000E+00 
    1.8750000000055780E-01     8.1249999999983680E-01     0.0000000000000000E+00 
    1.8750000000063199E-01     8.7499999999953304E-01     0.0000000000000000E+00 
    1.8750000000070621E-01     9.3749999999975764E-01     0.0000000000000000E+00 
    2.4999999999951281E-01     6.2500000000163314E-02     0.0000000000000000E+00 
    2.4999999999961461E-01     1.2500000000033351E-01     0.0000000000000000E+00 
    2.4999999999971650E-01     1.8750000000048361E-01     0.0000000000000000E+00 
    2.4999999999981831E-01     2.5000000000063310E-01     0.0000000000000000E+00 
    2.4999999999992020E-01     3.1250000000078260E-01     0.0000000000000000E+00 
    2.5000000000002198E-01     3.7500000000093209E-01     0.0000000000000000E+00 
    2.5000000000012390E-01     4.3750000000108180E-01     0.0000000000000000E+00 
    2.5000000000022571E-01     5.0000000000121769E-01     0.0000000000000000E+00 
    2.5000000000032763E-01     5.6250000000094724E-01     0.0000000000000000E+00 
    2.5000000000042938E-01     6.2500000000066314E-01     0.0000000000000000E+00 
    2.5000000000053119E-01     6.8750000000037925E-01     0.0000000000000000E+00 
[...]
CELL_DATA 256 
SCALARS Pressure double 1 
LOOKUP_TABLE default 

    7.1689274449305473E-01 
    6.6704560709094096E-01 
    6.3583290635508438E-01 
    6.1331749239270072E-01 
    5.9534236429522946E-01 
    5.8023966132502058E-01 
    5.6738935718237582E-01 
    5.5652592778139354E-01 
    5.4751959709919562E-01 
    5.4030599553236713E-01 
    5.3478409981319697E-01 
    5.3047141963702449E-01 
    5.2670511782419838E-01 
    5.2426988224533189E-01 
    5.2318873640085639E-01 
    5.2289770412432546E-01 
    6.6705184832263831E-01 
    6.5677050755315314E-01 
    6.3650181553474139E-01 
    6.1682730668879027E-01 
    5.9935866850450725E-01 
    5.8402329724133772E-01 
    5.7066400500386349E-01 
    5.5918032903225989E-01 
    5.4951831755363911E-01 
    5.4166499498670384E-01 
    5.3559704888882720E-01 
    5.3100441102476326E-01 
    5.2703733949928999E-01 
    5.2418338880223181E-01 
    5.2289195603114136E-01 
    5.2260498522306709E-01 
    6.3584231872145525E-01 
    6.3650683817188169E-01 
    6.2708080920285547E-01 
    6.1323814841431801E-01 
    5.9843325020956550E-01 
    5.8414212275617994E-01 
    5.7101188186458185E-01 
    5.5934655106952635E-01 
    5.4930959771410137E-01 
    5.4101516594796240E-01 
    5.3453806793403646E-01 
    5.2973911401929086E-01 
    5.2587229517028489E-01 
    5.2286274842831171E-01 
    5.2158201944571791E-01 
    5.2152513067104422E-01 
    6.1332534327943211E-01 
    6.1683327050129633E-01 
    6.1324093270862479E-01 
    6.0447647613119626E-01 
    5.9298223975634279E-01 
    5.8053300798948315E-01 
    5.6824934677958872E-01 
    5.5681670764137459E-01 
    5.4666951852317036E-01 
    5.3810766569807778E-01 
    5.3133903289626727E-01 
    5.2640477679457887E-01 
    5.2280913530288309E-01 
    5.1995245228215758E-01 
    5.1883336229525578E-01 
    5.1922074080058955E-01 
    5.9534608107834808E-01 
    5.9936205972732726E-01 
    5.9843598634966522E-01 
    5.9298396115628815E-01 
    5.8429487391960766E-01 
    5.7377395084513594E-01 
    5.6258751813263774E-01 
    5.5161680921279332E-01 
    5.4151646832260425E-01 
    5.3278091531193850E-01 
    5.2577644301938786E-01 
    5.2071670810492099E-01 
    5.1739672600539222E-01 
    5.1497507617115357E-01 
    5.1418348570062433E-01 
    5.1524497449397355E-01 
    5.8024000895912864E-01 
    5.8402305640700281E-01 
    5.8414213687825911E-01 
    5.8053394457724861E-01 
    5.7377437473934378E-01 
    5.6479458884099076E-01 
    5.5458462438298195E-01 
    5.4404970325108226E-01 
    5.3397322904650302E-01 
    5.2501634349388959E-01 
    5.1771466470359817E-01 
    5.1245413598357847E-01 
    5.0927867399255300E-01 
    5.0743908201384946E-01 
    5.0720147381934177E-01 
    5.0915340641534179E-01 
    5.6738529278144112E-01 
    5.7065973824487393E-01 
    5.7100784332172150E-01 
    5.6824697401120927E-01 
    5.6258582889151576E-01 
    5.5458300917813641E-01 
    5.4499464203931691E-01 
    5.3464907851409027E-01 
    5.2437626897496648E-01 
    5.1496611181557772E-01 
    5.0713076473263985E-01 
    5.0145816479214766E-01 
    4.9826280653493227E-01 
    4.9702688017321545E-01 
    4.9747904535454246E-01 
    5.0047803824365944E-01 
    5.5651395091332878E-01 
    5.5916985947837505E-01 
    5.5933763141768789E-01 
    5.5680998701555873E-01 
    5.5161109038088529E-01 
    5.4404422402467245E-01 
    5.3464542664493697E-01 
    5.2411678023492270E-01 
    5.1327252216465180E-01 
    5.0299254536356330E-01 
    4.9416920422725796E-01 
    4.8763185286578969E-01 
    4.8401407861266593E-01 
    4.8318377354744557E-01 
    4.8440816589396785E-01 
    4.8860936075148265E-01 
    5.4749760207299059E-01 
    5.4949890888668573E-01 
    5.4929369768153202E-01 
    5.4665743859743221E-01 
    5.4150552784155548E-01 
    5.3396197486490438E-01 
    5.2436683982070509E-01 
    5.1326741455682379E-01 
    5.0140696363573345E-01 
    4.8970645857943512E-01 
    4.7922667846383454E-01 
    4.7108489996538738E-01 
    4.6630397298904158E-01 
    4.6526405598127440E-01 
    4.6714344380484696E-01 
    4.7280120273993942E-01 
    5.4027327809877224E-01 
    5.4163424511714930E-01 
    5.4098876917094874E-01 
    5.3808766810052133E-01 
    5.3276338169178616E-01 
    5.2499806594065346E-01 
    5.1494932447338970E-01 
    5.0298084670615750E-01 
    4.8970033794977491E-01 
    4.7599101696999802E-01 
    4.6302636921331197E-01 
    4.5223512465540672E-01 
    4.4515617716605432E-01 
    4.4287781196538978E-01 
    4.4499183879077348E-01 
    4.5221180184203041E-01 
    5.3474154048384237E-01 
    5.3555426752262580E-01 
    5.3449922608542755E-01 
    5.3130891462881658E-01 
    5.2575075217937628E-01 
    5.1768785823951669E-01 
    5.0710524878217322E-01 
    4.9414960912663508E-01 
    4.7921292105726249E-01 
    4.6301796345202190E-01 
    4.4671185127150520E-01 
    4.3195393509976182E-01 
    4.2089135724973326E-01 
    4.1566854526352592E-01 
    4.1690253158299223E-01 
    4.2534969644319121E-01 
    5.3042350759546741E-01 
    5.3095535027084551E-01 
    5.2969284711735232E-01 
    5.2636800553263019E-01 
    5.2068477272605262E-01 
    5.1241674130749360E-01 
    5.0142103097896240E-01 
    4.8760314661551207E-01 
    4.7106269242042847E-01 
    4.5221548191819938E-01 
    4.3194193578697226E-01 
    4.1184582285854782E-01 
    3.9452945137409190E-01 
    3.8346940350722514E-01 
    3.8133076207173500E-01 
    3.8967881524482451E-01 
    5.2666107988599997E-01 
    5.2699466433224162E-01 
    5.2583421143757814E-01 
    5.2277758890498149E-01 
    5.1736594979707462E-01 
    5.0923375991073483E-01 
    4.9821411231669094E-01 
    4.8397993234956138E-01 
    4.6628067050995492E-01 
    4.4512829277136823E-01 
    4.2086705225419846E-01 
    3.9452030424209922E-01 
    3.6848307871558444E-01 
    3.4720891461635411E-01 
    3.3670756016019110E-01 
    3.4185846275370801E-01 
    5.2423141795107819E-01 
    5.2414599100278347E-01 
    5.2282944465519776E-01 
    5.1992630226668746E-01 
    5.1495234222591058E-01 
    5.0740881706786434E-01 
    4.9698802245020252E-01 
    4.8316303231403845E-01 
    4.6525820632626025E-01 
    4.4285530792995020E-01 
    4.1563456023355561E-01 
    3.8346144087880107E-01 
    3.4721969524651541E-01 
    3.1052112172193952E-01 
    2.8223099909991156E-01 
    2.7600515431937933E-01 
    5.2315175481283205E-01 
    5.2285563713140226E-01 
    5.2154801765717074E-01 
    5.1880296925895952E-01 
    5.1415775885369952E-01 
    5.0717808227748895E-01 
    4.9745205945017201E-01 
    4.8439575483483543E-01 
    4.6715322723395031E-01 
    4.4500904716691464E-01 
    4.1687834257572409E-01 
    3.8133561100787944E-01 
    3.3675894782827726E-01 
    2.8224681649310990E-01 
    2.2125682290335572E-01 
    1.7792664388381207E-01 
    5.2286111173353400E-01 
    5.2256890367691911E-01 
    5.2149079023714351E-01 
    5.1918935859064497E-01 
    5.1521766362035704E-01 
    5.0912996762538965E-01 
    5.0045468797246662E-01 
    4.8858948857328188E-01 
    4.7280270532737878E-01 
    4.5225180091841544E-01 
    4.2535081972837530E-01 
    3.8963650234058400E-01 
    3.4191680517198059E-01 
    2.7602711154970061E-01 
    1.7788009963339785E-01 
    0.0000000000000000E+00 

SCALARS Saturarion double 1 
LOOKUP_TABLE default 

    1.0000000000000000E+00 
    9.8615484980818191E-01 
    9.6076927968457515E-01 
    9.1580436909697494E-01 
    8.5778978920445559E-01 
    8.0017585960094784E-01 
    7.4586181922721084E-01 
    6.9326369246651220E-01 
    6.4232205904652073E-01 
    5.9409297230943114E-01 
    5.4436468046383701E-01 
    4.3441119565211916E-01 
    6.9833271248558260E-02 
    1.0027044347342248E-06 
    1.0000000007952080E-06 
    9.9999999999999995E-07 
    9.8610664836240147E-01 
    9.7396987731234907E-01 
    9.5088168573277443E-01 
    9.1320737169063992E-01 
    8.6236497866730744E-01 
    8.0882307039397794E-01 
    7.5644238726692670E-01 
    7.0507986794968414E-01 
    6.5479660616090352E-01 
    6.0646991177530607E-01 
    5.5881836549692110E-01 
    4.7323998554142049E-01 
    1.7892762554351430E-01 
    1.9174762653495709E-04 
    1.0089021279982643E-06 
    1.0000000000242753E-06 
    9.6060830355241777E-01 
    9.5078250336376857E-01 
    9.2880225937866989E-01 
    8.9844553220021350E-01 
    8.5817333723755707E-01 
    8.1319068131963324E-01 
    7.6655397656144675E-01 
    7.1890893990885352E-01 
    6.7079543508923478E-01 
    6.2323421553552671E-01 
    5.7643134816989328E-01 
    5.1176362020808674E-01 
    3.1035561043243842E-01 
    1.4098289296729844E-02 
    8.7712768081215000E-06 
    1.0000023815800766E-06 
    9.1543925913212520E-01 
    9.1298348296409337E-01 
    8.9835453070771343E-01 
    8.7439683621932873E-01 
    8.4387474092377068E-01 
    8.0845183887202166E-01 
    7.6947328690740113E-01 
    7.2761067698973980E-01 
    6.8360569239521407E-01 
    6.3835537166876011E-01 
    5.9244633114813749E-01 
    5.3709328056684857E-01 
    4.1643775935247501E-01 
    8.0297467272626086E-02 
    1.8377705498471273E-04 
    1.0039229348827621E-06 
    8.5736737951822461E-01 
    8.6207896306603904E-01 
    8.5801400596739996E-01 
    8.4377224752947932E-01 
    8.2271728180739201E-01 
    7.9638638846834786E-01 
    7.6542529112941171E-01 
    7.3047380831924880E-01 
    6.9210087710061019E-01 
    6.5092854683809698E-01 
    6.0728067694648036E-01 
    5.5964589620088845E-01 
    4.6630276364331974E-01 
    1.7641477623031651E-01 
    1.2838801387130125E-03 
    1.0647159823978225E-06 
    7.9975803676779678E-01 
    8.0855806600030344E-01 
    8.1299372595036246E-01 
    8.0821224279575177E-01 
    7.9622187356948460E-01 
    7.7835453904852248E-01 
    7.5534473617483922E-01 
    7.2779875855426479E-01 
    6.9593289391989277E-01 
    6.5993275107518445E-01 
    6.1985482294356198E-01 
    5.7555131184659125E-01 
    5.0725353772128923E-01 
    2.9118838223427712E-01 
    1.3429225227994902E-02 
    8.3730272310094541E-06 
    7.4515463307271490E-01 
    7.5613485697867933E-01 
    7.6644128305696069E-01 
    7.6925498192641550E-01 
    7.6512971065423319E-01 
    7.5518484509681105E-01 
    7.4004638488657981E-01 
    7.2007126093618790E-01 
    6.9523270718755503E-01 
    6.6522996089001252E-01 
    6.2978175185844920E-01 
    5.8925761330882742E-01 
    5.3447363939146941E-01 
    3.8868729575733230E-01 
    5.4873971897161297E-02 
    6.8495223653160567E-05 
    6.9230012825732523E-01 
    7.0463795325385981E-01 
    7.1880811785558829E-01 
    7.2749546965897027E-01 
    7.3017053045613611E-01 
    7.2748559284210734E-01 
    7.1992003992839437E-01 
    7.0756151276291235E-01 
    6.9013021851586576E-01 
    6.6702518348038886E-01 
    6.3746283582690433E-01 
    6.0125129121548182E-01 
    5.5447397373190654E-01 
    4.3919931245325516E-01 
    1.1462427234308001E-01 
    2.0818251459306974E-04 
    6.4129505675172527E-01 
    6.5415036065760168E-01 
    6.7056748759468299E-01 
    6.8345072328667789E-01 
    6.9188769480591639E-01 
    6.9561994693532847E-01 
    6.9496361703217568E-01 
    6.8997338308846046E-01 
    6.8025823116753403E-01 
    6.6487142986354386E-01 
    6.4256885131415553E-01 
    6.1195209777584092E-01 
    5.7212268801511734E-01 
    4.8514695502273969E-01 
    2.0288887625758936E-01 
    2.1206875445603538E-03 
    5.9291882657453143E-01 
    6.0563282524256756E-01 
    6.2289998824867732E-01 
    6.3799797825624949E-01 
    6.5060831963587229E-01 
    6.5969194610726944E-01 
    6.6501837277667653E-01 
    6.6679141592968316E-01 
    6.6469713398970698E-01 
    6.5762965298028786E-01 
    6.4379841336093002E-01 
    6.2089693002465285E-01 
    5.8740617805919548E-01 
    5.2287779550615943E-01 
    3.0625873842310425E-01 
    1.7580653782759536E-02 
    5.4291070438940259E-01 
    5.5794651316925536E-01 
    5.7625839759005049E-01 
    5.9214450594749268E-01 
    6.0674028003192237E-01 
    6.1946920753856916E-01 
    6.2965729646246860E-01 
    6.3732235112929192E-01 
    6.4228403119717392E-01 
    6.4359035768322537E-01 
    6.3919461519027232E-01 
    6.2613870396050597E-01 
    6.0106753883948261E-01 
    5.5159735954418376E-01 
    3.9499247230299001E-01 
    8.2485849684257720E-02 
    4.3235821023230414E-01 
    4.7336275528266342E-01 
    5.1262898910066212E-01 
    5.3751998283973335E-01 
    5.5927763768365713E-01 
    5.7487829712548777E-01 
    5.8887973209991995E-01 
    6.0117247792760287E-01 
    6.1178971881701516E-01 
    6.2059531674984625E-01 
    6.2589902518077734E-01 
    6.2445703656574780E-01 
    6.1121632177357954E-01 
    5.7578813341077884E-01 
    4.5830085934636838E-01 
    1.8778082130708101E-01 
    6.8472324009055729E-02 
    1.8072244201671456E-01 
    3.1478581353430879E-01 
    4.1901808388460038E-01 
    4.6671034796987715E-01 
    5.0644862511544875E-01 
    5.3459443234444293E-01 
    5.5454097423808379E-01 
    5.7225392736061964E-01 
    5.8745686245150897E-01 
    6.0098725133490227E-01 
    6.1104092499969009E-01 
    6.1228881994762518E-01 
    5.9381650043906431E-01 
    5.1189129314813475E-01 
    2.7252525916448311E-01 
    1.0032167752330750E-06 
    2.0000122681239165E-04 
    1.5815919661145855E-02 
    8.2312708090003781E-02 
    1.7683603969185996E-01 
    2.9202107255355836E-01 
    3.9258948447599890E-01 
    4.4171865075374095E-01 
    4.8622146881326983E-01 
    5.2283750575096455E-01 
    5.5224863420139547E-01 
    5.7600414368186281E-01 
    5.9379368642517927E-01 
    5.9503663682213914E-01 
    5.5686831486988619E-01 
    3.5930294703893384E-01 
    1.0000000009332378E-06 
    1.0092396541586786E-06 
    1.0965771256201373E-05 
    1.7155750065569244E-04 
    1.3330829490309827E-03 
    1.4393317826499684E-02 
    6.0546629637991976E-02 
    1.1406417059807084E-01 
    2.0310023206633357E-01 
    3.0474787100311318E-01 
    3.9731569075277001E-01 
    4.6054437078921273E-01 
    5.1256349054222683E-01 
    5.5669641120748548E-01 
    5.6559713828865343E-01 
    4.3693522791101691E-01 
    9.9999999999999995E-07 
    1.0000000000305213E-06 
    1.0000037125767321E-06 
    1.0035664593165936E-06 
    1.0618907003020379E-06 
    1.0136011360685454E-05 
    8.4291491975626291E-05 
    1.5595686502735374E-04 
    2.8422314921747014E-03 
    1.5314463910569197E-02 
    9.8156132572070495E-02 
    1.8643053496070297E-01 
    2.7238191647983651E-01 
    3.5759540057811129E-01 
    4.3698759689647199E-01 
    4.3837715994223780E-01 
