# vtk DataFile Version 2.0
Pressure Field Data 
ASCII 
DATASET UNSTRUCTURED_GRID 

POINTS 289 double 

    0.0000000000000000E+00     0.0000000000000000E+00     0.0000000000000000E+00 
    1.0000000000000000E+00     0.0000000000000000E+00     0.0000000000000000E+00 
    1.0000000000000000E+00     1.0000000000000000E+00     0.0000000000000000E+00 
    0.0000000000000000E+00     1.0000000000000000E+00     0.0000000000000000E+00 
    6.2499999999872928E-02     0.0000000000000000E+00     0.0000000000000000E+00 
    1.2499999999977310E-01     0.0000000000000000E+00     0.0000000000000000E+00 
    1.8749999999959341E-01     0.0000000000000000E+00     0.0000000000000000E+00 
    2.4999999999941089E-01     0.0000000000000000E+00     0.0000000000000000E+00 
    3.1249999999922851E-01     0.0000000000000000E+00     0.0000000000000000E+00 
    3.7499999999904610E-01     0.0000000000000000E+00     0.0000000000000000E+00 
    4.3749999999886358E-01     0.0000000000000000E+00     0.0000000000000000E+00 
    4.9999999999869210E-01     0.0000000000000000E+00     0.0000000000000000E+00 
    5.6249999999884603E-01     0.0000000000000000E+00     0.0000000000000000E+00 
    6.2499999999901090E-01     0.0000000000000000E+00     0.0000000000000000E+00 
    6.8749999999917577E-01     0.0000000000000000E+00     0.0000000000000000E+00 
    7.4999999999934064E-01     0.0000000000000000E+00     0.0000000000000000E+00 
    8.1249999999950551E-01     0.0000000000000000E+00     0.0000000000000000E+00 
    8.7499999999967026E-01     0.0000000000000000E+00     0.0000000000000000E+00 
    9.3749999999983513E-01     0.0000000000000000E+00     0.0000000000000000E+00 
    1.0000000000000000E+00     6.2499999999872928E-02     0.0000000000000000E+00 
    1.0000000000000000E+00     1.2499999999977310E-01     0.0000000000000000E+00 
    1.0000000000000000E+00     1.8749999999959341E-01     0.0000000000000000E+00 
    1.0000000000000000E+00     2.4999999999941089E-01     0.0000000000000000E+00 
    1.0000000000000000E+00     3.1249999999922851E-01     0.0000000000000000E+00 
    1.0000000000000000E+00     3.7499999999904610E-01     0.0000000000000000E+00 
    1.0000000000000000E+00     4.3749999999886358E-01     0.0000000000000000E+00 
    1.0000000000000000E+00     4.9999999999869210E-01     0.0000000000000000E+00 
    1.0000000000000000E+00     5.6249999999884603E-01     0.0000000000000000E+00 
    1.0000000000000000E+00     6.2499999999901090E-01     0.0000000000000000E+00 
    1.0000000000000000E+00     6.8749999999917577E-01     0.0000000000000000E+00 
    1.0000000000000000E+00     7.4999999999934064E-01     0.0000000000000000E+00 
    1.0000000000000000E+00     8.1249999999950551E-01     0.0000000000000000E+00 
    1.0000000000000000E+00     8.7499999999967026E-01     0.0000000000000000E+00 
    1.0000000000000000E+00     9.3749999999983513E-01     0.0000000000000000E+00 
    9.3749999999973976E-01     1.0000000000000000E+00     0.0000000000000000E+00 
    8.7499999999950118E-01     1.0000000000000000E+00     0.0000000000000000E+00 
    8.1249999999991318E-01     1.0000000000000000E+00     0.0000000000000000E+00 
    7.5000000000034706E-01     1.0000000000000000E+00     0.0000000000000000E+00 
    6.8750000000078049E-01     1.0000000000000000E+00     0.0000000000000000E+00 
    6.2500000000121403E-01     1.0000000000000000E+00     0.0000000000000000E+00 
    5.6250000000164757E-01     1.0000000000000000E+00     0.0000000000000000E+00 
    5.0000000000205946E-01     1.0000000000000000E+00     0.0000000000000000E+00 
    4.3750000000182099E-01     1.0000000000000000E+00     0.0000000000000000E+00 
    3.7500000000156092E-01     1.0000000000000000E+00     0.0000000000000000E+00 
    3.1250000000130068E-01     1.0000000000000000E+00     0.0000000000000000E+00 
    2.5000000000104050E-01     1.0000000000000000E+00     0.0000000000000000E+00 
    1.8750000000078040E-01     1.0000000000000000E+00     0.0000000000000000E+00 
    1.2500000000052031E-01     1.0000000000000000E+00     0.0000000000000000E+00 
    6.2500000000260125E-02     1.0000000000000000E+00     0.0000000000000000E+00 
    0.0000000000000000E+00     9.3749999999973976E-01     0.0000000000000000E+00 
    0.0000000000000000E+00     8.7499999999950118E-01     0.0000000000000000E+00 
    0.0000000000000000E+00     8.1249999999991318E-01     0.0000000000000000E+00 
    0.0000000000000000E+00     7.5000000000034706E-01     0.0000000000000000E+00 
    0.0000000000000000E+00     6.8750000000078049E-01     0.0000000000000000E+00 
    0.0000000000000000E+00     6.2500000000121403E-01     0.0000000000000000E+00 
    0.0000000000000000E+00     5.6250000000164757E-01     0.0000000000000000E+00 
    0.0000000000000000E+00     5.0000000000205946E-01     0.0000000000000000E+00 
    0.0000000000000000E+00     4.3750000000182099E-01     0.0000000000000000E+00 
    0.0000000000000000E+00     3.7500000000156092E-01     0.0000000000000000E+00 
    0.0000000000000000E+00     3.1250000000130068E-01     0.0000000000000000E+00 
    0.0000000000000000E+00     2.5000000000104050E-01     0.0000000000000000E+00 
    0.0000000000000000E+00     1.8750000000078040E-01     0.0000000000000000E+00 
    0.0000000000000000E+00     1.2500000000052031E-01     0.0000000000000000E+00 
    0.0000000000000000E+00     6.2500000000260125E-02     0.0000000000000000E+00 
    6.2499999999897131E-02     6.2500000000235922E-02     0.0000000000000000E+00 
    6.2499999999921327E-02     1.2500000000047351E-01     0.0000000000000000E+00 
    6.2499999999945530E-02     1.8750000000070621E-01     0.0000000000000000E+00 
    6.2499999999969733E-02     2.5000000000093858E-01     0.0000000000000000E+00 
    6.2499999999993928E-02     3.1250000000117117E-01     0.0000000000000000E+00 
    6.2500000000018124E-02     3.7500000000140382E-01     0.0000000000000000E+00 
    6.2500000000042327E-02     4.3750000000163619E-01     0.0000000000000000E+00 
    6.2500000000066530E-02     5.0000000000184897E-01     0.0000000000000000E+00 
    6.2500000000090733E-02     5.6250000000147260E-01     0.0000000000000000E+00 
    6.2500000000114922E-02     6.2500000000107636E-01     0.0000000000000000E+00 
    6.2500000000139125E-02     6.8750000000068034E-01     0.0000000000000000E+00 
    6.2500000000163328E-02     7.5000000000028411E-01     0.0000000000000000E+00 
    6.2500000000187531E-02     8.1249999999988787E-01     0.0000000000000000E+00 
    6.2500000000211720E-02     8.7499999999951172E-01     0.0000000000000000E+00 
    6.2500000000235922E-02     9.3749999999974565E-01     0.0000000000000000E+00 
    1.2499999999981980E-01     6.2500000000211733E-02     0.0000000000000000E+00 
    1.2499999999986650E-01     1.2500000000042691E-01     0.0000000000000000E+00 
    1.2499999999991319E-01     1.8750000000063199E-01     0.0000000000000000E+00 
    1.2499999999995989E-01     2.5000000000083678E-01     0.0000000000000000E+00 
    1.2500000000000661E-01     3.1250000000104172E-01     0.0000000000000000E+00 
    1.2500000000005329E-01     3.7500000000124661E-01     0.0000000000000000E+00 
    1.2500000000010000E-01     4.3750000000145117E-01     0.0000000000000000E+00 
    1.2500000000014669E-01     5.0000000000163858E-01     0.0000000000000000E+00 
    1.2500000000019340E-01     5.6250000000129741E-01     0.0000000000000000E+00 
    1.2500000000024011E-01     6.2500000000093847E-01     0.0000000000000000E+00 
    1.2500000000028680E-01     6.8750000000057998E-01     0.0000000000000000E+00 
    1.2500000000033351E-01     7.5000000000022127E-01     0.0000000000000000E+00 
    1.2500000000038020E-01     8.1249999999986211E-01     0.0000000000000000E+00 
    1.2500000000042691E-01     8.7499999999952238E-01     0.0000000000000000E+00 
    1.2500000000047359E-01     9.3749999999975164E-01     0.0000000000000000E+00 
    1.8749999999966760E-01     6.2500000000187531E-02     0.0000000000000000E+00 
    1.8749999999974179E-01     1.2500000000038020E-01     0.0000000000000000E+00 
    1.8749999999981601E-01     1.8750000000055780E-01     0.0000000000000000E+00 
    1.8749999999989009E-01     2.5000000000073502E-01     0.0000000000000000E+00 
    1.8749999999996431E-01     3.1250000000091221E-01     0.0000000000000000E+00 
    1.8750000000003850E-01     3.7500000000108941E-01     0.0000000000000000E+00 
    1.8750000000011269E-01     4.3750000000126649E-01     0.0000000000000000E+00 
    1.8750000000018691E-01     5.0000000000142808E-01     0.0000000000000000E+00 
    1.8750000000026110E-01     5.6250000000112244E-01     0.0000000000000000E+00 
    1.8750000000033529E-01     6.2500000000080080E-01     0.0000000000000000E+00 
    1.8750000000040951E-01     6.8750000000047962E-01     0.0000000000000000E+00 
    1.8750000000048361E-01     7.5000000000015843E-01     0.0000000000000000E+00 
    1.8750000000055780E-01     8.1249999999983680E-01     0.0000000000000000E+00 
    1.8750000000063199E-01     8.7499999999953304E-01     0.0000000000000000E+00 
    1.8750000000070621E-01     9.3749999999975764E-01     0.0000000000000000E+00 
    2.4999999999951281E-01     6.2500000000163314E-02     0.0000000000000000E+00 
    2.4999999999961461E-01     1.2500000000033351E-01     0.0000000000000000E+00 
    2.4999999999971650E-01     1.8750000000048361E-01     0.0000000000000000E+00 
    2.4999999999981831E-01     2.5000000000063310E-01     0.0000000000000000E+00 
    2.4999999999992020E-01     3.1250000000078260E-01     0.0000000000000000E+00 
    2.5000000000002198E-01     3.7500000000093209E-01     0.0000000000000000E+00 
    2.5000000000012390E-01     4.3750000000108180E-01     0.0000000000000000E+00 
    2.5000000000022571E-01     5.0000000000121769E-01     0.0000000000000000E+00 
    2.5000000000032763E-01     5.6250000000094724E-01     0.0000000000000000E+00 
    2.5000000000042938E-01     6.2500000000066314E-01     0.0000000000000000E+00 
    2.5000000000053119E-01     6.8750000000037925E-01     0.0000000000000000E+00 
[...]
CELL_DATA 256 
SCALARS Pressure double 1 
LOOKUP_TABLE default 

    1.3681129714417872E+00 
    1.2688500942089800E+00 
    1.1620476724023807E+00 
    1.0595141088804871E+00 
    9.8853789072476705E-01 
    9.3424712050186487E-01 
    8.9177651597219054E-01 
    8.5837383961069713E-01 
    8.3231606632599919E-01 
    8.1240044192881944E-01 
    7.9768251163003689E-01 
    7.8733821815471627E-01 
    7.8059042202091389E-01 
    7.7668063818803412E-01 
    7.7485448931863432E-01 
    7.7435820889131934E-01 
    1.2688472171128273E+00 
    1.2436259741044133E+00 
    1.1674496792798819E+00 
    1.0760317652194529E+00 
    1.0056400997654993E+00 
    9.4927984264137544E-01 
    9.0414117542268413E-01 
    8.6808620042152307E-01 
    8.3958608615212960E-01 
    8.1751125468119157E-01 
    8.0095645629931755E-01 
    7.8912111924676220E-01 
    7.8124490584350059E-01 
    7.7657888667871111E-01 
    7.7437200575963416E-01 
    7.7387173494978689E-01 
    1.1620662754758340E+00 
    1.1674629060842077E+00 
    1.1265157822774028E+00 
    1.0637620802147387E+00 
    1.0051084967839397E+00 
    9.5300274660865136E-01 
    9.0870647397916648E-01 
    8.7199458011507669E-01 
    8.4224360204770388E-01 
    8.1877682623383519E-01 
    8.0093185598728411E-01 
    7.8804654950942299E-01 
    7.7943935795344221E-01 
    7.7440145523283133E-01 
    7.7219707769675106E-01 
    7.7207698603202468E-01 
    1.0595411003223434E+00 
    1.0760534353150188E+00 
    1.0637710103215587E+00 
    1.0304565944975459E+00 
    9.8786857630617209E-01 
    9.4444724041995554E-01 
    9.0424488831499128E-01 
    8.6901840812559994E-01 
    8.3937920729373472E-01 
    8.1539456375218633E-01 
    7.9685333418407123E-01 
    7.8336891565515465E-01 
    7.7442157262917188E-01 
    7.6938644406838330E-01 
    7.6756162963634267E-01 
    7.6820367505714704E-01 
    9.8855933639095750E-01 
    1.0056595459370135E+00 
    1.0051211131542290E+00 
    9.8787394739459800E-01 
    9.5933951710916676E-01 
    9.2560453918981944E-01 
    8.9120711958506993E-01 
    8.5899255628165949E-01 
    8.3059013155887884E-01 
    8.0685297730897443E-01 
    7.8813528974717695E-01 
    7.7443834727778416E-01 
    7.6548821134088496E-01 
    7.6079287159796927E-01 
    7.5970243808706805E-01 
    7.6147730037997541E-01 
    9.3426631447124697E-01 
    9.4929749641787153E-01 
    9.5301578548999766E-01 
    9.4445514042855438E-01 
    9.2560811919298247E-01 
    9.0005690591111787E-01 
    8.7145248403721454E-01 
    8.4276391982543919E-01 
    8.1615095901980261E-01 
    7.9308101962918442E-01 
    7.7446832287242329E-01 
    7.6076526900594077E-01 
    7.5201697311733762E-01 
    7.4791397366500956E-01 
    7.4787146625880274E-01 
    7.5113804698875020E-01 
    8.9179493080335415E-01 
    9.0415767523223933E-01 
    9.0871924363846912E-01 
    9.0425409015522817E-01 
    8.9121326062299511E-01 
    8.7145551201006721E-01 
    8.4750951126461893E-01 
    8.2193572739602094E-01 
    7.9699036411349999E-01 
    7.7451213890127268E-01 
    7.5589706196269668E-01 
    7.4207735892058846E-01 
    7.3349100485763641E-01 
    7.3007262599715173E-01 
    7.3131562205010658E-01 
    7.3642068097339586E-01 
    8.5839316433518509E-01 
    8.6810313329315525E-01 
    8.7200786766581662E-01 
    8.6902871412544291E-01 
    8.5900043776582735E-01 
    8.4276896792363321E-01 
    8.2193785174952816E-01 
    7.9850102223126163E-01 
    7.7454755833763478E-01 
    7.5207714032053530E-01 
    7.3287457459595695E-01 
    7.1837945418378868E-01 
    7.0952774424932985E-01 
    7.0660823121195393E-01 
    7.0923264050773716E-01 
    7.1649597527473341E-01 
    8.3233797617931460E-01 
    8.3960513511326540E-01 
    8.4225816930700492E-01 
    8.3939032844810446E-01 
    8.3059893594097189E-01 
    8.1615718404646764E-01 
    7.9699370697713434E-01 
    7.7454877645286702E-01 
    7.5060919948672633E-01 
    7.2717242543547866E-01 
    7.0631941670602771E-01 
    6.9003506881087906E-01 
    6.7992510722213695E-01 
    6.7685963934356674E-01 
    6.8070902386759669E-01 
    6.9041007875509530E-01 
    8.1242604483150660E-01 
    8.1753328631333810E-01 
    8.1879245855109051E-01 
    8.1540587735224745E-01 
    8.0686212527490497E-01 
    7.9308795597580661E-01 
    7.7451626659389849E-01 
    7.5207924254014169E-01 
    7.2717337191816978E-01 
    7.0163359324060925E-01 
    6.7770162622202179E-01 
    6.5791199662755928E-01 
    6.4477216961723927E-01 
    6.4016211634696829E-01 
    6.4460832362440879E-01 
    6.5694455704276977E-01 
    7.9771259796297900E-01 
    8.0098101349422668E-01 
    8.0094808893168357E-01 
    7.9686460191717401E-01 
    7.8814470273359616E-01 
    7.7447583172328316E-01 
    7.5590191929883954E-01 
    7.3287758285345084E-01 
    7.0632126187614885E-01 
    6.7770251274365856E-01 
    6.4917015625157914E-01 
    6.2365184668472351E-01 
    6.0472444590865149E-01 
    5.9593448675997662E-01 
    5.9940167712238168E-01 
    6.1434826426269551E-01 
    7.8737375228845796E-01 
    7.8914948154153053E-01 
    7.8806479678429719E-01 
    7.8338113968499279E-01 
    7.7444850112623664E-01 
    7.6077358067450729E-01 
    7.4208326646328049E-01 
    7.1838337621140425E-01 
    6.9003759007692322E-01 
    6.5791346587769972E-01 
    6.2365243114503899E-01 
    5.9007979228756713E-01 
    5.6160513485982499E-01 
    5.4406543456315770E-01 
    5.4297884928089624E-01 
    5.5979753977982682E-01 
    7.8063433179945574E-01 
    7.8128053008507281E-01 
    7.7946248147208597E-01 
    7.7443616639371715E-01 
    7.6549944774924428E-01 
    7.5202620270677645E-01 
    7.3349785742934648E-01 
    7.0953223074205463E-01 
    6.7992791327262725E-01 
    6.4477397345948984E-01 
    6.0472549146277477E-01 
    5.6160558698729246E-01 
    5.1949593905245561E-01 
    4.8610835221547710E-01 
    4.7271372644299242E-01 
    4.8827116509805130E-01 
    7.7673496214282556E-01 
    7.7662469995246119E-01 
    7.7443160702317859E-01 
    7.6940386934901883E-01 
    7.6080470022862734E-01 
    7.4792362875991425E-01 
    7.3007987610405478E-01 
    7.0661283024281907E-01 
    6.7686252089571419E-01 
    6.4016429035229538E-01 
    5.9593601879378433E-01 
    5.4406620755968149E-01 
    4.8610850178219861E-01 
    4.2827665730972947E-01 
    3.8700820745734216E-01 
    3.8996041510071017E-01 
    7.7491902013192582E-01 
    7.7442980139877771E-01 
    7.7223638978850839E-01 
    7.6758250737531630E-01 
    7.5971440734842410E-01 
    7.4788115042244152E-01 
    7.3132287858485723E-01 
    7.0923715627413420E-01 
    6.8071201126150294E-01 
    6.4461104569088279E-01 
    5.9940377839686521E-01 
    5.4297988083630233E-01 
    4.7271382688383029E-01 
    3.8700802872989515E-01 
    2.9342499980859438E-01 
    2.4379746193381086E-01 
    7.7442935667396418E-01 
    7.7393990593729367E-01 
    7.7212497323621432E-01 
    7.6822746575883971E-01 
    7.6148880039586941E-01 
    7.5114762056393125E-01 
    7.3642762146356933E-01 
    7.1650029624896394E-01 
    6.9041313442817731E-01 
    6.5694789658616015E-01 
    6.1435090567751438E-01 
    5.5979880481573652E-01 
    4.8827118631683580E-01 
    3.8996000588247565E-01 
    2.4379722664961989E-01 
    0.0000000000000000E+00 

SCALARS Saturarion double 1 
LOOKUP_TABLE default 

    8.5120073786197714E-01 
    6.5962466490119209E-01 
    3.1375355605247335E-01 
    2.4314199878986372E-03 
    1.0000879249430977E-06 
    1.0000000000089162E-06 
    9.9999999999999995E-07 
    9.9999999999999995E-07 
    9.9999999999999995E-07 
    9.9999999999999995E-07 
    9.9999999999999995E-07 
    9.9999999999999995E-07 
    9.9999999999999995E-07 
    9.9999999999999995E-07 
    9.9999999999999995E-07 
    9.9999999999999995E-07 
    6.5977529513171285E-01 
    5.4789753436945909E-01 
    2.1850386077182271E-01 
    8.7970195388693850E-04 
    1.0969540257868174E-06 
    1.0000000116152387E-06 
    1.0000000000000010E-06 
    9.9999999999999995E-07 
    9.9999999999999995E-07 
    9.9999999999999995E-07 
    9.9999999999999995E-07 
    9.9999999999999995E-07 
    9.9999999999999995E-07 
    9.9999999999999995E-07 
    9.9999999999999995E-07 
    9.9999999999999995E-07 
    3.1444287576972846E-01 
    2.1884532075766272E-01 
    2.7658762886441462E-02 
    1.9513342530686335E-05 
    1.0000168262227760E-06 
    1.0000000000000595E-06 
    9.9999999999999995E-07 
    9.9999999999999995E-07 
    9.9999999999999995E-07 
    9.9999999999999995E-07 
    9.9999999999999995E-07 
    9.9999999999999995E-07 
    9.9999999999999995E-07 
    9.9999999999999995E-07 
    9.9999999999999995E-07 
    9.9999999999999995E-07 
    2.4593611589901355E-03 
    8.7841648479421164E-04 
    1.9446094326975264E-05 
    1.0000297672020854E-06 
    1.0000000000017897E-06 
    9.9999999999999995E-07 
    9.9999999999999995E-07 
    9.9999999999999995E-07 
    9.9999999999999995E-07 
    9.9999999999999995E-07 
    9.9999999999999995E-07 
    9.9999999999999995E-07 
    9.9999999999999995E-07 
    9.9999999999999995E-07 
    9.9999999999999995E-07 
    9.9999999999999995E-07 
    1.0000913914733374E-06 
    1.0953296115642375E-06 
    1.0000167141854242E-06 
    1.0000000000017741E-06 
    9.9999999999999995E-07 
    9.9999999999999995E-07 
    9.9999999999999995E-07 
    9.9999999999999995E-07 
    9.9999999999999995E-07 
    9.9999999999999995E-07 
    9.9999999999999995E-07 
    9.9999999999999995E-07 
    9.9999999999999995E-07 
    9.9999999999999995E-07 
    9.9999999999999995E-07 
    9.9999999999999995E-07 
    1.0000000000092851E-06 
    1.0000000114220597E-06 
    1.0000000000000595E-06 
    9.9999999999999995E-07 
    9.9999999999999995E-07 
    9.9999999999999995E-07 
    9.9999999999999995E-07 
    9.9999999999999995E-07 
    9.9999999999999995E-07 
    9.9999999999999995E-07 
    9.9999999999999995E-07 
    9.9999999999999995E-07 
    9.9999999999999995E-07 
    9.9999999999999995E-07 
    9.9999999999999995E-07 
    9.9999999999999995E-07 
    9.9999999999999995E-07 
    1.0000000000000012E-06 
    9.9999999999999995E-07 
    9.9999999999999995E-07 
    9.9999999999999995E-07 
    9.9999999999999995E-07 
    9.9999999999999995E-07 
    9.9999999999999995E-07 
    9.9999999999999995E-07 
    9.9999999999999995E-07 
    9.9999999999999995E-07 
    9.9999999999999995E-07 
    9.9999999999999995E-07 
    9.9999999999999995E-07 
    9.9999999999999995E-07 
    9.9999999999999995E-07 
    9.9999999999999995E-07 
    9.9999999999999995E-07 
    9.9999999999999995E-07 
    9.9999999999999995E-07 
    9.9999999999999995E-07 
    9.9999999999999995E-07 
    9.9999999999999995E-07 
    9.9999999999999995E-07 
    9.9999999999999995E-07 
    9.9999999999999995E-07 
    9.9999999999999995E-07 
    9.9999999999999995E-07 
    9.9999999999999995E-07 
    9.9999999999999995E-07 
    9.9999999999999995E-07 
    9.9999999999999995E-07 
    9.9999999999999995E-07 
    9.9999999999999995E-07 
    9.9999999999999995E-07 
    9.9999999999999995E-07 
    9.9999999999999995E-07 
    9.9999999999999995E-07 
    9.9999999999999995E-07 
    9.9999999999999995E-07 
    9.9999999999999995E-07 
    9.9999999999999995E-07 
    9.9999999999999995E-07 
    9.9999999999999995E-07 
    9.9999999999999995E-07 
    9.9999999999999995E-07 
    9.9999999999999995E-07 
    9.9999999999999995E-07 
    9.9999999999999995E-07 
    9.9999999999999995E-07 
    9.9999999999999995E-07 
    9.9999999999999995E-07 
    9.9999999999999995E-07 
    9.9999999999999995E-07 
    9.9999999999999995E-07 
    9.9999999999999995E-07 
    9.9999999999999995E-07 
    9.9999999999999995E-07 
    9.9999999999999995E-07 
    9.9999999999999995E-07 
    9.9999999999999995E-07 
    9.9999999999999995E-07 
    9.9999999999999995E-07 
    9.9999999999999995E-07 
    9.9999999999999995E-07 
    9.9999999999999995E-07 
    9.9999999999999995E-07 
    9.9999999999999995E-07 
    9.9999999999999995E-07 
    9.9999999999999995E-07 
    9.9999999999999995E-07 
    9.9999999999999995E-07 
    9.9999999999999995E-07 
    9.9999999999999995E-07 
    9.9999999999999995E-07 
    9.9999999999999995E-07 
    9.9999999999999995E-07 
    9.9999999999999995E-07 
    9.9999999999999995E-07 
    9.9999999999999995E-07 
    9.9999999999999995E-07 
    9.9999999999999995E-07 
    9.9999999999999995E-07 
    9.9999999999999995E-07 
    9.9999999999999995E-07 
    9.9999999999999995E-07 
    9.9999999999999995E-07 
    9.9999999999999995E-07 
    9.9999999999999995E-07 
    9.9999999999999995E-07 
    9.9999999999999995E-07 
    9.9999999999999995E-07 
    9.9999999999999995E-07 
    9.9999999999999995E-07 
    9.9999999999999995E-07 
    9.9999999999999995E-07 
    9.9999999999999995E-07 
    9.9999999999999995E-07 
    9.9999999999999995E-07 
    9.9999999999999995E-07 
    9.9999999999999995E-07 
    9.9999999999999995E-07 
    9.9999999999999995E-07 
    9.9999999999999995E-07 
    9.9999999999999995E-07 
    9.9999999999999995E-07 
    9.9999999999999995E-07 
    9.9999999999999995E-07 
    9.9999999999999995E-07 
    9.9999999999999995E-07 
    9.9999999999999995E-07 
    9.9999999999999995E-07 
    9.9999999999999995E-07 
    9.9999999999999995E-07 
    9.9999999999999995E-07 
    9.9999999999999995E-07 
    9.9999999999999995E-07 
    9.9999999999999995E-07 
    9.9999999999999995E-07 
    9.9999999999999995E-07 
    9.9999999999999995E-07 
    9.9999999999999995E-07 
    9.9999999999999995E-07 
    9.9999999999999995E-07 
    9.9999999999999995E-07 
    9.9999999999999995E-07 
    9.9999999999999995E-07 
    9.9999999999999995E-07 
    9.9999999999999995E-07 
    9.9999999999999995E-07 
    9.9999999999999995E-07 
    9.9999999999999995E-07 
    9.9999999999999995E-07 
    9.9999999999999995E-07 
    9.9999999999999995E-07 
    9.9999999999999995E-07 
    9.9999999999999995E-07 
    9.9999999999999995E-07 
    9.9999999999999995E-07 
    9.9999999999999995E-07 
    9.9999999999999995E-07 
    9.9999999999999995E-07 
    9.9999999999999995E-07 
    9.9999999999999995E-07 
    9.9999999999999995E-07 
    9.9999999999999995E-07 
    9.9999999999999995E-07 
    9.9999999999999995E-07 
    9.9999999999999995E-07 
    9.9999999999999995E-07 
    9.9999999999999995E-07 
    9.9999999999999995E-07 
    9.9999999999999995E-07 
    9.9999999999999995E-07 
    9.9999999999999995E-07 
    9.9999999999999995E-07 
    9.9999999999999995E-07 
    9.9999999999999995E-07 
    9.9999999999999995E-07 
    1.0000000152122767E-06 
