# vtk DataFile Version 2.0
Pressure Field Data 
ASCII 
DATASET UNSTRUCTURED_GRID 

POINTS 289 double 

    0.0000000000000000E+00     0.0000000000000000E+00     0.0000000000000000E+00 
    1.0000000000000000E+00     0.0000000000000000E+00     0.0000000000000000E+00 
    1.0000000000000000E+00     1.0000000000000000E+00     0.0000000000000000E+00 
    0.0000000000000000E+00     1.0000000000000000E+00     0.0000000000000000E+00 
    6.2499999999872928E-02     0.0000000000000000E+00     0.0000000000000000E+00 
    1.2499999999977310E-01     0.0000000000000000E+00     0.0000000000000000E+00 
    1.8749999999959341E-01     0.0000000000000000E+00     0.0000000000000000E+00 
    2.4999999999941089E-01     0.0000000000000000E+00     0.0000000000000000E+00 
    3.1249999999922851E-01     0.0000000000000000E+00     0.0000000000000000E+00 
    3.7499999999904610E-01     0.0000000000000000E+00     0.0000000000000000E+00 
    4.3749999999886358E-01     0.0000000000000000E+00     0.0000000000000000E+00 
    4.9999999999869210E-01     0.0000000000000000E+00     0.0000000000000000E+00 
    5.6249999999884603E-01     0.0000000000000000E+00     0.0000000000000000E+00 
    6.2499999999901090E-01     0.0000000000000000E+00     0.0000000000000000E+00 
    6.8749999999917577E-01     0.0000000000000000E+00     0.0000000000000000E+00 
    7.4999999999934064E-01     0.0000000000000000E+00     0.0000000000000000E+00 
    8.1249999999950551E-01     0.0000000000000000E+00     0.0000000000000000E+00 
    8.7499999999967026E-01     0.0000000000000000E+00     0.0000000000000000E+00 
    9.3749999999983513E-01     0.0000000000000000E+00     0.0000000000000000E+00 
    1.0000000000000000E+00     6.2499999999872928E-02     0.0000000000000000E+00 
    1.0000000000000000E+00     1.2499999999977310E-01     0.0000000000000000E+00 
    1.0000000000000000E+00     1.8749999999959341E-01     0.0000000000000000E+00 
    1.0000000000000000E+00     2.4999999999941089E-01     0.0000000000000000E+00 
    1.0000000000000000E+00     3.1249999999922851E-01     0.0000000000000000E+00 
    1.0000000000000000E+00     3.7499999999904610E-01     0.0000000000000000E+00 
    1.0000000000000000E+00     4.3749999999886358E-01     0.0000000000000000E+00 
    1.0000000000000000E+00     4.9999999999869210E-01     0.0000000000000000E+00 
    1.0000000000000000E+00     5.6249999999884603E-01     0.0000000000000000E+00 
    1.0000000000000000E+00     6.2499999999901090E-01     0.0000000000000000E+00 
    1.0000000000000000E+00     6.8749999999917577E-01     0.0000000000000000E+00 
    1.0000000000000000E+00     7.4999999999934064E-01     0.0000000000000000E+00 
    1.0000000000000000E+00     8.1249999999950551E-01     0.0000000000000000E+00 
    1.0000000000000000E+00     8.7499999999967026E-01     0.0000000000000000E+00 
    1.0000000000000000E+00     9.3749999999983513E-01     0.0000000000000000E+00 
    9.3749999999973976E-01     1.0000000000000000E+00     0.0000000000000000E+00 
    8.7499999999950118E-01     1.0000000000000000E+00     0.0000000000000000E+00 
    8.1249999999991318E-01     1.0000000000000000E+00     0.0000000000000000E+00 
    7.5000000000034706E-01     1.0000000000000000E+00     0.0000000000000000E+00 
    6.8750000000078049E-01     1.0000000000000000E+00     0.0000000000000000E+00 
    6.2500000000121403E-01     1.0000000000000000E+00     0.0000000000000000E+00 
    5.6250000000164757E-01     1.0000000000000000E+00     0.0000000000000000E+00 
    5.0000000000205946E-01     1.0000000000000000E+00     0.0000000000000000E+00 
    4.3750000000182099E-01     1.0000000000000000E+00     0.0000000000000000E+00 
    3.7500000000156092E-01     1.0000000000000000E+00     0.0000000000000000E+00 
    3.1250000000130068E-01     1.0000000000000000E+00     0.0000000000000000E+00 
    2.5000000000104050E-01     1.0000000000000000E+00     0.0000000000000000E+00 
    1.8750000000078040E-01     1.0000000000000000E+00     0.0000000000000000E+00 
    1.2500000000052031E-01     1.0000000000000000E+00     0.0000000000000000E+00 
    6.2500000000260125E-02     1.0000000000000000E+00     0.0000000000000000E+00 
    0.0000000000000000E+00     9.3749999999973976E-01     0.0000000000000000E+00 
    0.0000000000000000E+00     8.7499999999950118E-01     0.0000000000000000E+00 
    0.0000000000000000E+00     8.1249999999991318E-01     0.0000000000000000E+00 
    0.0000000000000000E+00     7.5000000000034706E-01     0.0000000000000000E+00 
    0.0000000000000000E+00     6.8750000000078049E-01     0.0000000000000000E+00 
    0.0000000000000000E+00     6.2500000000121403E-01     0.0000000000000000E+00 
    0.0000000000000000E+00     5.6250000000164757E-01     0.0000000000000000E+00 
    0.0000000000000000E+00     5.0000000000205946E-01     0.0000000000000000E+00 
    0.0000000000000000E+00     4.3750000000182099E-01     0.0000000000000000E+00 
    0.0000000000000000E+00     3.7500000000156092E-01     0.0000000000000000E+00 
    0.0000000000000000E+00     3.1250000000130068E-01     0.0000000000000000E+00 
    0.0000000000000000E+00     2.5000000000104050E-01     0.0000000000000000E+00 
    0.0000000000000000E+00     1.8750000000078040E-01     0.0000000000000000E+00 
    0.0000000000000000E+00     1.2500000000052031E-01     0.0000000000000000E+00 
    0.0000000000000000E+00     6.2500000000260125E-02     0.0000000000000000E+00 
    6.2499999999897131E-02     6.2500000000235922E-02     0.0000000000000000E+00 
    6.2499999999921327E-02     1.2500000000047351E-01     0.0000000000000000E+00 
    6.2499999999945530E-02     1.8750000000070621E-01     0.0000000000000000E+00 
    6.2499999999969733E-02     2.5000000000093858E-01     0.0000000000000000E+00 
    6.2499999999993928E-02     3.1250000000117117E-01     0.0000000000000000E+00 
    6.2500000000018124E-02     3.7500000000140382E-01     0.0000000000000000E+00 
    6.2500000000042327E-02     4.3750000000163619E-01     0.0000000000000000E+00 
    6.2500000000066530E-02     5.0000000000184897E-01     0.0000000000000000E+00 
    6.2500000000090733E-02     5.6250000000147260E-01     0.0000000000000000E+00 
    6.2500000000114922E-02     6.2500000000107636E-01     0.0000000000000000E+00 
    6.2500000000139125E-02     6.8750000000068034E-01     0.0000000000000000E+00 
    6.2500000000163328E-02     7.5000000000028411E-01     0.0000000000000000E+00 
    6.2500000000187531E-02     8.1249999999988787E-01     0.0000000000000000E+00 
    6.2500000000211720E-02     8.7499999999951172E-01     0.0000000000000000E+00 
    6.2500000000235922E-02     9.3749999999974565E-01     0.0000000000000000E+00 
    1.2499999999981980E-01     6.2500000000211733E-02     0.0000000000000000E+00 
    1.2499999999986650E-01     1.2500000000042691E-01     0.0000000000000000E+00 
    1.2499999999991319E-01     1.8750000000063199E-01     0.0000000000000000E+00 
    1.2499999999995989E-01     2.5000000000083678E-01     0.0000000000000000E+00 
    1.2500000000000661E-01     3.1250000000104172E-01     0.0000000000000000E+00 
    1.2500000000005329E-01     3.7500000000124661E-01     0.0000000000000000E+00 
    1.2500000000010000E-01     4.3750000000145117E-01     0.0000000000000000E+00 
    1.2500000000014669E-01     5.0000000000163858E-01     0.0000000000000000E+00 
    1.2500000000019340E-01     5.6250000000129741E-01     0.0000000000000000E+00 
    1.2500000000024011E-01     6.2500000000093847E-01     0.0000000000000000E+00 
    1.2500000000028680E-01     6.8750000000057998E-01     0.0000000000000000E+00 
    1.2500000000033351E-01     7.5000000000022127E-01     0.0000000000000000E+00 
    1.2500000000038020E-01     8.1249999999986211E-01     0.0000000000000000E+00 
    1.2500000000042691E-01     8.7499999999952238E-01     0.0000000000000000E+00 
    1.2500000000047359E-01     9.3749999999975164E-01     0.0000000000000000E+00 
    1.8749999999966760E-01     6.2500000000187531E-02     0.0000000000000000E+00 
    1.8749999999974179E-01     1.2500000000038020E-01     0.0000000000000000E+00 
    1.8749999999981601E-01     1.8750000000055780E-01     0.0000000000000000E+00 
    1.8749999999989009E-01     2.5000000000073502E-01     0.0000000000000000E+00 
    1.8749999999996431E-01     3.1250000000091221E-01     0.0000000000000000E+00 
    1.8750000000003850E-01     3.7500000000108941E-01     0.0000000000000000E+00 
    1.8750000000011269E-01     4.3750000000126649E-01     0.0000000000000000E+00 
    1.8750000000018691E-01     5.0000000000142808E-01     0.0000000000000000E+00 
    1.8750000000026110E-01     5.6250000000112244E-01     0.0000000000000000E+00 
    1.8750000000033529E-01     6.2500000000080080E-01     0.0000000000000000E+00 
    1.8750000000040951E-01     6.8750000000047962E-01     0.0000000000000000E+00 
    1.8750000000048361E-01     7.5000000000015843E-01     0.0000000000000000E+00 
    1.8750000000055780E-01     8.1249999999983680E-01     0.0000000000000000E+00 
    1.8750000000063199E-01     8.7499999999953304E-01     0.0000000000000000E+00 
    1.8750000000070621E-01     9.3749999999975764E-01     0.0000000000000000E+00 
    2.4999999999951281E-01     6.2500000000163314E-02     0.0000000000000000E+00 
    2.4999999999961461E-01     1.2500000000033351E-01     0.0000000000000000E+00 
    2.4999999999971650E-01     1.8750000000048361E-01     0.0000000000000000E+00 
    2.4999999999981831E-01     2.5000000000063310E-01     0.0000000000000000E+00 
    2.4999999999992020E-01     3.1250000000078260E-01     0.0000000000000000E+00 
    2.5000000000002198E-01     3.7500000000093209E-01     0.0000000000000000E+00 
    2.5000000000012390E-01     4.3750000000108180E-01     0.0000000000000000E+00 
    2.5000000000022571E-01     5.0000000000121769E-01     0.0000000000000000E+00 
    2.5000000000032763E-01     5.6250000000094724E-01     0.0000000000000000E+00 
    2.5000000000042938E-01     6.2500000000066314E-01     0.0000000000000000E+00 
    2.5000000000053119E-01     6.8750000000037925E-01     0.0000000000000000E+00 
[...]
CELL_DATA 256 
SCALARS Pressure double 1 
LOOKUP_TABLE default 

    8.2824632123785025E-01 
    7.7801760304898604E-01 
    7.4610020625681628E-01 
    7.2250427355997648E-01 
    7.0311664624842307E-01 
    6.8646733556558193E-01 
    6.7209795360466096E-01 
    6.5984299873408703E-01 
    6.4966339381817506E-01 
    6.4148701144695541E-01 
    6.3483534513753614E-01 
    6.2854319129511504E-01 
    6.2376184244906396E-01 
    6.2114641533987480E-01 
    6.1993178986341835E-01 
    6.1960445173217893E-01 
    7.7802632590082976E-01 
    7.6763749101892575E-01 
    7.4683418762574150E-01 
    7.2622984348175701E-01 
    7.0746754336612783E-01 
    6.9064393854356065E-01 
    6.7576667783802535E-01 
    6.6284722471282009E-01 
    6.5194467931160116E-01 
    6.4309855438539210E-01 
    6.3603929307051632E-01 
    6.2962533690612277E-01 
    6.2418785239568120E-01 
    6.2106697389312193E-01 
    6.1960290462241663E-01 
    6.1927650704771731E-01 
    7.4611266373247309E-01 
    7.4684070698304827E-01 
    7.3703809224806494E-01 
    7.2240384202649655E-01 
    7.0644118757687058E-01 
    6.9076023550493559E-01 
    6.7615398935577076E-01 
    6.6304384348171674E-01 
    6.5172004337456335E-01 
    6.4238502880150750E-01 
    6.3499226257420560E-01 
    6.2872481446315420E-01 
    6.2302641621519961E-01 
    6.1959909156571669E-01 
    6.1813486256637362E-01 
    6.1806154406820868E-01 
    7.2251361546096970E-01 
    7.2623704715120541E-01 
    7.2240708942501319E-01 
    7.1298584478875471E-01 
    7.0047734703047904E-01 
    6.8675723083713214E-01 
    6.7306296987341241E-01 
    6.6019876136104294E-01 
    6.4873318167373117E-01 
    6.3907613985291423E-01 
    6.3142066265912744E-01 
    6.2537339020733462E-01 
    6.1985519722737004E-01 
    6.1625390581673922E-01 
    6.1502775231064577E-01 
    6.1545559726957855E-01 
    7.0311842581786299E-01 
    7.0746985032196985E-01 
    7.0644323583755231E-01 
    7.0047854007470733E-01 
    6.9091668375689652E-01 
    6.7923988120730994E-01 
    6.6671014559438257E-01 
    6.5432682900431360E-01 
    6.4288094835578979E-01 
    6.3299231319599281E-01 
    6.2508633150973547E-01 
    6.1912815171327817E-01 
    6.1410670046562998E-01 
    6.1055875021035566E-01 
    6.0978222310833763E-01 
    6.1095263531903932E-01 
    6.8646183566002561E-01 
    6.9063902869446780E-01 
    6.9075648174785620E-01 
    6.8675521729691191E-01 
    6.7923828821587862E-01 
    6.6919166589558521E-01 
    6.5768828341342422E-01 
    6.4574599468075844E-01 
    6.3428419429744132E-01 
    6.2410450887881952E-01 
    6.1585072464748880E-01 
    6.0982148088627119E-01 
    6.0536036465985632E-01 
    6.0212515083955698E-01 
    6.0189328126867259E-01 
    6.0403488474470102E-01 
    6.7208292882254661E-01 
    6.7575331871025213E-01 
    6.7614211533624868E-01 
    6.7305392899526162E-01 
    6.6670306723926165E-01 
    6.5768343107716842E-01 
    6.4681857323243774E-01 
    6.3503792009766868E-01 
    6.2330558268055547E-01 
    6.1256741711694851E-01 
    6.0368475573237612E-01 
    5.9727988737146698E-01 
    5.9318444200112153E-01 
    5.9043821105562899E-01 
    5.9076966213111026E-01 
    5.9413217773945592E-01 
    6.5981226313514463E-01 
    6.6282077548796547E-01 
    6.6302126896455060E-01 
    6.6018045411503701E-01 
    6.5431135451384204E-01 
    6.4573317188488033E-01 
    6.3503034178640616E-01 
    6.2299153585016320E-01 
    6.1055998244872534E-01 
    5.9878164917382948E-01 
    5.8873135474479033E-01 
    5.8137487315512637E-01 
    5.7704878146377236E-01 
    5.7474236282226632E-01 
    5.7573638578249065E-01 
    5.8059501416203463E-01 
    6.4961336695578453E-01 
    6.5189998846591768E-01 
    6.5168256608534614E-01 
    6.4870356549043862E-01 
    6.4285536964595225E-01 
    6.3426085222744988E-01 
    6.2328749535928807E-01 
    6.1055041397466792E-01 
    5.9691017028135318E-01 
    5.8345395576988035E-01 
    5.7144621480635693E-01 
    5.6221780977970948E-01 
    5.5670304250029279E-01 
    5.5445015813538556E-01 
    5.5603084303544548E-01 
    5.6263220190841512E-01 
    6.4142109843564532E-01 
    6.4303561718390811E-01 
    6.4233109558903922E-01 
    6.3903496945802907E-01 
    6.3295716003763214E-01 
    6.2406987317717699E-01 
    6.1253615480788848E-01 
    5.9875939281339396E-01 
    5.8344211433550153E-01 
    5.6762291993187453E-01 
    5.5268767158951704E-01 
    5.4034312534760809E-01 
    5.3225879715273083E-01 
    5.2902580616089157E-01 
    5.3068458465322665E-01 
    5.3912008063967831E-01 
    6.3476499131009656E-01 
    6.3596806522087124E-01 
    6.3492875434003426E-01 
    6.3137166971185199E-01 
    6.2504448328987605E-01 
    6.1580669046825709E-01 
    6.0364004093375678E-01 
    5.8869389962750773E-01 
    5.7141864941274867E-01 
    5.5267068059536373E-01 
    5.3379134871651857E-01 
    5.1675377846820580E-01 
    5.0405142307103135E-01 
    4.9769320236437314E-01 
    4.9822912077428383E-01 
    5.0842700574244826E-01 
    6.2848069432216980E-01 
    6.2956599217270726E-01 
    6.2867140101958374E-01 
    6.2532883331523181E-01 
    6.1908966161454293E-01 
    6.0977509566599941E-01 
    5.9722571328989482E-01 
    5.8132425235032803E-01 
    5.6217296017436058E-01 
    5.4030230021886594E-01 
    5.1672771406873708E-01 
    4.9332589092444584E-01 
    4.7318759867613003E-01 
    4.6003991491097768E-01 
    4.5658879420698584E-01 
    4.6745690462890355E-01 
    6.2370267495090081E-01 
    6.2413125494840982E-01 
    6.2297621854471918E-01 
    6.1981072343923971E-01 
    6.1406357923891541E-01 
    6.0531045282289275E-01 
    5.9312188588018844E-01 
    5.7698721792597329E-01 
    5.5663751293176778E-01 
    5.3218452681474127E-01 
    5.0399254527667703E-01 
    4.7316548963214811E-01 
    4.4260329804585502E-01 
    4.1734944840695204E-01 
    4.0386967914054045E-01 
    4.1106791136817444E-01 
    6.2108720860613187E-01 
    6.2100843890028468E-01 
    6.1954204033581917E-01 
    6.1619724227212824E-01 
    6.1050482520652549E-01 
    6.0206914492945118E-01 
    5.9036911323546648E-01 
    5.7467210022596660E-01 
    5.5436794858997596E-01 
    5.2892160871440008E-01 
    4.9759558971159285E-01 
    4.6001922978559578E-01 
    4.1738076441052963E-01 
    3.7385664788946249E-01 
    3.3920609514437566E-01 
    3.3204760244883325E-01 
    6.1987254423378846E-01 
    6.1954399927274806E-01 
    6.1807686913195803E-01 
    6.1497036236676506E-01 
    6.0972555818293817E-01 
    6.0183604362591303E-01 
    5.9070675988187227E-01 
    5.7566638252616464E-01 
    5.5594787263176026E-01 
    5.3057405275539116E-01 
    4.9811262135186773E-01 
    4.5659810824718328E-01 
    4.0399109945012596E-01 
    3.3926426452295882E-01 
    2.6588532493175593E-01 
    2.1392118623597281E-01 
    6.1954509617547926E-01 
    6.1921732433172560E-01 
    6.1800312445887151E-01 
    6.1539790415095597E-01 
    6.1089524406792772E-01 
    6.0397665761632224E-01 
    5.9407018433785375E-01 
    5.8052714046482634E-01 
    5.6255552277284204E-01 
    5.3902044358600887E-01 
    5.0829666964403353E-01 
    4.6741745901930787E-01 
    4.1125627194225273E-01 
    3.3215507571684172E-01 
    2.1388798756141428E-01 
    0.0000000000000000E+00 

SCALARS Saturarion double 1 
LOOKUP_TABLE default 

    1.0000000000000000E+00 
    9.8138479686148472E-01 
    9.4814497768544337E-01 
    8.8907271103829433E-01 
    8.1937124021127739E-01 
    7.5613822003446596E-01 
    6.9882349071303285E-01 
    6.4601133705196689E-01 
    5.9804934204873861E-01 
    5.4999349001427322E-01 
    4.6222307289669934E-01 
    1.3155697953350581E-01 
    1.0083049713009411E-06 
    1.0000000025170484E-06 
    9.9999999999999995E-07 
    9.9999999999999995E-07 
    9.8130988874321756E-01 
    9.6508910165321127E-01 
    9.3511483017243502E-01 
    8.8575137419395478E-01 
    8.2441193193852269E-01 
    7.6528673991587481E-01 
    7.0953997605113717E-01 
    6.5732989203483705E-01 
    6.0947125863590335E-01 
    5.6306121799474385E-01 
    4.9084873317829658E-01 
    2.4724962544204629E-01 
    1.3402800814330204E-03 
    1.0446558021633002E-06 
    1.0000000045286758E-06 
    9.9999999999999995E-07 
    9.4790344124857606E-01 
    9.3496947985216183E-01 
    9.0674924399163370E-01 
    8.6781867645887067E-01 
    8.1994504790255063E-01 
    7.7008812521444103E-01 
    7.1972552789539135E-01 
    6.7050439370347525E-01 
    6.2376204588760920E-01 
    5.7821062013210978E-01 
    5.2092578600287887E-01 
    3.7119145064432002E-01 
    4.1612218978056691E-02 
    7.0758332604973351E-05 
    1.0003521667406703E-06 
    9.9999999999999995E-07 
    8.8855372959920487E-01 
    8.8545858907761443E-01 
    8.6771169711482132E-01 
    8.3924645589207070E-01 
    8.0443621651692587E-01 
    7.6489660721141906E-01 
    7.2231673557864196E-01 
    6.7858809204979420E-01 
    6.3493277327736841E-01 
    5.9105000421422405E-01 
    5.4093580864587398E-01 
    4.4540999227695627E-01 
    1.4056344476678934E-01 
    3.0103475766153664E-04 
    1.0351543226287887E-06 
    1.0000000000356164E-06 
    8.1878571754018370E-01 
    8.2401016510776892E-01 
    8.1970771439120949E-01 
    8.0428441970726516E-01 
    7.8093670358637202E-01 
    7.5140278285529183E-01 
    7.1750330052233890E-01 
    6.8073305524652328E-01 
    6.4202934270907019E-01 
    6.0176179134798646E-01 
    5.5848743075661400E-01 
    4.8837876438485350E-01 
    2.5623495280885977E-01 
    9.9669289590147495E-03 
    5.3862067035995778E-06 
    1.0000010449322296E-06 
    7.5556559965301218E-01 
    7.6489354965553358E-01 
    7.6978555801264270E-01 
    7.6457346169784612E-01 
    7.5120032446333396E-01 
    7.3136788098948735E-01 
    7.0632430673808866E-01 
    6.7718649067005621E-01 
    6.4469368146150341E-01 
    6.0927614066574065E-01 
    5.7052282072754834E-01 
    5.1486909892568489E-01 
    3.7305461347575608E-01 
    5.3767518828898547E-02 
    1.2493044284644093E-04 
    1.0014708200396753E-06 
    6.9790315349326915E-01 
    7.0907082427985824E-01 
    7.1949876846415706E-01 
    7.2200536884378452E-01 
    7.1714837298338174E-01 
    7.0614621578879200E-01 
    6.8970510420939957E-01 
    6.6851144784920113E-01 
    6.4307945801187394E-01 
    6.1350260139955326E-01 
    5.7950207586083846E-01 
    5.3639188649003067E-01 
    4.3348364513995852E-01 
    1.2097302252816593E-01 
    2.3188552022066446E-04 
    1.0158770260423004E-06 
    6.4477903707041218E-01 
    6.5663576292648262E-01 
    6.7020871287469241E-01 
    6.7834142550819643E-01 
    6.8035830423856614E-01 
    6.7684615309318819E-01 
    6.6835134904960458E-01 
    6.5516190260462326E-01 
    6.3734401560512499E-01 
    6.1463738221778419E-01 
    5.8630850447415372E-01 
    5.4955143865607736E-01 
    4.7491198423747005E-01 
    2.1673856821678908E-01 
    4.2985992484916233E-03 
    1.6238923232514003E-06 
    5.9671099313524778E-01 
    6.0853250617883836E-01 
    6.2332523604370860E-01 
    6.3465373567300343E-01 
    6.4175670458067102E-01 
    6.4435340161006316E-01 
    6.4278547972575573E-01 
    6.3716349850529985E-01 
    6.2719949080657900E-01 
    6.1212623031194846E-01 
    5.9076486461482702E-01 
    5.6122004108081414E-01 
    5.0382142560325882E-01 
    3.2385457250501865E-01 
    3.3867465364212264E-02 
    8.6236465517869511E-05 
    5.4880969760375820E-01 
    5.6227259956178999E-01 
    5.7800344308624874E-01 
    5.9075415680079846E-01 
    6.0144251959485862E-01 
    6.0902705843399818E-01 
    6.1325392060171335E-01 
    6.1434013820599231E-01 
    6.1189290159693555E-01 
    6.0480643255684241E-01 
    5.9145952114383638E-01 
    5.7002296338869329E-01 
    5.2929050359834262E-01 
    4.0924246976826895E-01 
    9.4039428453451007E-02 
    2.8234051397664202E-04 
    4.6143656223635465E-01 
    4.9119312508590873E-01 
    5.2170511023215604E-01 
    5.4102383574795476E-01 
    5.5790558558655545E-01 
    5.7016309573533341E-01 
    5.7943763631425560E-01 
    5.8618912502129961E-01 
    5.9040552631594334E-01 
    5.9115690091136897E-01 
    5.8645559269673586E-01 
    5.7410011568709352E-01 
    5.4680211974625581E-01 
    4.6739928063568337E-01 
    1.9196559185622439E-01 
    2.8308516821842719E-03 
    1.3181284120132258E-01 
    2.5030570884298509E-01 
    3.7506553450727720E-01 
    4.4679734968074580E-01 
    4.8840116607603151E-01 
    5.1454494506463622E-01 
    5.3622693970985258E-01 
    5.4974727046290750E-01 
    5.6115726401344557E-01 
    5.6960663333245398E-01 
    5.7372712097074263E-01 
    5.7151236955012996E-01 
    5.5735293138818598E-01 
    5.0513956330211951E-01 
    3.1822539905383557E-01 
    5.5006080566239186E-02 
    1.0093254366951991E-06 
    1.4972054716834559E-03 
    4.5303110363174116E-02 
    1.4359607698001395E-01 
    2.5627723884516834E-01 
    3.7046876881727936E-01 
    4.3280384434007196E-01 
    4.7494627884012952E-01 
    5.0373811096553511E-01 
    5.2890731533421709E-01 
    5.4649085060052949E-01 
    5.5717456898053130E-01 
    5.5781010694827649E-01 
    5.3191981089083762E-01 
    4.1641327991095423E-01 
    1.7347319173699655E-01 
    1.0000000028351327E-06 
    1.0551323830662906E-06 
    8.3845202688046300E-05 
    2.6813550330990864E-04 
    9.3286363661935941E-03 
    5.2091624332475814E-02 
    1.2232620094833442E-01 
    2.1627742335491665E-01 
    3.2253108085443433E-01 
    4.0955410716543406E-01 
    4.6855384186516785E-01 
    5.0536126722632124E-01 
    5.3210432189194257E-01 
    5.3401702315644561E-01 
    4.7929703871116697E-01 
    2.7607629512244508E-01 
    9.9999999999999995E-07 
    1.0000000056152742E-06 
    1.0005167078462900E-06 
    1.0263684237320861E-06 
    4.8317815720702560E-06 
    1.2873413158318638E-04 
    2.5985961586489519E-04 
    3.6967265549484028E-03 
    3.5133435675644566E-02 
    9.4208034488228287E-02 
    1.9867317667641105E-01 
    3.2432924733619639E-01 
    4.1749563872177886E-01 
    4.7874104569396941E-01 
    4.9100456730704106E-01 
    3.6278883612232671E-01 
    9.9999999999999995E-07 
    9.9999999999999995E-07 
    9.9999999999999995E-07 
    1.0000000000460383E-06 
    1.0000008420969002E-06 
    1.0015489328322331E-06 
    1.0194386117488126E-06 
    1.4698316622182297E-06 
    1.0475826853704917E-04 
    3.0724829844266119E-04 
    4.2433171366448022E-03 
    5.0144795741177244E-02 
    1.7354707321133730E-01 
    2.7407049672073552E-01 
    3.6269001534318729E-01 
    3.6278568843985526E-01 
