# vtk DataFile Version 2.0
Pressure Field Data 
ASCII 
DATASET UNSTRUCTURED_GRID 

POINTS 289 double 

    0.0000000000000000E+00     0.0000000000000000E+00     0.0000000000000000E+00 
    1.0000000000000000E+00     0.0000000000000000E+00     0.0000000000000000E+00 
    1.0000000000000000E+00     1.0000000000000000E+00     0.0000000000000000E+00 
    0.0000000000000000E+00     1.0000000000000000E+00     0.0000000000000000E+00 
    6.2499999999872928E-02     0.0000000000000000E+00     0.0000000000000000E+00 
    1.2499999999977310E-01     0.0000000000000000E+00     0.0000000000000000E+00 
    1.8749999999959341E-01     0.0000000000000000E+00     0.0000000000000000E+00 
    2.4999999999941089E-01     0.0000000000000000E+00     0.0000000000000000E+00 
    3.1249999999922851E-01     0.0000000000000000E+00     0.0000000000000000E+00 
    3.7499999999904610E-01     0.0000000000000000E+00     0.0000000000000000E+00 
    4.3749999999886358E-01     0.0000000000000000E+00     0.0000000000000000E+00 
    4.9999999999869210E-01     0.0000000000000000E+00     0.0000000000000000E+00 
    5.6249999999884603E-01     0.0000000000000000E+00     0.0000000000000000E+00 
    6.2499999999901090E-01     0.0000000000000000E+00     0.0000000000000000E+00 
    6.8749999999917577E-01     0.0000000000000000E+00     0.0000000000000000E+00 
    7.4999999999934064E-01     0.0000000000000000E+00     0.0000000000000000E+00 
    8.1249999999950551E-01     0.0000000000000000E+00     0.0000000000000000E+00 
    8.7499999999967026E-01     0.0000000000000000E+00     0.0000000000000000E+00 
    9.3749999999983513E-01     0.0000000000000000E+00     0.0000000000000000E+00 
    1.0000000000000000E+00     6.2499999999872928E-02     0.0000000000000000E+00 
    1.0000000000000000E+00     1.2499999999977310E-01     0.0000000000000000E+00 
    1.0000000000000000E+00     1.8749999999959341E-01     0.0000000000000000E+00 
    1.0000000000000000E+00     2.4999999999941089E-01     0.0000000000000000E+00 
    1.0000000000000000E+00     3.1249999999922851E-01     0.0000000000000000E+00 
    1.0000000000000000E+00     3.7499999999904610E-01     0.0000000000000000E+00 
    1.0000000000000000E+00     4.3749999999886358E-01     0.0000000000000000E+00 
    1.0000000000000000E+00     4.9999999999869210E-01     0.0000000000000000E+00 
    1.0000000000000000E+00     5.6249999999884603E-01     0.0000000000000000E+00 
    1.0000000000000000E+00     6.2499999999901090E-01     0.0000000000000000E+00 
    1.0000000000000000E+00     6.8749999999917577E-01     0.0000000000000000E+00 
    1.0000000000000000E+00     7.4999999999934064E-01     0.0000000000000000E+00 
    1.0000000000000000E+00     8.1249999999950551E-01     0.0000000000000000E+00 
    1.0000000000000000E+00     8.7499999999967026E-01     0.0000000000000000E+00 
    1.0000000000000000E+00     9.3749999999983513E-01     0.0000000000000000E+00 
    9.3749999999973976E-01     1.0000000000000000E+00     0.0000000000000000E+00 
    8.7499999999950118E-01     1.0000000000000000E+00     0.0000000000000000E+00 
    8.1249999999991318E-01     1.0000000000000000E+00     0.0000000000000000E+00 
    7.5000000000034706E-01     1.0000000000000000E+00     0.0000000000000000E+00 
    6.8750000000078049E-01     1.0000000000000000E+00     0.0000000000000000E+00 
    6.2500000000121403E-01     1.0000000000000000E+00     0.0000000000000000E+00 
    5.6250000000164757E-01     1.0000000000000000E+00     0.0000000000000000E+00 
    5.0000000000205946E-01     1.0000000000000000E+00     0.0000000000000000E+00 
    4.3750000000182099E-01     1.0000000000000000E+00     0.0000000000000000E+00 
    3.7500000000156092E-01     1.0000000000000000E+00     0.0000000000000000E+00 
    3.1250000000130068E-01     1.0000000000000000E+00     0.0000000000000000E+00 
    2.5000000000104050E-01     1.0000000000000000E+00     0.0000000000000000E+00 
    1.8750000000078040E-01     1.0000000000000000E+00     0.0000000000000000E+00 
    1.2500000000052031E-01     1.0000000000000000E+00     0.0000000000000000E+00 
    6.2500000000260125E-02     1.0000000000000000E+00     0.0000000000000000E+00 
    0.0000000000000000E+00     9.3749999999973976E-01     0.0000000000000000E+00 
    0.0000000000000000E+00     8.7499999999950118E-01     0.0000000000000000E+00 
    0.0000000000000000E+00     8.1249999999991318E-01     0.0000000000000000E+00 
    0.0000000000000000E+00     7.5000000000034706E-01     0.0000000000000000E+00 
    0.0000000000000000E+00     6.8750000000078049E-01     0.0000000000000000E+00 
    0.0000000000000000E+00     6.2500000000121403E-01     0.0000000000000000E+00 
    0.0000000000000000E+00     5.6250000000164757E-01     0.0000000000000000E+00 
    0.0000000000000000E+00     5.0000000000205946E-01     0.0000000000000000E+00 
    0.0000000000000000E+00     4.3750000000182099E-01     0.0000000000000000E+00 
    0.0000000000000000E+00     3.7500000000156092E-01     0.0000000000000000E+00 
    0.0000000000000000E+00     3.1250000000130068E-01     0.0000000000000000E+00 
    0.0000000000000000E+00     2.5000000000104050E-01     0.0000000000000000E+00 
    0.0000000000000000E+00     1.8750000000078040E-01     0.0000000000000000E+00 
    0.0000000000000000E+00     1.2500000000052031E-01     0.0000000000000000E+00 
    0.0000000000000000E+00     6.2500000000260125E-02     0.0000000000000000E+00 
    6.2499999999897131E-02     6.2500000000235922E-02     0.0000000000000000E+00 
    6.2499999999921327E-02     1.2500000000047351E-01     0.0000000000000000E+00 
    6.2499999999945530E-02     1.8750000000070621E-01     0.0000000000000000E+00 
    6.2499999999969733E-02     2.5000000000093858E-01     0.0000000000000000E+00 
    6.2499999999993928E-02     3.1250000000117117E-01     0.0000000000000000E+00 
    6.2500000000018124E-02     3.7500000000140382E-01     0.0000000000000000E+00 
    6.2500000000042327E-02     4.3750000000163619E-01     0.0000000000000000E+00 
    6.2500000000066530E-02     5.0000000000184897E-01     0.0000000000000000E+00 
    6.2500000000090733E-02     5.6250000000147260E-01     0.0000000000000000E+00 
    6.2500000000114922E-02     6.2500000000107636E-01     0.0000000000000000E+00 
    6.2500000000139125E-02     6.8750000000068034E-01     0.0000000000000000E+00 
    6.2500000000163328E-02     7.5000000000028411E-01     0.0000000000000000E+00 
    6.2500000000187531E-02     8.1249999999988787E-01     0.0000000000000000E+00 
    6.2500000000211720E-02     8.7499999999951172E-01     0.0000000000000000E+00 
    6.2500000000235922E-02     9.3749999999974565E-01     0.0000000000000000E+00 
    1.2499999999981980E-01     6.2500000000211733E-02     0.0000000000000000E+00 
    1.2499999999986650E-01     1.2500000000042691E-01     0.0000000000000000E+00 
    1.2499999999991319E-01     1.8750000000063199E-01     0.0000000000000000E+00 
    1.2499999999995989E-01     2.5000000000083678E-01     0.0000000000000000E+00 
    1.2500000000000661E-01     3.1250000000104172E-01     0.0000000000000000E+00 
    1.2500000000005329E-01     3.7500000000124661E-01     0.0000000000000000E+00 
    1.2500000000010000E-01     4.3750000000145117E-01     0.0000000000000000E+00 
    1.2500000000014669E-01     5.0000000000163858E-01     0.0000000000000000E+00 
    1.2500000000019340E-01     5.6250000000129741E-01     0.0000000000000000E+00 
    1.2500000000024011E-01     6.2500000000093847E-01     0.0000000000000000E+00 
    1.2500000000028680E-01     6.8750000000057998E-01     0.0000000000000000E+00 
    1.2500000000033351E-01     7.5000000000022127E-01     0.0000000000000000E+00 
    1.2500000000038020E-01     8.1249999999986211E-01     0.0000000000000000E+00 
    1.2500000000042691E-01     8.7499999999952238E-01     0.0000000000000000E+00 
    1.2500000000047359E-01     9.3749999999975164E-01     0.0000000000000000E+00 
    1.8749999999966760E-01     6.2500000000187531E-02     0.0000000000000000E+00 
    1.8749999999974179E-01     1.2500000000038020E-01     0.0000000000000000E+00 
    1.8749999999981601E-01     1.8750000000055780E-01     0.0000000000000000E+00 
    1.8749999999989009E-01     2.5000000000073502E-01     0.0000000000000000E+00 
    1.8749999999996431E-01     3.1250000000091221E-01     0.0000000000000000E+00 
    1.8750000000003850E-01     3.7500000000108941E-01     0.0000000000000000E+00 
    1.8750000000011269E-01     4.3750000000126649E-01     0.0000000000000000E+00 
    1.8750000000018691E-01     5.0000000000142808E-01     0.0000000000000000E+00 
    1.8750000000026110E-01     5.6250000000112244E-01     0.0000000000000000E+00 
    1.8750000000033529E-01     6.2500000000080080E-01     0.0000000000000000E+00 
    1.8750000000040951E-01     6.8750000000047962E-01     0.0000000000000000E+00 
    1.8750000000048361E-01     7.5000000000015843E-01     0.0000000000000000E+00 
    1.8750000000055780E-01     8.1249999999983680E-01     0.0000000000000000E+00 
    1.8750000000063199E-01     8.7499999999953304E-01     0.0000000000000000E+00 
    1.8750000000070621E-01     9.3749999999975764E-01     0.0000000000000000E+00 
    2.4999999999951281E-01     6.2500000000163314E-02     0.0000000000000000E+00 
    2.4999999999961461E-01     1.2500000000033351E-01     0.0000000000000000E+00 
    2.4999999999971650E-01     1.8750000000048361E-01     0.0000000000000000E+00 
    2.4999999999981831E-01     2.5000000000063310E-01     0.0000000000000000E+00 
    2.4999999999992020E-01     3.1250000000078260E-01     0.0000000000000000E+00 
    2.5000000000002198E-01     3.7500000000093209E-01     0.0000000000000000E+00 
    2.5000000000012390E-01     4.3750000000108180E-01     0.0000000000000000E+00 
    2.5000000000022571E-01     5.0000000000121769E-01     0.0000000000000000E+00 
    2.5000000000032763E-01     5.6250000000094724E-01     0.0000000000000000E+00 
    2.5000000000042938E-01     6.2500000000066314E-01     0.0000000000000000E+00 
    2.5000000000053119E-01     6.8750000000037925E-01     0.0000000000000000E+00 
[...]
CELL_DATA 256 
SCALARS Pressure double 1 
LOOKUP_TABLE default 

    1.0124324527429889E+00 
    9.6109910559131784E-01 
    9.2705366640449649E-01 
    9.0008913279374936E-01 
    8.7643310006788544E-01 
    8.5534844491885786E-01 
    8.3678888794470219E-01 
    8.2068165965303586E-01 
    8.0634572759161882E-01 
    7.9133065759308252E-01 
    7.7780273689891766E-01 
    7.6872409515470508E-01 
    7.6281278297096533E-01 
    7.5938462175079358E-01 
    7.5778555807473946E-01 
    7.5735351839849707E-01 
    9.6111617678438632E-01 
    9.5043358442334980E-01 
    9.2802969384112421E-01 
    9.0457092074771372E-01 
    8.8190877083537711E-01 
    8.6081074453979345E-01 
    8.4175544318703299E-01 
    8.2499840543176128E-01 
    8.1023832779685856E-01 
    7.9546044507944536E-01 
    7.8074776602273599E-01 
    7.7029537237561962E-01 
    7.6339105840908728E-01 
    7.5929322344404959E-01 
    7.5735770270484748E-01 
    7.5692398806758054E-01 
    9.2707799625408127E-01 
    9.2804243430352984E-01 
    9.1716287233203153E-01 
    9.0019790295512747E-01 
    8.8084252369039040E-01 
    8.6121079910091591E-01 
    8.4256127643205225E-01 
    8.2565245790826314E-01 
    8.1064523120985987E-01 
    7.9630340805117383E-01 
    7.8112149840892942E-01 
    7.6943265770801228E-01 
    7.6184064052268630E-01 
    7.5738529150541767E-01 
    7.5543643887353851E-01 
    7.5533250301752664E-01 
    9.0010472034888067E-01 
    9.0458318545077432E-01 
    9.0020261649868849E-01 
    8.8900618700763356E-01 
    8.7367895216375679E-01 
    8.5642888159952701E-01 
    8.3892289328573155E-01 
    8.2235159407599412E-01 
    8.0733473915667053E-01 
    7.9342056673169725E-01 
    7.7840913271536349E-01 
    7.6557856044601447E-01 
    7.5754476836822648E-01 
    7.5300986950290061E-01 
    7.5135437423159279E-01 
    7.5190762487858498E-01 
    8.7642783323194162E-01 
    8.8190648172618213E-01 
    8.8084052043637318E-01 
    8.7367743548935506E-01 
    8.6185935800210778E-01 
    8.4710993536890811E-01 
    8.3106941816616575E-01 
    8.1512520043581449E-01 
    8.0023537582638593E-01 
    7.8653291600333697E-01 
    7.7207770635383322E-01 
    7.5838834426768198E-01 
    7.4995264783380844E-01 
    7.4553132939354783E-01 
    7.4443977155428220E-01 
    7.4596940821436042E-01 
    8.5531956151284128E-01 
    8.6078645230363060E-01 
    8.6119186838040551E-01 
    8.5641783246782044E-01 
    8.4710512791618386E-01 
    8.3441744499998560E-01 
    8.1972883680446473E-01 
    8.0439627668504454E-01 
    7.8956644158482736E-01 
    7.7581741616567135E-01 
    7.6194023315261583E-01 
    7.4766731187058821E-01 
    7.3854737355482936E-01 
    7.3431173459085097E-01 
    7.3400086766167238E-01 
    7.3681819105490520E-01 
    8.3673222560835814E-01 
    8.4170426560081490E-01 
    8.4251917761729800E-01 
    8.3889526018537319E-01 
    8.3105460832032441E-01 
    8.1972223902200370E-01 
    8.0594222383468062E-01 
    7.9090157547678896E-01 
    7.7580383245476681E-01 
    7.6158692842395470E-01 
    7.4784098143541844E-01 
    7.3299444841920613E-01 
    7.2271782981523292E-01 
    7.1864853094690195E-01 
    7.1928093428002660E-01 
    7.2369834816169987E-01 
    8.2059568123686466E-01 
    8.2491866830338201E-01 
    8.2558718853459045E-01 
    8.2230589868962733E-01 
    8.1509624421908611E-01 
    8.0437913519362159E-01 
    7.9089369299900525E-01 
    7.7560986901670492E-01 
    7.5968982341769042E-01 
    7.4431048749862339E-01 
    7.2974737614684260E-01 
    7.1387519887891238E-01 
    7.0189113004732795E-01 
    6.9776769617751067E-01 
    6.9940892748326933E-01 
    7.0574311582840621E-01 
    8.0624712316367364E-01 
    8.1014318499781779E-01 
    8.1056701704852296E-01 
    8.0727881047504746E-01 
    8.0019460902792205E-01 
    7.8953632487657632E-01 
    7.7578609747116967E-01 
    7.5968364604163530E-01 
    7.4227859083760239E-01 
    7.2484577803838024E-01 
    7.0816430940158714E-01 
    6.9040934228100292E-01 
    6.7584974786387542E-01 
    6.7088275153086629E-01 
    6.7335098763891921E-01 
    6.8190343111106588E-01 
    7.9124982665389998E-01 
    7.9538680768511649E-01 
    7.9624028511042622E-01 
    7.9336850845530549E-01 
    7.8648592315628130E-01 
    7.7577566557485944E-01 
    7.6155888254530235E-01 
    7.4430049541839927E-01 
    7.2484207421678115E-01 
    7.0443481133691110E-01 
    6.8421474485347944E-01 
    6.6311392516085010E-01 
    6.4450467174170389E-01 
    6.3708736081886419E-01 
    6.3977441667030177E-01 
    6.5079904720435600E-01 
    7.7773434038472744E-01 
    7.8068399487458895E-01 
    7.8106911631571119E-01 
    7.7836404004787041E-01 
    7.7203231713001164E-01 
    7.6189784393465487E-01 
    7.4780898725073375E-01 
    7.2973660566598775E-01 
    7.0815521768521095E-01 
    6.8419952331489831E-01 
    6.5915666902639214E-01 
    6.3239871922940960E-01 
    6.0762395961372417E-01 
    5.9522353019177365E-01 
    5.9681456970147395E-01 
    6.1042702143687477E-01 
    7.6865906553017027E-01 
    7.7022927237657590E-01 
    7.6936686350796779E-01 
    7.6551547355424054E-01 
    7.5833463118636535E-01 
    7.4761903460420809E-01 
    7.3295284848741649E-01 
    7.1383815291914143E-01 
    6.9035601330875829E-01 
    6.6303358025473513E-01 
    6.3233287560006424E-01 
    5.9831798369218936E-01 
    5.6536348962464067E-01 
    5.4453889892995833E-01 
    5.4197845348973372E-01 
    5.5767051128652878E-01 
    7.6275188443509623E-01 
    7.6332856574443120E-01 
    7.6177693516891032E-01 
    7.5748191898235817E-01 
    7.4989373495194867E-01 
    7.3849153658061140E-01 
    7.2266364333374089E-01 
    7.0183388561011140E-01 
    6.7578371831271666E-01 
    6.4441273050719394E-01 
    6.0753991489802039E-01 
    5.6532695840239389E-01 
    5.2156321746311607E-01 
    4.8679512229055105E-01 
    4.7255332481384732E-01 
    4.8734443021910129E-01 
    7.5932715568940234E-01 
    7.5923409558942756E-01 
    7.5732379908860559E-01 
    7.5294760633828162E-01 
    7.4547084706181510E-01 
    7.3425377197561437E-01 
    7.1859240416966841E-01 
    6.9771167114163013E-01 
    6.7082547108968649E-01 
    6.3702737562159939E-01 
    5.9517712820896962E-01 
    5.4452147118947103E-01 
    4.8679565447434986E-01 
    4.2885465845454201E-01 
    3.8717017391293845E-01 
    3.8969122663675165E-01 
    7.5773079650334274E-01 
    7.5730166476539229E-01 
    7.5537716524701692E-01 
    7.5129267598946492E-01 
    7.4437841133891824E-01 
    7.3394150986402984E-01 
    7.1922342740923328E-01 
    6.9935266085803183E-01 
    6.7329578847015981E-01 
    6.3972084184241396E-01 
    5.9676885288478854E-01 
    5.4194880523572797E-01 
    4.7253934204864828E-01 
    3.8716439872654679E-01 
    2.9356495346817402E-01 
    2.4377950412236105E-01 
    7.5730030662718928E-01 
    7.5687025514100703E-01 
    7.5527496097159330E-01 
    7.5184614934888228E-01 
    7.4590720122134846E-01 
    7.3675772208995782E-01 
    7.2363959596318017E-01 
    7.0568591985653051E-01 
    6.8184797766184690E-01 
    6.5074621604452720E-01 
    6.1038005235166037E-01 
    5.5763466595372035E-01 
    4.8732180628838906E-01 
    3.8967904602855197E-01 
    2.4377464316240258E-01 
    0.0000000000000000E+00 

SCALARS Saturarion double 1 
LOOKUP_TABLE default 

    1.0000000000000002E+00 
    9.6798737513140987E-01 
    9.1306432168895568E-01 
    8.1761725288508935E-01 
    7.3394515922115322E-01 
    6.6718288794746672E-01 
    6.1364442056638424E-01 
    5.6356080872369518E-01 
    4.8739018884833429E-01 
    2.0986640737226209E-01 
    5.3463767594278740E-05 
    1.0000001253873864E-06 
    1.0000000000000080E-06 
    9.9999999999999995E-07 
    9.9999999999999995E-07 
    9.9999999999999995E-07 
    9.6782967275134413E-01 
    9.4039815496440682E-01 
    8.9150597088255690E-01 
    8.1355048585310485E-01 
    7.3947941721270305E-01 
    6.7545339207651089E-01 
    6.2218281121176733E-01 
    5.7289273168283950E-01 
    5.0640164225581363E-01 
    3.1609997681638208E-01 
    8.7828054642587333E-03 
    2.5112852934921112E-06 
    1.0000003330519204E-06 
    9.9999999999999995E-07 
    9.9999999999999995E-07 
    9.9999999999999995E-07 
    9.1259093649003631E-01 
    8.9126992689351336E-01 
    8.4694485680571829E-01 
    7.9203297439880793E-01 
    7.3372362021426907E-01 
    6.7811847823848848E-01 
    6.2822912185321811E-01 
    5.8082128860209314E-01 
    5.2526856009626932E-01 
    4.0529913457749583E-01 
    7.0930092347765067E-02 
    1.1361999282056424E-04 
    1.0017526807342126E-06 
    9.9999999999999995E-07 
    9.9999999999999995E-07 
    9.9999999999999995E-07 
    8.1663610378005791E-01 
    8.1298566131575678E-01 
    7.9179085801750382E-01 
    7.5714818894721692E-01 
    7.1447095480454659E-01 
    6.6974404833883694E-01 
    6.2685318153834091E-01 
    5.8514445719040742E-01 
    5.3742325399295432E-01 
    4.5379996736320766E-01 
    1.7023948712313694E-01 
    3.0956182070319613E-04 
    1.0161495070190735E-06 
    1.0000000005442921E-06 
    9.9999999999999995E-07 
    9.9999999999999995E-07 
    7.3289596416764990E-01 
    7.3871577703982805E-01 
    7.3328193023048338E-01 
    7.1425694537716433E-01 
    6.8610066501466416E-01 
    6.5308150060482073E-01 
    6.1930373792242555E-01 
    5.8509992644411324E-01 
    5.4546762725544207E-01 
    4.8213246110965846E-01 
    2.7582114644665012E-01 
    8.2174012080913055E-03 
    3.9775644112260972E-06 
    1.0000009812691545E-06 
    9.9999999999999995E-07 
    9.9999999999999995E-07 
    6.6605345387171644E-01 
    6.7460113020868218E-01 
    6.7755070590896016E-01 
    6.6931594394411653E-01 
    6.5284812170770823E-01 
    6.3124013768794829E-01 
    6.0695146829397395E-01 
    5.8021961353792817E-01 
    5.4801482914006716E-01 
    4.9808004331587646E-01 
    3.6567571858628134E-01 
    4.4267358502765697E-02 
    5.5710208940447884E-05 
    1.0003601952157775E-06 
    9.9999999999999995E-07 
    9.9999999999999995E-07 
    6.1213188946868213E-01 
    6.2127181296677980E-01 
    6.2779248835328705E-01 
    6.2644640507973792E-01 
    6.1887039904712760E-01 
    6.0668647372265749E-01 
    5.9032622648336142E-01 
    5.6990871033810819E-01 
    5.4509951345442131E-01 
    5.0755768965807058E-01 
    4.1457256325337555E-01 
    1.1209133101299819E-01 
    8.9978336585003519E-05 
    1.0028403032850274E-06 
    1.0000000000097626E-06 
    9.9999999999999995E-07 
    5.6181223863944441E-01 
    5.7211343762123212E-01 
    5.8067408768901496E-01 
    5.8493338524090210E-01 
    5.8464222945177236E-01 
    5.7967966102301116E-01 
    5.6961900135791821E-01 
    5.5490296041190779E-01 
    5.3668906239316594E-01 
    5.1015689676176468E-01 
    4.4329882185891900E-01 
    1.9307284982080100E-01 
    8.8715873929408546E-04 
    1.0232744900913320E-06 
    1.0000000026780111E-06 
    9.9999999999999995E-07 
    4.8620732658437915E-01 
    5.0664115540424948E-01 
    5.2574749385276431E-01 
    5.3744650460531718E-01 
    5.4534876178538749E-01 
    5.4752816962985418E-01 
    5.4458050048243800E-01 
    5.3638082755753469E-01 
    5.2413488761070703E-01 
    5.0602294023063810E-01 
    4.5970857871192228E-01 
    2.7804757495147647E-01 
    6.8300813340487097E-03 
    2.2844529377571379E-06 
    1.0000002593995437E-06 
    9.9999999999999995E-07 
    2.0991968490654070E-01 
    3.1847957353235912E-01 
    4.0751496986411490E-01 
    4.5419646926058571E-01 
    4.8185467233096790E-01 
    4.9775065231194210E-01 
    5.0730770142399939E-01 
    5.0963365028871488E-01 
    5.0567552970291507E-01 
    4.9436031567300581E-01 
    4.6318389152762868E-01 
    3.4398784646038055E-01 
    3.4399467453698769E-02 
    1.3742823224570194E-05 
    1.0000044853330654E-06 
    1.0000000000001128E-06 
    5.1914104135048489E-05 
    9.6817002839012997E-03 
    7.5153121675668386E-02 
    1.6934090975150404E-01 
    2.7534094671377596E-01 
    3.6618262382551270E-01 
    4.1516569100376066E-01 
    4.4315513143403767E-01 
    4.5886302755022507E-01 
    4.6263147321104409E-01 
    4.4949167589889832E-01 
    3.7095018502610050E-01 
    7.3167321918135131E-02 
    4.4207522961863962E-06 
    1.0000027729484021E-06 
    1.0000000000000254E-06 
    1.0000001337128247E-06 
    2.9204329586139904E-06 
    1.3163468644977592E-04 
    2.8180437524365605E-04 
    8.5017476013323229E-03 
    4.4428788643142272E-02 
    1.1456808378455335E-01 
    1.9197366976614083E-01 
    2.7362756277363537E-01 
    3.4148901230972373E-01 
    3.6979646024494661E-01 
    3.2561138568137821E-01 
    5.8981119683560353E-02 
    9.0696175202580322E-05 
    1.0002872266954329E-06 
    1.0000000000102893E-06 
    1.0000000000000086E-06 
    1.0000004631848118E-06 
    1.0024708167322792E-06 
    1.0128634561260252E-06 
    4.2491166350021980E-06 
    5.3903414612189594E-05 
    9.4795516604269321E-05 
    7.4255044711039593E-04 
    6.2820113109959257E-03 
    3.2830792252029596E-02 
    7.1063665406417814E-02 
    5.7570095902422673E-02 
    1.7706414770015055E-03 
    1.0253283056392636E-06 
    1.0000000014049451E-06 
    9.9999999999999995E-07 
    9.9999999999999995E-07 
    9.9999999999999995E-07 
    1.0000000000000002E-06 
    1.0000000004539783E-06 
    1.0000011194708911E-06 
    1.0003376055672712E-06 
    1.0027802296669132E-06 
    1.0161020927089431E-06 
    2.1513041390420496E-06 
    1.2912441291100381E-05 
    4.4137486110096350E-06 
    8.4344354097306317E-05 
    1.0238721906399728E-06 
    1.0000000064353171E-06 
    1.0000000000000014E-06 
    9.9999999999999995E-07 
    9.9999999999999995E-07 
    9.9999999999999995E-07 
    9.9999999999999995E-07 
    9.9999999999999995E-07 
    9.9999999999999995E-07 
    9.9999999999999995E-07 
    1.0000000000362835E-06 
    1.0000000017829226E-06 
    1.0000002226979656E-06 
    1.0000039289341217E-06 
    1.0000025625612452E-06 
    1.0002468738381188E-06 
    1.0000000011920616E-06 
    1.0000000000000012E-06 
    9.9999999999999995E-07 
    9.9999999999999995E-07 
    9.9999999999999995E-07 
    9.9999999999999995E-07 
    9.9999999999999995E-07 
    9.9999999999999995E-07 
    9.9999999999999995E-07 
    9.9999999999999995E-07 
    9.9999999999999995E-07 
    9.9999999999999995E-07 
    9.9999999999999995E-07 
    1.0000000000000984E-06 
    1.0000000000000218E-06 
    1.0000000000087983E-06 
    9.9999999999999995E-07 
    9.9999999999999995E-07 
    9.9999999999999995E-07 
    1.0000003416689985E-06 
