# vtk DataFile Version 2.0
Pressure Field Data 
ASCII 
DATASET UNSTRUCTURED_GRID 

POINTS 289 double 

    0.0000000000000000E+00     0.0000000000000000E+00     0.0000000000000000E+00 
    1.0000000000000000E+00     0.0000000000000000E+00     0.0000000000000000E+00 
    1.0000000000000000E+00     1.0000000000000000E+00     0.0000000000000000E+00 
    0.0000000000000000E+00     1.0000000000000000E+00     0.0000000000000000E+00 
    6.2499999999872928E-02     0.0000000000000000E+00     0.0000000000000000E+00 
    1.2499999999977310E-01     0.0000000000000000E+00     0.0000000000000000E+00 
    1.8749999999959341E-01     0.0000000000000000E+00     0.0000000000000000E+00 
    2.4999999999941089E-01     0.0000000000000000E+00     0.0000000000000000E+00 
    3.1249999999922851E-01     0.0000000000000000E+00     0.0000000000000000E+00 
    3.7499999999904610E-01     0.0000000000000000E+00     0.0000000000000000E+00 
    4.3749999999886358E-01     0.0000000000000000E+00     0.0000000000000000E+00 
    4.9999999999869210E-01     0.0000000000000000E+00     0.0000000000000000E+00 
    5.6249999999884603E-01     0.0000000000000000E+00     0.0000000000000000E+00 
    6.2499999999901090E-01     0.0000000000000000E+00     0.0000000000000000E+00 
    6.8749999999917577E-01     0.0000000000000000E+00     0.0000000000000000E+00 
    7.4999999999934064E-01     0.0000000000000000E+00     0.0000000000000000E+00 
    8.1249999999950551E-01     0.0000000000000000E+00     0.0000000000000000E+00 
    8.7499999999967026E-01     0.0000000000000000E+00     0.0000000000000000E+00 
    9.3749999999983513E-01     0.0000000000000000E+00     0.0000000000000000E+00 
    1.0000000000000000E+00     6.2499999999872928E-02     0.0000000000000000E+00 
    1.0000000000000000E+00     1.2499999999977310E-01     0.0000000000000000E+00 
    1.0000000000000000E+00     1.8749999999959341E-01     0.0000000000000000E+00 
    1.0000000000000000E+00     2.4999999999941089E-01     0.0000000000000000E+00 
    1.0000000000000000E+00     3.1249999999922851E-01     0.0000000000000000E+00 
    1.0000000000000000E+00     3.7499999999904610E-01     0.0000000000000000E+00 
    1.0000000000000000E+00     4.3749999999886358E-01     0.0000000000000000E+00 
    1.0000000000000000E+00     4.9999999999869210E-01     0.0000000000000000E+00 
    1.0000000000000000E+00     5.6249999999884603E-01     0.0000000000000000E+00 
    1.0000000000000000E+00     6.2499999999901090E-01     0.0000000000000000E+00 
    1.0000000000000000E+00     6.8749999999917577E-01     0.0000000000000000E+00 
    1.0000000000000000E+00     7.4999999999934064E-01     0.0000000000000000E+00 
    1.0000000000000000E+00     8.1249999999950551E-01     0.0000000000000000E+00 
    1.0000000000000000E+00     8.7499999999967026E-01     0.0000000000000000E+00 
    1.0000000000000000E+00     9.3749999999983513E-01     0.0000000000000000E+00 
    9.3749999999973976E-01     1.0000000000000000E+00     0.0000000000000000E+00 
    8.7499999999950118E-01     1.0000000000000000E+00     0.0000000000000000E+00 
    8.1249999999991318E-01     1.0000000000000000E+00     0.0000000000000000E+00 
    7.5000000000034706E-01     1.0000000000000000E+00     0.0000000000000000E+00 
    6.8750000000078049E-01     1.0000000000000000E+00     0.0000000000000000E+00 
    6.2500000000121403E-01     1.0000000000000000E+00     0.0000000000000000E+00 
    5.6250000000164757E-01     1.0000000000000000E+00     0.0000000000000000E+00 
    5.0000000000205946E-01     1.0000000000000000E+00     0.0000000000000000E+00 
    4.3750000000182099E-01     1.0000000000000000E+00     0.0000000000000000E+00 
    3.7500000000156092E-01     1.0000000000000000E+00     0.0000000000000000E+00 
    3.1250000000130068E-01     1.0000000000000000E+00     0.0000000000000000E+00 
    2.5000000000104050E-01     1.0000000000000000E+00     0.0000000000000000E+00 
    1.8750000000078040E-01     1.0000000000000000E+00     0.0000000000000000E+00 
    1.2500000000052031E-01     1.0000000000000000E+00     0.0000000000000000E+00 
    6.2500000000260125E-02     1.0000000000000000E+00     0.0000000000000000E+00 
    0.0000000000000000E+00     9.3749999999973976E-01     0.0000000000000000E+00 
    0.0000000000000000E+00     8.7499999999950118E-01     0.0000000000000000E+00 
    0.0000000000000000E+00     8.1249999999991318E-01     0.0000000000000000E+00 
    0.0000000000000000E+00     7.5000000000034706E-01     0.0000000000000000E+00 
    0.0000000000000000E+00     6.8750000000078049E-01     0.0000000000000000E+00 
    0.0000000000000000E+00     6.2500000000121403E-01     0.0000000000000000E+00 
    0.0000000000000000E+00     5.6250000000164757E-01     0.0000000000000000E+00 
    0.0000000000000000E+00     5.0000000000205946E-01     0.0000000000000000E+00 
    0.0000000000000000E+00     4.3750000000182099E-01     0.0000000000000000E+00 
    0.0000000000000000E+00     3.7500000000156092E-01     0.0000000000000000E+00 
    0.0000000000000000E+00     3.1250000000130068E-01     0.0000000000000000E+00 
    0.0000000000000000E+00     2.5000000000104050E-01     0.0000000000000000E+00 
    0.0000000000000000E+00     1.8750000000078040E-01     0.0000000000000000E+00 
    0.0000000000000000E+00     1.2500000000052031E-01     0.0000000000000000E+00 
    0.0000000000000000E+00     6.2500000000260125E-02     0.0000000000000000E+00 
    6.2499999999897131E-02     6.2500000000235922E-02     0.0000000000000000E+00 
    6.2499999999921327E-02     1.2500000000047351E-01     0.0000000000000000E+00 
    6.2499999999945530E-02     1.8750000000070621E-01     0.0000000000000000E+00 
    6.2499999999969733E-02     2.5000000000093858E-01     0.0000000000000000E+00 
    6.2499999999993928E-02     3.1250000000117117E-01     0.0000000000000000E+00 
    6.2500000000018124E-02     3.7500000000140382E-01     0.0000000000000000E+00 
    6.2500000000042327E-02     4.3750000000163619E-01     0.0000000000000000E+00 
    6.2500000000066530E-02     5.0000000000184897E-01     0.0000000000000000E+00 
    6.2500000000090733E-02     5.6250000000147260E-01     0.0000000000000000E+00 
    6.2500000000114922E-02     6.2500000000107636E-01     0.0000000000000000E+00 
    6.2500000000139125E-02     6.8750000000068034E-01     0.0000000000000000E+00 
    6.2500000000163328E-02     7.5000000000028411E-01     0.0000000000000000E+00 
    6.2500000000187531E-02     8.1249999999988787E-01     0.0000000000000000E+00 
    6.2500000000211720E-02     8.7499999999951172E-01     0.0000000000000000E+00 
    6.2500000000235922E-02     9.3749999999974565E-01     0.0000000000000000E+00 
    1.2499999999981980E-01     6.2500000000211733E-02     0.0000000000000000E+00 
    1.2499999999986650E-01     1.2500000000042691E-01     0.0000000000000000E+00 
    1.2499999999991319E-01     1.8750000000063199E-01     0.0000000000000000E+00 
    1.2499999999995989E-01     2.5000000000083678E-01     0.0000000000000000E+00 
    1.2500000000000661E-01     3.1250000000104172E-01     0.0000000000000000E+00 
    1.2500000000005329E-01     3.7500000000124661E-01     0.0000000000000000E+00 
    1.2500000000010000E-01     4.3750000000145117E-01     0.0000000000000000E+00 
    1.2500000000014669E-01     5.0000000000163858E-01     0.0000000000000000E+00 
    1.2500000000019340E-01     5.6250000000129741E-01     0.0000000000000000E+00 
    1.2500000000024011E-01     6.2500000000093847E-01     0.0000000000000000E+00 
    1.2500000000028680E-01     6.8750000000057998E-01     0.0000000000000000E+00 
    1.2500000000033351E-01     7.5000000000022127E-01     0.0000000000000000E+00 
    1.2500000000038020E-01     8.1249999999986211E-01     0.0000000000000000E+00 
    1.2500000000042691E-01     8.7499999999952238E-01     0.0000000000000000E+00 
    1.2500000000047359E-01     9.3749999999975164E-01     0.0000000000000000E+00 
    1.8749999999966760E-01     6.2500000000187531E-02     0.0000000000000000E+00 
    1.8749999999974179E-01     1.2500000000038020E-01     0.0000000000000000E+00 
    1.8749999999981601E-01     1.8750000000055780E-01     0.0000000000000000E+00 
    1.8749999999989009E-01     2.5000000000073502E-01     0.0000000000000000E+00 
    1.8749999999996431E-01     3.1250000000091221E-01     0.0000000000000000E+00 
    1.8750000000003850E-01     3.7500000000108941E-01     0.0000000000000000E+00 
    1.8750000000011269E-01     4.3750000000126649E-01     0.0000000000000000E+00 
    1.8750000000018691E-01     5.0000000000142808E-01     0.0000000000000000E+00 
    1.8750000000026110E-01     5.6250000000112244E-01     0.0000000000000000E+00 
    1.8750000000033529E-01     6.2500000000080080E-01     0.0000000000000000E+00 
    1.8750000000040951E-01     6.8750000000047962E-01     0.0000000000000000E+00 
    1.8750000000048361E-01     7.5000000000015843E-01     0.0000000000000000E+00 
    1.8750000000055780E-01     8.1249999999983680E-01     0.0000000000000000E+00 
    1.8750000000063199E-01     8.7499999999953304E-01     0.0000000000000000E+00 
    1.8750000000070621E-01     9.3749999999975764E-01     0.0000000000000000E+00 
    2.4999999999951281E-01     6.2500000000163314E-02     0.0000000000000000E+00 
    2.4999999999961461E-01     1.2500000000033351E-01     0.0000000000000000E+00 
    2.4999999999971650E-01     1.8750000000048361E-01     0.0000000000000000E+00 
    2.4999999999981831E-01     2.5000000000063310E-01     0.0000000000000000E+00 
    2.4999999999992020E-01     3.1250000000078260E-01     0.0000000000000000E+00 
    2.5000000000002198E-01     3.7500000000093209E-01     0.0000000000000000E+00 
    2.5000000000012390E-01     4.3750000000108180E-01     0.0000000000000000E+00 
    2.5000000000022571E-01     5.0000000000121769E-01     0.0000000000000000E+00 
    2.5000000000032763E-01     5.6250000000094724E-01     0.0000000000000000E+00 
    2.5000000000042938E-01     6.2500000000066314E-01     0.0000000000000000E+00 
    2.5000000000053119E-01     6.8750000000037925E-01     0.0000000000000000E+00 
[...]
CELL_DATA 256 
SCALARS Pressure double 1 
LOOKUP_TABLE default 

    1.0598078571714751E+00 
    1.0076222256425942E+00 
    9.7179046342300002E-01 
    9.4210722135729597E-01 
    9.1519245796391613E-01 
    8.9095039072484772E-01 
    8.6928566900314375E-01 
    8.4904552427205393E-01 
    8.2670412765056445E-01 
    8.0643092344535694E-01 
    7.9231867953388158E-01 
    7.8240154779230175E-01 
    7.7592354891714199E-01 
    7.7216819065343167E-01 
    7.7041509331888969E-01 
    7.6993990263090295E-01 
    1.0076446571915316E+00 
    9.9672108290321648E-01 
    9.7299991751024562E-01 
    9.4723326439799194E-01 
    9.2158545311775331E-01 
    8.9745475470506109E-01 
    8.7547667730049006E-01 
    8.5515442398800146E-01 
    8.3328725563328054E-01 
    8.1138162296871419E-01 
    7.9546653597607653E-01 
    7.8412145083708651E-01 
    7.7655550951325103E-01 
    7.7206964091523023E-01 
    7.6994916526769930E-01 
    7.6947083888117818E-01 
    9.7181987623941213E-01 
    9.7301505427825230E-01 
    9.6130899017518923E-01 
    9.4251556429414773E-01 
    9.2059523568953050E-01 
    8.9817719850485922E-01 
    8.7679189037451721E-01 
    8.5670597409890914E-01 
    8.3566383507912734E-01 
    8.1297248958384905E-01 
    7.9552357605139234E-01 
    7.8313558266643934E-01 
    7.7483993451280098E-01 
    7.6997935451738742E-01 
    7.6785288510161298E-01 
    7.6773752347290436E-01 
    9.4211729481955409E-01 
    9.4724192349780278E-01 
    9.4251704284685722E-01 
    9.3002149353096031E-01 
    9.1263389667870620E-01 
    8.9296386220727142E-01 
    8.7297873957155203E-01 
    8.5358878964091689E-01 
    8.3359945745847108E-01 
    8.1080440374984963E-01 
    7.9187228805987431E-01 
    7.7877579071514380E-01 
    7.7007473558040973E-01 
    7.6517365936010984E-01 
    7.6339217415200356E-01 
    7.6400358386371003E-01 
    9.1516158818145554E-01 
    9.2156359040457936E-01 
    9.2057992915442632E-01 
    9.1262625368276495E-01 
    8.9928148749976100E-01 
    8.8256471000615855E-01 
    8.6435840137145348E-01 
    8.4592050432320998E-01 
    8.2688912650986146E-01 
    8.0427189520934539E-01 
    7.8400406763511987E-01 
    7.7044871213046284E-01 
    7.6159501999965740E-01 
    7.5694028445056716E-01 
    7.5582987577601057E-01 
    7.5752292163585977E-01 
    8.9087843658416577E-01 
    8.9739248670188210E-01 
    8.9813048675475449E-01 
    8.9293735753190862E-01 
    8.8255301187050250E-01 
    8.6832174757181690E-01 
    8.5175254517412180E-01 
    8.3415384120606872E-01 
    8.1568920625610397E-01 
    7.9308871979387974E-01 
    7.7167381241801103E-01 
    7.5769085080895049E-01 
    7.4879273626317933E-01 
    7.4458223384254596E-01 
    7.4442702422323226E-01 
    7.4754737148665329E-01 
    8.6918002370562519E-01 
    8.7537658249739081E-01 
    8.7670996327378714E-01 
    8.7292511366580616E-01 
    8.6432782337245939E-01 
    8.5173696950632427E-01 
    8.3624697009885263E-01 
    8.1901771190629402E-01 
    8.0038446112988504E-01 
    7.7729790500907114E-01 
    7.5478462817402914E-01 
    7.4016402881230359E-01 
    7.3111679446922007E-01 
    7.2740260224493092E-01 
    7.2841829827987581E-01 
    7.3330533604364245E-01 
    8.4892228853377638E-01 
    8.5503350424528746E-01 
    8.5660307031232985E-01 
    8.5351545910262416E-01 
    8.4587115340302932E-01 
    8.3412013576306732E-01 
    8.1899705308179072E-01 
    8.0141241488539383E-01 
    7.8131273994135786E-01 
    7.5698253183907627E-01 
    7.3331909987586852E-01 
    7.1765585612208072E-01 
    7.0807512817683571E-01 
    7.0467991044763845E-01 
    7.0696400381700086E-01 
    7.1394350641236481E-01 
    8.2659811246136783E-01 
    8.3319110951575370E-01 
    8.3558443859487985E-01 
    8.3353292198017237E-01 
    8.2683131091039741E-01 
    8.1563523023760376E-01 
    8.0033392837445716E-01 
    7.8127609050895908E-01 
    7.5853944748923663E-01 
    7.3250642052135972E-01 
    7.0774197802338434E-01 
    6.9025877234450250E-01 
    6.7930788124433461E-01 
    6.7565790841913165E-01 
    6.7908834729977297E-01 
    6.8846216946072725E-01 
    8.0635185554437216E-01 
    8.1130698584445027E-01 
    8.1291236830973945E-01 
    8.1075462538524956E-01 
    8.0421737217417233E-01 
    7.9302409374403837E-01 
    7.7722734263487370E-01 
    7.5691916420357963E-01 
    7.3247633282849722E-01 
    7.0537063814339396E-01 
    6.7945423839366637E-01 
    6.5869167367622683E-01 
    6.4477445928022492E-01 
    6.3957495546819576E-01 
    6.4358210310040220E-01 
    6.5558307963716456E-01 
    7.9225053462482120E-01 
    7.9539552288086446E-01 
    7.9545206153278203E-01 
    7.9180313677969849E-01 
    7.8394090947482753E-01 
    7.7161281451502262E-01 
    7.5472205775608292E-01 
    7.3326233104751781E-01 
    7.0770710259239422E-01 
    6.7944279251736295E-01 
    6.5068180507619333E-01 
    6.2457719216488505E-01 
    6.0507101304926769E-01 
    5.9578414854469164E-01 
    5.9885495851758064E-01 
    6.1349651500805458E-01 
    7.8234209751421724E-01 
    7.8405739932776453E-01 
    7.8306744164895381E-01 
    7.7870781453614002E-01 
    7.7038496461676764E-01 
    7.5763110619318375E-01 
    7.4010681537258716E-01 
    7.1760378423092708E-01 
    6.9021877144478216E-01 
    6.5866757050481195E-01 
    6.2456624870146082E-01 
    5.9082647268394706E-01 
    5.6203656989158524E-01 
    5.4415583809311430E-01 
    5.4276386305229496E-01 
    5.5933844206309824E-01 
    7.7587239418541665E-01 
    7.7649903777566109E-01 
    7.7477700093234203E-01 
    7.7000927327177293E-01 
    7.6153180419713828E-01 
    7.4873331505003959E-01 
    7.3106104175388820E-01 
    7.0802428427011244E-01 
    6.7926535975960944E-01 
    6.4474336638193708E-01 
    6.0505155399461219E-01 
    5.6202760721080935E-01 
    5.1983362684505585E-01 
    4.8627231003480964E-01 
    4.7268417501429832E-01 
    4.8807364085845450E-01 
    7.7212536713732516E-01 
    7.7202156370430064E-01 
    7.6992256438181261E-01 
    7.6511086919449212E-01 
    7.5687729982890617E-01 
    7.4452236887144974E-01 
    7.2734648962518500E-01 
    7.0462842078652843E-01 
    6.7561321302026267E-01 
    6.3953943215775211E-01 
    5.9575857167706980E-01 
    5.4413980448498833E-01 
    4.8626484654516428E-01 
    4.2840192303919605E-01 
    3.8704644497165264E-01 
    3.8990520496369518E-01 
    7.7037962751095601E-01 
    7.6990980181780133E-01 
    7.6780300291899950E-01 
    7.6333201542285078E-01 
    7.5576647276177322E-01 
    7.4436608444969576E-01 
    7.2836084699998349E-01 
    7.0691083421547096E-01 
    6.7904128016918019E-01 
    6.4354317784689730E-01 
    5.9882478046577980E-01 
    5.4274227976011269E-01 
    4.7267066131054120E-01 
    3.8704028136164914E-01 
    2.9345580570294455E-01 
    2.4379519548293288E-01 
    7.6990889130698648E-01 
    7.6943844013190066E-01 
    7.6769358471063220E-01 
    7.6394515096613469E-01 
    7.5745821339471364E-01 
    7.4748494934694198E-01 
    7.3324584331190545E-01 
    7.1388791923287032E-01 
    6.8841226204945050E-01 
    6.5554094054434453E-01 
    6.1346238095084815E-01 
    5.5931226855032257E-01 
    4.8805523326004002E-01 
    3.8989421967760141E-01 
    2.4379064900810044E-01 
    0.0000000000000000E+00 

SCALARS Saturarion double 1 
LOOKUP_TABLE default 

    1.0000000000000004E+00 
    9.5800681563704604E-01 
    8.8538085584941295E-01 
    7.7181857912593377E-01 
    6.8659742595691609E-01 
    6.2408824058045964E-01 
    5.6915331755849929E-01 
    4.8446030913715493E-01 
    1.8441435005262319E-01 
    5.2311858500264055E-06 
    1.0000000105604008E-06 
    1.0000000000000002E-06 
    9.9999999999999995E-07 
    9.9999999999999995E-07 
    9.9999999999999995E-07 
    9.9999999999999995E-07 
    9.5778649460496545E-01 
    9.2224582088583262E-01 
    8.5843100088130087E-01 
    7.6839489149660856E-01 
    6.9121050612373380E-01 
    6.3061861121328233E-01 
    5.7632975344018511E-01 
    5.0200200594209521E-01 
    2.8056014840025045E-01 
    3.3405949674730623E-03 
    1.1930295733208161E-06 
    1.0000000274952605E-06 
    9.9999999999999995E-07 
    9.9999999999999995E-07 
    9.9999999999999995E-07 
    9.9999999999999995E-07 
    8.8472984165947832E-01 
    8.5810500649289612E-01 
    8.0648728705946848E-01 
    7.4454636133082286E-01 
    6.8324301349045602E-01 
    6.2980882979604591E-01 
    5.8001504501887757E-01 
    5.1863153879973545E-01 
    3.7261879716754981E-01 
    3.6537199248293240E-02 
    3.0009563831273371E-05 
    1.0000834235753612E-06 
    9.9999999999999974E-07 
    9.9999999999999995E-07 
    9.9999999999999995E-07 
    9.9999999999999995E-07 
    7.7048657880986360E-01 
    7.6760253993311356E-01 
    7.4423387525796103E-01 
    7.0609863738401468E-01 
    6.6171204716817489E-01 
    6.1952442362310756E-01 
    5.7901522487810775E-01 
    5.2767197135700539E-01 
    4.2503603002283613E-01 
    9.9262938584639124E-02 
    7.1044614112838686E-05 
    1.0008273679736049E-06 
    1.0000000000460576E-06 
    9.9999999999999995E-07 
    9.9999999999999995E-07 
    9.9999999999999995E-07 
    6.8519345009730648E-01 
    6.9017116441652493E-01 
    6.8269837409206968E-01 
    6.6148884585345080E-01 
    6.3329356655212055E-01 
    6.0362698011164839E-01 
    5.7195844994231815E-01 
    5.3100274553866300E-01 
    4.5093008617753905E-01 
    1.6884470229493914E-01 
    1.3044975494391810E-04 
    1.0005030951904732E-06 
    1.0000000000889964E-06 
    9.9999999999999995E-07 
    9.9999999999999995E-07 
    9.9999999999999995E-07 
    6.2269760420031084E-01 
    6.2963147268313380E-01 
    6.2916913527263696E-01 
    6.1901928759932712E-01 
    6.0330182627843731E-01 
    5.8294838154138051E-01 
    5.5766325646588211E-01 
    5.2602329618461985E-01 
    4.6382147647349342E-01 
    2.2142383217921344E-01 
    4.5968470403391442E-04 
    1.0026233815978402E-06 
    1.0000000001220794E-06 
    9.9999999999999995E-07 
    9.9999999999999995E-07 
    9.9999999999999995E-07 
    5.6756159165547992E-01 
    5.7568960198049124E-01 
    5.7970136145811213E-01 
    5.7853762087888638E-01 
    5.7134723438213919E-01 
    5.5734350356638274E-01 
    5.3768501870600205E-01 
    5.1283861512314821E-01 
    4.6170792755637607E-01 
    2.3899386116594937E-01 
    7.1423230284407336E-04 
    1.0013441898720193E-06 
    1.0000000003698203E-06 
    9.9999999999999974E-07 
    9.9999999999999995E-07 
    9.9999999999999995E-07 
    4.8284745710300381E-01 
    5.0224564161448193E-01 
    5.1901964645137477E-01 
    5.2771026018946099E-01 
    5.3050184937774947E-01 
    5.2539317045693901E-01 
    5.1254437929499697E-01 
    4.9159044513916267E-01 
    4.4310931188617092E-01 
    2.1246551916613740E-01 
    4.9176252610433617E-04 
    1.0067736412087013E-06 
    1.0000000010069741E-06 
    9.9999999999999995E-07 
    9.9999999999999995E-07 
    9.9999999999999995E-07 
    1.8334086102366062E-01 
    2.8269648431557215E-01 
    3.7525982259311613E-01 
    4.2600169231259438E-01 
    4.5062766216377054E-01 
    4.6323324682022216E-01 
    4.6080066317352375E-01 
    4.4280788784502462E-01 
    3.7865873121060578E-01 
    1.1597376118870789E-01 
    2.3472643944134514E-04 
    1.0134405647578786E-06 
    1.0000000006844494E-06 
    1.0000000000000002E-06 
    9.9999999999999995E-07 
    9.9999999999999995E-07 
    4.9739560623735773E-06 
    3.6116648939398606E-03 
    3.8734458859342118E-02 
    1.0039439466677483E-01 
    1.6852592905212480E-01 
    2.1966441089195693E-01 
    2.3669410589553380E-01 
    2.1040135165503618E-01 
    1.1482753529329597E-01 
    4.5752962657307841E-03 
    1.2520307593509409E-06 
    1.0000000322068531E-06 
    1.0000000000000055E-06 
    9.9999999999999995E-07 
    9.9999999999999995E-07 
    9.9999999999999995E-07 
    1.0000000116026208E-06 
    1.2336875775496559E-06 
    3.2553577018489974E-05 
    6.4461902055216972E-05 
    1.2226679997461647E-04 
    4.1980962481223103E-04 
    6.4433672953961288E-04 
    4.4928598571346940E-04 
    2.3131912679951621E-04 
    1.2490931011319088E-06 
    1.0000000842527687E-06 
    1.0000000000000298E-06 
    9.9999999999999995E-07 
    9.9999999999999995E-07 
    9.9999999999999995E-07 
    9.9999999999999995E-07 
    1.0000000000000006E-06 
    1.0000000339907556E-06 
    1.0000995023129357E-06 
    1.0006918815957745E-06 
    1.0004192479241255E-06 
    1.0021004304851711E-06 
    1.0010416176372687E-06 
    1.0058910161234226E-06 
    1.0128369906616138E-06 
    1.0000000317436968E-06 
    1.0000000000000288E-06 
    9.9999999999999995E-07 
    9.9999999999999995E-07 
    9.9999999999999995E-07 
    9.9999999999999995E-07 
    9.9999999999999995E-07 
    9.9999999999999995E-07 
    9.9999999999999995E-07 
    9.9999999999999974E-07 
    1.0000000000390272E-06 
    1.0000000000732855E-06 
    1.0000000000950555E-06 
    1.0000000003171244E-06 
    1.0000000010005568E-06 
    1.0000000006825766E-06 
    1.0000000000000050E-06 
    9.9999999999999995E-07 
    9.9999999999999995E-07 
    9.9999999999999995E-07 
    9.9999999999999995E-07 
    9.9999999999999995E-07 
    9.9999999999999995E-07 
    9.9999999999999995E-07 
    9.9999999999999995E-07 
    9.9999999999999995E-07 
    9.9999999999999995E-07 
    9.9999999999999995E-07 
    9.9999999999999995E-07 
    9.9999999999999995E-07 
    9.9999999999999995E-07 
    9.9999999999999995E-07 
    9.9999999999999995E-07 
    9.9999999999999995E-07 
    9.9999999999999995E-07 
    9.9999999999999995E-07 
    9.9999999999999995E-07 
    9.9999999999999995E-07 
    9.9999999999999995E-07 
    9.9999999999999995E-07 
    9.9999999999999995E-07 
    9.9999999999999995E-07 
    9.9999999999999995E-07 
    9.9999999999999995E-07 
    9.9999999999999995E-07 
    9.9999999999999995E-07 
    9.9999999999999995E-07 
    9.9999999999999995E-07 
    9.9999999999999995E-07 
    9.9999999999999995E-07 
    9.9999999999999995E-07 
    9.9999999999999995E-07 
    9.9999999999999995E-07 
    9.9999999999999995E-07 
    9.9999999999999995E-07 
    9.9999999999999995E-07 
    9.9999999999999995E-07 
    9.9999999999999995E-07 
    9.9999999999999995E-07 
    9.9999999999999995E-07 
    9.9999999999999995E-07 
    9.9999999999999995E-07 
    9.9999999999999995E-07 
    9.9999999999999995E-07 
    9.9999999999999995E-07 
    9.9999999999999995E-07 
    9.9999999999999995E-07 
    9.9999999999999995E-07 
    9.9999999999999995E-07 
    9.9999999999999995E-07 
    1.0000002404968185E-06 
