# vtk DataFile Version 2.0
Pressure Field Data 
ASCII 
DATASET UNSTRUCTURED_GRID 

POINTS 289 double 

    0.0000000000000000E+00     0.0000000000000000E+00     0.0000000000000000E+00 
    1.0000000000000000E+00     0.0000000000000000E+00     0.0000000000000000E+00 
    1.0000000000000000E+00     1.0000000000000000E+00     0.0000000000000000E+00 
    0.0000000000000000E+00     1.0000000000000000E+00     0.0000000000000000E+00 
    6.2499999999872928E-02     0.0000000000000000E+00     0.0000000000000000E+00 
    1.2499999999977310E-01     0.0000000000000000E+00     0.0000000000000000E+00 
    1.8749999999959341E-01     0.0000000000000000E+00     0.0000000000000000E+00 
    2.4999999999941089E-01     0.0000000000000000E+00     0.0000000000000000E+00 
    3.1249999999922851E-01     0.0000000000000000E+00     0.0000000000000000E+00 
    3.7499999999904610E-01     0.0000000000000000E+00     0.0000000000000000E+00 
    4.3749999999886358E-01     0.0000000000000000E+00     0.0000000000000000E+00 
    4.9999999999869210E-01     0.0000000000000000E+00     0.0000000000000000E+00 
    5.6249999999884603E-01     0.0000000000000000E+00     0.0000000000000000E+00 
    6.2499999999901090E-01     0.0000000000000000E+00     0.0000000000000000E+00 
    6.8749999999917577E-01     0.0000000000000000E+00     0.0000000000000000E+00 
    7.4999999999934064E-01     0.0000000000000000E+00     0.0000000000000000E+00 
    8.1249999999950551E-01     0.0000000000000000E+00     0.0000000000000000E+00 
    8.7499999999967026E-01     0.0000000000000000E+00     0.0000000000000000E+00 
    9.3749999999983513E-01     0.0000000000000000E+00     0.0000000000000000E+00 
    1.0000000000000000E+00     6.2499999999872928E-02     0.0000000000000000E+00 
    1.0000000000000000E+00     1.2499999999977310E-01     0.0000000000000000E+00 
    1.0000000000000000E+00     1.8749999999959341E-01     0.0000000000000000E+00 
    1.0000000000000000E+00     2.4999999999941089E-01     0.0000000000000000E+00 
    1.0000000000000000E+00     3.1249999999922851E-01     0.0000000000000000E+00 
    1.0000000000000000E+00     3.7499999999904610E-01     0.0000000000000000E+00 
    1.0000000000000000E+00     4.3749999999886358E-01     0.0000000000000000E+00 
    1.0000000000000000E+00     4.9999999999869210E-01     0.0000000000000000E+00 
    1.0000000000000000E+00     5.6249999999884603E-01     0.0000000000000000E+00 
    1.0000000000000000E+00     6.2499999999901090E-01     0.0000000000000000E+00 
    1.0000000000000000E+00     6.8749999999917577E-01     0.0000000000000000E+00 
    1.0000000000000000E+00     7.4999999999934064E-01     0.0000000000000000E+00 
    1.0000000000000000E+00     8.1249999999950551E-01     0.0000000000000000E+00 
    1.0000000000000000E+00     8.7499999999967026E-01     0.0000000000000000E+00 
    1.0000000000000000E+00     9.3749999999983513E-01     0.0000000000000000E+00 
    9.3749999999973976E-01     1.0000000000000000E+00     0.0000000000000000E+00 
    8.7499999999950118E-01     1.0000000000000000E+00     0.0000000000000000E+00 
    8.1249999999991318E-01     1.0000000000000000E+00     0.0000000000000000E+00 
    7.5000000000034706E-01     1.0000000000000000E+00     0.0000000000000000E+00 
    6.8750000000078049E-01     1.0000000000000000E+00     0.0000000000000000E+00 
    6.2500000000121403E-01     1.0000000000000000E+00     0.0000000000000000E+00 
    5.6250000000164757E-01     1.0000000000000000E+00     0.0000000000000000E+00 
    5.0000000000205946E-01     1.0000000000000000E+00     0.0000000000000000E+00 
    4.3750000000182099E-01     1.0000000000000000E+00     0.0000000000000000E+00 
    3.7500000000156092E-01     1.0000000000000000E+00     0.0000000000000000E+00 
    3.1250000000130068E-01     1.0000000000000000E+00     0.0000000000000000E+00 
    2.5000000000104050E-01     1.0000000000000000E+00     0.0000000000000000E+00 
    1.8750000000078040E-01     1.0000000000000000E+00     0.0000000000000000E+00 
    1.2500000000052031E-01     1.0000000000000000E+00     0.0000000000000000E+00 
    6.2500000000260125E-02     1.0000000000000000E+00     0.0000000000000000E+00 
    0.0000000000000000E+00     9.3749999999973976E-01     0.0000000000000000E+00 
    0.0000000000000000E+00     8.7499999999950118E-01     0.0000000000000000E+00 
    0.0000000000000000E+00     8.1249999999991318E-01     0.0000000000000000E+00 
    0.0000000000000000E+00     7.5000000000034706E-01     0.0000000000000000E+00 
    0.0000000000000000E+00     6.8750000000078049E-01     0.0000000000000000E+00 
    0.0000000000000000E+00     6.2500000000121403E-01     0.0000000000000000E+00 
    0.0000000000000000E+00     5.6250000000164757E-01     0.0000000000000000E+00 
    0.0000000000000000E+00     5.0000000000205946E-01     0.0000000000000000E+00 
    0.0000000000000000E+00     4.3750000000182099E-01     0.0000000000000000E+00 
    0.0000000000000000E+00     3.7500000000156092E-01     0.0000000000000000E+00 
    0.0000000000000000E+00     3.1250000000130068E-01     0.0000000000000000E+00 
    0.0000000000000000E+00     2.5000000000104050E-01     0.0000000000000000E+00 
    0.0000000000000000E+00     1.8750000000078040E-01     0.0000000000000000E+00 
    0.0000000000000000E+00     1.2500000000052031E-01     0.0000000000000000E+00 
    0.0000000000000000E+00     6.2500000000260125E-02     0.0000000000000000E+00 
    6.2499999999897131E-02     6.2500000000235922E-02     0.0000000000000000E+00 
    6.2499999999921327E-02     1.2500000000047351E-01     0.0000000000000000E+00 
    6.2499999999945530E-02     1.8750000000070621E-01     0.0000000000000000E+00 
    6.2499999999969733E-02     2.5000000000093858E-01     0.0000000000000000E+00 
    6.2499999999993928E-02     3.1250000000117117E-01     0.0000000000000000E+00 
    6.2500000000018124E-02     3.7500000000140382E-01     0.0000000000000000E+00 
    6.2500000000042327E-02     4.3750000000163619E-01     0.0000000000000000E+00 
    6.2500000000066530E-02     5.0000000000184897E-01     0.0000000000000000E+00 
    6.2500000000090733E-02     5.6250000000147260E-01     0.0000000000000000E+00 
    6.2500000000114922E-02     6.2500000000107636E-01     0.0000000000000000E+00 
    6.2500000000139125E-02     6.8750000000068034E-01     0.0000000000000000E+00 
    6.2500000000163328E-02     7.5000000000028411E-01     0.0000000000000000E+00 
    6.2500000000187531E-02     8.1249999999988787E-01     0.0000000000000000E+00 
    6.2500000000211720E-02     8.7499999999951172E-01     0.0000000000000000E+00 
    6.2500000000235922E-02     9.3749999999974565E-01     0.0000000000000000E+00 
    1.2499999999981980E-01     6.2500000000211733E-02     0.0000000000000000E+00 
    1.2499999999986650E-01     1.2500000000042691E-01     0.0000000000000000E+00 
    1.2499999999991319E-01     1.8750000000063199E-01     0.0000000000000000E+00 
    1.2499999999995989E-01     2.5000000000083678E-01     0.0000000000000000E+00 
    1.2500000000000661E-01     3.1250000000104172E-01     0.0000000000000000E+00 
    1.2500000000005329E-01     3.7500000000124661E-01     0.0000000000000000E+00 
    1.2500000000010000E-01     4.3750000000145117E-01     0.0000000000000000E+00 
    1.2500000000014669E-01     5.0000000000163858E-01     0.0000000000000000E+00 
    1.2500000000019340E-01     5.6250000000129741E-01     0.0000000000000000E+00 
    1.2500000000024011E-01     6.2500000000093847E-01     0.0000000000000000E+00 
    1.2500000000028680E-01     6.8750000000057998E-01     0.0000000000000000E+00 
    1.2500000000033351E-01     7.5000000000022127E-01     0.0000000000000000E+00 
    1.2500000000038020E-01     8.1249999999986211E-01     0.0000000000000000E+00 
    1.2500000000042691E-01     8.7499999999952238E-01     0.0000000000000000E+00 
    1.2500000000047359E-01     9.3749999999975164E-01     0.0000000000000000E+00 
    1.8749999999966760E-01     6.2500000000187531E-02     0.0000000000000000E+00 
    1.8749999999974179E-01     1.2500000000038020E-01     0.0000000000000000E+00 
    1.8749999999981601E-01     1.8750000000055780E-01     0.0000000000000000E+00 
    1.8749999999989009E-01     2.5000000000073502E-01     0.0000000000000000E+00 
    1.8749999999996431E-01     3.1250000000091221E-01     0.0000000000000000E+00 
    1.8750000000003850E-01     3.7500000000108941E-01     0.0000000000000000E+00 
    1.8750000000011269E-01     4.3750000000126649E-01     0.0000000000000000E+00 
    1.8750000000018691E-01     5.0000000000142808E-01     0.0000000000000000E+00 
    1.8750000000026110E-01     5.6250000000112244E-01     0.0000000000000000E+00 
    1.8750000000033529E-01     6.2500000000080080E-01     0.0000000000000000E+00 
    1.8750000000040951E-01     6.8750000000047962E-01     0.0000000000000000E+00 
    1.8750000000048361E-01     7.5000000000015843E-01     0.0000000000000000E+00 
    1.8750000000055780E-01     8.1249999999983680E-01     0.0000000000000000E+00 
    1.8750000000063199E-01     8.7499999999953304E-01     0.0000000000000000E+00 
    1.8750000000070621E-01     9.3749999999975764E-01     0.0000000000000000E+00 
    2.4999999999951281E-01     6.2500000000163314E-02     0.0000000000000000E+00 
    2.4999999999961461E-01     1.2500000000033351E-01     0.0000000000000000E+00 
    2.4999999999971650E-01     1.8750000000048361E-01     0.0000000000000000E+00 
    2.4999999999981831E-01     2.5000000000063310E-01     0.0000000000000000E+00 
    2.4999999999992020E-01     3.1250000000078260E-01     0.0000000000000000E+00 
    2.5000000000002198E-01     3.7500000000093209E-01     0.0000000000000000E+00 
    2.5000000000012390E-01     4.3750000000108180E-01     0.0000000000000000E+00 
    2.5000000000022571E-01     5.0000000000121769E-01     0.0000000000000000E+00 
    2.5000000000032763E-01     5.6250000000094724E-01     0.0000000000000000E+00 
    2.5000000000042938E-01     6.2500000000066314E-01     0.0000000000000000E+00 
    2.5000000000053119E-01     6.8750000000037925E-01     0.0000000000000000E+00 
[...]
CELL_DATA 256 
SCALARS Pressure double 1 
LOOKUP_TABLE default 

    8.0166935454040600E-01 
    7.5152899718158028E-01 
    7.1977553475820211E-01 
    6.9643401728162380E-01 
    6.7737729100569610E-01 
    6.6108592281406664E-01 
    6.4706545684559347E-01 
    6.3512570229938292E-01 
    6.2520938279609117E-01 
    6.1726595374500071E-01 
    6.1095655267909910E-01 
    6.0513616926338964E-01 
    6.0051886748057481E-01 
    5.9796551163550171E-01 
    5.9678246206302865E-01 
    5.9646362539710274E-01 
    7.5153712438073172E-01 
    7.4117279793421975E-01 
    7.2049361594697525E-01 
    7.0010757593871598E-01 
    6.8164815881976759E-01 
    6.6516914964919782E-01 
    6.5064106144841638E-01 
    6.3804741425706268E-01 
    6.2742076335748520E-01 
    6.1880265614714625E-01 
    6.1202078245698488E-01 
    6.0612177765734176E-01 
    6.0094376074628797E-01 
    5.9788765161556112E-01 
    5.9646203324031055E-01 
    5.9614419577978317E-01 
    7.1978724751805367E-01 
    7.2049976482487343E-01 
    7.1078430682052951E-01 
    6.9633448624988259E-01 
    6.8064108455657513E-01 
    6.6528096930036107E-01 
    6.5101412627536859E-01 
    6.3823225814733142E-01 
    6.2719472938671739E-01 
    6.1809355334377303E-01 
    6.1094425494736082E-01 
    6.0514075963243164E-01 
    5.9983471532645594E-01 
    5.9645562407715491E-01 
    5.9503173732277626E-01 
    5.9496086802638815E-01 
    6.9644297636602492E-01 
    7.0011445900669478E-01 
    6.9633761854869292E-01 
    6.8706664332593126E-01 
    6.7479104057607642E-01 
    6.6136264700541869E-01 
    6.4799202499832953E-01 
    6.3545306454366501E-01 
    6.2428163420378902E-01 
    6.1486797654250658E-01 
    6.0742967753251853E-01 
    6.0172854249595742E-01 
    5.9669932638188006E-01 
    5.9318468647398703E-01 
    5.9200295534539593E-01 
    5.9242260404219416E-01 
    6.7737955417857920E-01 
    6.8165074148653004E-01 
    6.8064333450940873E-01 
    6.7479240297702370E-01 
    6.6542765787783653E-01 
    6.5401416631770293E-01 
    6.4179111494195984E-01 
    6.2972811014132180E-01 
    6.1858319906757042E-01 
    6.0894952402791380E-01 
    6.0124901013041199E-01 
    5.9554641836090005E-01 
    5.9102999875584616E-01 
    5.8767025885247226E-01 
    5.8690187216942613E-01 
    5.8804150887779505E-01 
    6.6108189862298516E-01 
    6.6516541622172354E-01 
    6.6527819364620366E-01 
    6.6136142322488611E-01 
    6.5401309239733729E-01 
    6.4420711880615289E-01 
    6.3299664618208018E-01 
    6.2137215218036723E-01 
    6.1022014040238093E-01 
    6.0031053892129560E-01 
    5.9227073166552424E-01 
    5.8645775429485913E-01 
    5.8244733626871426E-01 
    5.7949835942267003E-01 
    5.7921911685337557E-01 
    5.8131040571755821E-01 
    6.4705325902189326E-01 
    6.5063005061541290E-01 
    6.5100428514539621E-01 
    6.4798470797148000E-01 
    6.4178537114433098E-01 
    6.3299253868098038E-01 
    6.2241415584212123E-01 
    6.1095548330003224E-01 
    5.9954770017377967E-01 
    5.8909960492339775E-01 
    5.8044133860082137E-01 
    5.7422315568413851E-01 
    5.7045572432225045E-01 
    5.6807663144090326E-01 
    5.6837477828794480E-01 
    5.7167504363558153E-01 
    6.3509977104434034E-01 
    6.3802513437987174E-01 
    6.3821325750450064E-01 
    6.3543772513212193E-01 
    6.2971500481093123E-01 
    6.2136097462816908E-01 
    6.1094871111795690E-01 
    5.9924616088162219E-01 
    5.8716504484374576E-01 
    5.7571228565942456E-01 
    5.6592146539321686E-01 
    5.5873733428538075E-01 
    5.5460233903211342E-01 
    5.5272674742738115E-01 
    5.5376347942025994E-01 
    5.5852437635765728E-01 
    6.2516617034957833E-01 
    6.2738238093481791E-01 
    6.2716259291172027E-01 
    6.2425620962269612E-01 
    6.1856100673378023E-01 
    6.1019950648024357E-01 
    5.9953145792577112E-01 
    5.8715633777351206E-01 
    5.7390628032550861E-01 
    5.6083124848937804E-01 
    5.4915714614230571E-01 
    5.4017969630550400E-01 
    5.3489927459224285E-01 
    5.3306554359280978E-01 
    5.3468005597547907E-01 
    5.4108280532624575E-01 
    6.1720710710848703E-01 
    6.1874685584414735E-01 
    6.1804551121981000E-01 
    6.1483104689332468E-01 
    6.0891802245381044E-01 
    6.0027965636826974E-01 
    5.8907179929943831E-01 
    5.7569229745365547E-01 
    5.6082042019014000E-01 
    5.4545545540467610E-01 
    5.3094753605809153E-01 
    5.1896014799404078E-01 
    5.1120866785763341E-01 
    5.0840843338854680E-01 
    5.1016206864998015E-01 
    5.1824377810426892E-01 
    6.1089050391672040E-01 
    6.1195481611266411E-01 
    6.1088496632541300E-01 
    6.0738344322632920E-01 
    6.0120956174881135E-01 
    5.9223035681757819E-01 
    5.8040149792702700E-01 
    5.6588798429152931E-01 
    5.4913193400012672E-01 
    5.3093174288240286E-01 
    5.1259855513004127E-01 
    4.9605517760061696E-01 
    4.8373892528492102E-01 
    4.7768996133900926E-01 
    4.7847117461099692E-01 
    4.8838444466983261E-01 
    6.0507627529427799E-01 
    6.0606356943274886E-01 
    6.0508615919854114E-01 
    6.0168130833365230E-01 
    5.9550664309466639E-01 
    5.8641460900875875E-01 
    5.7417571215997731E-01 
    5.5869296825863668E-01 
    5.4013982858393061E-01 
    5.1892305994916188E-01 
    4.9603121000331279E-01 
    4.7335002990487762E-01 
    4.5383686656119099E-01 
    4.4112306557795194E-01 
    4.3796100125864490E-01 
    4.4831630336147282E-01 
    6.0046329436639490E-01 
    6.0089030643543340E-01 
    5.9978618137671202E-01 
    5.9665431543430503E-01 
    5.9098958057103923E-01 
    5.8240303465901888E-01 
    5.7040166372674295E-01 
    5.5454971437874878E-01 
    5.3484696401134879E-01 
    5.1114548564120998E-01 
    4.8368484087082425E-01 
    4.5381729516438468E-01 
    4.2433387777807258E-01 
    4.0005914296583994E-01 
    3.8738195603507086E-01 
    3.9388623115136318E-01 
    5.9791066210445010E-01 
    5.9783334407789313E-01 
    5.9640280522241784E-01 
    5.9313362577250250E-01 
    5.8762568944036342E-01 
    5.7945456921256944E-01 
    5.6801909375230697E-01 
    5.5267127487753687E-01 
    5.3300783405555674E-01 
    5.0832569569774011E-01 
    4.7760785278110202E-01 
    4.4110927171091585E-01 
    4.0008477005144993E-01 
    3.5834353513446843E-01 
    3.2544616836852058E-01 
    3.1842795812978947E-01 
    5.9672802953372017E-01 
    5.9640798928410288E-01 
    5.9497889990981778E-01 
    5.9195176531246807E-01 
    5.8685383268442071E-01 
    5.7917365913934604E-01 
    5.6832440725582267E-01 
    5.5371467757261117E-01 
    5.3463433777381675E-01 
    5.1009516133996324E-01 
    4.7838182964376874E-01 
    4.3797365728410836E-01 
    3.8748227859517675E-01 
    3.2549487957333240E-01 
    2.5530017240408603E-01 
    2.0536343174567906E-01 
    5.9640922875844948E-01 
    5.9609006613667037E-01 
    5.9490778855120796E-01 
    5.9237104943358099E-01 
    5.8799205519177677E-01 
    5.8126286307714137E-01 
    5.7162625315512161E-01 
    5.5847641923612168E-01 
    5.4104264441549166E-01 
    5.1819706215455597E-01 
    4.8829585337806630E-01 
    4.4827777915687111E-01 
    3.9402616686550024E-01 
    3.1851032920086536E-01 
    2.0534563917624188E-01 
    0.0000000000000000E+00 

SCALARS Saturarion double 1 
LOOKUP_TABLE default 

    1.0000000000000000E+00 
    9.8248613599554868E-01 
    9.5103892900898923E-01 
    8.9520314668384016E-01 
    8.2784045714656751E-01 
    7.6557744871750477E-01 
    7.0871306958862013E-01 
    6.5558668120978369E-01 
    6.0685349301594271E-01 
    5.5989241047508509E-01 
    4.8659526702256517E-01 
    1.9910921956723548E-01 
    9.9720182410766471E-06 
    1.0000000318109495E-06 
    1.0000000000000006E-06 
    9.9999999999999995E-07 
    9.8241762307427150E-01 
    9.6713539512794511E-01 
    9.3872429618310127E-01 
    8.9204579087236591E-01 
    8.3278589544386983E-01 
    7.7464645132834442E-01 
    7.1946313309521492E-01 
    6.6709606889716988E-01 
    6.1849778703948299E-01 
    5.7239448819820904E-01 
    5.0977577227247761E-01 
    3.1995678760516622E-01 
    9.8426988566568414E-03 
    2.9897794913483364E-06 
    1.0000003314367065E-06 
    9.9999999999999995E-07 
    9.5081631415402490E-01 
    9.3858939395692342E-01 
    9.1178790563252377E-01 
    8.7476973718828310E-01 
    8.2833376608888432E-01 
    7.7940634718480450E-01 
    7.2972795397928725E-01 
    6.8053527426842031E-01 
    6.3327301347789855E-01 
    5.8774423409720455E-01 
    5.3492116648435484E-01 
    4.1786509547735851E-01 
    8.6536000682338868E-02 
    2.1273101807426243E-04 
    1.0061241539591399E-06 
    9.9999999999999995E-07 
    8.9471998047733170E-01 
    8.9176870570255273E-01 
    8.7466752863799269E-01 
    8.4703732362901252E-01 
    8.1304826376086847E-01 
    7.7438600008101699E-01 
    7.3245402657033720E-01 
    6.8887311985561228E-01 
    6.4496843721881114E-01 
    6.0092150024332280E-01 
    5.5333187429132735E-01 
    4.7025626802016035E-01 
    1.9715771956729533E-01 
    1.5298348595083344E-03 
    1.1008679082020557E-06 
    1.0000000099505328E-06 
    8.2729355930182813E-01 
    8.3241333208996227E-01 
    8.2811736162009075E-01 
    8.1290750583057880E-01 
    7.9009347268790175E-01 
    7.6122601301085668E-01 
    7.2783211830174810E-01 
    6.9128316156325353E-01 
    6.5249633790186290E-01 
    6.1195779919050641E-01 
    5.6891866545384251E-01 
    5.0784775679922745E-01 
    3.2171825035154494E-01 
    2.7841433401658126E-02 
    5.0991658867526042E-05 
    1.0001254241164220E-06 
    7.6504141113142965E-01 
    7.7428411941795361E-01 
    7.7912758962744511E-01 
    7.7407951185276180E-01 
    7.6103058514971778E-01 
    7.4157695997693596E-01 
    7.1690296755478888E-01 
    6.8799840516754762E-01 
    6.5547144675818325E-01 
    6.1976512984635124E-01 
    5.8095484219721250E-01 
    5.3094804616979008E-01 
    4.1627094916055468E-01 
    9.6221452680990902E-02 
    2.0619873746993819E-04 
    1.0087803753403540E-06 
    7.0784564856583088E-01 
    7.1903800051281275E-01 
    7.2953302234494355E-01 
    7.3216480648614246E-01 
    7.2748789348561682E-01 
    7.1672722803079703E-01 
    7.0055382519197429E-01 
    6.7953669249435800E-01 
    6.5405321913425918E-01 
    6.2417967153280329E-01 
    5.8978794696934556E-01 
    5.4809387800718590E-01 
    4.6111235060626654E-01 
    1.7378006507345192E-01 
    1.0841298285761416E-03 
    1.0460212315799085E-06 
    6.5441718906043622E-01 
    6.6646464547120754E-01 
    6.8028669867619540E-01 
    6.8865347228225227E-01 
    6.9091845467122348E-01 
    6.8766130120140401E-01 
    6.7937929211114090E-01 
    6.6629917294913732E-01 
    6.4840614956970510E-01 
    6.2542324826935214E-01 
    5.9672569132754505E-01 
    5.6168609829191007E-01 
    4.9523436950761085E-01 
    2.7287426346367133E-01 
    1.4109783009928318E-02 
    1.0539220285919151E-05 
    6.0557517708798325E-01 
    6.1761268210502607E-01 
    6.3286352577750848E-01 
    6.4469939456769543E-01 
    6.5222602053766143E-01 
    6.5513569896343704E-01 
    6.5377003623693253E-01 
    6.4823612161933353E-01 
    6.3822846168574976E-01 
    6.2297557511028689E-01 
    6.0136215379991975E-01 
    5.7200926238510219E-01 
    5.2297360253570790E-01 
    3.8443390271975658E-01 
    6.5068561768484426E-02 
    1.7588274604739078E-04 
    5.5864874531542208E-01 
    5.7153059365717629E-01 
    5.8743784659123111E-01 
    6.0057633265060839E-01 
    6.1162700338162268E-01 
    6.1951851619965081E-01 
    6.2394860691497256E-01 
    6.2515131274916536E-01 
    6.2276356988245796E-01 
    6.1569156689119331E-01 
    6.0226400717854522E-01 
    5.8049027778864659E-01 
    5.4338981312574552E-01 
    4.3820066106073041E-01 
    1.2615235861163693E-01 
    4.0581252422038739E-04 
    4.8554414173832688E-01 
    5.0983781274729700E-01 
    5.3541542323907598E-01 
    5.5334938468545680E-01 
    5.6835534019383493E-01 
    5.8056460350909134E-01 
    5.8969193268411735E-01 
    5.9658347125574229E-01 
    6.0102161517757269E-01 
    6.0198928443130939E-01 
    5.9748317584102684E-01 
    5.8500511516430698E-01 
    5.5941870429448504E-01 
    4.8274449633094701E-01 
    2.2069421939144127E-01 
    8.4020428601849495E-03 
    1.9874074735744812E-01 
    3.2245728912235527E-01 
    4.2032025268248135E-01 
    4.7140509256403174E-01 
    5.0752421706691098E-01 
    5.3074140150856586E-01 
    5.4803741110454784E-01 
    5.6182765308412985E-01 
    5.7195878024890201E-01 
    5.8015112544625136E-01 
    5.8468387787647769E-01 
    5.8276147369964892E-01 
    5.6928229462983748E-01 
    5.2220553324449881E-01 
    3.6099472195095605E-01 
    9.4227589928629979E-02 
    1.0320613361146820E-05 
    1.0578343954460782E-02 
    9.1090824812815677E-02 
    2.0110054350295434E-01 
    3.2330777883291256E-01 
    4.1497522993646219E-01 
    4.6031456005115878E-01 
    4.9511547936136391E-01 
    5.2297894689452606E-01 
    5.4318574140477172E-01 
    5.5918748129467599E-01 
    5.6911744726563795E-01 
    5.6968196315228370E-01 
    5.4754645899740728E-01 
    4.4543066767879541E-01 
    1.9948256897609903E-01 
    1.0000000351362662E-06 
    3.3013629427552204E-06 
    2.3105815418250221E-04 
    1.5672095393618663E-03 
    2.6673907102234367E-02 
    9.4886095591123071E-02 
    1.7540839215508355E-01 
    2.7384043341090808E-01 
    3.8409545873363982E-01 
    4.3791590678354397E-01 
    4.8378783029711614E-01 
    5.2293112182905599E-01 
    5.4767246292649896E-01 
    5.4900388766049668E-01 
    5.0006074886078344E-01 
    2.9609340137774315E-01 
    1.0000000000000008E-06 
    1.0000004117308508E-06 
    1.0077054286328741E-06 
    1.0928119200680913E-06 
    4.6216230616235675E-05 
    2.1721245968086238E-04 
    1.2278382560105949E-03 
    1.2375872054799572E-02 
    6.5920616057537129E-02 
    1.2642890760943698E-01 
    2.2744437565719830E-01 
    3.6499015013149477E-01 
    4.4608634310868617E-01 
    4.9988698148988647E-01 
    5.0953829807010342E-01 
    3.7956411387513417E-01 
    9.9999999999999995E-07 
    9.9999999999999995E-07 
    9.9999999999999995E-07 
    1.0000000091618547E-06 
    1.0001025113760956E-06 
    1.0097273517917779E-06 
    1.0574001959996418E-06 
    8.1277394050996905E-06 
    2.1677154111249714E-04 
    4.3966467426046911E-04 
    1.1953897610518920E-02 
    8.9301824998742882E-02 
    1.9932662241770016E-01 
    2.9439911071016645E-01 
    3.7943335055210192E-01 
    3.7994109911556967E-01 
