# vtk DataFile Version 2.0
Pressure Field Data 
ASCII 
DATASET UNSTRUCTURED_GRID 

POINTS 289 double 

    0.0000000000000000E+00     0.0000000000000000E+00     0.0000000000000000E+00 
    1.0000000000000000E+00     0.0000000000000000E+00     0.0000000000000000E+00 
    1.0000000000000000E+00     1.0000000000000000E+00     0.0000000000000000E+00 
    0.0000000000000000E+00     1.0000000000000000E+00     0.0000000000000000E+00 
    6.2499999999872928E-02     0.0000000000000000E+00     0.0000000000000000E+00 
    1.2499999999977310E-01     0.0000000000000000E+00     0.0000000000000000E+00 
    1.8749999999959341E-01     0.0000000000000000E+00     0.0000000000000000E+00 
    2.4999999999941089E-01     0.0000000000000000E+00     0.0000000000000000E+00 
    3.1249999999922851E-01     0.0000000000000000E+00     0.0000000000000000E+00 
    3.7499999999904610E-01     0.0000000000000000E+00     0.0000000000000000E+00 
    4.3749999999886358E-01     0.0000000000000000E+00     0.0000000000000000E+00 
    4.9999999999869210E-01     0.0000000000000000E+00     0.0000000000000000E+00 
    5.6249999999884603E-01     0.0000000000000000E+00     0.0000000000000000E+00 
    6.2499999999901090E-01     0.0000000000000000E+00     0.0000000000000000E+00 
    6.8749999999917577E-01     0.0000000000000000E+00     0.0000000000000000E+00 
    7.4999999999934064E-01     0.0000000000000000E+00     0.0000000000000000E+00 
    8.1249999999950551E-01     0.0000000000000000E+00     0.0000000000000000E+00 
    8.7499999999967026E-01     0.0000000000000000E+00     0.0000000000000000E+00 
    9.3749999999983513E-01     0.0000000000000000E+00     0.0000000000000000E+00 
    1.0000000000000000E+00     6.2499999999872928E-02     0.0000000000000000E+00 
    1.0000000000000000E+00     1.2499999999977310E-01     0.0000000000000000E+00 
    1.0000000000000000E+00     1.8749999999959341E-01     0.0000000000000000E+00 
    1.0000000000000000E+00     2.4999999999941089E-01     0.0000000000000000E+00 
    1.0000000000000000E+00     3.1249999999922851E-01     0.0000000000000000E+00 
    1.0000000000000000E+00     3.7499999999904610E-01     0.0000000000000000E+00 
    1.0000000000000000E+00     4.3749999999886358E-01     0.0000000000000000E+00 
    1.0000000000000000E+00     4.9999999999869210E-01     0.0000000000000000E+00 
    1.0000000000000000E+00     5.6249999999884603E-01     0.0000000000000000E+00 
    1.0000000000000000E+00     6.2499999999901090E-01     0.0000000000000000E+00 
    1.0000000000000000E+00     6.8749999999917577E-01     0.0000000000000000E+00 
    1.0000000000000000E+00     7.4999999999934064E-01     0.0000000000000000E+00 
    1.0000000000000000E+00     8.1249999999950551E-01     0.0000000000000000E+00 
    1.0000000000000000E+00     8.7499999999967026E-01     0.0000000000000000E+00 
    1.0000000000000000E+00     9.3749999999983513E-01     0.0000000000000000E+00 
    9.3749999999973976E-01     1.0000000000000000E+00     0.0000000000000000E+00 
    8.7499999999950118E-01     1.0000000000000000E+00     0.0000000000000000E+00 
    8.1249999999991318E-01     1.0000000000000000E+00     0.0000000000000000E+00 
    7.5000000000034706E-01     1.0000000000000000E+00     0.0000000000000000E+00 
    6.8750000000078049E-01     1.0000000000000000E+00     0.0000000000000000E+00 
    6.2500000000121403E-01     1.0000000000000000E+00     0.0000000000000000E+00 
    5.6250000000164757E-01     1.0000000000000000E+00     0.0000000000000000E+00 
    5.0000000000205946E-01     1.0000000000000000E+00     0.0000000000000000E+00 
    4.3750000000182099E-01     1.0000000000000000E+00     0.0000000000000000E+00 
    3.7500000000156092E-01     1.0000000000000000E+00     0.0000000000000000E+00 
    3.1250000000130068E-01     1.0000000000000000E+00     0.0000000000000000E+00 
    2.5000000000104050E-01     1.0000000000000000E+00     0.0000000000000000E+00 
    1.8750000000078040E-01     1.0000000000000000E+00     0.0000000000000000E+00 
    1.2500000000052031E-01     1.0000000000000000E+00     0.0000000000000000E+00 
    6.2500000000260125E-02     1.0000000000000000E+00     0.0000000000000000E+00 
    0.0000000000000000E+00     9.3749999999973976E-01     0.0000000000000000E+00 
    0.0000000000000000E+00     8.7499999999950118E-01     0.0000000000000000E+00 
    0.0000000000000000E+00     8.1249999999991318E-01     0.0000000000000000E+00 
    0.0000000000000000E+00     7.5000000000034706E-01     0.0000000000000000E+00 
    0.0000000000000000E+00     6.8750000000078049E-01     0.0000000000000000E+00 
    0.0000000000000000E+00     6.2500000000121403E-01     0.0000000000000000E+00 
    0.0000000000000000E+00     5.6250000000164757E-01     0.0000000000000000E+00 
    0.0000000000000000E+00     5.0000000000205946E-01     0.0000000000000000E+00 
    0.0000000000000000E+00     4.3750000000182099E-01     0.0000000000000000E+00 
    0.0000000000000000E+00     3.7500000000156092E-01     0.0000000000000000E+00 
    0.0000000000000000E+00     3.1250000000130068E-01     0.0000000000000000E+00 
    0.0000000000000000E+00     2.5000000000104050E-01     0.0000000000000000E+00 
    0.0000000000000000E+00     1.8750000000078040E-01     0.0000000000000000E+00 
    0.0000000000000000E+00     1.2500000000052031E-01     0.0000000000000000E+00 
    0.0000000000000000E+00     6.2500000000260125E-02     0.0000000000000000E+00 
    6.2499999999897131E-02     6.2500000000235922E-02     0.0000000000000000E+00 
    6.2499999999921327E-02     1.2500000000047351E-01     0.0000000000000000E+00 
    6.2499999999945530E-02     1.8750000000070621E-01     0.0000000000000000E+00 
    6.2499999999969733E-02     2.5000000000093858E-01     0.0000000000000000E+00 
    6.2499999999993928E-02     3.1250000000117117E-01     0.0000000000000000E+00 
    6.2500000000018124E-02     3.7500000000140382E-01     0.0000000000000000E+00 
    6.2500000000042327E-02     4.3750000000163619E-01     0.0000000000000000E+00 
    6.2500000000066530E-02     5.0000000000184897E-01     0.0000000000000000E+00 
    6.2500000000090733E-02     5.6250000000147260E-01     0.0000000000000000E+00 
    6.2500000000114922E-02     6.2500000000107636E-01     0.0000000000000000E+00 
    6.2500000000139125E-02     6.8750000000068034E-01     0.0000000000000000E+00 
    6.2500000000163328E-02     7.5000000000028411E-01     0.0000000000000000E+00 
    6.2500000000187531E-02     8.1249999999988787E-01     0.0000000000000000E+00 
    6.2500000000211720E-02     8.7499999999951172E-01     0.0000000000000000E+00 
    6.2500000000235922E-02     9.3749999999974565E-01     0.0000000000000000E+00 
    1.2499999999981980E-01     6.2500000000211733E-02     0.0000000000000000E+00 
    1.2499999999986650E-01     1.2500000000042691E-01     0.0000000000000000E+00 
    1.2499999999991319E-01     1.8750000000063199E-01     0.0000000000000000E+00 
    1.2499999999995989E-01     2.5000000000083678E-01     0.0000000000000000E+00 
    1.2500000000000661E-01     3.1250000000104172E-01     0.0000000000000000E+00 
    1.2500000000005329E-01     3.7500000000124661E-01     0.0000000000000000E+00 
    1.2500000000010000E-01     4.3750000000145117E-01     0.0000000000000000E+00 
    1.2500000000014669E-01     5.0000000000163858E-01     0.0000000000000000E+00 
    1.2500000000019340E-01     5.6250000000129741E-01     0.0000000000000000E+00 
    1.2500000000024011E-01     6.2500000000093847E-01     0.0000000000000000E+00 
    1.2500000000028680E-01     6.8750000000057998E-01     0.0000000000000000E+00 
    1.2500000000033351E-01     7.5000000000022127E-01     0.0000000000000000E+00 
    1.2500000000038020E-01     8.1249999999986211E-01     0.0000000000000000E+00 
    1.2500000000042691E-01     8.7499999999952238E-01     0.0000000000000000E+00 
    1.2500000000047359E-01     9.3749999999975164E-01     0.0000000000000000E+00 
    1.8749999999966760E-01     6.2500000000187531E-02     0.0000000000000000E+00 
    1.8749999999974179E-01     1.2500000000038020E-01     0.0000000000000000E+00 
    1.8749999999981601E-01     1.8750000000055780E-01     0.0000000000000000E+00 
    1.8749999999989009E-01     2.5000000000073502E-01     0.0000000000000000E+00 
    1.8749999999996431E-01     3.1250000000091221E-01     0.0000000000000000E+00 
    1.8750000000003850E-01     3.7500000000108941E-01     0.0000000000000000E+00 
    1.8750000000011269E-01     4.3750000000126649E-01     0.0000000000000000E+00 
    1.8750000000018691E-01     5.0000000000142808E-01     0.0000000000000000E+00 
    1.8750000000026110E-01     5.6250000000112244E-01     0.0000000000000000E+00 
    1.8750000000033529E-01     6.2500000000080080E-01     0.0000000000000000E+00 
    1.8750000000040951E-01     6.8750000000047962E-01     0.0000000000000000E+00 
    1.8750000000048361E-01     7.5000000000015843E-01     0.0000000000000000E+00 
    1.8750000000055780E-01     8.1249999999983680E-01     0.0000000000000000E+00 
    1.8750000000063199E-01     8.7499999999953304E-01     0.0000000000000000E+00 
    1.8750000000070621E-01     9.3749999999975764E-01     0.0000000000000000E+00 
    2.4999999999951281E-01     6.2500000000163314E-02     0.0000000000000000E+00 
    2.4999999999961461E-01     1.2500000000033351E-01     0.0000000000000000E+00 
    2.4999999999971650E-01     1.8750000000048361E-01     0.0000000000000000E+00 
    2.4999999999981831E-01     2.5000000000063310E-01     0.0000000000000000E+00 
    2.4999999999992020E-01     3.1250000000078260E-01     0.0000000000000000E+00 
    2.5000000000002198E-01     3.7500000000093209E-01     0.0000000000000000E+00 
    2.5000000000012390E-01     4.3750000000108180E-01     0.0000000000000000E+00 
    2.5000000000022571E-01     5.0000000000121769E-01     0.0000000000000000E+00 
    2.5000000000032763E-01     5.6250000000094724E-01     0.0000000000000000E+00 
    2.5000000000042938E-01     6.2500000000066314E-01     0.0000000000000000E+00 
    2.5000000000053119E-01     6.8750000000037925E-01     0.0000000000000000E+00 
[...]
CELL_DATA 256 
SCALARS Pressure double 1 
LOOKUP_TABLE default 

    7.9512149953533262E-01 
    7.4500203112707930E-01 
    7.1328724245807773E-01 
    6.9000548988963950E-01 
    6.7102667687852380E-01 
    6.5481995757333900E-01 
    6.4088224432644647E-01 
    6.2901763659502397E-01 
    6.1916400864677845E-01 
    6.1127366815496764E-01 
    6.0503521392481063E-01 
    5.9933054787995044E-01 
    5.9476034470897576E-01 
    5.9221954154874334E-01 
    5.9104346071693692E-01 
    5.9072651066430104E-01 
    7.4500998182945877E-01 
    7.3465149303799426E-01 
    7.1400161061896072E-01 
    6.9366690870788950E-01 
    6.7527882434978803E-01 
    6.5888129726062761E-01 
    6.4443599300021026E-01 
    6.3192004692437165E-01 
    6.2135955291962153E-01 
    6.1279491232285421E-01 
    6.0607301982417339E-01 
    6.0029010190603005E-01 
    5.9518345935174655E-01 
    5.9214121497524175E-01 
    5.9072469615702816E-01 
    5.9040891142381313E-01 
    7.1329868887460934E-01 
    7.1400762163167031E-01 
    7.0431276750403593E-01 
    6.8990645137027595E-01 
    6.7427661245347636E-01 
    6.5899243629061666E-01 
    6.4480608160090946E-01 
    6.3210250722037986E-01 
    6.2113370687922753E-01 
    6.1208801351433906E-01 
    6.0499226523239358E-01 
    5.9928734549811602E-01 
    5.9408050977681637E-01 
    5.9071516250667788E-01 
    5.8930231402455402E-01 
    5.8923252855363539E-01 
    6.9001419338204018E-01 
    6.9367359690486530E-01 
    6.8990948960670395E-01 
    6.8067419523666139E-01 
    6.6845380502052065E-01 
    6.5509458032400203E-01 
    6.4180077809892822E-01 
    6.2933941975727226E-01 
    6.1823863271022328E-01 
    6.0888325311505442E-01 
    6.0149441185666341E-01 
    5.9586241966377762E-01 
    5.9094813995054374E-01 
    5.8746272867893545E-01 
    5.8629182011918446E-01 
    5.8670994646315922E-01 
    6.7102879084919009E-01 
    6.7528126120867638E-01 
    6.7427875476770582E-01 
    6.6845511997727269E-01 
    6.5913734830024939E-01 
    6.4778642937502351E-01 
    6.3563629172158098E-01 
    6.2364976427675500E-01 
    6.1257718429711838E-01 
    6.0300505465503640E-01 
    5.9535302948203483E-01 
    5.8970605332340298E-01 
    5.8530006596015804E-01 
    5.8199312906432865E-01 
    5.8122503279928228E-01 
    5.8235778881976996E-01 
    6.5481590176842863E-01 
    6.5887752016811807E-01 
    6.5898962897102953E-01 
    6.5509334915100248E-01 
    6.4778537169716799E-01 
    6.3803675048106356E-01 
    6.2689606211039883E-01 
    6.1534750366831459E-01 
    6.0427001704723293E-01 
    5.9442592929235161E-01 
    5.8643754175518104E-01 
    5.8067135547554405E-01 
    5.7675412272535909E-01 
    5.7388149246482956E-01 
    5.7359133641892668E-01 
    5.7567151978591002E-01 
    6.4087019493035202E-01 
    6.4442507936180748E-01 
    6.4479632645841789E-01 
    6.4179354656306031E-01 
    6.3563063008655951E-01 
    6.2689200448014271E-01 
    6.1638198447050629E-01 
    6.0500031482331795E-01 
    5.9367072194313042E-01 
    5.8329345232598084E-01 
    5.7469121369819487E-01 
    5.6851568125833030E-01 
    5.6481120379996286E-01 
    5.6252014450409038E-01 
    5.6281897294112293E-01 
    5.6610264077664119E-01 
    6.2899217800273055E-01 
    6.3189814304243208E-01 
    6.3208380697136790E-01 
    6.2932431564078162E-01 
    6.2363683936597525E-01 
    6.1533643690811912E-01 
    6.0499358086574895E-01 
    5.9337150259318427E-01 
    5.8137477594673603E-01 
    5.7000114783350353E-01 
    5.6027444208473276E-01 
    5.5313446333270744E-01 
    5.4904576581515396E-01 
    5.4726792762426524E-01 
    5.4831484013379073E-01 
    5.5304675504307188E-01 
    6.1912163707134149E-01 
    6.2132192067984382E-01 
    6.2110215627655652E-01 
    6.1821360615836873E-01 
    6.1255526328600518E-01 
    6.0424955498826616E-01 
    5.9365456252292359E-01 
    5.8136608171902560E-01 
    5.6820990629373258E-01 
    5.5522697200801008E-01 
    5.4363270823381293E-01 
    5.3471290633725710E-01 
    5.2947878060398923E-01 
    5.2774330836041006E-01 
    5.2937728437663423E-01 
    5.3572741674804858E-01 
    6.1121570795157565E-01 
    6.1273998531960716E-01 
    6.1204059161251623E-01 
    6.0884664462573468E-01 
    6.0297376314281459E-01 
    5.9439522738862405E-01 
    5.8326582935189875E-01 
    5.6998125596735749E-01 
    5.5521615310079742E-01 
    5.3996120215335075E-01 
    5.2555608102187235E-01 
    5.1365156472466100E-01 
    5.0596532897592195E-01 
    5.0325457076463687E-01 
    5.0503393353789494E-01 
    5.1304278009658832E-01 
    6.0496948088930858E-01 
    6.0600743290061410E-01 
    6.0493303976235080E-01 
    6.0144805076123531E-01 
    5.9531353346470983E-01 
    5.8639710990509075E-01 
    5.7465155040664362E-01 
    5.6024117712272037E-01 
    5.4360755187890297E-01 
    5.2554031785974376E-01 
    5.0733992932109473E-01 
    4.9091599791006824E-01 
    4.7870059278373656E-01 
    4.7274489202785031E-01 
    4.7356492616686846E-01 
    4.8338251637433899E-01 
    5.9927010869434916E-01 
    6.0023094530059906E-01 
    5.9923125432900481E-01 
    5.9581378211723957E-01 
    5.8966524106813156E-01 
    5.8062736910511070E-01 
    5.6846815577998511E-01 
    5.5309037603720501E-01 
    5.3467311229527215E-01 
    5.1361466174765746E-01 
    4.9089220974309078E-01 
    4.6837642751314801E-01 
    4.4901351346541862E-01 
    4.3642502577874442E-01 
    4.3332246792253820E-01 
    4.4354218843908144E-01 
    5.9470414498026702E-01 
    5.9512926320965276E-01 
    5.9403096652636622E-01 
    5.9090227471803214E-01 
    5.8525942763340011E-01 
    5.7670901247297568E-01 
    5.6475643597579961E-01 
    5.4899368274519755E-01 
    5.2942720908962637E-01 
    5.0590349530080736E-01 
    4.7864763593632786E-01 
    4.4899340569907303E-01 
    4.1972642219031064E-01 
    3.9565626617611133E-01 
    3.8312223544566221E-01 
    3.8949090837710043E-01 
    5.9216429491811473E-01 
    5.9208649693771831E-01 
    5.9066204733375005E-01 
    5.8741213639333145E-01 
    5.8194964496596890E-01 
    5.7383832022560877E-01 
    5.6246248006335775E-01 
    5.4721418020505641E-01 
    5.2768835609009523E-01 
    5.0317392198746524E-01 
    4.7266364884122791E-01 
    4.3640920493460211E-01 
    3.9567995326669242E-01 
    3.5430569774292964E-01 
    3.2177500341963577E-01 
    3.1478734305686434E-01 
    5.9098874992070627E-01 
    5.9067039219798956E-01 
    5.8924932301920807E-01 
    5.8624083803028182E-01 
    5.8117761944414414E-01 
    5.7354657840873713E-01 
    5.6276888092452160E-01 
    5.4826859843957876E-01 
    5.2933758050082191E-01 
    5.0497334369726610E-01 
    4.7347858739630327E-01 
    4.3333295626746043E-01 
    3.8321749227599694E-01 
    3.2181557560180735E-01 
    2.5243152179765621E-01 
    2.0303199758620866E-01 
    5.9067187271701738E-01 
    5.9035456547512088E-01 
    5.8917931417521752E-01 
    5.8665848137505505E-01 
    5.8230875750090105E-01 
    5.7562466911848598E-01 
    5.6605465313746317E-01 
    5.5300091175428823E-01 
    5.3569304073775625E-01 
    5.1300501944161070E-01 
    4.8329972177989794E-01 
    4.4350099082212391E-01 
    3.8962315466796488E-01 
    3.1485329690634895E-01 
    2.0300155960333729E-01 
    0.0000000000000000E+00 

SCALARS Saturarion double 1 
LOOKUP_TABLE default 

    1.0000000000000000E+00 
    9.8274657705476176E-01 
    9.5172481413781940E-01 
    8.9665640943869040E-01 
    8.2987831287432223E-01 
    7.6786893876728224E-01 
    7.1113168819063965E-01 
    6.5795946325802446E-01 
    6.0903585422323092E-01 
    5.6220297507740213E-01 
    4.9169292364531658E-01 
    2.1655946210628249E-01 
    4.3659826706217565E-05 
    1.0000001301594266E-06 
    1.0000000000000050E-06 
    9.9999999999999995E-07 
    9.8267955882522506E-01 
    9.6761966098949848E-01 
    9.3958018074472327E-01 
    8.9353832152769108E-01 
    8.3480074645437763E-01 
    7.7691587550162333E-01 
    7.2188400794898966E-01 
    6.6950898815793602E-01 
    6.2073840027783522E-01 
    5.7461363425220047E-01 
    5.1394285310652355E-01 
    3.3594617664448545E-01 
    1.4455591422531977E-02 
    5.0984585393488929E-06 
    1.0000010450165667E-06 
    9.9999999999999995E-07 
    9.5150665201416085E-01 
    9.3944777819855119E-01 
    9.1298295796381701E-01 
    8.7642514426822582E-01 
    8.3035559986462615E-01 
    7.8165969881904585E-01 
    7.3215994201015333E-01 
    6.8300179864521127E-01 
    6.3562213788678268E-01 
    5.9003494070459206E-01 
    5.3803299103162994E-01 
    4.2661283377403042E-01 
    9.9667426940785592E-02 
    2.3859436452874021E-04 
    1.0095832082939680E-06 
    9.9999999999999995E-07 
    8.9618167581854591E-01 
    8.9326492623650033E-01 
    8.7632391348772221E-01 
    8.4890930445783119E-01 
    8.1512377640933809E-01 
    7.7667430001957449E-01 
    7.3491383651611242E-01 
    6.9138941988708869E-01 
    6.4743135057104850E-01 
    6.0332792169455307E-01 
    5.5619659865963489E-01 
    4.7604789532891068E-01 
    2.1166402431186185E-01 
    2.4175639362588276E-03 
    1.2057911112514170E-06 
    1.0000000219387420E-06 
    8.2934048050391229E-01 
    8.3443488993773995E-01 
    8.3014396361283938E-01 
    8.1498572675766223E-01 
    7.9229617140078712E-01 
    7.6359522411875247E-01 
    7.3033522139368412E-01 
    6.9385296135363816E-01 
    6.5505675670800456E-01 
    6.1445607301828231E-01 
    5.7142238950280244E-01 
    5.1164937659790144E-01 
    3.3744191805064716E-01 
    3.3996819781566268E-02 
    7.6790957567953006E-05 
    1.0003236816456149E-06 
    7.6734143455192771E-01 
    7.7656073747644339E-01 
    7.8138665347111436E-01 
    7.7637194449899471E-01 
    7.6340158553090176E-01 
    7.4404371957908821E-01 
    7.1946397636344339E-01 
    6.9062617229931944E-01 
    6.5810716707093642E-01 
    6.2234227888775795E-01 
    5.8346556772998293E-01 
    5.3482648890735118E-01 
    4.2427583996337837E-01 
    1.0537571416487850E-01 
    2.0796380760968364E-04 
    1.0113429002530923E-06 
    7.1027641369295080E-01 
    7.2146864944405975E-01 
    7.3197203710794090E-01 
    7.3462984902838246E-01 
    7.2999384177292881E-01 
    7.1928893123605575E-01 
    7.0318212968312921E-01 
    6.8221786445254939E-01 
    6.5674020941015754E-01 
    6.2681039543245409E-01 
    5.9232985811255445E-01 
    5.5077894235829639E-01 
    4.6745539636293049E-01 
    1.8920797412693618E-01 
    1.6120536010204953E-03 
    1.0861693274514149E-06 
    6.5680489962655197E-01 
    6.6889236748655811E-01 
    6.8276472182026038E-01 
    6.9117685608662105E-01 
    6.9349124116014171E-01 
    6.9028992755972762E-01 
    6.8206091423157567E-01 
    6.6901629929609951E-01 
    6.5112073368204404E-01 
    6.2808375040182052E-01 
    5.9929104215532547E-01 
    5.6434223649286852E-01 
    4.9972923235011601E-01 
    2.8757859637745625E-01 
    1.7459218584515299E-02 
    1.7096793474647851E-05 
    6.0777330942342644E-01 
    6.1986778674789111E-01 
    6.3522167946049568E-01 
    6.4716657590901505E-01 
    6.5478785625753211E-01 
    6.5777229895562794E-01 
    6.5645885025335038E-01 
    6.5095260629279006E-01 
    6.4094217419219290E-01 
    6.2564902342251349E-01 
    6.0396596398127089E-01 
    5.7466967682630088E-01 
    5.2685701830604559E-01 
    3.9438951342864820E-01 
    7.2676654610833960E-02 
    1.9550441444211994E-04 
    5.6095120147763455E-01 
    5.7373710552755497E-01 
    5.8971102783236606E-01 
    6.0297305424608871E-01 
    6.1412267814986077E-01 
    6.2209572397127166E-01 
    6.2658281894466572E-01 
    6.2781700291777620E-01 
    6.2544154114547024E-01 
    6.1836442940900704E-01 
    6.0490853023824609E-01 
    5.8305413405769724E-01 
    5.4667846680015797E-01 
    4.4604319913503626E-01 
    1.3768321930716373E-01 
    5.1226080120706017E-04 
    4.9059208119206960E-01 
    5.1392667180977303E-01 
    5.3847040975313198E-01 
    5.5619159448112809E-01 
    5.7086763752378678E-01 
    5.8307107238953493E-01 
    5.9222893611486283E-01 
    5.9914614957216106E-01 
    6.0362930800539982E-01 
    6.0463966709874095E-01 
    6.0016607397981936E-01 
    5.8763929866457454E-01 
    5.6248602199365738E-01 
    4.8791365342658627E-01 
    2.2920141543498654E-01 
    1.0172100179910120E-02 
    2.1601094009412247E-01 
    3.3821388593161139E-01 
    4.2883704929578731E-01 
    4.7716486690980431E-01 
    5.1126753275252823E-01 
    5.3456144626821267E-01 
    5.5074190439770232E-01 
    5.6447177310525987E-01 
    5.7461397534154657E-01 
    5.8272344742793403E-01 
    5.8732829773244910E-01 
    5.8548093573734084E-01 
    5.7210312121522822E-01 
    5.2546628506267001E-01 
    3.6683479376292433E-01 
    1.0279234656354039E-01 
    4.4477307507320132E-05 
    1.5401273161834782E-02 
    1.0424306139254133E-01 
    2.1586513620476147E-01 
    3.3917118232819482E-01 
    4.2316024060660262E-01 
    4.6673847607134117E-01 
    4.9954468171376265E-01 
    5.2688135524327551E-01 
    5.4651095234351665E-01 
    5.6228536311221589E-01 
    5.7194877054059901E-01 
    5.7255211929691852E-01 
    5.5067035937916353E-01 
    4.4977733669651349E-01 
    2.0550133654015093E-01 
    1.0000001428100969E-06 
    5.6613760401964414E-06 
    2.5423691986754587E-04 
    2.4817368748923847E-03 
    3.2808206655899202E-02 
    1.0443372895555077E-01 
    1.9093334134476339E-01 
    2.8891265225051005E-01 
    3.9412170613044167E-01 
    4.4577465464408811E-01 
    4.8886114358254729E-01 
    5.2610991890083925E-01 
    5.5086042537484703E-01 
    5.5271581360375355E-01 
    5.0474648643954234E-01 
    3.0118516906186465E-01 
    1.0000000000000055E-06 
    1.0000012984315417E-06 
    1.0116895344173182E-06 
    1.2036851247686145E-06 
    6.9745226994503561E-05 
    2.1963267751470158E-04 
    1.8272997101871100E-03 
    1.5434258016866953E-02 
    7.3429605085681374E-02 
    1.3793552979982845E-01 
    2.3602545866245198E-01 
    3.7087246251286854E-01 
    4.5045713377289104E-01 
    5.0454258913099381E-01 
    5.1460173093008532E-01 
    3.8427221926226379E-01 
    9.9999999999999995E-07 
    9.9999999999999995E-07 
    9.9999999999999995E-07 
    1.0000000206932287E-06 
    1.0002663304585100E-06 
    1.0126713740049621E-06 
    1.1083402906893850E-06 
    1.3035610374436767E-05 
    2.4040062880960165E-04 
    5.4757924922919216E-04 
    1.4321216262554462E-02 
    9.7842635734821382E-02 
    2.0511531418295251E-01 
    2.9933508208626980E-01 
    3.8434478616349171E-01 
    3.8447575519771710E-01 
