# vtk DataFile Version 2.0
Pressure Field Data 
ASCII 
DATASET UNSTRUCTURED_GRID 

POINTS 289 double 

    0.0000000000000000E+00     0.0000000000000000E+00     0.0000000000000000E+00 
    1.0000000000000000E+00     0.0000000000000000E+00     0.0000000000000000E+00 
    1.0000000000000000E+00     1.0000000000000000E+00     0.0000000000000000E+00 
    0.0000000000000000E+00     1.0000000000000000E+00     0.0000000000000000E+00 
    6.2499999999872928E-02     0.0000000000000000E+00     0.0000000000000000E+00 
    1.2499999999977310E-01     0.0000000000000000E+00     0.0000000000000000E+00 
    1.8749999999959341E-01     0.0000000000000000E+00     0.0000000000000000E+00 
    2.4999999999941089E-01     0.0000000000000000E+00     0.0000000000000000E+00 
    3.1249999999922851E-01     0.0000000000000000E+00     0.0000000000000000E+00 
    3.7499999999904610E-01     0.0000000000000000E+00     0.0000000000000000E+00 
    4.3749999999886358E-01     0.0000000000000000E+00     0.0000000000000000E+00 
    4.9999999999869210E-01     0.0000000000000000E+00     0.0000000000000000E+00 
    5.6249999999884603E-01     0.0000000000000000E+00     0.0000000000000000E+00 
    6.2499999999901090E-01     0.0000000000000000E+00     0.0000000000000000E+00 
    6.8749999999917577E-01     0.0000000000000000E+00     0.0000000000000000E+00 
    7.4999999999934064E-01     0.0000000000000000E+00     0.0000000000000000E+00 
    8.1249999999950551E-01     0.0000000000000000E+00     0.0000000000000000E+00 
    8.7499999999967026E-01     0.0000000000000000E+00     0.0000000000000000E+00 
    9.3749999999983513E-01     0.0000000000000000E+00     0.0000000000000000E+00 
    1.0000000000000000E+00     6.2499999999872928E-02     0.0000000000000000E+00 
    1.0000000000000000E+00     1.2499999999977310E-01     0.0000000000000000E+00 
    1.0000000000000000E+00     1.8749999999959341E-01     0.0000000000000000E+00 
    1.0000000000000000E+00     2.4999999999941089E-01     0.0000000000000000E+00 
    1.0000000000000000E+00     3.1249999999922851E-01     0.0000000000000000E+00 
    1.0000000000000000E+00     3.7499999999904610E-01     0.0000000000000000E+00 
    1.0000000000000000E+00     4.3749999999886358E-01     0.0000000000000000E+00 
    1.0000000000000000E+00     4.9999999999869210E-01     0.0000000000000000E+00 
    1.0000000000000000E+00     5.6249999999884603E-01     0.0000000000000000E+00 
    1.0000000000000000E+00     6.2499999999901090E-01     0.0000000000000000E+00 
    1.0000000000000000E+00     6.8749999999917577E-01     0.0000000000000000E+00 
    1.0000000000000000E+00     7.4999999999934064E-01     0.0000000000000000E+00 
    1.0000000000000000E+00     8.1249999999950551E-01     0.0000000000000000E+00 
    1.0000000000000000E+00     8.7499999999967026E-01     0.0000000000000000E+00 
    1.0000000000000000E+00     9.3749999999983513E-01     0.0000000000000000E+00 
    9.3749999999973976E-01     1.0000000000000000E+00     0.0000000000000000E+00 
    8.7499999999950118E-01     1.0000000000000000E+00     0.0000000000000000E+00 
    8.1249999999991318E-01     1.0000000000000000E+00     0.0000000000000000E+00 
    7.5000000000034706E-01     1.0000000000000000E+00     0.0000000000000000E+00 
    6.8750000000078049E-01     1.0000000000000000E+00     0.0000000000000000E+00 
    6.2500000000121403E-01     1.0000000000000000E+00     0.0000000000000000E+00 
    5.6250000000164757E-01     1.0000000000000000E+00     0.0000000000000000E+00 
    5.0000000000205946E-01     1.0000000000000000E+00     0.0000000000000000E+00 
    4.3750000000182099E-01     1.0000000000000000E+00     0.0000000000000000E+00 
    3.7500000000156092E-01     1.0000000000000000E+00     0.0000000000000000E+00 
    3.1250000000130068E-01     1.0000000000000000E+00     0.0000000000000000E+00 
    2.5000000000104050E-01     1.0000000000000000E+00     0.0000000000000000E+00 
    1.8750000000078040E-01     1.0000000000000000E+00     0.0000000000000000E+00 
    1.2500000000052031E-01     1.0000000000000000E+00     0.0000000000000000E+00 
    6.2500000000260125E-02     1.0000000000000000E+00     0.0000000000000000E+00 
    0.0000000000000000E+00     9.3749999999973976E-01     0.0000000000000000E+00 
    0.0000000000000000E+00     8.7499999999950118E-01     0.0000000000000000E+00 
    0.0000000000000000E+00     8.1249999999991318E-01     0.0000000000000000E+00 
    0.0000000000000000E+00     7.5000000000034706E-01     0.0000000000000000E+00 
    0.0000000000000000E+00     6.8750000000078049E-01     0.0000000000000000E+00 
    0.0000000000000000E+00     6.2500000000121403E-01     0.0000000000000000E+00 
    0.0000000000000000E+00     5.6250000000164757E-01     0.0000000000000000E+00 
    0.0000000000000000E+00     5.0000000000205946E-01     0.0000000000000000E+00 
    0.0000000000000000E+00     4.3750000000182099E-01     0.0000000000000000E+00 
    0.0000000000000000E+00     3.7500000000156092E-01     0.0000000000000000E+00 
    0.0000000000000000E+00     3.1250000000130068E-01     0.0000000000000000E+00 
    0.0000000000000000E+00     2.5000000000104050E-01     0.0000000000000000E+00 
    0.0000000000000000E+00     1.8750000000078040E-01     0.0000000000000000E+00 
    0.0000000000000000E+00     1.2500000000052031E-01     0.0000000000000000E+00 
    0.0000000000000000E+00     6.2500000000260125E-02     0.0000000000000000E+00 
    6.2499999999897131E-02     6.2500000000235922E-02     0.0000000000000000E+00 
    6.2499999999921327E-02     1.2500000000047351E-01     0.0000000000000000E+00 
    6.2499999999945530E-02     1.8750000000070621E-01     0.0000000000000000E+00 
    6.2499999999969733E-02     2.5000000000093858E-01     0.0000000000000000E+00 
    6.2499999999993928E-02     3.1250000000117117E-01     0.0000000000000000E+00 
    6.2500000000018124E-02     3.7500000000140382E-01     0.0000000000000000E+00 
    6.2500000000042327E-02     4.3750000000163619E-01     0.0000000000000000E+00 
    6.2500000000066530E-02     5.0000000000184897E-01     0.0000000000000000E+00 
    6.2500000000090733E-02     5.6250000000147260E-01     0.0000000000000000E+00 
    6.2500000000114922E-02     6.2500000000107636E-01     0.0000000000000000E+00 
    6.2500000000139125E-02     6.8750000000068034E-01     0.0000000000000000E+00 
    6.2500000000163328E-02     7.5000000000028411E-01     0.0000000000000000E+00 
    6.2500000000187531E-02     8.1249999999988787E-01     0.0000000000000000E+00 
    6.2500000000211720E-02     8.7499999999951172E-01     0.0000000000000000E+00 
    6.2500000000235922E-02     9.3749999999974565E-01     0.0000000000000000E+00 
    1.2499999999981980E-01     6.2500000000211733E-02     0.0000000000000000E+00 
    1.2499999999986650E-01     1.2500000000042691E-01     0.0000000000000000E+00 
    1.2499999999991319E-01     1.8750000000063199E-01     0.0000000000000000E+00 
    1.2499999999995989E-01     2.5000000000083678E-01     0.0000000000000000E+00 
    1.2500000000000661E-01     3.1250000000104172E-01     0.0000000000000000E+00 
    1.2500000000005329E-01     3.7500000000124661E-01     0.0000000000000000E+00 
    1.2500000000010000E-01     4.3750000000145117E-01     0.0000000000000000E+00 
    1.2500000000014669E-01     5.0000000000163858E-01     0.0000000000000000E+00 
    1.2500000000019340E-01     5.6250000000129741E-01     0.0000000000000000E+00 
    1.2500000000024011E-01     6.2500000000093847E-01     0.0000000000000000E+00 
    1.2500000000028680E-01     6.8750000000057998E-01     0.0000000000000000E+00 
    1.2500000000033351E-01     7.5000000000022127E-01     0.0000000000000000E+00 
    1.2500000000038020E-01     8.1249999999986211E-01     0.0000000000000000E+00 
    1.2500000000042691E-01     8.7499999999952238E-01     0.0000000000000000E+00 
    1.2500000000047359E-01     9.3749999999975164E-01     0.0000000000000000E+00 
    1.8749999999966760E-01     6.2500000000187531E-02     0.0000000000000000E+00 
    1.8749999999974179E-01     1.2500000000038020E-01     0.0000000000000000E+00 
    1.8749999999981601E-01     1.8750000000055780E-01     0.0000000000000000E+00 
    1.8749999999989009E-01     2.5000000000073502E-01     0.0000000000000000E+00 
    1.8749999999996431E-01     3.1250000000091221E-01     0.0000000000000000E+00 
    1.8750000000003850E-01     3.7500000000108941E-01     0.0000000000000000E+00 
    1.8750000000011269E-01     4.3750000000126649E-01     0.0000000000000000E+00 
    1.8750000000018691E-01     5.0000000000142808E-01     0.0000000000000000E+00 
    1.8750000000026110E-01     5.6250000000112244E-01     0.0000000000000000E+00 
    1.8750000000033529E-01     6.2500000000080080E-01     0.0000000000000000E+00 
    1.8750000000040951E-01     6.8750000000047962E-01     0.0000000000000000E+00 
    1.8750000000048361E-01     7.5000000000015843E-01     0.0000000000000000E+00 
    1.8750000000055780E-01     8.1249999999983680E-01     0.0000000000000000E+00 
    1.8750000000063199E-01     8.7499999999953304E-01     0.0000000000000000E+00 
    1.8750000000070621E-01     9.3749999999975764E-01     0.0000000000000000E+00 
    2.4999999999951281E-01     6.2500000000163314E-02     0.0000000000000000E+00 
    2.4999999999961461E-01     1.2500000000033351E-01     0.0000000000000000E+00 
    2.4999999999971650E-01     1.8750000000048361E-01     0.0000000000000000E+00 
    2.4999999999981831E-01     2.5000000000063310E-01     0.0000000000000000E+00 
    2.4999999999992020E-01     3.1250000000078260E-01     0.0000000000000000E+00 
    2.5000000000002198E-01     3.7500000000093209E-01     0.0000000000000000E+00 
    2.5000000000012390E-01     4.3750000000108180E-01     0.0000000000000000E+00 
    2.5000000000022571E-01     5.0000000000121769E-01     0.0000000000000000E+00 
    2.5000000000032763E-01     5.6250000000094724E-01     0.0000000000000000E+00 
    2.5000000000042938E-01     6.2500000000066314E-01     0.0000000000000000E+00 
    2.5000000000053119E-01     6.8750000000037925E-01     0.0000000000000000E+00 
[...]
CELL_DATA 256 
SCALARS Pressure double 1 
LOOKUP_TABLE default 

    8.8165055726841601E-01 
    8.3123412084103054E-01 
    7.9896669861101699E-01 
    7.7482284856448347E-01 
    7.5472767604080238E-01 
    7.3732143801963934E-01 
    7.2222095589635693E-01 
    7.0931465428906648E-01 
    6.9858340017762799E-01 
    6.8985179338873293E-01 
    6.8219692147403166E-01 
    6.7506325593126359E-01 
    6.7012386530270396E-01 
    6.6735344248340100E-01 
    6.6606525034140884E-01 
    6.6571814173727395E-01 
    8.3124468211482372E-01 
    8.2080412731914565E-01 
    7.9973578778636345E-01 
    7.7866232983890205E-01 
    7.5925233652631385E-01 
    7.4169925808197990E-01 
    7.2608918506767584E-01 
    7.1249760641122628E-01 
    7.0102928101087281E-01 
    6.9167309069111016E-01 
    6.8382471236804510E-01 
    6.7629118708485758E-01 
    6.7055067471814112E-01 
    6.6726524193589642E-01 
    6.6571548966946548E-01 
    6.6537015439078806E-01 
    7.9898217294441110E-01 
    7.9974391271166423E-01 
    7.8975557076756797E-01 
    7.7472771195121570E-01 
    7.5819189952271471E-01 
    7.4183255434710726E-01 
    7.2651363215524578E-01 
    7.1272603444732197E-01 
    7.0081935038311449E-01 
    6.9098725716840703E-01 
    6.8297497782644490E-01 
    6.7552840050611640E-01 
    6.6923789892906160E-01 
    6.6569729626473151E-01 
    6.6415610026874805E-01 
    6.6408138635777070E-01 
    7.7483548304515237E-01 
    7.7867203354270254E-01 
    7.7473219773900259E-01 
    7.6499469063196246E-01 
    7.5199459799807566E-01 
    7.3765923165650371E-01 
    7.2328572874878916E-01 
    7.0974932824557146E-01 
    6.9768507148765069E-01 
    6.8752429298152562E-01 
    6.7934161441173968E-01 
    6.7228423483680122E-01 
    6.6584258032506127E-01 
    6.6216651002051163E-01 
    6.6086736397138313E-01 
    6.6132163882733408E-01 
    7.5473210701416826E-01 
    7.5925704892144230E-01 
    7.5819570270701464E-01 
    7.5199665021277518E-01 
    7.4202292757127142E-01 
    7.2979289652774604E-01 
    7.1662083782421393E-01 
    7.0357476484573700E-01 
    6.9151685266498786E-01 
    6.8111327715556114E-01 
    6.7275042367849547E-01 
    6.6607293109106591E-01 
    6.5991146589785021E-01 
    6.5615597037543050E-01 
    6.5532094244227956E-01 
    6.5655716140348075E-01 
    7.3731784307724335E-01 
    7.4169622656815770E-01 
    7.4183037647163164E-01 
    7.3765836063496748E-01 
    7.2979191730889237E-01 
    7.1924260018650799E-01 
    7.0712786105241510E-01 
    6.9452809792091452E-01 
    6.8243688320910134E-01 
    6.7172026282494457E-01 
    6.6303946920202883E-01 
    6.5646226571347521E-01 
    6.5082791302218990E-01 
    6.4714878114865937E-01 
    6.4696845690050520E-01 
    6.4923511244938137E-01 
    7.2220627377576174E-01 
    7.2607656524327058E-01 
    7.2650267444917027E-01 
    7.2327778620933725E-01 
    7.1661492778893821E-01 
    7.0712395589814314E-01 
    6.9566354321062185E-01 
    6.8321887578537244E-01 
    6.7082775122057925E-01 
    6.5950966424904867E-01 
    6.5016848447511344E-01 
    6.4328242905794442E-01 
    6.3813791903461503E-01 
    6.3471248996514718E-01 
    6.3523036447168035E-01 
    6.3876329670555820E-01 
    7.0928163400207100E-01 
    7.1246955192211958E-01 
    7.1270290735511166E-01 
    7.0973181028176557E-01 
    7.0356110020957308E-01 
    6.9451759716163231E-01 
    6.8321317628673373E-01 
    6.7048496718025441E-01 
    6.5734417522824540E-01 
    6.4491388881254919E-01 
    6.3433674736687395E-01 
    6.2652249879797361E-01 
    6.2142458863623407E-01 
    6.1825762209925372E-01 
    6.1938026362011178E-01 
    6.2444636589513636E-01 
    6.9852918240384676E-01 
    7.0098070269020629E-01 
    7.0078009944921948E-01 
    6.9765673205505796E-01 
    6.9149427637444238E-01 
    6.8241733458664899E-01 
    6.7081375669384646E-01 
    6.5733748648847889E-01 
    6.4290519516357658E-01 
    6.2867818345325377E-01 
    6.1601219810811692E-01 
    6.0628575083937508E-01 
    6.0018301732173274E-01 
    5.9692210626113140E-01 
    5.9850533232763026E-01 
    6.0541838682130811E-01 
    6.8978460889417836E-01 
    6.9160769339585937E-01 
    6.9093307001020643E-01 
    6.8748759253923475E-01 
    6.8108420872919628E-01 
    6.7169117444247761E-01 
    6.5948466105869619E-01 
    6.4489781445436700E-01 
    6.2866959662655342E-01 
    6.1190044229312746E-01 
    5.9607843661766069E-01 
    5.8302402577323287E-01 
    5.7429693485229749E-01 
    5.6999446138322563E-01 
    5.7152298403474133E-01 
    5.8052536559768220E-01 
    6.8213586285972649E-01 
    6.8376009283589334E-01 
    6.8291617666521942E-01 
    6.7930438606042853E-01 
    6.7272238869242063E-01 
    6.6300524868748134E-01 
    6.5013387684801072E-01 
    6.3431072603450822E-01 
    6.1599160316536561E-01 
    5.9606231657024411E-01 
    5.7597737038281771E-01 
    5.5786474696154931E-01 
    5.4425011023753378E-01 
    5.3686239338445907E-01 
    5.3702771160183693E-01 
    5.4801709568862389E-01 
    6.7501245420695177E-01 
    6.7624232558033037E-01 
    6.7548511168910708E-01 
    6.7225373581037950E-01 
    6.6604827847414649E-01 
    6.5642530532495902E-01 
    6.4323797274900296E-01 
    6.2648733364534304E-01 
    6.0625225721120479E-01 
    5.8298363344188842E-01 
    5.5783434721505076E-01 
    5.3286067206271004E-01 
    5.1131037639598231E-01 
    4.9685538607795776E-01 
    4.9276049017596979E-01 
    5.0489458813839128E-01 
    6.7007595996603675E-01 
    6.7050430165374941E-01 
    6.6919766397622882E-01 
    6.6581458874790078E-01 
    6.5988661977589136E-01 
    6.5078767764563361E-01 
    6.3808349778056106E-01 
    6.2137665520166774E-01 
    6.0013473078562074E-01 
    5.7422558779044619E-01 
    5.4418153393340218E-01 
    5.1127374276821191E-01 
    4.7862014647920181E-01 
    4.5135675347487708E-01 
    4.3631994613994313E-01 
    4.4500109130298582E-01 
    6.6730709699558122E-01 
    6.6721963443689813E-01 
    6.6565451654632235E-01 
    6.6212883740045048E-01 
    6.5612201080630517E-01 
    6.4711036410294842E-01 
    6.3466062166577386E-01 
    6.1820335565960616E-01 
    5.9687174872396087E-01 
    5.6992611363410062E-01 
    5.3679007637926135E-01 
    4.9682303973525566E-01 
    4.5136220695945273E-01 
    4.0473874620887534E-01 
    3.6687653490467481E-01 
    3.5987899268723156E-01 
    6.6601939605363625E-01 
    6.6567011030543777E-01 
    6.6411245334591207E-01 
    6.6082662300098816E-01 
    6.5528243745382975E-01 
    6.4692857987217400E-01 
    6.3518446015198238E-01 
    6.1932833398987208E-01 
    5.9845339465676251E-01 
    5.7145852999686486E-01 
    5.3694903890652224E-01 
    4.9274039412326553E-01 
    4.3636442717380086E-01 
    3.6691535954336707E-01 
    2.8724103661541817E-01 
    2.3158893196865396E-01 
    6.6567231093076262E-01 
    6.6532458746553003E-01 
    6.6403709494744489E-01 
    6.6127961252341660E-01 
    6.5651700778173960E-01 
    6.4919451109798476E-01 
    6.3871930069270189E-01 
    6.2439768491082248E-01 
    6.0536655852650112E-01 
    5.8046343561349045E-01 
    5.4793394140703344E-01 
    5.0484431566188015E-01 
    4.4505394415926708E-01 
    3.5992610414336584E-01 
    2.3159493213397375E-01 
    0.0000000000000000E+00 

SCALARS Saturarion double 1 
LOOKUP_TABLE default 

    1.0000000000000000E+00 
    9.7905465512096357E-01 
    9.4204959721518422E-01 
    8.7618774493365414E-01 
    8.0223715904649640E-01 
    7.3741160372887993E-01 
    6.7961668632670735E-01 
    6.2796367680688114E-01 
    5.8110160522192955E-01 
    5.2703002851728531E-01 
    3.8663592268859026E-01 
    2.6422371116184121E-02 
    1.0011737090969148E-06 
    1.0000000001993924E-06 
    9.9999999999999995E-07 
    9.9999999999999995E-07 
    9.7896589307597359E-01 
    9.6076790982872462E-01 
    9.2752093463479068E-01 
    8.7253844598568908E-01 
    8.0747443169030442E-01 
    7.4664654485587878E-01 
    6.9014410070496179E-01 
    6.3881066973024037E-01 
    5.9224680036964417E-01 
    5.4239204041086508E-01 
    4.4086111986160575E-01 
    1.1442101688383513E-01 
    1.3568639574891892E-04 
    1.0032428058339312E-06 
    9.9999999999999995E-07 
    9.9999999999999995E-07 
    9.4176779766014795E-01 
    9.2735445765781488E-01 
    8.9614798745169599E-01 
    8.5341184171849271E-01 
    8.0301489508918100E-01 
    7.5138617019435694E-01 
    7.0001044247192967E-01 
    6.5123572714393840E-01 
    6.0543074400326435E-01 
    5.5822630943503770E-01 
    4.8395379721586124E-01 
    2.4167720553556757E-01 
    2.8462823597118453E-03 
    1.2683590041221042E-06 
    1.0000000369840628E-06 
    9.9999999999999995E-07 
    8.7559240845616015E-01 
    8.7221129290625299E-01 
    8.5329073106349596E-01 
    8.2342114107564524E-01 
    7.8698062535623103E-01 
    7.4574850687365624E-01 
    7.0221633645556536E-01 
    6.5854986308392383E-01 
    6.1540303015932618E-01 
    5.7136923596196354E-01 
    5.1385709215931041E-01 
    3.6431832040829171E-01 
    4.2829923424403782E-02 
    1.0118400868502694E-04 
    1.0008967719069098E-06 
    9.9999999999999995E-07 
    8.0156984061496694E-01 
    8.0700821875886031E-01 
    8.0273227706487260E-01 
    7.8680896653047627E-01 
    7.6233054218536933E-01 
    7.3161049596477046E-01 
    6.9691552026157255E-01 
    6.5996799921089333E-01 
    6.2165214757712983E-01 
    5.8178847549179424E-01 
    5.3474521868915836E-01 
    4.3930179710345452E-01 
    1.3498180208229507E-01 
    2.5313763644191817E-04 
    1.0239073250438421E-06 
    1.0000000000473974E-06 
    7.3675885608712388E-01 
    7.4618624276467227E-01 
    7.5103526066867987E-01 
    7.4539433970367186E-01 
    7.3139662456901955E-01 
    7.1085810841714270E-01 
    6.8518388887911363E-01 
    6.5584967468204824E-01 
    6.2379306060876083E-01 
    5.8905947888485344E-01 
    5.4959425977350373E-01 
    4.7830253600594425E-01 
    2.4100216450293666E-01 
    6.7939645885973536E-03 
    2.9950669870535707E-06 
    1.0000003481864052E-06 
    6.7857904099775501E-01 
    6.8957096779342864E-01 
    6.9971010384840493E-01 
    7.0186343178704547E-01 
    6.9654676793941672E-01 
    6.8500317058969573E-01 
    6.6811519366426531E-01 
    6.4684585437575004E-01 
    6.2190121577105317E-01 
    5.9306577445046726E-01 
    5.5910217611738189E-01 
    5.0270948970714968E-01 
    3.4954164716136815E-01 
    4.0362854071772272E-02 
    8.9389520276256709E-05 
    1.0006576900678603E-06 
    6.2660519144091942E-01 
    6.3799527910333698E-01 
    6.5086312244651845E-01 
    6.5826899351851331E-01 
    6.5958454249014409E-01 
    6.5550156506801660E-01 
    6.4667468170672737E-01 
    6.3349067475698739E-01 
    6.1608185826244333E-01 
    5.9396999241293968E-01 
    5.6588046190253272E-01 
    5.2419037396035972E-01 
    4.1810043590804258E-01 
    1.0712717550752861E-01 
    2.2201589191913097E-04 
    1.0166510669297996E-06 
    5.7968090109510273E-01 
    5.9125204996073055E-01 
    6.0500549903499756E-01 
    6.1514558786480900E-01 
    6.2138896152970080E-01 
    6.2343515555333118E-01 
    6.2156869870468978E-01 
    6.1586881256495896E-01 
    6.0599892197601635E-01 
    5.9112937780963704E-01 
    5.7013517812086423E-01 
    5.3786431612826147E-01 
    4.6310709226062091E-01 
    2.0933398469459544E-01 
    5.7846213389985968E-03 
    2.3745519633558707E-06 
    5.2608578707352061E-01 
    5.4187540659803701E-01 
    5.5831769026835731E-01 
    5.7118386598327509E-01 
    5.8148617176773820E-01 
    5.8881492257667178E-01 
    5.9278767495160523E-01 
    5.9361613252113798E-01 
    5.9084686195952318E-01 
    5.8340028868931471E-01 
    5.7004542447995898E-01 
    5.4793064571241856E-01 
    4.9350620123843508E-01 
    3.2349391070190242E-01 
    4.0489027183264699E-02 
    1.3362471210857970E-04 
    3.8677173987364727E-01 
    4.4178214362474039E-01 
    4.8553184243952319E-01 
    5.1406845262782841E-01 
    5.3429867466271141E-01 
    5.4931642455962415E-01 
    5.5917314128169393E-01 
    5.6577228698075810E-01 
    5.6968935054007697E-01 
    5.6967293373550965E-01 
    5.6433497756609108E-01 
    5.5189717768266400E-01 
    5.1836872569889492E-01 
    4.0804470522681663E-01 
    1.0450571146482322E-01 
    3.6063424407715327E-04 
    2.6966427708770464E-02 
    1.1724414923837272E-01 
    2.4870399861359693E-01 
    3.6766880036173955E-01 
    4.3801386751051175E-01 
    4.7706621767744234E-01 
    5.0264401719201779E-01 
    5.2422590321945650E-01 
    5.3757457395097552E-01 
    5.4739440198678435E-01 
    5.5151363131508069E-01 
    5.4907092570580573E-01 
    5.3254679897469837E-01 
    4.6581122563478683E-01 
    2.2735803260501400E-01 
    1.6523076035048205E-02 
    1.0013375586034076E-06 
    1.4400941714129672E-04 
    3.5059006645676537E-03 
    4.2726766911162062E-02 
    1.3239621472305632E-01 
    2.3794152384301126E-01 
    3.4850804986799355E-01 
    4.1833849215249608E-01 
    4.6261451718290869E-01 
    4.9294547662313243E-01 
    5.1805144624624144E-01 
    5.3233696020690902E-01 
    5.3399838117101606E-01 
    5.0308397826818774E-01 
    3.6927023762998584E-01 
    1.3059419793592775E-01 
    1.0000000002306403E-06 
    1.0038544351707805E-06 
    1.4047092814831802E-06 
    9.0864347657345935E-05 
    2.5022670440581703E-04 
    6.5735230071051779E-03 
    4.1338623315506674E-02 
    1.0620653253263876E-01 
    2.0851788159366297E-01 
    3.2373755339044918E-01 
    4.1019198302226595E-01 
    4.6683610109193063E-01 
    5.0355558984290849E-01 
    5.0544650629453991E-01 
    4.4165309040348522E-01 
    2.4125256984383889E-01 
    9.9999999999999995E-07 
    9.9999999999999995E-07 
    1.0000000561567201E-06 
    1.0007303398721060E-06 
    1.0245827450023824E-06 
    2.8867460739929471E-06 
    1.0101481531325062E-04 
    2.1258852944313201E-04 
    6.1693870489935385E-03 
    4.1435323807646751E-02 
    1.1001668825700617E-01 
    2.2871776160785370E-01 
    3.7008587645132496E-01 
    4.4169491951630346E-01 
    4.5090630643749419E-01 
    3.2851995294699504E-01 
    9.9999999999999995E-07 
    9.9999999999999995E-07 
    9.9999999999999995E-07 
    9.9999999999999995E-07 
    1.0000000000290398E-06 
    1.0000003233246444E-06 
    1.0008297531242797E-06 
    1.0156897574394672E-06 
    2.5838968955091593E-06 
    1.5590965339133114E-04 
    3.9704244464506763E-04 
    1.4275857875234076E-02 
    1.3197844277763379E-01 
    2.4034169828105439E-01 
    3.2850724241870094E-01 
    3.2874658324674338E-01 
