# vtk DataFile Version 2.0
Pressure Field Data 
ASCII 
DATASET UNSTRUCTURED_GRID 

POINTS 289 double 

    0.0000000000000000E+00     0.0000000000000000E+00     0.0000000000000000E+00 
    1.0000000000000000E+00     0.0000000000000000E+00     0.0000000000000000E+00 
    1.0000000000000000E+00     1.0000000000000000E+00     0.0000000000000000E+00 
    0.0000000000000000E+00     1.0000000000000000E+00     0.0000000000000000E+00 
    6.2499999999872928E-02     0.0000000000000000E+00     0.0000000000000000E+00 
    1.2499999999977310E-01     0.0000000000000000E+00     0.0000000000000000E+00 
    1.8749999999959341E-01     0.0000000000000000E+00     0.0000000000000000E+00 
    2.4999999999941089E-01     0.0000000000000000E+00     0.0000000000000000E+00 
    3.1249999999922851E-01     0.0000000000000000E+00     0.0000000000000000E+00 
    3.7499999999904610E-01     0.0000000000000000E+00     0.0000000000000000E+00 
    4.3749999999886358E-01     0.0000000000000000E+00     0.0000000000000000E+00 
    4.9999999999869210E-01     0.0000000000000000E+00     0.0000000000000000E+00 
    5.6249999999884603E-01     0.0000000000000000E+00     0.0000000000000000E+00 
    6.2499999999901090E-01     0.0000000000000000E+00     0.0000000000000000E+00 
    6.8749999999917577E-01     0.0000000000000000E+00     0.0000000000000000E+00 
    7.4999999999934064E-01     0.0000000000000000E+00     0.0000000000000000E+00 
    8.1249999999950551E-01     0.0000000000000000E+00     0.0000000000000000E+00 
    8.7499999999967026E-01     0.0000000000000000E+00     0.0000000000000000E+00 
    9.3749999999983513E-01     0.0000000000000000E+00     0.0000000000000000E+00 
    1.0000000000000000E+00     6.2499999999872928E-02     0.0000000000000000E+00 
    1.0000000000000000E+00     1.2499999999977310E-01     0.0000000000000000E+00 
    1.0000000000000000E+00     1.8749999999959341E-01     0.0000000000000000E+00 
    1.0000000000000000E+00     2.4999999999941089E-01     0.0000000000000000E+00 
    1.0000000000000000E+00     3.1249999999922851E-01     0.0000000000000000E+00 
    1.0000000000000000E+00     3.7499999999904610E-01     0.0000000000000000E+00 
    1.0000000000000000E+00     4.3749999999886358E-01     0.0000000000000000E+00 
    1.0000000000000000E+00     4.9999999999869210E-01     0.0000000000000000E+00 
    1.0000000000000000E+00     5.6249999999884603E-01     0.0000000000000000E+00 
    1.0000000000000000E+00     6.2499999999901090E-01     0.0000000000000000E+00 
    1.0000000000000000E+00     6.8749999999917577E-01     0.0000000000000000E+00 
    1.0000000000000000E+00     7.4999999999934064E-01     0.0000000000000000E+00 
    1.0000000000000000E+00     8.1249999999950551E-01     0.0000000000000000E+00 
    1.0000000000000000E+00     8.7499999999967026E-01     0.0000000000000000E+00 
    1.0000000000000000E+00     9.3749999999983513E-01     0.0000000000000000E+00 
    9.3749999999973976E-01     1.0000000000000000E+00     0.0000000000000000E+00 
    8.7499999999950118E-01     1.0000000000000000E+00     0.0000000000000000E+00 
    8.1249999999991318E-01     1.0000000000000000E+00     0.0000000000000000E+00 
    7.5000000000034706E-01     1.0000000000000000E+00     0.0000000000000000E+00 
    6.8750000000078049E-01     1.0000000000000000E+00     0.0000000000000000E+00 
    6.2500000000121403E-01     1.0000000000000000E+00     0.0000000000000000E+00 
    5.6250000000164757E-01     1.0000000000000000E+00     0.0000000000000000E+00 
    5.0000000000205946E-01     1.0000000000000000E+00     0.0000000000000000E+00 
    4.3750000000182099E-01     1.0000000000000000E+00     0.0000000000000000E+00 
    3.7500000000156092E-01     1.0000000000000000E+00     0.0000000000000000E+00 
    3.1250000000130068E-01     1.0000000000000000E+00     0.0000000000000000E+00 
    2.5000000000104050E-01     1.0000000000000000E+00     0.0000000000000000E+00 
    1.8750000000078040E-01     1.0000000000000000E+00     0.0000000000000000E+00 
    1.2500000000052031E-01     1.0000000000000000E+00     0.0000000000000000E+00 
    6.2500000000260125E-02     1.0000000000000000E+00     0.0000000000000000E+00 
    0.0000000000000000E+00     9.3749999999973976E-01     0.0000000000000000E+00 
    0.0000000000000000E+00     8.7499999999950118E-01     0.0000000000000000E+00 
    0.0000000000000000E+00     8.1249999999991318E-01     0.0000000000000000E+00 
    0.0000000000000000E+00     7.5000000000034706E-01     0.0000000000000000E+00 
    0.0000000000000000E+00     6.8750000000078049E-01     0.0000000000000000E+00 
    0.0000000000000000E+00     6.2500000000121403E-01     0.0000000000000000E+00 
    0.0000000000000000E+00     5.6250000000164757E-01     0.0000000000000000E+00 
    0.0000000000000000E+00     5.0000000000205946E-01     0.0000000000000000E+00 
    0.0000000000000000E+00     4.3750000000182099E-01     0.0000000000000000E+00 
    0.0000000000000000E+00     3.7500000000156092E-01     0.0000000000000000E+00 
    0.0000000000000000E+00     3.1250000000130068E-01     0.0000000000000000E+00 
    0.0000000000000000E+00     2.5000000000104050E-01     0.0000000000000000E+00 
    0.0000000000000000E+00     1.8750000000078040E-01     0.0000000000000000E+00 
    0.0000000000000000E+00     1.2500000000052031E-01     0.0000000000000000E+00 
    0.0000000000000000E+00     6.2500000000260125E-02     0.0000000000000000E+00 
    6.2499999999897131E-02     6.2500000000235922E-02     0.0000000000000000E+00 
    6.2499999999921327E-02     1.2500000000047351E-01     0.0000000000000000E+00 
    6.2499999999945530E-02     1.8750000000070621E-01     0.0000000000000000E+00 
    6.2499999999969733E-02     2.5000000000093858E-01     0.0000000000000000E+00 
    6.2499999999993928E-02     3.1250000000117117E-01     0.0000000000000000E+00 
    6.2500000000018124E-02     3.7500000000140382E-01     0.0000000000000000E+00 
    6.2500000000042327E-02     4.3750000000163619E-01     0.0000000000000000E+00 
    6.2500000000066530E-02     5.0000000000184897E-01     0.0000000000000000E+00 
    6.2500000000090733E-02     5.6250000000147260E-01     0.0000000000000000E+00 
    6.2500000000114922E-02     6.2500000000107636E-01     0.0000000000000000E+00 
    6.2500000000139125E-02     6.8750000000068034E-01     0.0000000000000000E+00 
    6.2500000000163328E-02     7.5000000000028411E-01     0.0000000000000000E+00 
    6.2500000000187531E-02     8.1249999999988787E-01     0.0000000000000000E+00 
    6.2500000000211720E-02     8.7499999999951172E-01     0.0000000000000000E+00 
    6.2500000000235922E-02     9.3749999999974565E-01     0.0000000000000000E+00 
    1.2499999999981980E-01     6.2500000000211733E-02     0.0000000000000000E+00 
    1.2499999999986650E-01     1.2500000000042691E-01     0.0000000000000000E+00 
    1.2499999999991319E-01     1.8750000000063199E-01     0.0000000000000000E+00 
    1.2499999999995989E-01     2.5000000000083678E-01     0.0000000000000000E+00 
    1.2500000000000661E-01     3.1250000000104172E-01     0.0000000000000000E+00 
    1.2500000000005329E-01     3.7500000000124661E-01     0.0000000000000000E+00 
    1.2500000000010000E-01     4.3750000000145117E-01     0.0000000000000000E+00 
    1.2500000000014669E-01     5.0000000000163858E-01     0.0000000000000000E+00 
    1.2500000000019340E-01     5.6250000000129741E-01     0.0000000000000000E+00 
    1.2500000000024011E-01     6.2500000000093847E-01     0.0000000000000000E+00 
    1.2500000000028680E-01     6.8750000000057998E-01     0.0000000000000000E+00 
    1.2500000000033351E-01     7.5000000000022127E-01     0.0000000000000000E+00 
    1.2500000000038020E-01     8.1249999999986211E-01     0.0000000000000000E+00 
    1.2500000000042691E-01     8.7499999999952238E-01     0.0000000000000000E+00 
    1.2500000000047359E-01     9.3749999999975164E-01     0.0000000000000000E+00 
    1.8749999999966760E-01     6.2500000000187531E-02     0.0000000000000000E+00 
    1.8749999999974179E-01     1.2500000000038020E-01     0.0000000000000000E+00 
    1.8749999999981601E-01     1.8750000000055780E-01     0.0000000000000000E+00 
    1.8749999999989009E-01     2.5000000000073502E-01     0.0000000000000000E+00 
    1.8749999999996431E-01     3.1250000000091221E-01     0.0000000000000000E+00 
    1.8750000000003850E-01     3.7500000000108941E-01     0.0000000000000000E+00 
    1.8750000000011269E-01     4.3750000000126649E-01     0.0000000000000000E+00 
    1.8750000000018691E-01     5.0000000000142808E-01     0.0000000000000000E+00 
    1.8750000000026110E-01     5.6250000000112244E-01     0.0000000000000000E+00 
    1.8750000000033529E-01     6.2500000000080080E-01     0.0000000000000000E+00 
    1.8750000000040951E-01     6.8750000000047962E-01     0.0000000000000000E+00 
    1.8750000000048361E-01     7.5000000000015843E-01     0.0000000000000000E+00 
    1.8750000000055780E-01     8.1249999999983680E-01     0.0000000000000000E+00 
    1.8750000000063199E-01     8.7499999999953304E-01     0.0000000000000000E+00 
    1.8750000000070621E-01     9.3749999999975764E-01     0.0000000000000000E+00 
    2.4999999999951281E-01     6.2500000000163314E-02     0.0000000000000000E+00 
    2.4999999999961461E-01     1.2500000000033351E-01     0.0000000000000000E+00 
    2.4999999999971650E-01     1.8750000000048361E-01     0.0000000000000000E+00 
    2.4999999999981831E-01     2.5000000000063310E-01     0.0000000000000000E+00 
    2.4999999999992020E-01     3.1250000000078260E-01     0.0000000000000000E+00 
    2.5000000000002198E-01     3.7500000000093209E-01     0.0000000000000000E+00 
    2.5000000000012390E-01     4.3750000000108180E-01     0.0000000000000000E+00 
    2.5000000000022571E-01     5.0000000000121769E-01     0.0000000000000000E+00 
    2.5000000000032763E-01     5.6250000000094724E-01     0.0000000000000000E+00 
    2.5000000000042938E-01     6.2500000000066314E-01     0.0000000000000000E+00 
    2.5000000000053119E-01     6.8750000000037925E-01     0.0000000000000000E+00 
[...]
CELL_DATA 256 
SCALARS Pressure double 1 
LOOKUP_TABLE default 

    7.0688286566236991E-01 
    6.5707193843930412E-01 
    6.2592580220500615E-01 
    6.0351064346188554E-01 
    5.8566734403524490E-01 
    5.7071188398846173E-01 
    5.5800822415467366E-01 
    5.4728201592493342E-01 
    5.3839529234809425E-01 
    5.3127688966987519E-01 
    5.2583681965013218E-01 
    5.2166003692896168E-01 
    5.1800998108549590E-01 
    5.1559618681246500E-01 
    5.1453081652947918E-01 
    5.1424412101793604E-01 
    6.5707790650411335E-01 
    6.4680698132198955E-01 
    6.2658893436005514E-01 
    6.0700100428332149E-01 
    5.8965309636133312E-01 
    5.7445915060494612E-01 
    5.6124585557559592E-01 
    5.4990276241659553E-01 
    5.4036676304066678E-01 
    5.3261499244213228E-01 
    5.2662586666572664E-01 
    5.2213901334599333E-01 
    5.1832596267938225E-01 
    5.1551318160725157E-01 
    5.1423878503453946E-01 
    5.1395586610854438E-01 
    6.2593482072163498E-01 
    6.2659375702251785E-01 
    6.1720348388029556E-01 
    6.0343516235368355E-01 
    5.8873926150370615E-01 
    5.7458074151383076E-01 
    5.6159238037702208E-01 
    5.5006790708883968E-01 
    5.4016079151801266E-01 
    5.3197382353539580E-01 
    5.2557715560614260E-01 
    5.2086338079423677E-01 
    5.1715570623494267E-01 
    5.1422308926279847E-01 
    5.1294988879729098E-01 
    5.1289249950228277E-01 
    6.0351815112545948E-01 
    6.0700671302958531E-01 
    6.0343782606111385E-01 
    5.9473647489417059E-01 
    5.8333947328122360E-01 
    5.7101251412471665E-01 
    5.5886470770708419E-01 
    5.4757142026365235E-01 
    5.3755626482185692E-01 
    5.2910711449553416E-01 
    5.2242370362505131E-01 
    5.1756197584369068E-01 
    5.1410003527410919E-01 
    5.1135661421279077E-01 
    5.1023687931193917E-01 
    5.1062019934744995E-01 
    5.8567087447869115E-01 
    5.8965630917117873E-01 
    5.8874185674976620E-01 
    5.8334112242055258E-01 
    5.7473771711729904E-01 
    5.6432916060620042E-01 
    5.5327275437580281E-01 
    5.4243982162302995E-01 
    5.3247345126785495E-01 
    5.2385546615297851E-01 
    5.1694160990414495E-01 
    5.1194940715144166E-01 
    5.0871660715955735E-01 
    5.0642303250031084E-01 
    5.0564407808389700E-01 
    5.0669805787132971E-01 
    5.7071220268559852E-01 
    5.7445888394685085E-01 
    5.7458073846976299E-01 
    5.7101345369024226E-01 
    5.6432963236922395E-01 
    5.5545470834654620E-01 
    5.4537109026172359E-01 
    5.3497415197997844E-01 
    5.2503534604486601E-01 
    5.1620264692900852E-01 
    5.0899903534422619E-01 
    5.0380264456765778E-01 
    5.0068988122669267E-01 
    4.9898227939300033E-01 
    4.9876957005166239E-01 
    5.0069479847733911E-01 
    5.5800432883160334E-01 
    5.6124173339204875E-01 
    5.6158849916003495E-01 
    5.5886251288181632E-01 
    5.5327128527501657E-01 
    5.4536966247305363E-01 
    5.3590733765176013E-01 
    5.2570338582277798E-01 
    5.1557586944183520E-01 
    5.0630081682195671E-01 
    4.9857590323663492E-01 
    4.9297440640414086E-01 
    4.8982720362347476E-01 
    4.8870348667238578E-01 
    4.8919474042929734E-01 
    4.9213936863363311E-01 
    5.4727057478136587E-01 
    5.4989272316525362E-01 
    5.5005936857847981E-01 
    5.4756508676731919E-01 
    5.4243455837840904E-01 
    5.3496914879179258E-01 
    5.2570005979042256E-01 
    5.1532134806216401E-01 
    5.0463577897941159E-01 
    4.9450837928041580E-01 
    4.8581438239153318E-01 
    4.7936561005371137E-01 
    4.7579650407309176E-01 
    4.7503626130819410E-01 
    4.7628737684461059E-01 
    4.8041856393052795E-01 
    5.3837438777816649E-01 
    5.4034830894253005E-01 
    5.4014570039516441E-01 
    5.3754489565658414E-01 
    5.3246326518952403E-01 
    5.2502491810135576E-01 
    5.1556719079661151E-01 
    5.0463116086987847E-01 
    4.9294966504655668E-01 
    4.8142818870690085E-01 
    4.7110708838762716E-01 
    4.6308051159801777E-01 
    4.5835377921416565E-01 
    4.5732440416595221E-01 
    4.5923585785566690E-01 
    4.6482197182564006E-01 
    5.3124579007030837E-01 
    5.3258586959337817E-01 
    5.3194884353142813E-01 
    5.2908821137776552E-01 
    5.2383895632642052E-01 
    5.1618549591333274E-01 
    5.0628518226643304E-01 
    4.9449777313111293E-01 
    4.8142288349448897E-01 
    4.6792939666113964E-01 
    4.5516826149675715E-01 
    4.4453826259868762E-01 
    4.3754432452417075E-01 
    4.3528739455413068E-01 
    4.3743886954271444E-01 
    4.4453666120768975E-01 
    5.2579571942681258E-01 
    5.2658480568788524E-01 
    5.2553987126677648E-01 
    5.2239457268470746E-01 
    5.1691679286633896E-01 
    5.0897339718703383E-01 
    4.9855167403696787E-01 
    4.8579638298146438E-01 
    4.7109527532817036E-01 
    4.5516150624515189E-01 
    4.3912085438424664E-01 
    4.2459746351841537E-01 
    4.1368205445301887E-01 
    4.0851337300026330E-01 
    4.0981602742599593E-01 
    4.1810308974100757E-01 
    5.2161263363554400E-01 
    5.2209061640517740E-01 
    5.2081800896663621E-01 
    5.1752522580571292E-01 
    5.1191749355386928E-01 
    5.0376652837125879E-01 
    4.9293825567116917E-01 
    4.7933821901757706E-01 
    4.6306112671788358E-01 
    4.4452273287861743E-01 
    4.2458865075326085E-01 
    4.0483596837339902E-01 
    3.8779854430579214E-01 
    3.7689810391408146E-01 
    3.7487093649975084E-01 
    3.8299046964473688E-01 
    5.1796554198276679E-01 
    5.1828302844984753E-01 
    5.1711682228856737E-01 
    5.1406703699478817E-01 
    5.0868465429167109E-01 
    5.0064565557591367E-01 
    4.8977794491258819E-01 
    4.7576082295879446E-01 
    4.5833180273679075E-01 
    4.3752325235190281E-01 
    4.1366612241038386E-01 
    3.8779326478972315E-01 
    3.6224021491527830E-01 
    3.4136236034806478E-01 
    3.3117585763140844E-01 
    3.3620963098349049E-01 
    5.1555688736215655E-01 
    5.1547500905554311E-01 
    5.1418876577979722E-01 
    5.1132855343805383E-01 
    5.0639800458703743E-01 
    4.9895046217356642E-01 
    4.8866216035808768E-01 
    4.7501041026952817E-01 
    4.5731709448745683E-01 
    4.3527551899480260E-01 
    4.0850270552810120E-01 
    3.7690191069118661E-01 
    3.4137578052127582E-01 
    3.0535784266278648E-01 
    2.7767880097910258E-01 
    2.7161568127953789E-01 
    5.1449280682293963E-01 
    5.1420138626059209E-01 
    5.1291450057955679E-01 
    5.1020437847739930E-01 
    5.0561626543163174E-01 
    4.9874338786953726E-01 
    4.8916397100518089E-01 
    4.7626898084109504E-01 
    4.5923751367455040E-01 
    4.3745863921900602E-01 
    4.0981924235701145E-01 
    3.7488931508103673E-01 
    3.3122335471579512E-01 
    2.7770458042567242E-01 
    2.1775171544330557E-01 
    1.7513349560689148E-01 
    5.1420645870580939E-01 
    5.1391866084314142E-01 
    5.1285680433269798E-01 
    5.1058698811993763E-01 
    5.0666857648523100E-01 
    5.0066842535266531E-01 
    4.9211204214105370E-01 
    4.8039360972854395E-01 
    4.6481112706679628E-01 
    4.4456549359184866E-01 
    4.1812598019191111E-01 
    3.8297847987923922E-01 
    3.3626027437185990E-01 
    2.7165533786034218E-01 
    1.7510109963823425E-01 
    0.0000000000000000E+00 

SCALARS Saturarion double 1 
LOOKUP_TABLE default 

    1.0000000000000000E+00 
    9.8660895363449586E-01 
    9.6198572505802449E-01 
    9.1837566296373707E-01 
    8.6168295862666089E-01 
    8.0483463699184854E-01 
    7.5096167324073149E-01 
    6.9861216292701178E-01 
    6.4755342803427551E-01 
    5.9889871013878493E-01 
    5.5008662668572716E-01 
    4.5157996763933522E-01 
    9.7787952495967168E-02 
    1.0032417088281897E-06 
    1.0000000012189721E-06 
    9.9999999999999995E-07 
    9.8656313877196566E-01 
    9.7481775938191684E-01 
    9.5240383790062910E-01 
    9.1584863281540640E-01 
    8.6620111807846090E-01 
    8.1341163107301406E-01 
    7.6149266611106459E-01 
    7.1042111758537008E-01 
    6.6010782841909754E-01 
    6.1139046379961903E-01 
    5.6398376264194383E-01 
    4.8499034375058553E-01 
    2.1168271716795728E-01 
    4.3696658483199506E-04 
    1.0123709223888656E-06 
    1.0000000003035357E-06 
    9.6183217003030919E-01 
    9.5230908860917596E-01 
    9.3094293906462644E-01 
    9.0142695886366919E-01 
    8.6206670175133271E-01 
    8.1771411005901351E-01 
    7.7153744995557982E-01 
    7.2423696939354876E-01 
    6.7619856228471709E-01 
    6.2836048570093583E-01 
    5.8148824605167759E-01 
    5.2048712936109498E-01 
    3.4177359077931146E-01 
    2.3942839539012880E-02 
    2.4712078972488589E-05 
    1.0000220632941081E-06 
    9.1802512358518562E-01 
    9.1563173355515026E-01 
    9.0133733405079230E-01 
    8.7792097420603377E-01 
    8.4794784771483145E-01 
    8.1298760690904193E-01 
    7.7444198716316548E-01 
    7.3293420153424282E-01 
    6.8906939635608255E-01 
    6.4368496820516530E-01 
    5.9755469538106354E-01 
    5.4403886945232838E-01 
    4.3352760824670850E-01 
    1.0437346762620718E-01 
    2.1032645438718670E-04 
    1.0078438914306457E-06 
    8.6127543091779357E-01 
    8.6592464745289899E-01 
    8.6191270516612850E-01 
    8.4784965678304469E-01 
    8.2703840947402918E-01 
    8.0104009409498811E-01 
    7.7045459848427134E-01 
    7.3581670476716621E-01 
    6.9761035493200796E-01 
    6.5641778096579906E-01 
    6.1257571580400694E-01 
    5.6531378262354026E-01 
    4.7959948087717325E-01 
    2.0340075796643242E-01 
    2.8447535174226531E-03 
    1.2254678893625088E-06 
    8.0443130689068054E-01 
    8.1315786730724826E-01 
    8.1752694008398064E-01 
    8.1275748963548899E-01 
    8.0088045955653808E-01 
    7.8323570307695589E-01 
    7.6049378021562331E-01 
    7.3319045830586116E-01 
    7.0149470155173277E-01 
    6.6554638685077139E-01 
    6.2536557201637799E-01 
    5.8122253539206692E-01 
    5.1461728072461776E-01 
    3.2078708042599863E-01 
    2.0822153511673387E-02 
    1.9301868194757274E-05 
    7.5027337786354897E-01 
    7.6119732724559419E-01 
    7.7143299291728828E-01 
    7.7423230310715385E-01 
    7.7016620638848243E-01 
    7.6033670062111003E-01 
    7.4534995714145102E-01 
    7.2554449333652760E-01 
    7.0086023209503034E-01 
    6.7094379372416779E-01 
    6.3545547109085176E-01 
    5.9459732483729177E-01 
    5.4278500581397737E-01 
    4.0792735712832684E-01 
    7.1759258627754577E-02 
    9.5158709721634448E-05 
    6.9767289291068091E-01 
    7.0999837725249104E-01 
    7.2414992860895522E-01 
    7.3283021953189542E-01 
    7.3552284039686111E-01 
    7.3288240800053572E-01 
    7.2539464306116319E-01 
    7.1314536840969245E-01 
    6.9583302969676597E-01 
    6.7281351068870554E-01 
    6.4324479115900135E-01 
    6.0673080188993889E-01 
    5.6108988534174542E-01 
    4.5419582533728131E-01 
    1.3518313436627735E-01 
    3.3763697213084538E-04 
    6.4655893926860375E-01 
    6.5949252974707528E-01 
    6.7599610513129782E-01 
    6.8893304850724335E-01 
    6.9740921728403416E-01 
    7.0118765602894839E-01 
    7.0059291660107026E-01 
    6.9567670546984617E-01 
    6.8603924059260846E-01 
    6.7071403805931384E-01 
    6.4841811827808449E-01 
    6.1768015144615218E-01 
    5.7780019922700077E-01 
    4.9456271974368543E-01 
    2.2047832806121934E-01 
    3.9164188132278111E-03 
    5.9775633070596235E-01 
    6.1058450672847719E-01 
    6.2805083852631693E-01 
    6.4334491259836357E-01 
    6.5610922933530524E-01 
    6.6531097791785876E-01 
    6.7073307060720022E-01 
    6.7258008684153181E-01 
    6.7054064470752295E-01 
    6.6350972478743808E-01 
    6.4968165666123134E-01 
    6.2672209891900743E-01 
    5.9293643822847830E-01 
    5.2990630540503902E-01 
    3.3797308377828328E-01 
    2.6619227536088752E-02 
    5.4862105360883073E-01 
    5.6306726359126191E-01 
    5.8126043481585088E-01 
    5.9722883753605149E-01 
    6.1203101829246231E-01 
    6.2498002958296939E-01 
    6.3532957865542217E-01 
    6.4310349739874684E-01 
    6.4813552632752858E-01 
    6.4947721395465585E-01 
    6.4508678377931783E-01 
    6.3198999120668142E-01 
    6.0661684653156511E-01 
    5.5841439999509290E-01 
    4.0958890659508002E-01 
    1.0011619776570328E-01 
    4.4954103697591258E-01 
    4.8492251962701055E-01 
    5.2119952237104883E-01 
    5.4439349072949594E-01 
    5.6493183412636117E-01 
    5.8056679935847433E-01 
    5.9423520294981425E-01 
    6.0664277275830503E-01 
    6.1750614236644608E-01 
    6.2642073751302019E-01 
    6.3175592589896890E-01 
    6.3031213534142294E-01 
    6.1693949643585755E-01 
    5.8332725450567802E-01 
    4.7260906024073251E-01 
    1.9858651011918046E-01 
    9.6133931017153423E-02 
    2.1330758929036781E-01 
    3.4575628214824905E-01 
    4.3554834451923485E-01 
    4.8015458126665006E-01 
    5.1388701258651548E-01 
    5.4265501615337475E-01 
    5.6113347230885446E-01 
    5.7787888909623863E-01 
    5.9295981253577834E-01 
    6.0654274744066716E-01 
    6.1677245796498292E-01 
    6.1808922791110754E-01 
    6.0039974999631007E-01 
    5.2406229384328518E-01 
    2.8133663323121261E-01 
    1.0037345044754996E-06 
    4.7005317738409901E-04 
    2.6471430554081951E-02 
    1.0620094857087324E-01 
    2.0428794340405904E-01 
    3.2133694259127116E-01 
    4.1132914971628909E-01 
    4.5678532827570456E-01 
    4.9579839633990186E-01 
    5.3014974204692400E-01 
    5.5913823392324602E-01 
    5.8369510205725839E-01 
    6.0039893915797282E-01 
    6.0100175994367067E-01 
    5.6420347529294523E-01 
    3.6581763691853147E-01 
    1.0000000014373748E-06 
    1.0132013114947774E-06 
    3.0280430359570441E-05 
    1.9245478931137806E-04 
    2.9950666012648281E-03 
    2.1923739935446902E-02 
    7.7894212877230015E-02 
    1.3561401091565561E-01 
    2.2129567987317489E-01 
    3.3709087470467447E-01 
    4.1162660090730951E-01 
    4.7323278467701591E-01 
    5.2458752735880498E-01 
    5.6409638818393004E-01 
    5.7261428220348809E-01 
    4.4341298511382410E-01 
    9.9999999999999995E-07 
    1.0000000003877424E-06 
    1.0000335666465400E-06 
    1.0069143605951019E-06 
    1.2425764725232508E-06 
    2.3257336714916319E-05 
    1.1438083799361353E-04 
    2.3965361911157070E-04 
    5.0726674919031652E-03 
    2.3272039293522295E-02 
    1.1553651336877943E-01 
    1.9817802932973899E-01 
    2.8178492149128181E-01 
    3.6429941823496120E-01 
    4.4325856929667246E-01 
    4.4345844211853486E-01 
