# vtk DataFile Version 2.0
Pressure Field Data 
ASCII 
DATASET UNSTRUCTURED_GRID 

POINTS 289 double 

    0.0000000000000000E+00     0.0000000000000000E+00     0.0000000000000000E+00 
    1.0000000000000000E+00     0.0000000000000000E+00     0.0000000000000000E+00 
    1.0000000000000000E+00     1.0000000000000000E+00     0.0000000000000000E+00 
    0.0000000000000000E+00     1.0000000000000000E+00     0.0000000000000000E+00 
    6.2499999999872928E-02     0.0000000000000000E+00     0.0000000000000000E+00 
    1.2499999999977310E-01     0.0000000000000000E+00     0.0000000000000000E+00 
    1.8749999999959341E-01     0.0000000000000000E+00     0.0000000000000000E+00 
    2.4999999999941089E-01     0.0000000000000000E+00     0.0000000000000000E+00 
    3.1249999999922851E-01     0.0000000000000000E+00     0.0000000000000000E+00 
    3.7499999999904610E-01     0.0000000000000000E+00     0.0000000000000000E+00 
    4.3749999999886358E-01     0.0000000000000000E+00     0.0000000000000000E+00 
    4.9999999999869210E-01     0.0000000000000000E+00     0.0000000000000000E+00 
    5.6249999999884603E-01     0.0000000000000000E+00     0.0000000000000000E+00 
    6.2499999999901090E-01     0.0000000000000000E+00     0.0000000000000000E+00 
    6.8749999999917577E-01     0.0000000000000000E+00     0.0000000000000000E+00 
    7.4999999999934064E-01     0.0000000000000000E+00     0.0000000000000000E+00 
    8.1249999999950551E-01     0.0000000000000000E+00     0.0000000000000000E+00 
    8.7499999999967026E-01     0.0000000000000000E+00     0.0000000000000000E+00 
    9.3749999999983513E-01     0.0000000000000000E+00     0.0000000000000000E+00 
    1.0000000000000000E+00     6.2499999999872928E-02     0.0000000000000000E+00 
    1.0000000000000000E+00     1.2499999999977310E-01     0.0000000000000000E+00 
    1.0000000000000000E+00     1.8749999999959341E-01     0.0000000000000000E+00 
    1.0000000000000000E+00     2.4999999999941089E-01     0.0000000000000000E+00 
    1.0000000000000000E+00     3.1249999999922851E-01     0.0000000000000000E+00 
    1.0000000000000000E+00     3.7499999999904610E-01     0.0000000000000000E+00 
    1.0000000000000000E+00     4.3749999999886358E-01     0.0000000000000000E+00 
    1.0000000000000000E+00     4.9999999999869210E-01     0.0000000000000000E+00 
    1.0000000000000000E+00     5.6249999999884603E-01     0.0000000000000000E+00 
    1.0000000000000000E+00     6.2499999999901090E-01     0.0000000000000000E+00 
    1.0000000000000000E+00     6.8749999999917577E-01     0.0000000000000000E+00 
    1.0000000000000000E+00     7.4999999999934064E-01     0.0000000000000000E+00 
    1.0000000000000000E+00     8.1249999999950551E-01     0.0000000000000000E+00 
    1.0000000000000000E+00     8.7499999999967026E-01     0.0000000000000000E+00 
    1.0000000000000000E+00     9.3749999999983513E-01     0.0000000000000000E+00 
    9.3749999999973976E-01     1.0000000000000000E+00     0.0000000000000000E+00 
    8.7499999999950118E-01     1.0000000000000000E+00     0.0000000000000000E+00 
    8.1249999999991318E-01     1.0000000000000000E+00     0.0000000000000000E+00 
    7.5000000000034706E-01     1.0000000000000000E+00     0.0000000000000000E+00 
    6.8750000000078049E-01     1.0000000000000000E+00     0.0000000000000000E+00 
    6.2500000000121403E-01     1.0000000000000000E+00     0.0000000000000000E+00 
    5.6250000000164757E-01     1.0000000000000000E+00     0.0000000000000000E+00 
    5.0000000000205946E-01     1.0000000000000000E+00     0.0000000000000000E+00 
    4.3750000000182099E-01     1.0000000000000000E+00     0.0000000000000000E+00 
    3.7500000000156092E-01     1.0000000000000000E+00     0.0000000000000000E+00 
    3.1250000000130068E-01     1.0000000000000000E+00     0.0000000000000000E+00 
    2.5000000000104050E-01     1.0000000000000000E+00     0.0000000000000000E+00 
    1.8750000000078040E-01     1.0000000000000000E+00     0.0000000000000000E+00 
    1.2500000000052031E-01     1.0000000000000000E+00     0.0000000000000000E+00 
    6.2500000000260125E-02     1.0000000000000000E+00     0.0000000000000000E+00 
    0.0000000000000000E+00     9.3749999999973976E-01     0.0000000000000000E+00 
    0.0000000000000000E+00     8.7499999999950118E-01     0.0000000000000000E+00 
    0.0000000000000000E+00     8.1249999999991318E-01     0.0000000000000000E+00 
    0.0000000000000000E+00     7.5000000000034706E-01     0.0000000000000000E+00 
    0.0000000000000000E+00     6.8750000000078049E-01     0.0000000000000000E+00 
    0.0000000000000000E+00     6.2500000000121403E-01     0.0000000000000000E+00 
    0.0000000000000000E+00     5.6250000000164757E-01     0.0000000000000000E+00 
    0.0000000000000000E+00     5.0000000000205946E-01     0.0000000000000000E+00 
    0.0000000000000000E+00     4.3750000000182099E-01     0.0000000000000000E+00 
    0.0000000000000000E+00     3.7500000000156092E-01     0.0000000000000000E+00 
    0.0000000000000000E+00     3.1250000000130068E-01     0.0000000000000000E+00 
    0.0000000000000000E+00     2.5000000000104050E-01     0.0000000000000000E+00 
    0.0000000000000000E+00     1.8750000000078040E-01     0.0000000000000000E+00 
    0.0000000000000000E+00     1.2500000000052031E-01     0.0000000000000000E+00 
    0.0000000000000000E+00     6.2500000000260125E-02     0.0000000000000000E+00 
    6.2499999999897131E-02     6.2500000000235922E-02     0.0000000000000000E+00 
    6.2499999999921327E-02     1.2500000000047351E-01     0.0000000000000000E+00 
    6.2499999999945530E-02     1.8750000000070621E-01     0.0000000000000000E+00 
    6.2499999999969733E-02     2.5000000000093858E-01     0.0000000000000000E+00 
    6.2499999999993928E-02     3.1250000000117117E-01     0.0000000000000000E+00 
    6.2500000000018124E-02     3.7500000000140382E-01     0.0000000000000000E+00 
    6.2500000000042327E-02     4.3750000000163619E-01     0.0000000000000000E+00 
    6.2500000000066530E-02     5.0000000000184897E-01     0.0000000000000000E+00 
    6.2500000000090733E-02     5.6250000000147260E-01     0.0000000000000000E+00 
    6.2500000000114922E-02     6.2500000000107636E-01     0.0000000000000000E+00 
    6.2500000000139125E-02     6.8750000000068034E-01     0.0000000000000000E+00 
    6.2500000000163328E-02     7.5000000000028411E-01     0.0000000000000000E+00 
    6.2500000000187531E-02     8.1249999999988787E-01     0.0000000000000000E+00 
    6.2500000000211720E-02     8.7499999999951172E-01     0.0000000000000000E+00 
    6.2500000000235922E-02     9.3749999999974565E-01     0.0000000000000000E+00 
    1.2499999999981980E-01     6.2500000000211733E-02     0.0000000000000000E+00 
    1.2499999999986650E-01     1.2500000000042691E-01     0.0000000000000000E+00 
    1.2499999999991319E-01     1.8750000000063199E-01     0.0000000000000000E+00 
    1.2499999999995989E-01     2.5000000000083678E-01     0.0000000000000000E+00 
    1.2500000000000661E-01     3.1250000000104172E-01     0.0000000000000000E+00 
    1.2500000000005329E-01     3.7500000000124661E-01     0.0000000000000000E+00 
    1.2500000000010000E-01     4.3750000000145117E-01     0.0000000000000000E+00 
    1.2500000000014669E-01     5.0000000000163858E-01     0.0000000000000000E+00 
    1.2500000000019340E-01     5.6250000000129741E-01     0.0000000000000000E+00 
    1.2500000000024011E-01     6.2500000000093847E-01     0.0000000000000000E+00 
    1.2500000000028680E-01     6.8750000000057998E-01     0.0000000000000000E+00 
    1.2500000000033351E-01     7.5000000000022127E-01     0.0000000000000000E+00 
    1.2500000000038020E-01     8.1249999999986211E-01     0.0000000000000000E+00 
    1.2500000000042691E-01     8.7499999999952238E-01     0.0000000000000000E+00 
    1.2500000000047359E-01     9.3749999999975164E-01     0.0000000000000000E+00 
    1.8749999999966760E-01     6.2500000000187531E-02     0.0000000000000000E+00 
    1.8749999999974179E-01     1.2500000000038020E-01     0.0000000000000000E+00 
    1.8749999999981601E-01     1.8750000000055780E-01     0.0000000000000000E+00 
    1.8749999999989009E-01     2.5000000000073502E-01     0.0000000000000000E+00 
    1.8749999999996431E-01     3.1250000000091221E-01     0.0000000000000000E+00 
    1.8750000000003850E-01     3.7500000000108941E-01     0.0000000000000000E+00 
    1.8750000000011269E-01     4.3750000000126649E-01     0.0000000000000000E+00 
    1.8750000000018691E-01     5.0000000000142808E-01     0.0000000000000000E+00 
    1.8750000000026110E-01     5.6250000000112244E-01     0.0000000000000000E+00 
    1.8750000000033529E-01     6.2500000000080080E-01     0.0000000000000000E+00 
    1.8750000000040951E-01     6.8750000000047962E-01     0.0000000000000000E+00 
    1.8750000000048361E-01     7.5000000000015843E-01     0.0000000000000000E+00 
    1.8750000000055780E-01     8.1249999999983680E-01     0.0000000000000000E+00 
    1.8750000000063199E-01     8.7499999999953304E-01     0.0000000000000000E+00 
    1.8750000000070621E-01     9.3749999999975764E-01     0.0000000000000000E+00 
    2.4999999999951281E-01     6.2500000000163314E-02     0.0000000000000000E+00 
    2.4999999999961461E-01     1.2500000000033351E-01     0.0000000000000000E+00 
    2.4999999999971650E-01     1.8750000000048361E-01     0.0000000000000000E+00 
    2.4999999999981831E-01     2.5000000000063310E-01     0.0000000000000000E+00 
    2.4999999999992020E-01     3.1250000000078260E-01     0.0000000000000000E+00 
    2.5000000000002198E-01     3.7500000000093209E-01     0.0000000000000000E+00 
    2.5000000000012390E-01     4.3750000000108180E-01     0.0000000000000000E+00 
    2.5000000000022571E-01     5.0000000000121769E-01     0.0000000000000000E+00 
    2.5000000000032763E-01     5.6250000000094724E-01     0.0000000000000000E+00 
    2.5000000000042938E-01     6.2500000000066314E-01     0.0000000000000000E+00 
    2.5000000000053119E-01     6.8750000000037925E-01     0.0000000000000000E+00 
[...]
CELL_DATA 256 
SCALARS Pressure double 1 
LOOKUP_TABLE default 

    1.0417048180643069E+00 
    9.8989152052008456E-01 
    9.5485447719714112E-01 
    9.2636303129185116E-01 
    9.0084320757244074E-01 
    8.7793208398392741E-01 
    8.5763075846610137E-01 
    8.3946267344406300E-01 
    8.2110241051884614E-01 
    8.0251930581810282E-01 
    7.8847168719430849E-01 
    7.7879244248815982E-01 
    7.7247565260254392E-01 
    7.6881555963863435E-01 
    7.6710818827426519E-01 
    7.6664621537686983E-01 
    9.8991163191535037E-01 
    9.7909651473086512E-01 
    9.5595888996596212E-01 
    9.3120855128621505E-01 
    9.0684430101562230E-01 
    8.8398959078018435E-01 
    8.6327046203840574E-01 
    8.4469537840712705E-01 
    8.2669656304353323E-01 
    8.0730963431768976E-01 
    7.9147129335916577E-01 
    7.8044779898777661E-01 
    7.7308479340077729E-01 
    7.6871633339746637E-01 
    7.6665219607753154E-01 
    7.6618829129929000E-01 
    9.5488223913922032E-01 
    9.5597325589843807E-01 
    9.4462989813537690E-01 
    9.2663984116073406E-01 
    9.0582587535640469E-01 
    8.8457831632592554E-01 
    8.6435767381620399E-01 
    8.4580070396189821E-01 
    8.2821763164867601E-01 
    8.0883962389022590E-01 
    7.9143870256009519E-01 
    7.7945392324184271E-01 
    7.7140167991103292E-01 
    7.6667306877823338E-01 
    7.6460391760773638E-01 
    7.6449408806984509E-01 
    9.2637673900098561E-01 
    9.3121954781753735E-01 
    9.2664304540569320E-01 
    9.1471456043611410E-01 
    8.9821117932599781E-01 
    8.7954929183891106E-01 
    8.6060268682219077E-01 
    8.4252401609461347E-01 
    8.2535291932178434E-01 
    8.0658376427382561E-01 
    7.8805895886126975E-01 
    7.7525177499679754E-01 
    7.6677552792123593E-01 
    7.6199260427968785E-01 
    7.6025260431409292E-01 
    7.6084840310258428E-01 
    9.0082581082806867E-01 
    9.0683235770237791E-01 
    9.0581678180085368E-01 
    8.9820616161028344E-01 
    8.8550613265990719E-01 
    8.6960092892894003E-01 
    8.5229646060665765E-01 
    8.3498443396828748E-01 
    8.1821541104434226E-01 
    8.0027657168847444E-01 
    7.8113950310388780E-01 
    7.6735915227509377E-01 
    7.5859988169457726E-01 
    7.5399655558584322E-01 
    7.5288589858474420E-01 
    7.5452881147163475E-01 
    8.7788127778436253E-01 
    8.8394543620801191E-01 
    8.8454414334227138E-01 
    8.7952945713438369E-01 
    8.6959227958350693E-01 
    8.5600658458147627E-01 
    8.4024102305402582E-01 
    8.2366622631831399E-01 
    8.0717875610259704E-01 
    7.8984233000068982E-01 
    7.7030575982443283E-01 
    7.5525512094009006E-01 
    7.4626743502479753E-01 
    7.4199902745578139E-01 
    7.4177699312826528E-01 
    7.4480128684951230E-01 
    8.5754784181592281E-01 
    8.6319225076471784E-01 
    8.6429258397498465E-01 
    8.6055956892967045E-01 
    8.5227212698695332E-01 
    8.4022848346947243E-01 
    8.2550882769335576E-01 
    8.0931217964484692E-01 
    7.9270126162864740E-01 
    7.7533165515958136E-01 
    7.5508324480320277E-01 
    7.3847938149707359E-01 
    7.2917502878328633E-01 
    7.2528256678969971E-01 
    7.2615251810100723E-01 
    7.3089153460411294E-01 
    8.3935622233402229E-01 
    8.4459195988630298E-01 
    8.4571166705372214E-01 
    8.4245991657703712E-01 
    8.3494207249122443E-01 
    8.2363707157794419E-01 
    8.0929645462816535E-01 
    7.9289484400982235E-01 
    7.7547899395515807E-01 
    7.5701935665401521E-01 
    7.3532407310142067E-01 
    7.1681458011034860E-01 
    7.0678832548997650E-01 
    7.0309110929041629E-01 
    7.0514960159693696E-01 
    7.1193196641945078E-01 
    8.2099215828976890E-01 
    8.2659446675224557E-01 
    8.2812900672224743E-01 
    8.2528265992140759E-01 
    8.1816077045153046E-01 
    8.0713258931825982E-01 
    7.9266609516361253E-01 
    7.7546025979794264E-01 
    7.5642997328514394E-01 
    7.3532831428726209E-01 
    7.1118620442434588E-01 
    6.9024668588362958E-01 
    6.7868027656841967E-01 
    6.7461925481739271E-01 
    6.7775574480567968E-01 
    6.8689478280244587E-01 
    8.0241886402060014E-01 
    8.0721701262655210E-01 
    8.0876413425468829E-01 
    8.0652204049350540E-01 
    8.0021759261562120E-01 
    7.8978090431858117E-01 
    7.7526947683326441E-01 
    7.5696493994482117E-01 
    7.3528886427628670E-01 
    7.1035280722175453E-01 
    6.8310492234516074E-01 
    6.5924723261467078E-01 
    6.4468919528861268E-01 
    6.3903398133881084E-01 
    6.4271188134412449E-01 
    6.5446186514236815E-01 
    7.8838549166245797E-01 
    7.9138410478696863E-01 
    7.9135656495002860E-01 
    7.8798902230967693E-01 
    7.8107820901083880E-01 
    7.7024406748743746E-01 
    7.5501725565896560E-01 
    7.3525845682196966E-01 
    7.1112885408053028E-01 
    6.8307539753455426E-01 
    6.5287754871912329E-01 
    6.2534788625228332E-01 
    6.0532204245954191E-01 
    5.9562088511703692E-01 
    5.9837550977313814E-01 
    6.1277808980648663E-01 
    7.7871642478665415E-01 
    7.8036900689861222E-01 
    7.7937527764656667E-01 
    7.7517877880187136E-01 
    7.6729368737632386E-01 
    7.5519503325655446E-01 
    7.3842431846589096E-01 
    7.1676423224316932E-01 
    6.9020756109984804E-01 
    6.5922526514421187E-01 
    6.2534221320179817E-01 
    5.9151627540739860E-01 
    5.6240453159904480E-01 
    5.4421706705824280E-01 
    5.4256721092889215E-01 
    5.5894196347829139E-01 
    7.7240756305707525E-01 
    7.7301337608876908E-01 
    7.7132768432128362E-01 
    7.6670318786803904E-01 
    7.5853279672020779E-01 
    7.4620611666924941E-01 
    7.2911927453753733E-01 
    7.0673839590041387E-01 
    6.7863883794631341E-01 
    6.4465961759401680E-01 
    6.0530515286559694E-01 
    5.6239686996981519E-01 
    5.2012818774588898E-01 
    4.8640836600030773E-01 
    4.7265122106050983E-01 
    4.8789838775754629E-01 
    7.6875418607041834E-01 
    7.6865169922920151E-01 
    7.6660384319844499E-01 
    7.6192173524596596E-01 
    7.5392852201936633E-01 
    7.4193609209890876E-01 
    7.2522513069380667E-01 
    7.0303961027382011E-01 
    6.7457524164815175E-01 
    6.3899949578872139E-01 
    5.9559678697767382E-01 
    5.4420228415577232E-01 
    4.8640151430403450E-01 
    4.2850900454929552E-01 
    3.8707585169989717E-01 
    3.8985343147782497E-01 
    7.6705214588889892E-01 
    7.6659378221080354E-01 
    7.6453943826276738E-01 
    7.6018319844139326E-01 
    7.5281683149305434E-01 
    7.4171222641462753E-01 
    7.2609287233959907E-01 
    7.0509566822460501E-01 
    6.7770883321562836E-01 
    6.4267352312921622E-01 
    5.9834625083088400E-01 
    5.4254667395056733E-01 
    4.7263855953515072E-01 
    3.8707012483936931E-01 
    2.9348180961521231E-01 
    2.4379118481317999E-01 
    7.6659320412390308E-01 
    7.6613447519642863E-01 
    7.6443329370040669E-01 
    7.6077965374617340E-01 
    7.5445814313218551E-01 
    7.4473445189421816E-01 
    7.3082925538558796E-01 
    7.1187506812925350E-01 
    6.8684458401362680E-01 
    6.5441986372349614E-01 
    6.1274452859287687E-01 
    5.5891669629675012E-01 
    4.8788095169571749E-01 
    3.8984316737516100E-01 
    2.4378696582113585E-01 
    0.0000000000000000E+00 

SCALARS Saturarion double 1 
LOOKUP_TABLE default 

    1.0000000000000002E+00 
    9.6238437072381733E-01 
    8.9785153095969350E-01 
    7.9084017380681271E-01 
    7.0594242474490665E-01 
    6.4124684041468016E-01 
    5.8881941749550348E-01 
    5.2697574219728438E-01 
    3.6465813851909573E-01 
    1.6080335794596914E-02 
    1.0003411575573526E-06 
    1.0000000000603225E-06 
    9.9999999999999995E-07 
    9.9999999999999995E-07 
    9.9999999999999995E-07 
    9.9999999999999995E-07 
    9.6219138200293419E-01 
    9.3018413755444052E-01 
    8.7278964439798112E-01 
    7.8740690752983400E-01 
    7.1096924353849478E-01 
    6.4860638255107572E-01 
    5.9635236777237610E-01 
    5.3818758885620344E-01 
    4.2069123938487774E-01 
    8.1429124204032421E-02 
    6.8719813029562027E-05 
    1.0006610683366217E-06 
    9.9999999999999995E-07 
    9.9999999999999995E-07 
    9.9999999999999995E-07 
    9.9999999999999995E-07 
    8.9728108305749532E-01 
    8.7251858952076067E-01 
    8.2380994072349634E-01 
    7.6465146565276221E-01 
    7.0407408323401954E-01 
    6.4935124486712015E-01 
    6.0033056957414810E-01 
    5.4826240191633380E-01 
    4.6327824581125149E-01 
    1.7796653512779426E-01 
    2.2634329722811937E-04 
    1.0114919252035499E-06 
    1.0000000002930727E-06 
    9.9999999999999995E-07 
    9.9999999999999995E-07 
    9.9999999999999995E-07 
    7.8965602036837168E-01 
    7.8670244206303086E-01 
    7.6436504237259917E-01 
    7.2756390715940633E-01 
    6.8342708758513948E-01 
    6.3950395735106380E-01 
    5.9849314095097017E-01 
    5.5430590385110301E-01 
    4.8850321663389368E-01 
    2.8149581079949171E-01 
    6.0991933758021344E-03 
    2.2483348260786894E-06 
    1.0000002865843536E-06 
    9.9999999999999995E-07 
    9.9999999999999995E-07 
    9.9999999999999995E-07 
    7.0469301949180829E-01 
    7.1004897170657100E-01 
    7.0357103226091011E-01 
    6.8320998552453727E-01 
    6.5445560861087149E-01 
    6.2291993663329359E-01 
    5.9132523700695061E-01 
    5.5540245871248561E-01 
    5.0249640394404116E-01 
    3.6521465215847077E-01 
    3.9158639708784304E-02 
    3.8680548763870563E-05 
    1.0001542340223773E-06 
    9.9999999999999995E-07 
    9.9999999999999995E-07 
    9.9999999999999995E-07 
    6.3991380920452201E-01 
    6.4762550205097613E-01 
    6.4873659053158372E-01 
    6.3904738627108226E-01 
    6.2264877420588727E-01 
    6.0232655369766941E-01 
    5.7847992883144606E-01 
    5.5018522740959563E-01 
    5.0890178343791903E-01 
    4.1039437425377284E-01 
    9.2446406120772553E-02 
    3.6811079449156574E-05 
    1.0000963663673664E-06 
    1.0000000000184100E-06 
    9.9999999999999995E-07 
    9.9999999999999995E-07 
    5.8719532566155952E-01 
    5.9553439179964895E-01 
    5.9996344566173199E-01 
    5.9804931375542447E-01 
    5.9078760525629070E-01 
    5.7815154041675476E-01 
    5.6006425497192869E-01 
    5.3812961316110697E-01 
    5.0780382273006652E-01 
    4.3046342823162703E-01 
    1.3690337562622504E-01 
    1.1497443412811760E-05 
    1.0000136443484349E-06 
    1.0000000000000004E-06 
    9.9999999999999995E-07 
    9.9999999999999995E-07 
    5.2522784324283989E-01 
    5.3790056511142859E-01 
    5.4841564133987930E-01 
    5.5418969902935211E-01 
    5.5492688793885736E-01 
    5.4957660012659260E-01 
    5.3786702266261610E-01 
    5.2163540121103924E-01 
    4.9823341377148256E-01 
    4.3762779422862941E-01 
    1.7001369593621479E-01 
    3.3112714223278668E-05 
    1.0000400756026423E-06 
    1.0000000000136200E-06 
    9.9999999999999995E-07 
    9.9999999999999995E-07 
    3.6325510296771302E-01 
    4.2133281862866118E-01 
    4.6452615663575031E-01 
    4.8900435293713113E-01 
    5.0229337285799480E-01 
    5.0824864984492213E-01 
    5.0731392410832654E-01 
    4.9781313861748683E-01 
    4.7906691406858126E-01 
    4.2691891986627695E-01 
    1.7195052105455436E-01 
    8.5314472230657169E-05 
    1.0009504280062414E-06 
    1.0000000004548342E-06 
    9.9999999999999995E-07 
    9.9999999999999995E-07 
    1.5985069317411546E-02 
    8.3173838272927930E-02 
    1.8237711806673232E-01 
    2.8236008354780573E-01 
    3.6533359692379047E-01 
    4.0999337594024388E-01 
    4.3002986555147404E-01 
    4.3687207952334750E-01 
    4.2615441995888098E-01 
    3.6632303619920376E-01 
    1.0263319834820497E-01 
    1.9317567677695752E-04 
    1.0032809437093931E-06 
    1.0000000003449177E-06 
    9.9999999999999995E-07 
    9.9999999999999995E-07 
    1.0004031241216287E-06 
    7.2662176948912503E-05 
    2.6145512311654068E-04 
    6.0933371508632567E-03 
    3.9516487093729374E-02 
    9.1853477495034044E-02 
    1.3664595736942547E-01 
    1.6720495682924583E-01 
    1.6918834468439664E-01 
    1.0129619817292509E-01 
    4.0411488749175556E-03 
    1.1927105105496084E-06 
    1.0000000176977338E-06 
    1.0000000000000021E-06 
    9.9999999999999995E-07 
    9.9999999999999995E-07 
    1.0000000000712869E-06 
    1.0007538724161672E-06 
    1.0115458787830269E-06 
    2.2298688625356178E-06 
    3.8333863432239308E-05 
    3.5004865042576963E-05 
    1.1155967959196780E-05 
    2.6766512624508625E-05 
    7.9834913513794864E-05 
    1.9019224780357670E-04 
    1.1891766096066305E-06 
    1.0000000547337564E-06 
    1.0000000000000158E-06 
    9.9999999999999995E-07 
    9.9999999999999995E-07 
    9.9999999999999995E-07 
    9.9999999999999995E-07 
    9.9999999999999995E-07 
    1.0000000004464763E-06 
    1.0000002842073767E-06 
    1.0001439363587209E-06 
    1.0000862784422519E-06 
    1.0000136156638264E-06 
    1.0000324754546012E-06 
    1.0009406694037946E-06 
    1.0031186801730880E-06 
    1.0000000166082279E-06 
    1.0000000000000152E-06 
    9.9999999999999995E-07 
    9.9999999999999995E-07 
    9.9999999999999995E-07 
    9.9999999999999995E-07 
    9.9999999999999995E-07 
    9.9999999999999995E-07 
    9.9999999999999995E-07 
    9.9999999999999995E-07 
    9.9999999999999995E-07 
    1.0000000000170698E-06 
    1.0000000000000006E-06 
    1.0000000000124698E-06 
    1.0000000004325750E-06 
    1.0000000003246215E-06 
    1.0000000000000021E-06 
    9.9999999999999995E-07 
    9.9999999999999995E-07 
    9.9999999999999995E-07 
    9.9999999999999995E-07 
    9.9999999999999995E-07 
    9.9999999999999995E-07 
    9.9999999999999995E-07 
    9.9999999999999995E-07 
    9.9999999999999995E-07 
    9.9999999999999995E-07 
    9.9999999999999995E-07 
    9.9999999999999995E-07 
    9.9999999999999995E-07 
    9.9999999999999974E-07 
    9.9999999999999995E-07 
    9.9999999999999995E-07 
    9.9999999999999995E-07 
    9.9999999999999995E-07 
    9.9999999999999995E-07 
    9.9999999999999995E-07 
    9.9999999999999995E-07 
    9.9999999999999995E-07 
    9.9999999999999995E-07 
    9.9999999999999995E-07 
    9.9999999999999995E-07 
    9.9999999999999995E-07 
    9.9999999999999995E-07 
    9.9999999999999995E-07 
    9.9999999999999995E-07 
    9.9999999999999995E-07 
    9.9999999999999995E-07 
    9.9999999999999995E-07 
    9.9999999999999995E-07 
    9.9999999999999995E-07 
    9.9999999999999995E-07 
    9.9999999999999995E-07 
    1.0000002777444975E-06 
