# vtk DataFile Version 2.0
Pressure Field Data 
ASCII 
DATASET UNSTRUCTURED_GRID 

POINTS 289 double 

    0.0000000000000000E+00     0.0000000000000000E+00     0.0000000000000000E+00 
    1.0000000000000000E+00     0.0000000000000000E+00     0.0000000000000000E+00 
    1.0000000000000000E+00     1.0000000000000000E+00     0.0000000000000000E+00 
    0.0000000000000000E+00     1.0000000000000000E+00     0.0000000000000000E+00 
    6.2499999999872928E-02     0.0000000000000000E+00     0.0000000000000000E+00 
    1.2499999999977310E-01     0.0000000000000000E+00     0.0000000000000000E+00 
    1.8749999999959341E-01     0.0000000000000000E+00     0.0000000000000000E+00 
    2.4999999999941089E-01     0.0000000000000000E+00     0.0000000000000000E+00 
    3.1249999999922851E-01     0.0000000000000000E+00     0.0000000000000000E+00 
    3.7499999999904610E-01     0.0000000000000000E+00     0.0000000000000000E+00 
    4.3749999999886358E-01     0.0000000000000000E+00     0.0000000000000000E+00 
    4.9999999999869210E-01     0.0000000000000000E+00     0.0000000000000000E+00 
    5.6249999999884603E-01     0.0000000000000000E+00     0.0000000000000000E+00 
    6.2499999999901090E-01     0.0000000000000000E+00     0.0000000000000000E+00 
    6.8749999999917577E-01     0.0000000000000000E+00     0.0000000000000000E+00 
    7.4999999999934064E-01     0.0000000000000000E+00     0.0000000000000000E+00 
    8.1249999999950551E-01     0.0000000000000000E+00     0.0000000000000000E+00 
    8.7499999999967026E-01     0.0000000000000000E+00     0.0000000000000000E+00 
    9.3749999999983513E-01     0.0000000000000000E+00     0.0000000000000000E+00 
    1.0000000000000000E+00     6.2499999999872928E-02     0.0000000000000000E+00 
    1.0000000000000000E+00     1.2499999999977310E-01     0.0000000000000000E+00 
    1.0000000000000000E+00     1.8749999999959341E-01     0.0000000000000000E+00 
    1.0000000000000000E+00     2.4999999999941089E-01     0.0000000000000000E+00 
    1.0000000000000000E+00     3.1249999999922851E-01     0.0000000000000000E+00 
    1.0000000000000000E+00     3.7499999999904610E-01     0.0000000000000000E+00 
    1.0000000000000000E+00     4.3749999999886358E-01     0.0000000000000000E+00 
    1.0000000000000000E+00     4.9999999999869210E-01     0.0000000000000000E+00 
    1.0000000000000000E+00     5.6249999999884603E-01     0.0000000000000000E+00 
    1.0000000000000000E+00     6.2499999999901090E-01     0.0000000000000000E+00 
    1.0000000000000000E+00     6.8749999999917577E-01     0.0000000000000000E+00 
    1.0000000000000000E+00     7.4999999999934064E-01     0.0000000000000000E+00 
    1.0000000000000000E+00     8.1249999999950551E-01     0.0000000000000000E+00 
    1.0000000000000000E+00     8.7499999999967026E-01     0.0000000000000000E+00 
    1.0000000000000000E+00     9.3749999999983513E-01     0.0000000000000000E+00 
    9.3749999999973976E-01     1.0000000000000000E+00     0.0000000000000000E+00 
    8.7499999999950118E-01     1.0000000000000000E+00     0.0000000000000000E+00 
    8.1249999999991318E-01     1.0000000000000000E+00     0.0000000000000000E+00 
    7.5000000000034706E-01     1.0000000000000000E+00     0.0000000000000000E+00 
    6.8750000000078049E-01     1.0000000000000000E+00     0.0000000000000000E+00 
    6.2500000000121403E-01     1.0000000000000000E+00     0.0000000000000000E+00 
    5.6250000000164757E-01     1.0000000000000000E+00     0.0000000000000000E+00 
    5.0000000000205946E-01     1.0000000000000000E+00     0.0000000000000000E+00 
    4.3750000000182099E-01     1.0000000000000000E+00     0.0000000000000000E+00 
    3.7500000000156092E-01     1.0000000000000000E+00     0.0000000000000000E+00 
    3.1250000000130068E-01     1.0000000000000000E+00     0.0000000000000000E+00 
    2.5000000000104050E-01     1.0000000000000000E+00     0.0000000000000000E+00 
    1.8750000000078040E-01     1.0000000000000000E+00     0.0000000000000000E+00 
    1.2500000000052031E-01     1.0000000000000000E+00     0.0000000000000000E+00 
    6.2500000000260125E-02     1.0000000000000000E+00     0.0000000000000000E+00 
    0.0000000000000000E+00     9.3749999999973976E-01     0.0000000000000000E+00 
    0.0000000000000000E+00     8.7499999999950118E-01     0.0000000000000000E+00 
    0.0000000000000000E+00     8.1249999999991318E-01     0.0000000000000000E+00 
    0.0000000000000000E+00     7.5000000000034706E-01     0.0000000000000000E+00 
    0.0000000000000000E+00     6.8750000000078049E-01     0.0000000000000000E+00 
    0.0000000000000000E+00     6.2500000000121403E-01     0.0000000000000000E+00 
    0.0000000000000000E+00     5.6250000000164757E-01     0.0000000000000000E+00 
    0.0000000000000000E+00     5.0000000000205946E-01     0.0000000000000000E+00 
    0.0000000000000000E+00     4.3750000000182099E-01     0.0000000000000000E+00 
    0.0000000000000000E+00     3.7500000000156092E-01     0.0000000000000000E+00 
    0.0000000000000000E+00     3.1250000000130068E-01     0.0000000000000000E+00 
    0.0000000000000000E+00     2.5000000000104050E-01     0.0000000000000000E+00 
    0.0000000000000000E+00     1.8750000000078040E-01     0.0000000000000000E+00 
    0.0000000000000000E+00     1.2500000000052031E-01     0.0000000000000000E+00 
    0.0000000000000000E+00     6.2500000000260125E-02     0.0000000000000000E+00 
    6.2499999999897131E-02     6.2500000000235922E-02     0.0000000000000000E+00 
    6.2499999999921327E-02     1.2500000000047351E-01     0.0000000000000000E+00 
    6.2499999999945530E-02     1.8750000000070621E-01     0.0000000000000000E+00 
    6.2499999999969733E-02     2.5000000000093858E-01     0.0000000000000000E+00 
    6.2499999999993928E-02     3.1250000000117117E-01     0.0000000000000000E+00 
    6.2500000000018124E-02     3.7500000000140382E-01     0.0000000000000000E+00 
    6.2500000000042327E-02     4.3750000000163619E-01     0.0000000000000000E+00 
    6.2500000000066530E-02     5.0000000000184897E-01     0.0000000000000000E+00 
    6.2500000000090733E-02     5.6250000000147260E-01     0.0000000000000000E+00 
    6.2500000000114922E-02     6.2500000000107636E-01     0.0000000000000000E+00 
    6.2500000000139125E-02     6.8750000000068034E-01     0.0000000000000000E+00 
    6.2500000000163328E-02     7.5000000000028411E-01     0.0000000000000000E+00 
    6.2500000000187531E-02     8.1249999999988787E-01     0.0000000000000000E+00 
    6.2500000000211720E-02     8.7499999999951172E-01     0.0000000000000000E+00 
    6.2500000000235922E-02     9.3749999999974565E-01     0.0000000000000000E+00 
    1.2499999999981980E-01     6.2500000000211733E-02     0.0000000000000000E+00 
    1.2499999999986650E-01     1.2500000000042691E-01     0.0000000000000000E+00 
    1.2499999999991319E-01     1.8750000000063199E-01     0.0000000000000000E+00 
    1.2499999999995989E-01     2.5000000000083678E-01     0.0000000000000000E+00 
    1.2500000000000661E-01     3.1250000000104172E-01     0.0000000000000000E+00 
    1.2500000000005329E-01     3.7500000000124661E-01     0.0000000000000000E+00 
    1.2500000000010000E-01     4.3750000000145117E-01     0.0000000000000000E+00 
    1.2500000000014669E-01     5.0000000000163858E-01     0.0000000000000000E+00 
    1.2500000000019340E-01     5.6250000000129741E-01     0.0000000000000000E+00 
    1.2500000000024011E-01     6.2500000000093847E-01     0.0000000000000000E+00 
    1.2500000000028680E-01     6.8750000000057998E-01     0.0000000000000000E+00 
    1.2500000000033351E-01     7.5000000000022127E-01     0.0000000000000000E+00 
    1.2500000000038020E-01     8.1249999999986211E-01     0.0000000000000000E+00 
    1.2500000000042691E-01     8.7499999999952238E-01     0.0000000000000000E+00 
    1.2500000000047359E-01     9.3749999999975164E-01     0.0000000000000000E+00 
    1.8749999999966760E-01     6.2500000000187531E-02     0.0000000000000000E+00 
    1.8749999999974179E-01     1.2500000000038020E-01     0.0000000000000000E+00 
    1.8749999999981601E-01     1.8750000000055780E-01     0.0000000000000000E+00 
    1.8749999999989009E-01     2.5000000000073502E-01     0.0000000000000000E+00 
    1.8749999999996431E-01     3.1250000000091221E-01     0.0000000000000000E+00 
    1.8750000000003850E-01     3.7500000000108941E-01     0.0000000000000000E+00 
    1.8750000000011269E-01     4.3750000000126649E-01     0.0000000000000000E+00 
    1.8750000000018691E-01     5.0000000000142808E-01     0.0000000000000000E+00 
    1.8750000000026110E-01     5.6250000000112244E-01     0.0000000000000000E+00 
    1.8750000000033529E-01     6.2500000000080080E-01     0.0000000000000000E+00 
    1.8750000000040951E-01     6.8750000000047962E-01     0.0000000000000000E+00 
    1.8750000000048361E-01     7.5000000000015843E-01     0.0000000000000000E+00 
    1.8750000000055780E-01     8.1249999999983680E-01     0.0000000000000000E+00 
    1.8750000000063199E-01     8.7499999999953304E-01     0.0000000000000000E+00 
    1.8750000000070621E-01     9.3749999999975764E-01     0.0000000000000000E+00 
    2.4999999999951281E-01     6.2500000000163314E-02     0.0000000000000000E+00 
    2.4999999999961461E-01     1.2500000000033351E-01     0.0000000000000000E+00 
    2.4999999999971650E-01     1.8750000000048361E-01     0.0000000000000000E+00 
    2.4999999999981831E-01     2.5000000000063310E-01     0.0000000000000000E+00 
    2.4999999999992020E-01     3.1250000000078260E-01     0.0000000000000000E+00 
    2.5000000000002198E-01     3.7500000000093209E-01     0.0000000000000000E+00 
    2.5000000000012390E-01     4.3750000000108180E-01     0.0000000000000000E+00 
    2.5000000000022571E-01     5.0000000000121769E-01     0.0000000000000000E+00 
    2.5000000000032763E-01     5.6250000000094724E-01     0.0000000000000000E+00 
    2.5000000000042938E-01     6.2500000000066314E-01     0.0000000000000000E+00 
    2.5000000000053119E-01     6.8750000000037925E-01     0.0000000000000000E+00 
[...]
CELL_DATA 256 
SCALARS Pressure double 1 
LOOKUP_TABLE default 

    8.4164699844493818E-01 
    7.9136893744329218E-01 
    7.5935986738977435E-01 
    7.3562111468351610E-01 
    7.1604849788295855E-01 
    6.9920038032561393E-01 
    6.8463825776106535E-01 
    6.7221065172793093E-01 
    6.6188636793440569E-01 
    6.5357372213271492E-01 
    6.4669872097209002E-01 
    6.4016878018271661E-01 
    6.3532589979676901E-01 
    6.3267170426832275E-01 
    6.3143838792076168E-01 
    6.3110603387150654E-01 
    7.9137824077841556E-01 
    7.8097566566367949E-01 
    7.6010287955679978E-01 
    7.3937603603372937E-01 
    7.2044431803754405E-01 
    7.0342913297052878E-01 
    6.8835876879978808E-01 
    6.7526095832314104E-01 
    6.6420852994469914E-01 
    6.5523409327460946E-01 
    6.4799952882532830E-01 
    6.4129472453243852E-01 
    6.3575061029815705E-01 
    6.3258998363772923E-01 
    6.3110416857740381E-01 
    6.3077297551027378E-01 
    7.5937336174859116E-01 
    7.6010995639214574E-01 
    7.5025845093333665E-01 
    7.3552092262972124E-01 
    7.1940787834444220E-01 
    7.0354853357037805E-01 
    6.8875443324944119E-01 
    6.7546449073876202E-01 
    6.6398570330216178E-01 
    6.5452246627022637E-01 
    6.4698365297942373E-01 
    6.4043343944791886E-01 
    6.3454911689751770E-01 
    6.3109714475151746E-01 
    6.2961297936052285E-01 
    6.2953921710698624E-01 
    7.3563177008502068E-01 
    7.3938422145443949E-01 
    7.3552467865503968E-01 
    7.2601967873295992E-01 
    7.1338144546350757E-01 
    6.9949912209600662E-01 
    6.8562557741929664E-01 
    6.7258296983109755E-01 
    6.6095806247739464E-01 
    6.5116947856466378E-01 
    6.4338943456313669E-01 
    6.3711644522792032E-01 
    6.3133678447214470E-01 
    6.2770811734164200E-01 
    6.2646042435851390E-01 
    6.2689429265655527E-01 
    7.1605168492247839E-01 
    7.2044782854503919E-01 
    7.1941080933128609E-01 
    7.1338309964528568E-01 
    7.0371169860548000E-01 
    6.9188842066409340E-01 
    6.7918861764599470E-01 
    6.6662917973689828E-01 
    6.5501997280935165E-01 
    6.4499473664402895E-01 
    6.3697507812643428E-01 
    6.3086322095465486E-01 
    6.2554695485511547E-01 
    6.2192112674374589E-01 
    6.2113553225134632E-01 
    6.2232360992197444E-01 
    6.9919640479520562E-01 
    7.0342558707645275E-01 
    7.0354590460966948E-01 
    6.9949792392640542E-01 
    6.9188726251947452E-01 
    6.8170667319746570E-01 
    6.7004060063637283E-01 
    6.5792297053968529E-01 
    6.4629250836389440E-01 
    6.3596881767094182E-01 
    6.2760327761213608E-01 
    6.2144509176120644E-01 
    6.1670575913294712E-01 
    6.1333827843412159E-01 
    6.1313042481582980E-01 
    6.1530258966726481E-01 
    6.8462471317391516E-01 
    6.8834684025017756E-01 
    6.8874386460898473E-01 
    6.8561767331206236E-01 
    6.7918243674277334E-01 
    6.7003630695408611E-01 
    6.5901189409039940E-01 
    6.4705292474393694E-01 
    6.3514293568995916E-01 
    6.2424893107490598E-01 
    6.1524931426130058E-01 
    6.0874240682324010E-01 
    6.0442413330673095E-01 
    6.0148260485070149E-01 
    6.0185701164076610E-01 
    6.0525565002780168E-01 
    6.7218104740612461E-01 
    6.7523569077294743E-01 
    6.7544320994050355E-01 
    6.7256608250248029E-01 
    6.6661513374089731E-01 
    6.5791143768760596E-01 
    6.4704622969822301E-01 
    6.3482062366327985E-01 
    6.2219616816518442E-01 
    6.1024035614674821E-01 
    6.0004871371731450E-01 
    5.9259018181772816E-01 
    5.8812515435549573E-01 
    5.8559834345554729E-01 
    5.8659800681067986E-01 
    5.9151029129864641E-01 
    6.6183719006465414E-01 
    6.6416467298572235E-01 
    6.6394949046477747E-01 
    6.6093032334194168E-01 
    6.5499653671108393E-01 
    6.4627129240716774E-01 
    6.3512681365538870E-01 
    6.2218796977252300E-01 
    6.0833176543512235E-01 
    5.9466562118011301E-01 
    5.8247620221501706E-01 
    5.7310777482594766E-01 
    5.6743224190130637E-01 
    5.6494791573825254E-01 
    5.6654889761243588E-01 
    5.7325632195134613E-01 
    6.5350950148927167E-01 
    6.5517245073378261E-01 
    6.5447045259589764E-01 
    6.5113137511698282E-01 
    6.4496298100908789E-01 
    6.3593723093481735E-01 
    6.2422063612538681E-01 
    6.1022109762566745E-01 
    5.9465576719960977E-01 
    5.7858171352223597E-01 
    5.6340868750405515E-01 
    5.5088089270836516E-01 
    5.4265457406925655E-01 
    5.3917846581191842E-01 
    5.4076494023525268E-01 
    5.4937391130777469E-01 
    6.4663275873732062E-01 
    6.4793167898031867E-01 
    6.4692356903897619E-01 
    6.4334556851424807E-01 
    6.3693907628857460E-01 
    6.2756392394437799E-01 
    6.1520876626376464E-01 
    6.0001638818998082E-01 
    5.8245333542003686E-01 
    5.6339390564078240E-01 
    5.4419045946563716E-01 
    5.2687011669210693E-01 
    5.1398387004663693E-01 
    5.0747284452594033E-01 
    5.0787812292867562E-01 
    5.1821273442035809E-01 
    6.4011154544401105E-01 
    6.4124084964639683E-01 
    6.4038637549020649E-01 
    6.3707972311254479E-01 
    6.3083253517083160E-01 
    6.2140370445398041E-01 
    6.0869238162017536E-01 
    5.9254613196620076E-01 
    5.7307082648768581E-01 
    5.5084444435424551E-01 
    5.2684499449489197E-01 
    5.0298641141310019E-01 
    4.8246623047528692E-01 
    4.6897361287931399E-01 
    4.6531355338013569E-01 
    4.7656605263803492E-01 
    6.3527165054140866E-01 
    6.3569895570051738E-01 
    6.3450460188782498E-01 
    6.3130047512196819E-01 
    6.2551166327457952E-01 
    6.1666030531657567E-01 
    6.0436466235158226E-01 
    5.8807019743964051E-01 
    5.6737755471773144E-01 
    5.4258811297906751E-01 
    5.1392676884475319E-01 
    4.8244627884645208E-01 
    4.5125775162480614E-01 
    4.2542052398657232E-01 
    4.1142673732422858E-01 
    4.1897120806357274E-01 
    6.3261762280692158E-01 
    6.3253665841945428E-01 
    6.3104573204386594E-01 
    6.2765797505104293E-01 
    6.2187286861639146E-01 
    6.1328610182145160E-01 
    6.0141697840410813E-01 
    5.8553427098852950E-01 
    5.6487594105971484E-01 
    5.3908808749224624E-01 
    5.0738676591341192E-01 
    4.6897002052801368E-01 
    4.2544535346391998E-01 
    3.8112082289211241E-01 
    3.4564156708788990E-01 
    3.3848822393952077E-01 
    6.3138429708510768E-01 
    6.3105046031544598E-01 
    6.2956036820325700E-01 
    6.2640875314750732E-01 
    6.2108428745397815E-01 
    6.1307737495736658E-01 
    6.0179766892675313E-01 
    5.8653179965319557E-01 
    5.6647012146796227E-01 
    5.4066074231226735E-01 
    5.0776703984837612E-01 
    4.6532956793644215E-01 
    4.1152017654930251E-01 
    3.4566667001081852E-01 
    2.7080295120048042E-01 
    2.1797733267649411E-01 
    6.3105182983856889E-01 
    6.3071895989812066E-01 
    6.2948606843753097E-01 
    6.2684206959533773E-01 
    6.2227158757174184E-01 
    6.1524904299148664E-01 
    6.0519768833219145E-01 
    5.9144590277593845E-01 
    5.7318122128190030E-01 
    5.4927379911772745E-01 
    5.1808344053880928E-01 
    4.7653182319362053E-01 
    4.1913517372735648E-01 
    3.3853051311948873E-01 
    2.1795949690742883E-01 
    0.0000000000000000E+00 

SCALARS Saturarion double 1 
LOOKUP_TABLE default 

    1.0000000000000000E+00 
    9.8077217104061798E-01 
    9.4653924127222611E-01 
    8.8567342097725732E-01 
    8.1476373712422256E-01 
    7.5105644926701276E-01 
    6.9355280962676358E-01 
    6.4099033866732802E-01 
    5.9340814902363592E-01 
    5.4430436479412481E-01 
    4.4622219203307345E-01 
    9.8121711047564120E-02 
    1.0027617297237299E-06 
    1.0000000014291643E-06 
    9.9999999999999995E-07 
    9.9999999999999995E-07 
    9.8069365977269229E-01 
    9.6395192019995235E-01 
    9.3311326152170160E-01 
    8.8226281518863436E-01 
    8.1985654198638747E-01 
    7.6023894340485521E-01 
    7.0423431572958972E-01 
    6.5219119914633639E-01 
    6.0472839201254414E-01 
    5.5782182300794381E-01 
    4.7931553611011118E-01 
    2.0824356785507575E-01 
    3.5767531302323679E-04 
    1.0116968757120377E-06 
    1.0000000003552811E-06 
    9.9999999999999995E-07 
    9.4628714113867507E-01 
    9.3296221286600123E-01 
    9.0395531289682385E-01 
    8.6398911713218207E-01 
    8.1538917519715126E-01 
    7.6504382388888459E-01 
    7.1435473127109517E-01 
    6.6519282461738427E-01 
    6.1873509514769442E-01 
    5.7296454158402510E-01 
    5.1228899237947290E-01 
    3.3998234338294259E-01 
    2.4504180538297358E-02 
    2.6220053836272181E-05 
    1.0000371872707482E-06 
    9.9999999999999995E-07 
    8.8513445131820934E-01 
    8.8196120413945744E-01 
    8.6387899518976607E-01 
    8.3500037769698399E-01 
    7.9975274975346056E-01 
    7.5974336676200083E-01 
    7.1685874457909138E-01 
    6.7310397108560616E-01 
    6.2959209449512032E-01 
    5.8574671223436614E-01 
    5.3393881595697223E-01 
    4.2968805982658326E-01 
    1.1202943526908757E-01 
    2.7771040648086917E-04 
    1.0222192380824087E-06 
    9.9999999999999995E-07 
    8.1415668372575467E-01 
    8.1943810832834230E-01 
    8.1513991282824894E-01 
    7.9959522913122971E-01 
    7.7594744589714304E-01 
    7.4607174107314589E-01 
    7.1192987390176043E-01 
    6.7507609542724245E-01 
    6.3644724423897836E-01 
    5.9632296204284951E-01 
    5.5259894367558549E-01 
    4.7543230197299974E-01 
    2.2069925360099268E-01 
    4.4986592041099966E-03 
    1.7077361361150878E-06 
    1.0000000796336022E-06 
    7.5046320766126395E-01 
    7.5982840307479615E-01 
    7.6472834768494369E-01 
    7.5941155710365293E-01 
    7.4586581309203359E-01 
    7.2583766533587268E-01 
    7.0060764847991719E-01 
    6.7137676810442481E-01 
    6.3895185883341510E-01 
    6.0371465630737176E-01 
    5.6485988458576519E-01 
    5.0673231884337477E-01 
    3.4171559962904263E-01 
    3.3939333653258845E-02 
    6.7969988537574253E-05 
    1.0002974270354259E-06 
    6.9260222769952406E-01 
    7.0373908690811993E-01 
    7.1410916986139772E-01 
    7.1653550073602068E-01 
    7.1157015372336241E-01 
    7.0042866654819536E-01 
    6.8385119294397001E-01 
    6.6259587417342869E-01 
    6.3724585587426619E-01 
    6.0786418309778667E-01 
    5.7405870672691806E-01 
    5.2843088115198922E-01 
    4.1740077898993616E-01 
    9.9190463465956447E-02 
    2.0011524307935445E-04 
    1.0107158839249626E-06 
    6.3972381963679781E-01 
    6.5146309045027861E-01 
    6.6487322558771467E-01 
    6.7284508035925306E-01 
    6.7469765765715295E-01 
    6.7103479863053572E-01 
    6.6243369978661248E-01 
    6.4921425799810017E-01 
    6.3147907091035538E-01 
    6.0894274968192152E-01 
    5.8074954466687434E-01 
    5.4271845168991839E-01 
    4.5964105188497201E-01 
    1.8324197976922921E-01 
    1.8548631014760196E-03 
    1.1155696523691306E-06 
    5.9204198791783491E-01 
    6.0376645901460357E-01 
    6.1829176140454278E-01 
    6.2931339171700462E-01 
    6.3617572931784583E-01 
    6.3860830707435945E-01 
    6.3694381720818849E-01 
    6.3129126753490150E-01 
    6.2136367417148852E-01 
    6.0637859004805983E-01 
    5.8512905043042862E-01 
    5.5547156630267647E-01 
    4.9325800378366574E-01 
    2.8730221440106163E-01 
    2.3789760099528323E-02 
    4.0761851813430709E-05 
    5.4317118645022955E-01 
    5.5709015012584295E-01 
    5.7282742660789887E-01 
    5.8548146621282249E-01 
    5.9600941964078902E-01 
    6.0346379597321032E-01 
    6.0760549203350489E-01 
    6.0863055971047220E-01 
    6.0613282357776466E-01 
    5.9900053092724015E-01 
    5.8567433841107308E-01 
    5.6423451403834934E-01 
    5.2157679504020005E-01 
    3.9851202798969820E-01 
    8.3486785109318604E-02 
    2.7661780464479318E-04 
    4.4562358257027668E-01 
    4.7980246530368437E-01 
    5.1326165685334924E-01 
    5.3404977802548437E-01 
    5.5203212276084757E-01 
    5.6452060483933186E-01 
    5.7402410882343702E-01 
    5.8064692984370381E-01 
    5.8475440764259168E-01 
    5.8535457754212661E-01 
    5.8050021676548968E-01 
    5.6815718975107332E-01 
    5.3963136120572830E-01 
    4.5167980165363780E-01 
    1.6549999833591933E-01 
    1.3859302378645536E-03 
    9.8621437570087067E-02 
    2.1127573110788750E-01 
    3.4475447431151640E-01 
    4.3142382548660990E-01 
    4.7539567568821994E-01 
    5.0615963579082346E-01 
    5.2821071375997497E-01 
    5.4295114880857775E-01 
    5.5534912049650698E-01 
    5.6376239556549146E-01 
    5.6776163535845325E-01 
    5.6543972081727512E-01 
    5.5064855804665880E-01 
    4.9275253258625679E-01 
    2.8059347705672327E-01 
    4.1888812513127344E-02 
    1.0030969347913048E-06 
    4.0589921142733190E-04 
    2.7408815741520855E-02 
    1.1451179659894109E-01 
    2.1979927437527738E-01 
    3.3841585693882820E-01 
    4.1684836399906205E-01 
    4.5971564859834690E-01 
    4.9317292373974847E-01 
    5.2105956751292604E-01 
    5.3931529937869893E-01 
    5.5048148311323153E-01 
    5.5170979894606154E-01 
    5.2390370796801655E-01 
    4.0545123942518901E-01 
    1.6319302910282318E-01 
    1.0000000016066345E-06 
    1.0134258944243127E-06 
    3.2773192357515481E-05 
    2.3860970618901122E-04 
    4.1543191857501280E-03 
    3.2874380910498907E-02 
    1.0028457397859118E-01 
    1.8246483245640899E-01 
    2.8578549646085505E-01 
    3.9854206227731770E-01 
    4.5277758703455800E-01 
    4.9338464728683312E-01 
    5.2412779962037270E-01 
    5.2682175880890081E-01 
    4.7030957287970149E-01 
    2.6866375348048183E-01 
    9.9999999999999995E-07 
    1.0000000004495604E-06 
    1.0000600726794019E-06 
    1.0171148384502255E-06 
    1.6056655979052372E-06 
    6.8548038214242678E-05 
    2.2223910060792726E-04 
    1.6047871022689009E-03 
    2.5143160950655257E-02 
    8.3509294038423151E-02 
    1.7283478142966927E-01 
    2.8655597244770564E-01 
    4.0454726057366902E-01 
    4.7029595641237820E-01 
    4.8077714913956565E-01 
    3.5504733423473178E-01 
    9.9999999999999995E-07 
    9.9999999999999995E-07 
    9.9999999999999995E-07 
    9.9999999999999995E-07 
    1.0000000670562634E-06 
    1.0002984081402991E-06 
    1.0132470284892827E-06 
    1.0925533513930633E-06 
    4.8631236223042933E-05 
    3.0318251596540759E-04 
    2.0767694174151276E-03 
    3.6557237733826499E-02 
    1.6378169869876993E-01 
    2.6701144043022940E-01 
    3.5503546580270950E-01 
    3.5547958379784672E-01 
