# vtk DataFile Version 2.0
Pressure Field Data 
ASCII 
DATASET UNSTRUCTURED_GRID 

POINTS 289 double 

    0.0000000000000000E+00     0.0000000000000000E+00     0.0000000000000000E+00 
    1.0000000000000000E+00     0.0000000000000000E+00     0.0000000000000000E+00 
    1.0000000000000000E+00     1.0000000000000000E+00     0.0000000000000000E+00 
    0.0000000000000000E+00     1.0000000000000000E+00     0.0000000000000000E+00 
    6.2499999999872928E-02     0.0000000000000000E+00     0.0000000000000000E+00 
    1.2499999999977310E-01     0.0000000000000000E+00     0.0000000000000000E+00 
    1.8749999999959341E-01     0.0000000000000000E+00     0.0000000000000000E+00 
    2.4999999999941089E-01     0.0000000000000000E+00     0.0000000000000000E+00 
    3.1249999999922851E-01     0.0000000000000000E+00     0.0000000000000000E+00 
    3.7499999999904610E-01     0.0000000000000000E+00     0.0000000000000000E+00 
    4.3749999999886358E-01     0.0000000000000000E+00     0.0000000000000000E+00 
    4.9999999999869210E-01     0.0000000000000000E+00     0.0000000000000000E+00 
    5.6249999999884603E-01     0.0000000000000000E+00     0.0000000000000000E+00 
    6.2499999999901090E-01     0.0000000000000000E+00     0.0000000000000000E+00 
    6.8749999999917577E-01     0.0000000000000000E+00     0.0000000000000000E+00 
    7.4999999999934064E-01     0.0000000000000000E+00     0.0000000000000000E+00 
    8.1249999999950551E-01     0.0000000000000000E+00     0.0000000000000000E+00 
    8.7499999999967026E-01     0.0000000000000000E+00     0.0000000000000000E+00 
    9.3749999999983513E-01     0.0000000000000000E+00     0.0000000000000000E+00 
    1.0000000000000000E+00     6.2499999999872928E-02     0.0000000000000000E+00 
    1.0000000000000000E+00     1.2499999999977310E-01     0.0000000000000000E+00 
    1.0000000000000000E+00     1.8749999999959341E-01     0.0000000000000000E+00 
    1.0000000000000000E+00     2.4999999999941089E-01     0.0000000000000000E+00 
    1.0000000000000000E+00     3.1249999999922851E-01     0.0000000000000000E+00 
    1.0000000000000000E+00     3.7499999999904610E-01     0.0000000000000000E+00 
    1.0000000000000000E+00     4.3749999999886358E-01     0.0000000000000000E+00 
    1.0000000000000000E+00     4.9999999999869210E-01     0.0000000000000000E+00 
    1.0000000000000000E+00     5.6249999999884603E-01     0.0000000000000000E+00 
    1.0000000000000000E+00     6.2499999999901090E-01     0.0000000000000000E+00 
    1.0000000000000000E+00     6.8749999999917577E-01     0.0000000000000000E+00 
    1.0000000000000000E+00     7.4999999999934064E-01     0.0000000000000000E+00 
    1.0000000000000000E+00     8.1249999999950551E-01     0.0000000000000000E+00 
    1.0000000000000000E+00     8.7499999999967026E-01     0.0000000000000000E+00 
    1.0000000000000000E+00     9.3749999999983513E-01     0.0000000000000000E+00 
    9.3749999999973976E-01     1.0000000000000000E+00     0.0000000000000000E+00 
    8.7499999999950118E-01     1.0000000000000000E+00     0.0000000000000000E+00 
    8.1249999999991318E-01     1.0000000000000000E+00     0.0000000000000000E+00 
    7.5000000000034706E-01     1.0000000000000000E+00     0.0000000000000000E+00 
    6.8750000000078049E-01     1.0000000000000000E+00     0.0000000000000000E+00 
    6.2500000000121403E-01     1.0000000000000000E+00     0.0000000000000000E+00 
    5.6250000000164757E-01     1.0000000000000000E+00     0.0000000000000000E+00 
    5.0000000000205946E-01     1.0000000000000000E+00     0.0000000000000000E+00 
    4.3750000000182099E-01     1.0000000000000000E+00     0.0000000000000000E+00 
    3.7500000000156092E-01     1.0000000000000000E+00     0.0000000000000000E+00 
    3.1250000000130068E-01     1.0000000000000000E+00     0.0000000000000000E+00 
    2.5000000000104050E-01     1.0000000000000000E+00     0.0000000000000000E+00 
    1.8750000000078040E-01     1.0000000000000000E+00     0.0000000000000000E+00 
    1.2500000000052031E-01     1.0000000000000000E+00     0.0000000000000000E+00 
    6.2500000000260125E-02     1.0000000000000000E+00     0.0000000000000000E+00 
    0.0000000000000000E+00     9.3749999999973976E-01     0.0000000000000000E+00 
    0.0000000000000000E+00     8.7499999999950118E-01     0.0000000000000000E+00 
    0.0000000000000000E+00     8.1249999999991318E-01     0.0000000000000000E+00 
    0.0000000000000000E+00     7.5000000000034706E-01     0.0000000000000000E+00 
    0.0000000000000000E+00     6.8750000000078049E-01     0.0000000000000000E+00 
    0.0000000000000000E+00     6.2500000000121403E-01     0.0000000000000000E+00 
    0.0000000000000000E+00     5.6250000000164757E-01     0.0000000000000000E+00 
    0.0000000000000000E+00     5.0000000000205946E-01     0.0000000000000000E+00 
    0.0000000000000000E+00     4.3750000000182099E-01     0.0000000000000000E+00 
    0.0000000000000000E+00     3.7500000000156092E-01     0.0000000000000000E+00 
    0.0000000000000000E+00     3.1250000000130068E-01     0.0000000000000000E+00 
    0.0000000000000000E+00     2.5000000000104050E-01     0.0000000000000000E+00 
    0.0000000000000000E+00     1.8750000000078040E-01     0.0000000000000000E+00 
    0.0000000000000000E+00     1.2500000000052031E-01     0.0000000000000000E+00 
    0.0000000000000000E+00     6.2500000000260125E-02     0.0000000000000000E+00 
    6.2499999999897131E-02     6.2500000000235922E-02     0.0000000000000000E+00 
    6.2499999999921327E-02     1.2500000000047351E-01     0.0000000000000000E+00 
    6.2499999999945530E-02     1.8750000000070621E-01     0.0000000000000000E+00 
    6.2499999999969733E-02     2.5000000000093858E-01     0.0000000000000000E+00 
    6.2499999999993928E-02     3.1250000000117117E-01     0.0000000000000000E+00 
    6.2500000000018124E-02     3.7500000000140382E-01     0.0000000000000000E+00 
    6.2500000000042327E-02     4.3750000000163619E-01     0.0000000000000000E+00 
    6.2500000000066530E-02     5.0000000000184897E-01     0.0000000000000000E+00 
    6.2500000000090733E-02     5.6250000000147260E-01     0.0000000000000000E+00 
    6.2500000000114922E-02     6.2500000000107636E-01     0.0000000000000000E+00 
    6.2500000000139125E-02     6.8750000000068034E-01     0.0000000000000000E+00 
    6.2500000000163328E-02     7.5000000000028411E-01     0.0000000000000000E+00 
    6.2500000000187531E-02     8.1249999999988787E-01     0.0000000000000000E+00 
    6.2500000000211720E-02     8.7499999999951172E-01     0.0000000000000000E+00 
    6.2500000000235922E-02     9.3749999999974565E-01     0.0000000000000000E+00 
    1.2499999999981980E-01     6.2500000000211733E-02     0.0000000000000000E+00 
    1.2499999999986650E-01     1.2500000000042691E-01     0.0000000000000000E+00 
    1.2499999999991319E-01     1.8750000000063199E-01     0.0000000000000000E+00 
    1.2499999999995989E-01     2.5000000000083678E-01     0.0000000000000000E+00 
    1.2500000000000661E-01     3.1250000000104172E-01     0.0000000000000000E+00 
    1.2500000000005329E-01     3.7500000000124661E-01     0.0000000000000000E+00 
    1.2500000000010000E-01     4.3750000000145117E-01     0.0000000000000000E+00 
    1.2500000000014669E-01     5.0000000000163858E-01     0.0000000000000000E+00 
    1.2500000000019340E-01     5.6250000000129741E-01     0.0000000000000000E+00 
    1.2500000000024011E-01     6.2500000000093847E-01     0.0000000000000000E+00 
    1.2500000000028680E-01     6.8750000000057998E-01     0.0000000000000000E+00 
    1.2500000000033351E-01     7.5000000000022127E-01     0.0000000000000000E+00 
    1.2500000000038020E-01     8.1249999999986211E-01     0.0000000000000000E+00 
    1.2500000000042691E-01     8.7499999999952238E-01     0.0000000000000000E+00 
    1.2500000000047359E-01     9.3749999999975164E-01     0.0000000000000000E+00 
    1.8749999999966760E-01     6.2500000000187531E-02     0.0000000000000000E+00 
    1.8749999999974179E-01     1.2500000000038020E-01     0.0000000000000000E+00 
    1.8749999999981601E-01     1.8750000000055780E-01     0.0000000000000000E+00 
    1.8749999999989009E-01     2.5000000000073502E-01     0.0000000000000000E+00 
    1.8749999999996431E-01     3.1250000000091221E-01     0.0000000000000000E+00 
    1.8750000000003850E-01     3.7500000000108941E-01     0.0000000000000000E+00 
    1.8750000000011269E-01     4.3750000000126649E-01     0.0000000000000000E+00 
    1.8750000000018691E-01     5.0000000000142808E-01     0.0000000000000000E+00 
    1.8750000000026110E-01     5.6250000000112244E-01     0.0000000000000000E+00 
    1.8750000000033529E-01     6.2500000000080080E-01     0.0000000000000000E+00 
    1.8750000000040951E-01     6.8750000000047962E-01     0.0000000000000000E+00 
    1.8750000000048361E-01     7.5000000000015843E-01     0.0000000000000000E+00 
    1.8750000000055780E-01     8.1249999999983680E-01     0.0000000000000000E+00 
    1.8750000000063199E-01     8.7499999999953304E-01     0.0000000000000000E+00 
    1.8750000000070621E-01     9.3749999999975764E-01     0.0000000000000000E+00 
    2.4999999999951281E-01     6.2500000000163314E-02     0.0000000000000000E+00 
    2.4999999999961461E-01     1.2500000000033351E-01     0.0000000000000000E+00 
    2.4999999999971650E-01     1.8750000000048361E-01     0.0000000000000000E+00 
    2.4999999999981831E-01     2.5000000000063310E-01     0.0000000000000000E+00 
    2.4999999999992020E-01     3.1250000000078260E-01     0.0000000000000000E+00 
    2.5000000000002198E-01     3.7500000000093209E-01     0.0000000000000000E+00 
    2.5000000000012390E-01     4.3750000000108180E-01     0.0000000000000000E+00 
    2.5000000000022571E-01     5.0000000000121769E-01     0.0000000000000000E+00 
    2.5000000000032763E-01     5.6250000000094724E-01     0.0000000000000000E+00 
    2.5000000000042938E-01     6.2500000000066314E-01     0.0000000000000000E+00 
    2.5000000000053119E-01     6.8750000000037925E-01     0.0000000000000000E+00 
[...]
CELL_DATA 256 
SCALARS Pressure double 1 
LOOKUP_TABLE default 

    7.4565869327418433E-01 
    6.9571351091502442E-01 
    6.6432039066471238E-01 
    6.4153163289340076E-01 
    6.2319751478609031E-01 
    6.0769650667847686E-01 
    5.9445146914846914E-01 
    5.8322100796458121E-01 
    5.7389912397694232E-01 
    5.6643597404312340E-01 
    5.6068184415155731E-01 
    5.5592816655163091E-01 
    5.5186202145747465E-01 
    5.4939233231894680E-01 
    5.4827061280187928E-01 
    5.4796850447086787E-01 
    6.9572054548886753E-01 
    6.8541116548955194E-01 
    6.6500535239150749E-01 
    6.4509505441288861E-01 
    6.2729760959597858E-01 
    6.1157938737588369E-01 
    5.9782657041566856E-01 
    5.8596576478344753E-01 
    5.7597001101195833E-01 
    5.6785160198063955E-01 
    5.6156588450177514E-01 
    5.5662472739675017E-01 
    5.5223409357489961E-01 
    5.4930205218922101E-01 
    5.4796274482790730E-01 
    5.4766468271245261E-01 
    6.6433099219772818E-01 
    6.6501098732464647E-01 
    6.5548821332692286E-01 
    6.4144357155572029E-01 
    6.2634263352267106E-01 
    6.1169303512287587E-01 
    5.9818026552608283E-01 
    5.8613634332419862E-01 
    5.7575421029369411E-01 
    5.6717856131404421E-01 
    5.6048608897328167E-01 
    5.5543066437604627E-01 
    5.5109383693216474E-01 
    5.4791486177318138E-01 
    5.4660055820157738E-01 
    5.4654287594621387E-01 
    6.4154061970326903E-01 
    6.4510187524835749E-01 
    6.4144678143764289E-01 
    6.3251205299568691E-01 
    6.2075535507531221E-01 
    6.0797663329666352E-01 
    5.9532689849658771E-01 
    5.8351940033341376E-01 
    5.7302005684446300E-01 
    5.6416146699270542E-01 
    5.5716730114716484E-01 
    5.5201258107789741E-01 
    5.4799830155320561E-01 
    5.4486641812013670E-01 
    5.4374950384876353E-01 
    5.4415146792293645E-01 
    6.2320199166121792E-01 
    6.2730172632907599E-01 
    6.2634594874755189E-01 
    6.2075738564548244E-01 
    6.1183900488022913E-01 
    6.0101648690366782E-01 
    5.8948024117668074E-01 
    5.7813915755716250E-01 
    5.6768069080589578E-01 
    5.5863357077541309E-01 
    5.5139018464711809E-01 
    5.4614260946757187E-01 
    5.4251742176406692E-01 
    5.3974281717918404E-01 
    5.3895078513443329E-01 
    5.4003389579671746E-01 
    6.0769720558863738E-01 
    6.1157951493574325E-01 
    6.1169339172925485E-01 
    6.0797781358396097E-01 
    6.0101694749342771E-01 
    5.9175680271130038E-01 
    5.8120800753264446E-01 
    5.7030302280004508E-01 
    5.5985826254814375E-01 
    5.5057050007084518E-01 
    5.4300832360305895E-01 
    5.3757742011905174E-01 
    5.3421859342564604E-01 
    5.3200586237993608E-01 
    5.3170376122217422E-01 
    5.3371125237763417E-01 
    5.9444717018211446E-01 
    5.9782223039520810E-01 
    5.9817619806034850E-01 
    5.9532447646372710E-01 
    5.8947837007489046E-01 
    5.8120617974561450E-01 
    5.7128128644843323E-01 
    5.6055713211452629E-01 
    5.4989611861580090E-01 
    5.4012607053850636E-01 
    5.3199738155748610E-01 
    5.2612565753438112E-01 
    5.2275705773885017E-01 
    5.2118141721407130E-01 
    5.2156998488557538E-01 
    5.2470237417506749E-01 
    5.8320760920266768E-01 
    5.8595431653776797E-01 
    5.8612676804167974E-01 
    5.8351219677576038E-01 
    5.7813291091545904E-01 
    5.7029697856390960E-01 
    5.6055311941261299E-01 
    5.4962473394745126E-01 
    5.3835733756946347E-01 
    5.2767219174155799E-01 
    5.1850911716503756E-01 
    5.1174044177243616E-01 
    5.0796899228236492E-01 
    5.0685314410564353E-01 
    5.0799322105502476E-01 
    5.1241867362831617E-01 
    5.7387391413366817E-01 
    5.7594793025540558E-01 
    5.7573633704119598E-01 
    5.7300668731718019E-01 
    5.6766875510291437E-01 
    5.5984605831944434E-01 
    5.4988591788314911E-01 
    5.3835180987514908E-01 
    5.2601495220264893E-01 
    5.1383937117524181E-01 
    5.0294257900249706E-01 
    4.9450812138273237E-01 
    4.8960255773173683E-01 
    4.8843790018566530E-01 
    4.9020091760605000E-01 
    4.9605114146821033E-01 
    5.6639852293761428E-01 
    5.6781622822213895E-01 
    5.6714848031838716E-01 
    5.6413929698095411E-01 
    5.5861482569124432E-01 
    5.5055120818977599E-01 
    5.4010825357615877E-01 
    5.2765960476264195E-01 
    5.1383259938828729E-01 
    4.9955050655684413E-01 
    4.8604853435524770E-01 
    4.7483558964881856E-01 
    4.6753419475481472E-01 
    4.6513112339819196E-01 
    4.6710656261165806E-01 
    4.7461645342791076E-01 
    5.6063526385299456E-01 
    5.6151859440722551E-01 
    5.6044335974761295E-01 
    5.5713534069741477E-01 
    5.5136414440883730E-01 
    5.4298139740102314E-01 
    5.3197116558027469E-01 
    5.1848827904678985E-01 
    5.0292710534077900E-01 
    4.8603834881537233E-01 
    4.6903229334925084E-01 
    4.5365563971055767E-01 
    4.4216219012138358E-01 
    4.3666029855023047E-01 
    4.3771583978305156E-01 
    4.4665208851152688E-01 
    5.5587938358815914E-01 
    5.5657481455396496E-01 
    5.5538224977378037E-01 
    5.5197568523379104E-01 
    5.4611159651176910E-01 
    5.3754236410280920E-01 
    5.2609070816663861E-01 
    5.1171212714556702E-01 
    4.9448407719001353E-01 
    4.7481148583018828E-01 
    4.5363920770433719E-01 
    4.3266357203861222E-01 
    4.1460755580609387E-01 
    4.0301491518083216E-01 
    4.0057535628655239E-01 
    4.0959658584178338E-01 
    5.5181733993779536E-01 
    5.5219072179523399E-01 
    5.5105530288281090E-01 
    5.4796782126044641E-01 
    5.4248974835187513E-01 
    5.3417795090018227E-01 
    5.2271646794892201E-01 
    5.0793989964129371E-01 
    4.8957765595916813E-01 
    4.6749765377916863E-01 
    4.4212657278401712E-01 
    4.1459130276397355E-01 
    3.8740989126032122E-01 
    3.6516210706258223E-01 
    3.5397355147798554E-01 
    3.5950616225336296E-01 
    5.4935250159053606E-01 
    5.4926308004411240E-01 
    5.4787986607441830E-01 
    5.4484006626585968E-01 
    5.3972322297095121E-01 
    5.3197832279141122E-01 
    5.2115098367909674E-01 
    5.0683952748768202E-01 
    4.8842716191636881E-01 
    4.6508878903613510E-01 
    4.3660155627571834E-01 
    4.0298969248587402E-01 
    3.6517091556249254E-01 
    3.2681326771777691E-01 
    2.9699439217925722E-01 
    2.9043430002974596E-01 
    5.4823254801730914E-01 
    5.4792540530324607E-01 
    5.4656594368941003E-01 
    5.4371994244011124E-01 
    5.3892699348703632E-01 
    5.3168309435066163E-01 
    5.2155063666068979E-01 
    5.0799391250206127E-01 
    4.9021877186427470E-01 
    4.6711696938259822E-01 
    4.3766672052806266E-01 
    4.0056770028397753E-01 
    3.5404091129781617E-01 
    2.9703923269505156E-01 
    2.3293425376418644E-01 
    1.8730987004352592E-01 
    5.4793088166929205E-01 
    5.4762764842461020E-01 
    5.4650794567084682E-01 
    5.4412040451775856E-01 
    5.4000789394145299E-01 
    5.3369021096397629E-01 
    5.2468543086172970E-01 
    5.1241285506791001E-01 
    4.9607436773475222E-01 
    4.7467259770809300E-01 
    4.4663115098318917E-01 
    4.0952461532401346E-01 
    3.5958505533022000E-01 
    2.9050380036771678E-01 
    1.8728461829351442E-01 
    0.0000000000000000E+00 

SCALARS Saturarion double 1 
LOOKUP_TABLE default 

    1.0000000000000000E+00 
    9.8492690844398301E-01 
    9.5749443514168731E-01 
    9.0887667508636594E-01 
    8.4746766197782109E-01 
    7.8801410612282352E-01 
    7.3265698409293478E-01 
    6.7959074951374310E-01 
    6.2919419438360791E-01 
    5.8195557526467401E-01 
    5.2777126619263581E-01 
    3.7287745257265364E-01 
    1.6331954533869032E-02 
    1.0007664578157404E-06 
    1.0000000000749848E-06 
    9.9999999999999995E-07 
    9.8487210140272541E-01 
    9.7167924834003927E-01 
    9.4678630061367608E-01 
    9.0609098810569477E-01 
    8.5218149655678510E-01 
    7.9682954360489522E-01 
    7.4334129325844578E-01 
    6.9137332513820648E-01 
    6.4141067618408265E-01 
    5.9413372618648652E-01 
    5.4430111581944485E-01 
    4.3650344168274680E-01 
    1.0194420725529126E-01 
    1.3464990684432395E-04 
    1.0021064788573567E-06 
    9.9999999999999995E-07 
    9.5731312967897064E-01 
    9.4667509981623699E-01 
    9.2305744959985625E-01 
    8.9043917661414362E-01 
    8.4786192513787739E-01 
    8.0136057153847584E-01 
    7.5358084893861832E-01 
    7.0516551839584829E-01 
    6.5708469151200644E-01 
    6.1035597269920616E-01 
    5.6284229212712433E-01 
    4.8470911896971952E-01 
    2.2530750218430948E-01 
    2.0689920917764683E-03 
    1.1347095914772436E-06 
    1.0000000118049188E-06 
    9.0847217258817703E-01 
    9.0584879849005029E-01 
    8.9034471058985110E-01 
    8.6501098044953373E-01 
    8.3315541503109414E-01 
    7.9657296888862184E-01 
    7.5649116983611131E-01 
    7.1382382001384215E-01 
    6.6964465669029183E-01 
    6.2484227423028760E-01 
    5.7926003003914461E-01 
    5.1847006079795865E-01 
    3.4880481047194595E-01 
    3.1088025788397464E-02 
    5.3968950564376380E-05 
    1.0001470632157951E-06 
    8.4700443665993530E-01 
    8.5186845248872356E-01 
    8.4768619700842107E-01 
    8.3304050489010695E-01 
    8.1137732402947227E-01 
    7.8416430538559323E-01 
    7.5226090420890213E-01 
    7.1659964464060666E-01 
    6.7793017391894927E-01 
    6.3690019463543801E-01 
    5.9366643397783336E-01 
    5.4266119141160274E-01 
    4.3415540798731761E-01 
    1.1800374749201312E-01 
    2.8849688020043691E-04 
    1.0232371218098538E-06 
    7.8755704947626703E-01 
    7.9653309835466546E-01 
    8.0113632652183864E-01 
    7.9630888272474287E-01 
    7.8398788977230061E-01 
    7.6553756641095327E-01 
    7.4187765788452209E-01 
    7.1376913301192313E-01 
    6.8154905610017180E-01 
    6.4551217942973449E-01 
    6.0579180607875516E-01 
    5.6125342904475439E-01 
    4.8023819639826071E-01 
    2.1388761109864338E-01 
    3.0440045772576036E-03 
    1.2736190754588670E-06 
    7.3189832435601809E-01 
    7.4299875581145147E-01 
    7.5344422983300574E-01 
    7.5624973351583369E-01 
    7.5194720942252069E-01 
    7.4171104012510247E-01 
    7.2619752901921863E-01 
    7.0580914283198781E-01 
    6.8063002603218525E-01 
    6.5050568767260386E-01 
    6.1531471144144678E-01 
    5.7566591158083702E-01 
    5.1106713045199736E-01 
    3.1549521563050675E-01 
    1.9424122671603351E-02 
    1.8225593194106570E-05 
    6.7856002298162055E-01 
    6.9087420366141350E-01 
    7.0502123063667488E-01 
    7.1367490507952758E-01 
    7.1627199864062119E-01 
    7.1344457015744922E-01 
    7.0565525254913131E-01 
    6.9301499255415899E-01 
    6.7532043960091148E-01 
    6.5209306827569224E-01 
    6.2268217042229979E-01 
    5.8689500988603205E-01 
    5.3769051372295240E-01 
    4.0528708606335323E-01 
    7.8677492211332967E-02 
    1.5757383932297358E-04 
    6.2807904271376880E-01 
    6.4067960749932507E-01 
    6.5678758394797843E-01 
    6.6944136033136181E-01 
    6.7768898670802191E-01 
    6.8122434161233403E-01 
    6.8035738347047525E-01 
    6.7516161804031127E-01 
    6.6527334626872914E-01 
    6.4980801348256967E-01 
    6.2760949726639426E-01 
    5.9741145818035057E-01 
    5.5653605916742299E-01 
    4.5583701979441943E-01 
    1.4104734192210769E-01 
    4.0085014527574219E-04 
    5.8071829258349728E-01 
    5.9323901759895048E-01 
    6.0998175329177196E-01 
    6.2445708936904376E-01 
    6.3656128947267421E-01 
    6.4526422606106359E-01 
    6.5029276955940840E-01 
    6.5185475658629410E-01 
    6.4962730010490266E-01 
    6.4250825181923843E-01 
    6.2875759109832186E-01 
    6.0625134507336742E-01 
    5.7294186405613845E-01 
    4.9478352731753450E-01 
    2.2784078057067300E-01 
    7.3263384179965826E-03 
    5.2638957523023655E-01 
    5.4364599149642989E-01 
    5.6286568952217908E-01 
    5.7904686536250605E-01 
    5.9314336400242518E-01 
    6.0540256425589567E-01 
    6.1519354468221132E-01 
    6.2253971149066178E-01 
    6.2731012954789089E-01 
    6.2853244517751561E-01 
    6.2414444916621936E-01 
    6.1129767779601007E-01 
    5.8650747142498960E-01 
    5.2947977085474163E-01 
    3.4978814309965794E-01 
    4.1700278813193895E-02 
    3.7084995670959620E-01 
    4.3721091165858234E-01 
    4.8598516998726204E-01 
    5.1906512279375561E-01 
    5.4233081667135163E-01 
    5.6051286483067297E-01 
    5.7535870378462728E-01 
    5.8691536103261688E-01 
    5.9728763427678122E-01 
    6.0594359993776425E-01 
    6.1103706179351658E-01 
    6.0951330840912510E-01 
    5.9650638454531413E-01 
    5.5759208045263264E-01 
    4.3002106485235486E-01 
    1.5987948312791414E-01 
    1.5903569119843766E-02 
    1.0396394247484617E-01 
    2.3025634354241473E-01 
    3.5338624846015859E-01 
    4.3425663053544905E-01 
    4.7993910324749733E-01 
    5.1096455875194913E-01 
    5.3780649873030595E-01 
    5.5667526928013111E-01 
    5.7286833409176485E-01 
    5.8638607375645357E-01 
    5.9634708876036668E-01 
    5.9746225322044832E-01 
    5.7842730395462172E-01 
    4.9017704030179382E-01 
    2.4866256925327970E-01 
    1.0008796222010742E-06 
    1.3836134752593740E-04 
    2.4547779353575783E-03 
    3.1967724518415119E-02 
    1.1775638384136486E-01 
    2.1489246612694021E-01 
    3.2055634219210866E-01 
    4.0668455142724574E-01 
    4.5614591495577966E-01 
    4.9442442622113436E-01 
    5.2989169696546234E-01 
    5.5774707974371296E-01 
    5.7845714400368997E-01 
    5.7914783900368272E-01 
    5.3701034635455858E-01 
    3.3799750901643361E-01 
    1.0000000000852678E-06 
    1.0022865671889500E-06 
    1.1831394747351174E-06 
    5.3421606282219540E-05 
    2.6610302211093381E-04 
    3.3303610388114432E-03 
    2.1770723247081781E-02 
    7.6349285328917438E-02 
    1.4143239535092159E-01 
    2.2657442829963950E-01 
    3.5423806249454209E-01 
    4.3304480143166268E-01 
    4.9156879106383955E-01 
    5.3703600086323222E-01 
    5.4560469584051230E-01 
    4.1704606936257038E-01 
    9.9999999999999995E-07 
    9.9999999999999995E-07 
    1.0000000160749474E-06 
    1.0001485480776563E-06 
    1.0196893152665634E-06 
    1.3378471898613784E-06 
    2.2486346067181420E-05 
    1.1965582459369564E-04 
    5.3765489295106643E-04 
    6.7669560401672161E-03 
    5.5181379537306723E-02 
    1.5665354264840228E-01 
    2.4820139368075730E-01 
    3.3607350309781786E-01 
    4.1720808579099128E-01 
    4.1792711717236997E-01 
