# vtk DataFile Version 2.0
Pressure Field Data 
ASCII 
DATASET UNSTRUCTURED_GRID 

POINTS 289 double 

    0.0000000000000000E+00     0.0000000000000000E+00     0.0000000000000000E+00 
    1.0000000000000000E+00     0.0000000000000000E+00     0.0000000000000000E+00 
    1.0000000000000000E+00     1.0000000000000000E+00     0.0000000000000000E+00 
    0.0000000000000000E+00     1.0000000000000000E+00     0.0000000000000000E+00 
    6.2499999999872928E-02     0.0000000000000000E+00     0.0000000000000000E+00 
    1.2499999999977310E-01     0.0000000000000000E+00     0.0000000000000000E+00 
    1.8749999999959341E-01     0.0000000000000000E+00     0.0000000000000000E+00 
    2.4999999999941089E-01     0.0000000000000000E+00     0.0000000000000000E+00 
    3.1249999999922851E-01     0.0000000000000000E+00     0.0000000000000000E+00 
    3.7499999999904610E-01     0.0000000000000000E+00     0.0000000000000000E+00 
    4.3749999999886358E-01     0.0000000000000000E+00     0.0000000000000000E+00 
    4.9999999999869210E-01     0.0000000000000000E+00     0.0000000000000000E+00 
    5.6249999999884603E-01     0.0000000000000000E+00     0.0000000000000000E+00 
    6.2499999999901090E-01     0.0000000000000000E+00     0.0000000000000000E+00 
    6.8749999999917577E-01     0.0000000000000000E+00     0.0000000000000000E+00 
    7.4999999999934064E-01     0.0000000000000000E+00     0.0000000000000000E+00 
    8.1249999999950551E-01     0.0000000000000000E+00     0.0000000000000000E+00 
    8.7499999999967026E-01     0.0000000000000000E+00     0.0000000000000000E+00 
    9.3749999999983513E-01     0.0000000000000000E+00     0.0000000000000000E+00 
    1.0000000000000000E+00     6.2499999999872928E-02     0.0000000000000000E+00 
    1.0000000000000000E+00     1.2499999999977310E-01     0.0000000000000000E+00 
    1.0000000000000000E+00     1.8749999999959341E-01     0.0000000000000000E+00 
    1.0000000000000000E+00     2.4999999999941089E-01     0.0000000000000000E+00 
    1.0000000000000000E+00     3.1249999999922851E-01     0.0000000000000000E+00 
    1.0000000000000000E+00     3.7499999999904610E-01     0.0000000000000000E+00 
    1.0000000000000000E+00     4.3749999999886358E-01     0.0000000000000000E+00 
    1.0000000000000000E+00     4.9999999999869210E-01     0.0000000000000000E+00 
    1.0000000000000000E+00     5.6249999999884603E-01     0.0000000000000000E+00 
    1.0000000000000000E+00     6.2499999999901090E-01     0.0000000000000000E+00 
    1.0000000000000000E+00     6.8749999999917577E-01     0.0000000000000000E+00 
    1.0000000000000000E+00     7.4999999999934064E-01     0.0000000000000000E+00 
    1.0000000000000000E+00     8.1249999999950551E-01     0.0000000000000000E+00 
    1.0000000000000000E+00     8.7499999999967026E-01     0.0000000000000000E+00 
    1.0000000000000000E+00     9.3749999999983513E-01     0.0000000000000000E+00 
    9.3749999999973976E-01     1.0000000000000000E+00     0.0000000000000000E+00 
    8.7499999999950118E-01     1.0000000000000000E+00     0.0000000000000000E+00 
    8.1249999999991318E-01     1.0000000000000000E+00     0.0000000000000000E+00 
    7.5000000000034706E-01     1.0000000000000000E+00     0.0000000000000000E+00 
    6.8750000000078049E-01     1.0000000000000000E+00     0.0000000000000000E+00 
    6.2500000000121403E-01     1.0000000000000000E+00     0.0000000000000000E+00 
    5.6250000000164757E-01     1.0000000000000000E+00     0.0000000000000000E+00 
    5.0000000000205946E-01     1.0000000000000000E+00     0.0000000000000000E+00 
    4.3750000000182099E-01     1.0000000000000000E+00     0.0000000000000000E+00 
    3.7500000000156092E-01     1.0000000000000000E+00     0.0000000000000000E+00 
    3.1250000000130068E-01     1.0000000000000000E+00     0.0000000000000000E+00 
    2.5000000000104050E-01     1.0000000000000000E+00     0.0000000000000000E+00 
    1.8750000000078040E-01     1.0000000000000000E+00     0.0000000000000000E+00 
    1.2500000000052031E-01     1.0000000000000000E+00     0.0000000000000000E+00 
    6.2500000000260125E-02     1.0000000000000000E+00     0.0000000000000000E+00 
    0.0000000000000000E+00     9.3749999999973976E-01     0.0000000000000000E+00 
    0.0000000000000000E+00     8.7499999999950118E-01     0.0000000000000000E+00 
    0.0000000000000000E+00     8.1249999999991318E-01     0.0000000000000000E+00 
    0.0000000000000000E+00     7.5000000000034706E-01     0.0000000000000000E+00 
    0.0000000000000000E+00     6.8750000000078049E-01     0.0000000000000000E+00 
    0.0000000000000000E+00     6.2500000000121403E-01     0.0000000000000000E+00 
    0.0000000000000000E+00     5.6250000000164757E-01     0.0000000000000000E+00 
    0.0000000000000000E+00     5.0000000000205946E-01     0.0000000000000000E+00 
    0.0000000000000000E+00     4.3750000000182099E-01     0.0000000000000000E+00 
    0.0000000000000000E+00     3.7500000000156092E-01     0.0000000000000000E+00 
    0.0000000000000000E+00     3.1250000000130068E-01     0.0000000000000000E+00 
    0.0000000000000000E+00     2.5000000000104050E-01     0.0000000000000000E+00 
    0.0000000000000000E+00     1.8750000000078040E-01     0.0000000000000000E+00 
    0.0000000000000000E+00     1.2500000000052031E-01     0.0000000000000000E+00 
    0.0000000000000000E+00     6.2500000000260125E-02     0.0000000000000000E+00 
    6.2499999999897131E-02     6.2500000000235922E-02     0.0000000000000000E+00 
    6.2499999999921327E-02     1.2500000000047351E-01     0.0000000000000000E+00 
    6.2499999999945530E-02     1.8750000000070621E-01     0.0000000000000000E+00 
    6.2499999999969733E-02     2.5000000000093858E-01     0.0000000000000000E+00 
    6.2499999999993928E-02     3.1250000000117117E-01     0.0000000000000000E+00 
    6.2500000000018124E-02     3.7500000000140382E-01     0.0000000000000000E+00 
    6.2500000000042327E-02     4.3750000000163619E-01     0.0000000000000000E+00 
    6.2500000000066530E-02     5.0000000000184897E-01     0.0000000000000000E+00 
    6.2500000000090733E-02     5.6250000000147260E-01     0.0000000000000000E+00 
    6.2500000000114922E-02     6.2500000000107636E-01     0.0000000000000000E+00 
    6.2500000000139125E-02     6.8750000000068034E-01     0.0000000000000000E+00 
    6.2500000000163328E-02     7.5000000000028411E-01     0.0000000000000000E+00 
    6.2500000000187531E-02     8.1249999999988787E-01     0.0000000000000000E+00 
    6.2500000000211720E-02     8.7499999999951172E-01     0.0000000000000000E+00 
    6.2500000000235922E-02     9.3749999999974565E-01     0.0000000000000000E+00 
    1.2499999999981980E-01     6.2500000000211733E-02     0.0000000000000000E+00 
    1.2499999999986650E-01     1.2500000000042691E-01     0.0000000000000000E+00 
    1.2499999999991319E-01     1.8750000000063199E-01     0.0000000000000000E+00 
    1.2499999999995989E-01     2.5000000000083678E-01     0.0000000000000000E+00 
    1.2500000000000661E-01     3.1250000000104172E-01     0.0000000000000000E+00 
    1.2500000000005329E-01     3.7500000000124661E-01     0.0000000000000000E+00 
    1.2500000000010000E-01     4.3750000000145117E-01     0.0000000000000000E+00 
    1.2500000000014669E-01     5.0000000000163858E-01     0.0000000000000000E+00 
    1.2500000000019340E-01     5.6250000000129741E-01     0.0000000000000000E+00 
    1.2500000000024011E-01     6.2500000000093847E-01     0.0000000000000000E+00 
    1.2500000000028680E-01     6.8750000000057998E-01     0.0000000000000000E+00 
    1.2500000000033351E-01     7.5000000000022127E-01     0.0000000000000000E+00 
    1.2500000000038020E-01     8.1249999999986211E-01     0.0000000000000000E+00 
    1.2500000000042691E-01     8.7499999999952238E-01     0.0000000000000000E+00 
    1.2500000000047359E-01     9.3749999999975164E-01     0.0000000000000000E+00 
    1.8749999999966760E-01     6.2500000000187531E-02     0.0000000000000000E+00 
    1.8749999999974179E-01     1.2500000000038020E-01     0.0000000000000000E+00 
    1.8749999999981601E-01     1.8750000000055780E-01     0.0000000000000000E+00 
    1.8749999999989009E-01     2.5000000000073502E-01     0.0000000000000000E+00 
    1.8749999999996431E-01     3.1250000000091221E-01     0.0000000000000000E+00 
    1.8750000000003850E-01     3.7500000000108941E-01     0.0000000000000000E+00 
    1.8750000000011269E-01     4.3750000000126649E-01     0.0000000000000000E+00 
    1.8750000000018691E-01     5.0000000000142808E-01     0.0000000000000000E+00 
    1.8750000000026110E-01     5.6250000000112244E-01     0.0000000000000000E+00 
    1.8750000000033529E-01     6.2500000000080080E-01     0.0000000000000000E+00 
    1.8750000000040951E-01     6.8750000000047962E-01     0.0000000000000000E+00 
    1.8750000000048361E-01     7.5000000000015843E-01     0.0000000000000000E+00 
    1.8750000000055780E-01     8.1249999999983680E-01     0.0000000000000000E+00 
    1.8750000000063199E-01     8.7499999999953304E-01     0.0000000000000000E+00 
    1.8750000000070621E-01     9.3749999999975764E-01     0.0000000000000000E+00 
    2.4999999999951281E-01     6.2500000000163314E-02     0.0000000000000000E+00 
    2.4999999999961461E-01     1.2500000000033351E-01     0.0000000000000000E+00 
    2.4999999999971650E-01     1.8750000000048361E-01     0.0000000000000000E+00 
    2.4999999999981831E-01     2.5000000000063310E-01     0.0000000000000000E+00 
    2.4999999999992020E-01     3.1250000000078260E-01     0.0000000000000000E+00 
    2.5000000000002198E-01     3.7500000000093209E-01     0.0000000000000000E+00 
    2.5000000000012390E-01     4.3750000000108180E-01     0.0000000000000000E+00 
    2.5000000000022571E-01     5.0000000000121769E-01     0.0000000000000000E+00 
    2.5000000000032763E-01     5.6250000000094724E-01     0.0000000000000000E+00 
    2.5000000000042938E-01     6.2500000000066314E-01     0.0000000000000000E+00 
    2.5000000000053119E-01     6.8750000000037925E-01     0.0000000000000000E+00 
[...]
CELL_DATA 256 
SCALARS Pressure double 1 
LOOKUP_TABLE default 

    1.1374355111466679E+00 
    1.0827738253532468E+00 
    1.0415486228096924E+00 
    1.0041587262265794E+00 
    9.6897569321452393E-01 
    9.3458799484688471E-01 
    8.9480977541431750E-01 
    8.5854704145736505E-01 
    8.3235019301197333E-01 
    8.1237770895474193E-01 
    7.9763588451786616E-01 
    7.8728142997792938E-01 
    7.8052908324069170E-01 
    7.7661706315076229E-01 
    7.7478975651741355E-01 
    7.7429300643705690E-01 
    1.0828084882069253E+00 
    1.0711497225779465E+00 
    1.0434404886460742E+00 
    1.0110416366438975E+00 
    9.7793096812396685E-01 
    9.4504207946124341E-01 
    9.0640657684858073E-01 
    8.6803454861237239E-01 
    8.3954726739283025E-01 
    8.1746387050508973E-01 
    8.0090120605533521E-01 
    7.8906132298427378E-01 
    7.8118261280686785E-01 
    7.7651508358826082E-01 
    7.7430719782285096E-01 
    7.7380638509783295E-01 
    1.0415739169238807E+00 
    1.0434520730559400E+00 
    1.0292535369541713E+00 
    1.0052765439214451E+00 
    9.7701571691221190E-01 
    9.4698329443966656E-01 
    9.1019304585627603E-01 
    8.7147617343858053E-01 
    8.4200814770909049E-01 
    8.1864801747715521E-01 
    8.0084288914801605E-01 
    7.8797282421465387E-01 
    7.7937145468991331E-01 
    7.7433561246056193E-01 
    7.7213173299331994E-01 
    7.7201165949528894E-01 
    1.0041125480540367E+00 
    1.0110114754174846E+00 
    1.0052568619277382E+00 
    9.8925787666382858E-01 
    9.6684716000253557E-01 
    9.4031868553140951E-01 
    9.0599184912578501E-01 
    8.6839961303296731E-01 
    8.3902564600219798E-01 
    8.1519126297900601E-01 
    7.9672454970406448E-01 
    7.8327554683724288E-01 
    7.7434462374535418E-01 
    7.6931689339775744E-01 
    7.6749514796718177E-01 
    7.6813827801509038E-01 
    9.6884295863046466E-01 
    9.7782579598650377E-01 
    9.7694621503399159E-01 
    9.6681550020408991E-01 
    9.4946230665468856E-01 
    9.2552340765378427E-01 
    8.9373089863531663E-01 
    8.5865177948086624E-01 
    8.3030574605793228E-01 
    8.0665139796243612E-01 
    7.8799454233666122E-01 
    7.7433474081115050E-01 
    7.6540526163723843E-01 
    7.6072062809460717E-01 
    7.5963514912834418E-01 
    7.6141174441154902E-01 
    9.3442604553333442E-01 
    9.4489172385087072E-01 
    9.4686568469364496E-01 
    9.4023885817783392E-01 
    9.2547760447812921E-01 
    9.0313966876531604E-01 
    8.7401640856266005E-01 
    8.4284294348011157E-01 
    8.1606996449382241E-01 
    7.9296560252939829E-01 
    7.7436058660619222E-01 
    7.6067355174388085E-01 
    7.5193863823578322E-01 
    7.4784421794915490E-01 
    7.4780600563117627E-01 
    7.5107362537689626E-01 
    8.9467885348983367E-01 
    9.0627676655859513E-01 
    9.1007674311764752E-01 
    9.0589211605601128E-01 
    8.9365042598617839E-01 
    8.7397075340166264E-01 
    8.4888761483278075E-01 
    8.2238000551484025E-01 
    7.9713479437829948E-01 
    7.7452303458714178E-01 
    7.5585571601001345E-01 
    7.4201964981780377E-01 
    7.3343053350331577E-01 
    7.3001311072119102E-01 
    7.3125681138078846E-01 
    7.3636092429139921E-01 
    8.5845274560627416E-01 
    8.6793832705294294E-01 
    8.7138794166301203E-01 
    8.6832191245288803E-01 
    8.5858134303957334E-01 
    8.4279525883786721E-01 
    8.2235978696785217E-01 
    7.9891159800320843E-01 
    7.7478097630377418E-01 
    7.5217871778266232E-01 
    7.3289897897289003E-01 
    7.1836412507592973E-01 
    7.0949366687639659E-01 
    7.0656559147392517E-01 
    7.0918548466619491E-01 
    7.1644505865079844E-01 
    8.3227456257180110E-01 
    8.3946742234192395E-01 
    8.4192877405376965E-01 
    8.3895188518001684E-01 
    8.3024046840589916E-01 
    8.1601883831766986E-01 
    7.9710183079256125E-01 
    7.7476573377169544E-01 
    7.5080133196043675E-01 
    7.2729621066373495E-01 
    7.0638120831701023E-01 
    6.9005366388238842E-01 
    6.7991715390412533E-01 
    6.7683630250655813E-01 
    6.8067658824771637E-01 
    6.9037129743893555E-01 
    8.1231636955054676E-01 
    8.1739757404187940E-01 
    8.1857750473047863E-01 
    8.1512227374185786E-01 
    8.0658904187019198E-01 
    7.9291337066498646E-01 
    7.7448334929739859E-01 
    7.5215311819368280E-01 
    7.2728438472052381E-01 
    7.0173199582414703E-01 
    6.7776846750863240E-01 
    6.5794720669573492E-01 
    6.4478271585083891E-01 
    6.4015559714882042E-01 
    6.4459054880192790E-01 
    6.5691906010563972E-01 
    7.9758593702748848E-01 
    8.0084460463295737E-01 
    8.0077903413566487E-01 
    7.9665972812147012E-01 
    7.8793472349761629E-01 
    7.7430832918581893E-01 
    7.5581245829058563E-01 
    7.3286677531286015E-01 
    7.0636076764806144E-01 
    6.7775900926165833E-01 
    6.4922105835968558E-01 
    6.2368731894790963E-01 
    6.0474316186292221E-01 
    5.9593906070012259E-01 
    5.9939569565192363E-01 
    6.1433482549921437E-01 
    7.8724139476073107E-01 
    7.8901332240986766E-01 
    7.8791542737289022E-01 
    7.8321513030570300E-01 
    7.7427762245679521E-01 
    7.6062198325991104E-01 
    7.4197479828748358E-01 
    7.1832776198729598E-01 
    6.9002696251193030E-01 
    6.5793026079394035E-01 
    6.2367934199741670E-01 
    5.9010505308866823E-01 
    5.6162302482425486E-01 
    5.4407457289213290E-01 
    5.4298022063873042E-01 
    5.5979306052290456E-01 
    7.8050036344239648E-01 
    7.8114512003735570E-01 
    7.7932205282759370E-01 
    7.7428903017735562E-01 
    7.6535055028104260E-01 
    7.5188782700899104E-01 
    7.3338476507252404E-01 
    7.0945426772843356E-01 
    6.7988560870341419E-01 
    6.4475983614239452E-01 
    6.0472870664766321E-01 
    5.6161628497957450E-01 
    5.1950726457879337E-01 
    4.8611668083481852E-01 
    4.7271795183884935E-01 
    4.8827182693534182E-01 
    7.7660064816120333E-01 
    7.7648991824936897E-01 
    7.7429522830758013E-01 
    7.6926552783162994E-01 
    7.6066703311344308E-01 
    7.4779335217350462E-01 
    7.2996613193672222E-01 
    7.0652347576405627E-01 
    6.7680082394669083E-01 
    6.4012810324578440E-01 
    5.9591946388590034E-01 
    5.4406221516778219E-01 
    4.8611080854487110E-01 
    4.2828082541013929E-01 
    3.8701179965901639E-01 
    3.8996274185390623E-01 
    7.7478463861823099E-01 
    7.7429530976872551E-01 
    7.7210159933913791E-01 
    7.6744772009316287E-01 
    7.5958145811732292E-01 
    7.4775424950046310E-01 
    7.3120814804253298E-01 
    7.0914072366161141E-01 
    6.8063777999572361E-01 
    6.4455943167124086E-01 
    5.9937200184420170E-01 
    5.4296322094485105E-01 
    4.7270710049291292E-01 
    3.8700675484253794E-01 
    2.9342601115260392E-01 
    2.4379907288060862E-01 
    7.7429494756363004E-01 
    7.7380545526822408E-01 
    7.7199052396903267E-01 
    7.6809348325300031E-01 
    7.6135666780990729E-01 
    7.5102033038382865E-01 
    7.3630991041243621E-01 
    7.1639742438124110E-01 
    6.9032926735045297E-01 
    6.5688478442460119E-01 
    6.1430759642033683E-01 
    5.5977213237905554E-01 
    4.8825684714074546E-01 
    3.8995366515643115E-01 
    2.4379530451098755E-01 
    0.0000000000000000E+00 

SCALARS Saturarion double 1 
LOOKUP_TABLE default 

    9.9999998381176736E-01 
    9.2955031447339387E-01 
    8.0701438896684430E-01 
    6.7562006503802308E-01 
    5.9823570079698207E-01 
    4.9586502323245818E-01 
    1.6564154290657546E-01 
    1.0036850373035993E-06 
    1.0000000002474378E-06 
    9.9999999999999974E-07 
    9.9999999999999995E-07 
    9.9999999999999995E-07 
    9.9999999999999995E-07 
    9.9999999999999995E-07 
    9.9999999999999995E-07 
    9.9999999999999995E-07 
    9.2915642089469885E-01 
    8.7164988490442441E-01 
    7.7287847074944949E-01 
    6.6999640371777480E-01 
    5.9866015308779119E-01 
    5.0629034318443489E-01 
    2.2578030143832453E-01 
    3.2421760634337391E-04 
    1.0014437529139349E-06 
    1.0000000001883415E-06 
    9.9999999999999995E-07 
    9.9999999999999995E-07 
    9.9999999999999995E-07 
    9.9999999999999995E-07 
    9.9999999999999995E-07 
    9.9999999999999995E-07 
    8.0568676434073871E-01 
    7.7222504763344868E-01 
    7.0732054861780536E-01 
    6.4075030838271974E-01 
    5.8739222470951669E-01 
    5.1335091723818582E-01 
    2.7803053195888411E-01 
    2.2266809370252963E-03 
    1.0311997110313079E-06 
    1.0000000033269294E-06 
    9.9999999999999995E-07 
    9.9999999999999995E-07 
    9.9999999999999995E-07 
    9.9999999999999995E-07 
    9.9999999999999995E-07 
    9.9999999999999995E-07 
    6.7357379548929375E-01 
    6.6878316376118496E-01 
    6.4035236235074455E-01 
    6.0524802951829093E-01 
    5.6703002935668190E-01 
    5.0379082165826772E-01 
    2.8149313571351653E-01 
    2.3097454395944106E-03 
    1.0291945621340569E-06 
    1.0000000045961303E-06 
    9.9999999999999995E-07 
    9.9999999999999995E-07 
    9.9999999999999995E-07 
    9.9999999999999995E-07 
    9.9999999999999995E-07 
    9.9999999999999995E-07 
    5.9674244037048418E-01 
    5.9757091546583008E-01 
    5.8665954762625017E-01 
    5.6661520970461376E-01 
    5.3233206537111044E-01 
    4.7009311811271864E-01 
    2.1479104195869966E-01 
    6.4249737457997751E-04 
    1.0153426958040293E-06 
    1.0000000027287517E-06 
    9.9999999999999995E-07 
    9.9999999999999995E-07 
    9.9999999999999995E-07 
    9.9999999999999995E-07 
    9.9999999999999995E-07 
    9.9999999999999995E-07 
    4.9536384473733575E-01 
    5.0629227851291614E-01 
    5.1296105747555854E-01 
    5.0320103459349730E-01 
    4.6929291177424376E-01 
    3.6304422940721565E-01 
    7.3790812829112470E-02 
    2.1137578868188965E-04 
    1.0056047684672292E-06 
    1.0000000000000046E-06 
    9.9999999999999995E-07 
    9.9999999999999995E-07 
    9.9999999999999995E-07 
    9.9999999999999995E-07 
    9.9999999999999995E-07 
    9.9999999999999995E-07 
    1.6506089936216770E-01 
    2.2947133945353387E-01 
    2.8098893869342634E-01 
    2.8065252372038213E-01 
    2.1251328275345843E-01 
    7.3280418242241033E-02 
    7.4093340673829446E-04 
    1.0415435398118290E-06 
    1.0000000041045571E-06 
    1.0000000000000002E-06 
    9.9999999999999995E-07 
    9.9999999999999995E-07 
    9.9999999999999995E-07 
    9.9999999999999995E-07 
    9.9999999999999995E-07 
    9.9999999999999995E-07 
    1.0007837139574004E-06 
    3.8727232186900240E-04 
    2.4574706583678431E-03 
    2.3557530912944216E-03 
    6.0153887828046765E-04 
    2.0910177236378190E-04 
    1.0412226786359477E-06 
    1.0000000123445292E-06 
    1.0000000000000016E-06 
    9.9999999999999995E-07 
    9.9999999999999995E-07 
    9.9999999999999995E-07 
    9.9999999999999995E-07 
    9.9999999999999995E-07 
    9.9999999999999995E-07 
    9.9999999999999995E-07 
    1.0000000001612913E-06 
    1.0021505103564096E-06 
    1.0363751100639483E-06 
    1.0400469186322190E-06 
    1.0180924424987041E-06 
    1.0054563141442041E-06 
    1.0000000040516639E-06 
    1.0000000000000014E-06 
    9.9999999999999995E-07 
    9.9999999999999995E-07 
    9.9999999999999995E-07 
    9.9999999999999995E-07 
    9.9999999999999995E-07 
    9.9999999999999995E-07 
    9.9999999999999995E-07 
    9.9999999999999995E-07 
    9.9999999999999995E-07 
    1.0000000002814175E-06 
    1.0000000047291579E-06 
    1.0000000049148597E-06 
    1.0000000029043398E-06 
    1.0000000000000040E-06 
    1.0000000000000002E-06 
    9.9999999999999995E-07 
    9.9999999999999995E-07 
    9.9999999999999995E-07 
    9.9999999999999995E-07 
    9.9999999999999995E-07 
    9.9999999999999995E-07 
    9.9999999999999995E-07 
    9.9999999999999995E-07 
    9.9999999999999995E-07 
    9.9999999999999995E-07 
    9.9999999999999995E-07 
    9.9999999999999995E-07 
    9.9999999999999995E-07 
    1.0000000000000002E-06 
    9.9999999999999995E-07 
    9.9999999999999995E-07 
    9.9999999999999995E-07 
    9.9999999999999995E-07 
    9.9999999999999995E-07 
    9.9999999999999995E-07 
    9.9999999999999995E-07 
    9.9999999999999995E-07 
    9.9999999999999995E-07 
    9.9999999999999995E-07 
    9.9999999999999995E-07 
    9.9999999999999995E-07 
    9.9999999999999995E-07 
    9.9999999999999995E-07 
    9.9999999999999995E-07 
    9.9999999999999995E-07 
    9.9999999999999995E-07 
    9.9999999999999995E-07 
    9.9999999999999995E-07 
    9.9999999999999995E-07 
    9.9999999999999995E-07 
    9.9999999999999995E-07 
    9.9999999999999995E-07 
    9.9999999999999995E-07 
    9.9999999999999995E-07 
    9.9999999999999995E-07 
    9.9999999999999995E-07 
    9.9999999999999995E-07 
    9.9999999999999995E-07 
    9.9999999999999995E-07 
    9.9999999999999995E-07 
    9.9999999999999995E-07 
    9.9999999999999995E-07 
    9.9999999999999995E-07 
    9.9999999999999995E-07 
    9.9999999999999995E-07 
    9.9999999999999995E-07 
    9.9999999999999995E-07 
    9.9999999999999995E-07 
    9.9999999999999995E-07 
    9.9999999999999995E-07 
    9.9999999999999995E-07 
    9.9999999999999995E-07 
    9.9999999999999995E-07 
    9.9999999999999995E-07 
    9.9999999999999995E-07 
    9.9999999999999995E-07 
    9.9999999999999995E-07 
    9.9999999999999995E-07 
    9.9999999999999995E-07 
    9.9999999999999995E-07 
    9.9999999999999995E-07 
    9.9999999999999995E-07 
    9.9999999999999995E-07 
    9.9999999999999995E-07 
    9.9999999999999995E-07 
    9.9999999999999995E-07 
    9.9999999999999995E-07 
    9.9999999999999995E-07 
    9.9999999999999995E-07 
    9.9999999999999995E-07 
    9.9999999999999995E-07 
    9.9999999999999995E-07 
    9.9999999999999995E-07 
    9.9999999999999995E-07 
    9.9999999999999995E-07 
    9.9999999999999995E-07 
    9.9999999999999995E-07 
    9.9999999999999995E-07 
    9.9999999999999995E-07 
    9.9999999999999995E-07 
    9.9999999999999995E-07 
    9.9999999999999995E-07 
    9.9999999999999995E-07 
    9.9999999999999995E-07 
    9.9999999999999995E-07 
    9.9999999999999995E-07 
    9.9999999999999995E-07 
    9.9999999999999995E-07 
    9.9999999999999995E-07 
    9.9999999999999995E-07 
    9.9999999999999995E-07 
    9.9999999999999995E-07 
    9.9999999999999995E-07 
    9.9999999999999995E-07 
    9.9999999999999995E-07 
    9.9999999999999995E-07 
    9.9999999999999995E-07 
    9.9999999999999995E-07 
    9.9999999999999995E-07 
    1.0000001190567890E-06 
