# vtk DataFile Version 2.0
Pressure Field Data 
ASCII 
DATASET UNSTRUCTURED_GRID 

POINTS 289 double 

    0.0000000000000000E+00     0.0000000000000000E+00     0.0000000000000000E+00 
    1.0000000000000000E+00     0.0000000000000000E+00     0.0000000000000000E+00 
    1.0000000000000000E+00     1.0000000000000000E+00     0.0000000000000000E+00 
    0.0000000000000000E+00     1.0000000000000000E+00     0.0000000000000000E+00 
    6.2499999999872928E-02     0.0000000000000000E+00     0.0000000000000000E+00 
    1.2499999999977310E-01     0.0000000000000000E+00     0.0000000000000000E+00 
    1.8749999999959341E-01     0.0000000000000000E+00     0.0000000000000000E+00 
    2.4999999999941089E-01     0.0000000000000000E+00     0.0000000000000000E+00 
    3.1249999999922851E-01     0.0000000000000000E+00     0.0000000000000000E+00 
    3.7499999999904610E-01     0.0000000000000000E+00     0.0000000000000000E+00 
    4.3749999999886358E-01     0.0000000000000000E+00     0.0000000000000000E+00 
    4.9999999999869210E-01     0.0000000000000000E+00     0.0000000000000000E+00 
    5.6249999999884603E-01     0.0000000000000000E+00     0.0000000000000000E+00 
    6.2499999999901090E-01     0.0000000000000000E+00     0.0000000000000000E+00 
    6.8749999999917577E-01     0.0000000000000000E+00     0.0000000000000000E+00 
    7.4999999999934064E-01     0.0000000000000000E+00     0.0000000000000000E+00 
    8.1249999999950551E-01     0.0000000000000000E+00     0.0000000000000000E+00 
    8.7499999999967026E-01     0.0000000000000000E+00     0.0000000000000000E+00 
    9.3749999999983513E-01     0.0000000000000000E+00     0.0000000000000000E+00 
    1.0000000000000000E+00     6.2499999999872928E-02     0.0000000000000000E+00 
    1.0000000000000000E+00     1.2499999999977310E-01     0.0000000000000000E+00 
    1.0000000000000000E+00     1.8749999999959341E-01     0.0000000000000000E+00 
    1.0000000000000000E+00     2.4999999999941089E-01     0.0000000000000000E+00 
    1.0000000000000000E+00     3.1249999999922851E-01     0.0000000000000000E+00 
    1.0000000000000000E+00     3.7499999999904610E-01     0.0000000000000000E+00 
    1.0000000000000000E+00     4.3749999999886358E-01     0.0000000000000000E+00 
    1.0000000000000000E+00     4.9999999999869210E-01     0.0000000000000000E+00 
    1.0000000000000000E+00     5.6249999999884603E-01     0.0000000000000000E+00 
    1.0000000000000000E+00     6.2499999999901090E-01     0.0000000000000000E+00 
    1.0000000000000000E+00     6.8749999999917577E-01     0.0000000000000000E+00 
    1.0000000000000000E+00     7.4999999999934064E-01     0.0000000000000000E+00 
    1.0000000000000000E+00     8.1249999999950551E-01     0.0000000000000000E+00 
    1.0000000000000000E+00     8.7499999999967026E-01     0.0000000000000000E+00 
    1.0000000000000000E+00     9.3749999999983513E-01     0.0000000000000000E+00 
    9.3749999999973976E-01     1.0000000000000000E+00     0.0000000000000000E+00 
    8.7499999999950118E-01     1.0000000000000000E+00     0.0000000000000000E+00 
    8.1249999999991318E-01     1.0000000000000000E+00     0.0000000000000000E+00 
    7.5000000000034706E-01     1.0000000000000000E+00     0.0000000000000000E+00 
    6.8750000000078049E-01     1.0000000000000000E+00     0.0000000000000000E+00 
    6.2500000000121403E-01     1.0000000000000000E+00     0.0000000000000000E+00 
    5.6250000000164757E-01     1.0000000000000000E+00     0.0000000000000000E+00 
    5.0000000000205946E-01     1.0000000000000000E+00     0.0000000000000000E+00 
    4.3750000000182099E-01     1.0000000000000000E+00     0.0000000000000000E+00 
    3.7500000000156092E-01     1.0000000000000000E+00     0.0000000000000000E+00 
    3.1250000000130068E-01     1.0000000000000000E+00     0.0000000000000000E+00 
    2.5000000000104050E-01     1.0000000000000000E+00     0.0000000000000000E+00 
    1.8750000000078040E-01     1.0000000000000000E+00     0.0000000000000000E+00 
    1.2500000000052031E-01     1.0000000000000000E+00     0.0000000000000000E+00 
    6.2500000000260125E-02     1.0000000000000000E+00     0.0000000000000000E+00 
    0.0000000000000000E+00     9.3749999999973976E-01     0.0000000000000000E+00 
    0.0000000000000000E+00     8.7499999999950118E-01     0.0000000000000000E+00 
    0.0000000000000000E+00     8.1249999999991318E-01     0.0000000000000000E+00 
    0.0000000000000000E+00     7.5000000000034706E-01     0.0000000000000000E+00 
    0.0000000000000000E+00     6.8750000000078049E-01     0.0000000000000000E+00 
    0.0000000000000000E+00     6.2500000000121403E-01     0.0000000000000000E+00 
    0.0000000000000000E+00     5.6250000000164757E-01     0.0000000000000000E+00 
    0.0000000000000000E+00     5.0000000000205946E-01     0.0000000000000000E+00 
    0.0000000000000000E+00     4.3750000000182099E-01     0.0000000000000000E+00 
    0.0000000000000000E+00     3.7500000000156092E-01     0.0000000000000000E+00 
    0.0000000000000000E+00     3.1250000000130068E-01     0.0000000000000000E+00 
    0.0000000000000000E+00     2.5000000000104050E-01     0.0000000000000000E+00 
    0.0000000000000000E+00     1.8750000000078040E-01     0.0000000000000000E+00 
    0.0000000000000000E+00     1.2500000000052031E-01     0.0000000000000000E+00 
    0.0000000000000000E+00     6.2500000000260125E-02     0.0000000000000000E+00 
    6.2499999999897131E-02     6.2500000000235922E-02     0.0000000000000000E+00 
    6.2499999999921327E-02     1.2500000000047351E-01     0.0000000000000000E+00 
    6.2499999999945530E-02     1.8750000000070621E-01     0.0000000000000000E+00 
    6.2499999999969733E-02     2.5000000000093858E-01     0.0000000000000000E+00 
    6.2499999999993928E-02     3.1250000000117117E-01     0.0000000000000000E+00 
    6.2500000000018124E-02     3.7500000000140382E-01     0.0000000000000000E+00 
    6.2500000000042327E-02     4.3750000000163619E-01     0.0000000000000000E+00 
    6.2500000000066530E-02     5.0000000000184897E-01     0.0000000000000000E+00 
    6.2500000000090733E-02     5.6250000000147260E-01     0.0000000000000000E+00 
    6.2500000000114922E-02     6.2500000000107636E-01     0.0000000000000000E+00 
    6.2500000000139125E-02     6.8750000000068034E-01     0.0000000000000000E+00 
    6.2500000000163328E-02     7.5000000000028411E-01     0.0000000000000000E+00 
    6.2500000000187531E-02     8.1249999999988787E-01     0.0000000000000000E+00 
    6.2500000000211720E-02     8.7499999999951172E-01     0.0000000000000000E+00 
    6.2500000000235922E-02     9.3749999999974565E-01     0.0000000000000000E+00 
    1.2499999999981980E-01     6.2500000000211733E-02     0.0000000000000000E+00 
    1.2499999999986650E-01     1.2500000000042691E-01     0.0000000000000000E+00 
    1.2499999999991319E-01     1.8750000000063199E-01     0.0000000000000000E+00 
    1.2499999999995989E-01     2.5000000000083678E-01     0.0000000000000000E+00 
    1.2500000000000661E-01     3.1250000000104172E-01     0.0000000000000000E+00 
    1.2500000000005329E-01     3.7500000000124661E-01     0.0000000000000000E+00 
    1.2500000000010000E-01     4.3750000000145117E-01     0.0000000000000000E+00 
    1.2500000000014669E-01     5.0000000000163858E-01     0.0000000000000000E+00 
    1.2500000000019340E-01     5.6250000000129741E-01     0.0000000000000000E+00 
    1.2500000000024011E-01     6.2500000000093847E-01     0.0000000000000000E+00 
    1.2500000000028680E-01     6.8750000000057998E-01     0.0000000000000000E+00 
    1.2500000000033351E-01     7.5000000000022127E-01     0.0000000000000000E+00 
    1.2500000000038020E-01     8.1249999999986211E-01     0.0000000000000000E+00 
    1.2500000000042691E-01     8.7499999999952238E-01     0.0000000000000000E+00 
    1.2500000000047359E-01     9.3749999999975164E-01     0.0000000000000000E+00 
    1.8749999999966760E-01     6.2500000000187531E-02     0.0000000000000000E+00 
    1.8749999999974179E-01     1.2500000000038020E-01     0.0000000000000000E+00 
    1.8749999999981601E-01     1.8750000000055780E-01     0.0000000000000000E+00 
    1.8749999999989009E-01     2.5000000000073502E-01     0.0000000000000000E+00 
    1.8749999999996431E-01     3.1250000000091221E-01     0.0000000000000000E+00 
    1.8750000000003850E-01     3.7500000000108941E-01     0.0000000000000000E+00 
    1.8750000000011269E-01     4.3750000000126649E-01     0.0000000000000000E+00 
    1.8750000000018691E-01     5.0000000000142808E-01     0.0000000000000000E+00 
    1.8750000000026110E-01     5.6250000000112244E-01     0.0000000000000000E+00 
    1.8750000000033529E-01     6.2500000000080080E-01     0.0000000000000000E+00 
    1.8750000000040951E-01     6.8750000000047962E-01     0.0000000000000000E+00 
    1.8750000000048361E-01     7.5000000000015843E-01     0.0000000000000000E+00 
    1.8750000000055780E-01     8.1249999999983680E-01     0.0000000000000000E+00 
    1.8750000000063199E-01     8.7499999999953304E-01     0.0000000000000000E+00 
    1.8750000000070621E-01     9.3749999999975764E-01     0.0000000000000000E+00 
    2.4999999999951281E-01     6.2500000000163314E-02     0.0000000000000000E+00 
    2.4999999999961461E-01     1.2500000000033351E-01     0.0000000000000000E+00 
    2.4999999999971650E-01     1.8750000000048361E-01     0.0000000000000000E+00 
    2.4999999999981831E-01     2.5000000000063310E-01     0.0000000000000000E+00 
    2.4999999999992020E-01     3.1250000000078260E-01     0.0000000000000000E+00 
    2.5000000000002198E-01     3.7500000000093209E-01     0.0000000000000000E+00 
    2.5000000000012390E-01     4.3750000000108180E-01     0.0000000000000000E+00 
    2.5000000000022571E-01     5.0000000000121769E-01     0.0000000000000000E+00 
    2.5000000000032763E-01     5.6250000000094724E-01     0.0000000000000000E+00 
    2.5000000000042938E-01     6.2500000000066314E-01     0.0000000000000000E+00 
    2.5000000000053119E-01     6.8750000000037925E-01     0.0000000000000000E+00 
[...]
CELL_DATA 256 
SCALARS Pressure double 1 
LOOKUP_TABLE default 

    1.2432842981913854E+00 
    1.1810995523693439E+00 
    1.1244334109333300E+00 
    1.0601850252304112E+00 
    9.9137762916509742E-01 
    9.3515540349613024E-01 
    8.9234770231639560E-01 
    8.5876917582899881E-01 
    8.3261279965869051E-01 
    8.1263888692688613E-01 
    7.9788543798120626E-01 
    7.8751934028677339E-01 
    7.8075849338803460E-01 
    7.7684147322066366E-01 
    7.7501196054162014E-01 
    7.7451471741423716E-01 
    1.1811137135785887E+00 
    1.1672677762267580E+00 
    1.1282186293692000E+00 
    1.0723979544298881E+00 
    1.0070746929495578E+00 
    9.4985417118930526E-01 
    9.0462134291759089E-01 
    8.6846028733925718E-01 
    8.3988084377466832E-01 
    8.1775214861359824E-01 
    8.0116195338074714E-01 
    7.8930383270303417E-01 
    7.8141348398860921E-01 
    7.7673938171079249E-01 
    7.7452866787259711E-01 
    7.7402745153783925E-01 
    1.1243926818359269E+00 
    1.1281783284316449E+00 
    1.1059956257672248E+00 
    1.0621833357192578E+00 
    1.0053571133274737E+00 
    9.5305327099297599E-01 
    9.0892856359377150E-01 
    8.7224800605708375E-01 
    8.4248179346590868E-01 
    8.1899014217665089E-01 
    8.0112280543210923E-01 
    7.8822058010681084E-01 
    7.7960192750628587E-01 
    7.7455726428092098E-01 
    7.7234993464775881E-01 
    7.7222985593957127E-01 
    1.0600974002262267E+00 
    1.0723259036114694E+00 
    1.0621538107633290E+00 
    1.0313220655669437E+00 
    9.8726505561058964E-01 
    9.4415224157399458E-01 
    9.0420347678653490E-01 
    8.6910588306703174E-01 
    8.3951991186533381E-01 
    8.1555131365799138E-01 
    7.9701060467306639E-01 
    7.8352174255478835E-01 
    7.7456972473931684E-01 
    7.6953162249583562E-01 
    7.6770618217137621E-01 
    7.6835003179671169E-01 
    9.9130364753934352E-01 
    1.0070241650584324E+00 
    1.0053494702238788E+00 
    9.8727335331381305E-01 
    9.5820578663961775E-01 
    9.2503561477526441E-01 
    8.9095303228828604E-01 
    8.5892237604210486E-01 
    8.3062189537000009E-01 
    8.0693737251635356E-01 
    7.8824485936366473E-01 
    7.7455907755271314E-01 
    7.6561379791703044E-01 
    7.6092121306397265E-01 
    7.5983365358748756E-01 
    7.6161267972331348E-01 
    9.3510204487364812E-01 
    9.4980387983285786E-01 
    9.5301935850106245E-01 
    9.4413714541613469E-01 
    9.2502990536375851E-01 
    8.9954993981167763E-01 
    8.7112745517010892E-01 
    8.4259640927177959E-01 
    8.1609475501603312E-01 
    7.9309607806294768E-01 
    7.7452627274733643E-01 
    7.6084813389007122E-01 
    7.5211434804876143E-01 
    7.4802047605449618E-01 
    7.4798489738201712E-01 
    7.5125825971800386E-01 
    8.9231053637781432E-01 
    9.0458263161529395E-01 
    9.0889554758697111E-01 
    9.0418139697149258E-01 
    8.9094082607053293E-01 
    8.7112222809662210E-01 
    8.4722724965052876E-01 
    8.2174409040171614E-01 
    7.9688590088756994E-01 
    7.7447630156353831E-01 
    7.5591004615570812E-01 
    7.4212318262932164E-01 
    7.3355845433903732E-01 
    7.3015462271275222E-01 
    7.3140825980847413E-01 
    7.3652242877526508E-01 
    8.5874324494673160E-01 
    8.6843130382002809E-01 
    8.7221967868723227E-01 
    8.6908302025939266E-01 
    8.5890677806734972E-01 
    8.4258700513641582E-01 
    8.2173962559778690E-01 
    7.9833494872381894E-01 
    7.7443308327848137E-01 
    7.5201472920521095E-01 
    7.3285609483934078E-01 
    7.1839471380685860E-01 
    7.0956765369671082E-01 
    7.0666589757671994E-01 
    7.0930347837632124E-01 
    7.1657748332808324E-01 
    8.3259606126592745E-01 
    8.3986049760815051E-01 
    8.4245899765816568E-01 
    8.3949861996864805E-01 
    8.3060503503613659E-01 
    8.1608256649499389E-01 
    7.9687775512053127E-01 
    7.7442901484973814E-01 
    7.5051014344592359E-01 
    7.2710488458808975E-01 
    7.0628463956506282E-01 
    6.9002930640499516E-01 
    6.7994290900278165E-01 
    6.7689572713731716E-01 
    6.8075916177696960E-01 
    6.9047138893547066E-01 
    8.1263018110631124E-01 
    8.1773923830166184E-01 
    8.1897186384969445E-01 
    8.1553176107610914E-01 
    8.0692031721031765E-01 
    7.9308235626099644E-01 
    7.7446553640836635E-01 
    7.5200748233373027E-01 
    7.2710149253464829E-01 
    7.0157528557341153E-01 
    6.7766337683732547E-01 
    6.5789504148475308E-01 
    6.4477473008326802E-01 
    6.4018114953750971E-01 
    6.4464064290627676E-01 
    6.5698746456514356E-01 
    7.9788404311770200E-01 
    8.0115457325165418E-01 
    8.0110771633819589E-01 
    7.9699258840443110E-01 
    7.8822829816252693E-01 
    7.7451199154557360E-01 
    7.5589777209580533E-01 
    7.3284675078008543E-01 
    7.0627869888958794E-01 
    6.7766063041251035E-01 
    6.4913716341693206E-01 
    6.2363185848202551E-01 
    6.0471848734960942E-01 
    5.9594165362750384E-01 
    5.9942010518553956E-01 
    6.1437581614813075E-01 
    7.8752528976367120E-01 
    7.8930231635445314E-01 
    7.8820938919635708E-01 
    7.8350601272868559E-01 
    7.7454372499292690E-01 
    7.6083413408843814E-01 
    7.4211052492985152E-01 
    7.1838410891247073E-01 
    6.9002137060726554E-01 
    6.5788992290719861E-01 
    6.2362936618027542E-01 
    5.9006242201924719E-01 
    5.6159617437667375E-01 
    5.4406562180136731E-01 
    5.4298757413573284E-01 
    5.5981340104114485E-01 
    7.8077406281582018E-01 
    7.8142060109123257E-01 
    7.7959687770413211E-01 
    7.7455728761839537E-01 
    7.6559990125131561E-01 
    7.5210096977256857E-01 
    7.3354575009912337E-01 
    7.0955600856300938E-01 
    6.7993319346792092E-01 
    6.4476756931794377E-01 
    6.0471390237874245E-01 
    5.6159400763502321E-01 
    5.1948784233508360E-01 
    4.8610553113959176E-01 
    4.7271657238213860E-01 
    4.8827901844441696E-01 
    7.7686821812489748E-01 
    7.7675752879052795E-01 
    7.7455997519118291E-01 
    7.6952250640716724E-01 
    7.6090804491847297E-01 
    7.4800721658325808E-01 
    7.3014152041318137E-01 
    7.0665310656613523E-01 
    6.7688444644531032E-01 
    6.4017243051944295E-01 
    5.9593544723100855E-01 
    5.4406158730529064E-01 
    4.8610347518566716E-01 
    4.2827359686858063E-01 
    3.8700821926527296E-01 
    3.8996348508350259E-01 
    7.7504932286763040E-01 
    7.7455925313634699E-01 
    7.7236212780639568E-01 
    7.6770063106121289E-01 
    7.5982050180027783E-01 
    7.4797124219279465E-01 
    7.3139440178231341E-01 
    7.0928950789778555E-01 
    6.8074659547324856E-01 
    6.4463084853957542E-01 
    5.9941270073702402E-01 
    5.4298197326973485E-01 
    4.7271264896625048E-01 
    3.8700625311011611E-01 
    2.9342423169540688E-01 
    2.4379821119260325E-01 
    7.7455886093237680E-01 
    7.7406859602254408E-01 
    7.7225072754117852E-01 
    7.6834719285374287E-01 
    7.6159869244247225E-01 
    7.5124386977623869E-01 
    7.3650739244785990E-01 
    7.1656222513685996E-01 
    6.9045758892888209E-01 
    6.5697682126157197E-01 
    6.1436740242982302E-01 
    5.5980647484955337E-01 
    4.8827351359280424E-01 
    3.8995988620413990E-01 
    2.4379667570027402E-01 
    0.0000000000000000E+00 

SCALARS Saturarion double 1 
LOOKUP_TABLE default 

    9.9728821344014296E-01 
    8.5177528141400127E-01 
    6.4510971249559468E-01 
    4.6567236558543812E-01 
    6.0289507102524016E-02 
    1.0001426712638879E-06 
    1.0000000000591546E-06 
    9.9999999999999995E-07 
    9.9999999999999995E-07 
    9.9999999999999995E-07 
    9.9999999999999995E-07 
    9.9999999999999995E-07 
    9.9999999999999995E-07 
    9.9999999999999995E-07 
    9.9999999999999995E-07 
    9.9999999999999995E-07 
    8.5116782494471499E-01 
    7.4835157378553407E-01 
    6.1052429091801041E-01 
    4.6177756965117284E-01 
    6.5655802273289238E-02 
    5.6730792811463593E-06 
    1.0000022192094381E-06 
    1.0000000000005372E-06 
    9.9999999999999995E-07 
    9.9999999999999995E-07 
    9.9999999999999995E-07 
    9.9999999999999995E-07 
    9.9999999999999995E-07 
    9.9999999999999995E-07 
    9.9999999999999995E-07 
    9.9999999999999995E-07 
    6.4357840604734917E-01 
    6.1013590493213687E-01 
    5.5508356419646865E-01 
    3.8704253037286807E-01 
    2.8302733575032622E-02 
    2.4023210388716550E-05 
    1.0000145703842807E-06 
    1.0000000000006310E-06 
    9.9999999999999995E-07 
    9.9999999999999995E-07 
    9.9999999999999995E-07 
    9.9999999999999995E-07 
    9.9999999999999995E-07 
    9.9999999999999995E-07 
    9.9999999999999995E-07 
    9.9999999999999995E-07 
    4.6456702307346853E-01 
    4.6246368103428881E-01 
    3.8843246619583593E-01 
    1.5064626904393913E-01 
    6.9451659615481004E-04 
    1.0343366012328787E-06 
    1.0000000030569821E-06 
    9.9999999999999995E-07 
    9.9999999999999995E-07 
    9.9999999999999995E-07 
    9.9999999999999995E-07 
    9.9999999999999995E-07 
    9.9999999999999995E-07 
    9.9999999999999995E-07 
    9.9999999999999995E-07 
    9.9999999999999995E-07 
    6.0304784320605653E-02 
    6.6550173876076910E-02 
    2.9127881373554869E-02 
    7.2495684999393756E-04 
    1.1455071383508463E-06 
    1.0000000350624216E-06 
    1.0000000000000029E-06 
    9.9999999999999995E-07 
    9.9999999999999995E-07 
    9.9999999999999995E-07 
    9.9999999999999995E-07 
    9.9999999999999995E-07 
    9.9999999999999995E-07 
    9.9999999999999995E-07 
    9.9999999999999995E-07 
    9.9999999999999995E-07 
    1.0001450393911657E-06 
    5.2995219073738369E-06 
    2.5127499512792259E-05 
    1.0337305831988368E-06 
    1.0000000351893317E-06 
    1.0000000000000055E-06 
    9.9999999999999995E-07 
    9.9999999999999995E-07 
    9.9999999999999995E-07 
    9.9999999999999995E-07 
    9.9999999999999995E-07 
    9.9999999999999995E-07 
    9.9999999999999995E-07 
    9.9999999999999995E-07 
    9.9999999999999995E-07 
    9.9999999999999995E-07 
    1.0000000000601152E-06 
    1.0000020113747587E-06 
    1.0000157640268215E-06 
    1.0000000029261233E-06 
    1.0000000000000029E-06 
    9.9999999999999995E-07 
    9.9999999999999995E-07 
    9.9999999999999995E-07 
    9.9999999999999995E-07 
    9.9999999999999995E-07 
    9.9999999999999995E-07 
    9.9999999999999995E-07 
    9.9999999999999995E-07 
    9.9999999999999995E-07 
    9.9999999999999995E-07 
    9.9999999999999995E-07 
    9.9999999999999995E-07 
    1.0000000000005027E-06 
    1.0000000000006905E-06 
    9.9999999999999995E-07 
    9.9999999999999995E-07 
    9.9999999999999995E-07 
    9.9999999999999995E-07 
    9.9999999999999995E-07 
    9.9999999999999995E-07 
    9.9999999999999995E-07 
    9.9999999999999995E-07 
    9.9999999999999995E-07 
    9.9999999999999995E-07 
    9.9999999999999995E-07 
    9.9999999999999995E-07 
    9.9999999999999995E-07 
    9.9999999999999995E-07 
    9.9999999999999995E-07 
    9.9999999999999995E-07 
    9.9999999999999995E-07 
    9.9999999999999995E-07 
    9.9999999999999995E-07 
    9.9999999999999995E-07 
    9.9999999999999995E-07 
    9.9999999999999995E-07 
    9.9999999999999995E-07 
    9.9999999999999995E-07 
    9.9999999999999995E-07 
    9.9999999999999995E-07 
    9.9999999999999995E-07 
    9.9999999999999995E-07 
    9.9999999999999995E-07 
    9.9999999999999995E-07 
    9.9999999999999995E-07 
    9.9999999999999995E-07 
    9.9999999999999995E-07 
    9.9999999999999995E-07 
    9.9999999999999995E-07 
    9.9999999999999995E-07 
    9.9999999999999995E-07 
    9.9999999999999995E-07 
    9.9999999999999995E-07 
    9.9999999999999995E-07 
    9.9999999999999995E-07 
    9.9999999999999995E-07 
    9.9999999999999995E-07 
    9.9999999999999995E-07 
    9.9999999999999995E-07 
    9.9999999999999995E-07 
    9.9999999999999995E-07 
    9.9999999999999995E-07 
    9.9999999999999995E-07 
    9.9999999999999995E-07 
    9.9999999999999995E-07 
    9.9999999999999995E-07 
    9.9999999999999995E-07 
    9.9999999999999995E-07 
    9.9999999999999995E-07 
    9.9999999999999995E-07 
    9.9999999999999995E-07 
    9.9999999999999995E-07 
    9.9999999999999995E-07 
    9.9999999999999995E-07 
    9.9999999999999995E-07 
    9.9999999999999995E-07 
    9.9999999999999995E-07 
    9.9999999999999995E-07 
    9.9999999999999995E-07 
    9.9999999999999995E-07 
    9.9999999999999995E-07 
    9.9999999999999995E-07 
    9.9999999999999995E-07 
    9.9999999999999995E-07 
    9.9999999999999995E-07 
    9.9999999999999995E-07 
    9.9999999999999995E-07 
    9.9999999999999995E-07 
    9.9999999999999995E-07 
    9.9999999999999995E-07 
    9.9999999999999995E-07 
    9.9999999999999995E-07 
    9.9999999999999995E-07 
    9.9999999999999995E-07 
    9.9999999999999995E-07 
    9.9999999999999995E-07 
    9.9999999999999995E-07 
    9.9999999999999995E-07 
    9.9999999999999995E-07 
    9.9999999999999995E-07 
    9.9999999999999995E-07 
    9.9999999999999995E-07 
    9.9999999999999995E-07 
    9.9999999999999995E-07 
    9.9999999999999995E-07 
    9.9999999999999995E-07 
    9.9999999999999995E-07 
    9.9999999999999995E-07 
    9.9999999999999995E-07 
    9.9999999999999995E-07 
    9.9999999999999995E-07 
    9.9999999999999995E-07 
    9.9999999999999995E-07 
    9.9999999999999995E-07 
    9.9999999999999995E-07 
    9.9999999999999995E-07 
    9.9999999999999995E-07 
    9.9999999999999995E-07 
    9.9999999999999995E-07 
    9.9999999999999995E-07 
    9.9999999999999995E-07 
    9.9999999999999995E-07 
    9.9999999999999995E-07 
    9.9999999999999995E-07 
    9.9999999999999995E-07 
    9.9999999999999995E-07 
    9.9999999999999995E-07 
    9.9999999999999995E-07 
    9.9999999999999995E-07 
    9.9999999999999995E-07 
    9.9999999999999995E-07 
    9.9999999999999995E-07 
    9.9999999999999995E-07 
    9.9999999999999995E-07 
    9.9999999999999995E-07 
    9.9999999999999995E-07 
    9.9999999999999995E-07 
    9.9999999999999995E-07 
    9.9999999999999995E-07 
    9.9999999999999995E-07 
    9.9999999999999995E-07 
    9.9999999999999995E-07 
    9.9999999999999995E-07 
    9.9999999999999995E-07 
    9.9999999999999995E-07 
    9.9999999999999995E-07 
    9.9999999999999995E-07 
    9.9999999999999995E-07 
    9.9999999999999995E-07 
    9.9999999999999995E-07 
    9.9999999999999995E-07 
    9.9999999999999995E-07 
    9.9999999999999995E-07 
    9.9999999999999995E-07 
    1.0000000427686734E-06 
