# vtk DataFile Version 2.0
Pressure Field Data 
ASCII 
DATASET UNSTRUCTURED_GRID 

POINTS 289 double 

    0.0000000000000000E+00     0.0000000000000000E+00     0.0000000000000000E+00 
    1.0000000000000000E+00     0.0000000000000000E+00     0.0000000000000000E+00 
    1.0000000000000000E+00     1.0000000000000000E+00     0.0000000000000000E+00 
    0.0000000000000000E+00     1.0000000000000000E+00     0.0000000000000000E+00 
    6.2499999999872928E-02     0.0000000000000000E+00     0.0000000000000000E+00 
    1.2499999999977310E-01     0.0000000000000000E+00     0.0000000000000000E+00 
    1.8749999999959341E-01     0.0000000000000000E+00     0.0000000000000000E+00 
    2.4999999999941089E-01     0.0000000000000000E+00     0.0000000000000000E+00 
    3.1249999999922851E-01     0.0000000000000000E+00     0.0000000000000000E+00 
    3.7499999999904610E-01     0.0000000000000000E+00     0.0000000000000000E+00 
    4.3749999999886358E-01     0.0000000000000000E+00     0.0000000000000000E+00 
    4.9999999999869210E-01     0.0000000000000000E+00     0.0000000000000000E+00 
    5.6249999999884603E-01     0.0000000000000000E+00     0.0000000000000000E+00 
    6.2499999999901090E-01     0.0000000000000000E+00     0.0000000000000000E+00 
    6.8749999999917577E-01     0.0000000000000000E+00     0.0000000000000000E+00 
    7.4999999999934064E-01     0.0000000000000000E+00     0.0000000000000000E+00 
    8.1249999999950551E-01     0.0000000000000000E+00     0.0000000000000000E+00 
    8.7499999999967026E-01     0.0000000000000000E+00     0.0000000000000000E+00 
    9.3749999999983513E-01     0.0000000000000000E+00     0.0000000000000000E+00 
    1.0000000000000000E+00     6.2499999999872928E-02     0.0000000000000000E+00 
    1.0000000000000000E+00     1.2499999999977310E-01     0.0000000000000000E+00 
    1.0000000000000000E+00     1.8749999999959341E-01     0.0000000000000000E+00 
    1.0000000000000000E+00     2.4999999999941089E-01     0.0000000000000000E+00 
    1.0000000000000000E+00     3.1249999999922851E-01     0.0000000000000000E+00 
    1.0000000000000000E+00     3.7499999999904610E-01     0.0000000000000000E+00 
    1.0000000000000000E+00     4.3749999999886358E-01     0.0000000000000000E+00 
    1.0000000000000000E+00     4.9999999999869210E-01     0.0000000000000000E+00 
    1.0000000000000000E+00     5.6249999999884603E-01     0.0000000000000000E+00 
    1.0000000000000000E+00     6.2499999999901090E-01     0.0000000000000000E+00 
    1.0000000000000000E+00     6.8749999999917577E-01     0.0000000000000000E+00 
    1.0000000000000000E+00     7.4999999999934064E-01     0.0000000000000000E+00 
    1.0000000000000000E+00     8.1249999999950551E-01     0.0000000000000000E+00 
    1.0000000000000000E+00     8.7499999999967026E-01     0.0000000000000000E+00 
    1.0000000000000000E+00     9.3749999999983513E-01     0.0000000000000000E+00 
    9.3749999999973976E-01     1.0000000000000000E+00     0.0000000000000000E+00 
    8.7499999999950118E-01     1.0000000000000000E+00     0.0000000000000000E+00 
    8.1249999999991318E-01     1.0000000000000000E+00     0.0000000000000000E+00 
    7.5000000000034706E-01     1.0000000000000000E+00     0.0000000000000000E+00 
    6.8750000000078049E-01     1.0000000000000000E+00     0.0000000000000000E+00 
    6.2500000000121403E-01     1.0000000000000000E+00     0.0000000000000000E+00 
    5.6250000000164757E-01     1.0000000000000000E+00     0.0000000000000000E+00 
    5.0000000000205946E-01     1.0000000000000000E+00     0.0000000000000000E+00 
    4.3750000000182099E-01     1.0000000000000000E+00     0.0000000000000000E+00 
    3.7500000000156092E-01     1.0000000000000000E+00     0.0000000000000000E+00 
    3.1250000000130068E-01     1.0000000000000000E+00     0.0000000000000000E+00 
    2.5000000000104050E-01     1.0000000000000000E+00     0.0000000000000000E+00 
    1.8750000000078040E-01     1.0000000000000000E+00     0.0000000000000000E+00 
    1.2500000000052031E-01     1.0000000000000000E+00     0.0000000000000000E+00 
    6.2500000000260125E-02     1.0000000000000000E+00     0.0000000000000000E+00 
    0.0000000000000000E+00     9.3749999999973976E-01     0.0000000000000000E+00 
    0.0000000000000000E+00     8.7499999999950118E-01     0.0000000000000000E+00 
    0.0000000000000000E+00     8.1249999999991318E-01     0.0000000000000000E+00 
    0.0000000000000000E+00     7.5000000000034706E-01     0.0000000000000000E+00 
    0.0000000000000000E+00     6.8750000000078049E-01     0.0000000000000000E+00 
    0.0000000000000000E+00     6.2500000000121403E-01     0.0000000000000000E+00 
    0.0000000000000000E+00     5.6250000000164757E-01     0.0000000000000000E+00 
    0.0000000000000000E+00     5.0000000000205946E-01     0.0000000000000000E+00 
    0.0000000000000000E+00     4.3750000000182099E-01     0.0000000000000000E+00 
    0.0000000000000000E+00     3.7500000000156092E-01     0.0000000000000000E+00 
    0.0000000000000000E+00     3.1250000000130068E-01     0.0000000000000000E+00 
    0.0000000000000000E+00     2.5000000000104050E-01     0.0000000000000000E+00 
    0.0000000000000000E+00     1.8750000000078040E-01     0.0000000000000000E+00 
    0.0000000000000000E+00     1.2500000000052031E-01     0.0000000000000000E+00 
    0.0000000000000000E+00     6.2500000000260125E-02     0.0000000000000000E+00 
    6.2499999999897131E-02     6.2500000000235922E-02     0.0000000000000000E+00 
    6.2499999999921327E-02     1.2500000000047351E-01     0.0000000000000000E+00 
    6.2499999999945530E-02     1.8750000000070621E-01     0.0000000000000000E+00 
    6.2499999999969733E-02     2.5000000000093858E-01     0.0000000000000000E+00 
    6.2499999999993928E-02     3.1250000000117117E-01     0.0000000000000000E+00 
    6.2500000000018124E-02     3.7500000000140382E-01     0.0000000000000000E+00 
    6.2500000000042327E-02     4.3750000000163619E-01     0.0000000000000000E+00 
    6.2500000000066530E-02     5.0000000000184897E-01     0.0000000000000000E+00 
    6.2500000000090733E-02     5.6250000000147260E-01     0.0000000000000000E+00 
    6.2500000000114922E-02     6.2500000000107636E-01     0.0000000000000000E+00 
    6.2500000000139125E-02     6.8750000000068034E-01     0.0000000000000000E+00 
    6.2500000000163328E-02     7.5000000000028411E-01     0.0000000000000000E+00 
    6.2500000000187531E-02     8.1249999999988787E-01     0.0000000000000000E+00 
    6.2500000000211720E-02     8.7499999999951172E-01     0.0000000000000000E+00 
    6.2500000000235922E-02     9.3749999999974565E-01     0.0000000000000000E+00 
    1.2499999999981980E-01     6.2500000000211733E-02     0.0000000000000000E+00 
    1.2499999999986650E-01     1.2500000000042691E-01     0.0000000000000000E+00 
    1.2499999999991319E-01     1.8750000000063199E-01     0.0000000000000000E+00 
    1.2499999999995989E-01     2.5000000000083678E-01     0.0000000000000000E+00 
    1.2500000000000661E-01     3.1250000000104172E-01     0.0000000000000000E+00 
    1.2500000000005329E-01     3.7500000000124661E-01     0.0000000000000000E+00 
    1.2500000000010000E-01     4.3750000000145117E-01     0.0000000000000000E+00 
    1.2500000000014669E-01     5.0000000000163858E-01     0.0000000000000000E+00 
    1.2500000000019340E-01     5.6250000000129741E-01     0.0000000000000000E+00 
    1.2500000000024011E-01     6.2500000000093847E-01     0.0000000000000000E+00 
    1.2500000000028680E-01     6.8750000000057998E-01     0.0000000000000000E+00 
    1.2500000000033351E-01     7.5000000000022127E-01     0.0000000000000000E+00 
    1.2500000000038020E-01     8.1249999999986211E-01     0.0000000000000000E+00 
    1.2500000000042691E-01     8.7499999999952238E-01     0.0000000000000000E+00 
    1.2500000000047359E-01     9.3749999999975164E-01     0.0000000000000000E+00 
    1.8749999999966760E-01     6.2500000000187531E-02     0.0000000000000000E+00 
    1.8749999999974179E-01     1.2500000000038020E-01     0.0000000000000000E+00 
    1.8749999999981601E-01     1.8750000000055780E-01     0.0000000000000000E+00 
    1.8749999999989009E-01     2.5000000000073502E-01     0.0000000000000000E+00 
    1.8749999999996431E-01     3.1250000000091221E-01     0.0000000000000000E+00 
    1.8750000000003850E-01     3.7500000000108941E-01     0.0000000000000000E+00 
    1.8750000000011269E-01     4.3750000000126649E-01     0.0000000000000000E+00 
    1.8750000000018691E-01     5.0000000000142808E-01     0.0000000000000000E+00 
    1.8750000000026110E-01     5.6250000000112244E-01     0.0000000000000000E+00 
    1.8750000000033529E-01     6.2500000000080080E-01     0.0000000000000000E+00 
    1.8750000000040951E-01     6.8750000000047962E-01     0.0000000000000000E+00 
    1.8750000000048361E-01     7.5000000000015843E-01     0.0000000000000000E+00 
    1.8750000000055780E-01     8.1249999999983680E-01     0.0000000000000000E+00 
    1.8750000000063199E-01     8.7499999999953304E-01     0.0000000000000000E+00 
    1.8750000000070621E-01     9.3749999999975764E-01     0.0000000000000000E+00 
    2.4999999999951281E-01     6.2500000000163314E-02     0.0000000000000000E+00 
    2.4999999999961461E-01     1.2500000000033351E-01     0.0000000000000000E+00 
    2.4999999999971650E-01     1.8750000000048361E-01     0.0000000000000000E+00 
    2.4999999999981831E-01     2.5000000000063310E-01     0.0000000000000000E+00 
    2.4999999999992020E-01     3.1250000000078260E-01     0.0000000000000000E+00 
    2.5000000000002198E-01     3.7500000000093209E-01     0.0000000000000000E+00 
    2.5000000000012390E-01     4.3750000000108180E-01     0.0000000000000000E+00 
    2.5000000000022571E-01     5.0000000000121769E-01     0.0000000000000000E+00 
    2.5000000000032763E-01     5.6250000000094724E-01     0.0000000000000000E+00 
    2.5000000000042938E-01     6.2500000000066314E-01     0.0000000000000000E+00 
    2.5000000000053119E-01     6.8750000000037925E-01     0.0000000000000000E+00 
[...]
CELL_DATA 256 
SCALARS Pressure double 1 
LOOKUP_TABLE default 

    8.6334611654058158E-01 
    8.1298814642757522E-01 
    7.8083009275576620E-01 
    7.5685813388242595E-01 
    7.3698424963551179E-01 
    7.1981368176002092E-01 
    7.0493989379252076E-01 
    6.9223439275196230E-01 
    6.8167484748899954E-01 
    6.7312627461044516E-01 
    6.6582972146910213E-01 
    6.5894621402747577E-01 
    6.5403856233756297E-01 
    6.5131706350962182E-01 
    6.5005190160409587E-01 
    6.4971099569053170E-01 
    8.1299818109188882E-01 
    8.0257361254906934E-01 
    7.8158803966725532E-01 
    7.6066153361176125E-01 
    7.4145406611593423E-01 
    7.2412818332737350E-01 
    7.0874551402049280E-01 
    6.9536103964927987E-01 
    6.8406746200642299E-01 
    6.7487681206274008E-01 
    6.6731240729131780E-01 
    6.6013269211290837E-01 
    6.5446215745503311E-01 
    6.5123110816517304E-01 
    6.4970853326912126E-01 
    6.4936923083711351E-01 
    7.8084474222476441E-01 
    7.8159572788426313E-01 
    7.7166519937390654E-01 
    7.5676013490871774E-01 
    7.4040308343951267E-01 
    7.2425483586306150E-01 
    7.0915707157979857E-01 
    6.9557825230044057E-01 
    6.8385097555683771E-01 
    6.7417661581534594E-01 
    6.6637738747733033E-01 
    6.5932750360197723E-01 
    6.5319157141131667E-01 
    6.4969397052615641E-01 
    6.4817758437063955E-01 
    6.4810348999188538E-01 
    7.5686996057006650E-01 
    7.6067061844734785E-01 
    7.5676432856210363E-01 
    7.4712471014493675E-01 
    7.3427719606591224E-01 
    7.2013289840246586E-01 
    7.0596998743450545E-01 
    6.9264081064760807E-01 
    6.8076063315334379E-01 
    6.7075776369722218E-01 
    6.6275580541815549E-01 
    6.5605752439455345E-01 
    6.4988278520958898E-01 
    6.4622570285326675E-01 
    6.4494695818086711E-01 
    6.4539236067268269E-01 
    7.3698820619069882E-01 
    7.4145831791140282E-01 
    7.4040656045918307E-01 
    7.3427910621658732E-01 
    7.2443239061696274E-01 
    7.1237358844115417E-01 
    6.9940019653626440E-01 
    6.8655825229199763E-01 
    6.7468798911181505E-01 
    6.6444333603798511E-01 
    6.5623020264023746E-01 
    6.4982404641234837E-01 
    6.4402311843615800E-01 
    6.4030636314897316E-01 
    6.3949369153829427E-01 
    6.4070965322163165E-01 
    7.1981000055775379E-01 
    7.2412500998483520E-01 
    7.2425254087691782E-01 
    7.2013194160544147E-01 
    7.1237255233387831E-01 
    7.0197799752573486E-01 
    6.9005159352420176E-01 
    6.7765373321741806E-01 
    6.6575467292339985E-01 
    6.5520184656219282E-01 
    6.4665619659173645E-01 
    6.4026926794920835E-01 
    6.3503202403811099E-01 
    6.3147204383925726E-01 
    6.3128809676208608E-01 
    6.3351470247579289E-01 
    7.0492578864954247E-01 
    7.0873329952613384E-01 
    7.0914639622559550E-01 
    7.0596214812214331E-01 
    6.9939420367624017E-01 
    6.9004751839800837E-01 
    6.7876958569705814E-01 
    6.6652769173247772E-01 
    6.5433660844522246E-01 
    6.4319467951060849E-01 
    6.3399848473204345E-01 
    6.2728785874946158E-01 
    6.2252242124349588E-01 
    6.1928474673614176E-01 
    6.1974828156135486E-01 
    6.2322277300133000E-01 
    6.9220287751669196E-01 
    6.9533426654432773E-01 
    6.9555604460001230E-01 
    6.9262368275025366E-01 
    6.8654447930135409E-01 
    6.7764277809339246E-01 
    6.6652154154138799E-01 
    6.5400246028115205E-01 
    6.4107591311712975E-01 
    6.2884218834899663E-01 
    6.1842456375606691E-01 
    6.1076585741239886E-01 
    6.0597161722339288E-01 
    6.0308237414119625E-01 
    6.0414166603725405E-01 
    6.0914489315511289E-01 
    6.8162268409637783E-01 
    6.8402083262457125E-01 
    6.8381305903695089E-01 
    6.8073268857628144E-01 
    6.7466516673429100E-01 
    6.6573441409506506E-01 
    6.5432164597511200E-01 
    6.4106857594671507E-01 
    6.2687575033143506E-01 
    6.1288231870628063E-01 
    6.0041543202580849E-01 
    5.9084104179659180E-01 
    5.8493446871171617E-01 
    5.8202169295442341E-01 
    5.8361213543027179E-01 
    5.9044443589510931E-01 
    6.7306011654953024E-01 
    6.7481263582919093E-01 
    6.7412317027752078E-01 
    6.7072067205412988E-01 
    6.6441343237415529E-01 
    6.5517172534204027E-01 
    6.4316804779546854E-01 
    6.2882472526847843E-01 
    6.1287323557748707E-01 
    5.9639486250987472E-01 
    5.8084618768642848E-01 
    5.6802790934888892E-01 
    5.5955058472779817E-01 
    5.5562195365428668E-01 
    5.5714295428924154E-01 
    5.6598386298382886E-01 
    6.6576634186504202E-01 
    6.6724548448816512E-01 
    6.6631709645789561E-01 
    6.6271586894947099E-01 
    6.5619955185810741E-01 
    6.4662014670673573E-01 
    6.3396082624332495E-01 
    6.1839589460000177E-01 
    6.0039415123897943E-01 
    5.8083043561272429E-01 
    5.6110784136642333E-01 
    5.4333013385698081E-01 
    5.3006440056458815E-01 
    5.2309945032078864E-01 
    5.2334490638018094E-01 
    5.3403933670910220E-01 
    6.5889288551010772E-01 
    6.6008192178316316E-01 
    6.5928335450055420E-01 
    6.5602608213722302E-01 
    6.4979858827703241E-01 
    6.4023082939673770E-01 
    6.2724017660269638E-01 
    6.1072653753498529E-01 
    5.9080685485728157E-01 
    5.6798785832643461E-01 
    5.4330055502786001E-01 
    5.1875926957875951E-01 
    4.9763420545985376E-01 
    4.8357813224010882E-01 
    4.7966492544527406E-01 
    4.9147748242297384E-01 
    6.5398835589455617E-01 
    6.5441414362257766E-01 
    6.5315100513686242E-01 
    6.4985415163404314E-01 
    6.4399617007287158E-01 
    6.3498980773728242E-01 
    6.2246453838662041E-01 
    6.0591983496715285E-01 
    5.8488500488788331E-01 
    5.5947880749088896E-01 
    5.2999623688493391E-01 
    4.9760090047199079E-01 
    4.6551758340151694E-01 
    4.3882769079036815E-01 
    4.2419243865685197E-01 
    4.3239084635683195E-01 
    6.5126793002914141E-01 
    6.5118281135866707E-01 
    6.4964845006305094E-01 
    6.4618407000617761E-01 
    6.4026695601686245E-01 
    6.3142732163377824E-01 
    6.1922571975458507E-01 
    6.0302278939772602E-01 
    5.8196274522062297E-01 
    5.5554331090627607E-01 
    5.2301676233196703E-01 
    4.8354723314560599E-01 
    4.3884244827410712E-01 
    3.9324725149623857E-01 
    3.5646499641287788E-01 
    3.4936495488356073E-01 
    6.5000306571648847E-01 
    6.4966017414171129E-01 
    6.4813082483211493E-01 
    6.4490239946864725E-01 
    6.3945028349633204E-01 
    6.3124235227619108E-01 
    6.1969558996374385E-01 
    6.0408216303196494E-01 
    5.8354752490266160E-01 
    5.5705939486983835E-01 
    5.2324609041574865E-01 
    4.7964655679724943E-01 
    4.2426120147316693E-01 
    3.5651333842282595E-01 
    2.7918358835010704E-01 
    2.2491480276265635E-01 
    6.4966212286574787E-01 
    6.4932061193347612E-01 
    6.4805605736381588E-01 
    6.4534668795536709E-01 
    6.4066496118310090E-01 
    6.3346859319243320E-01 
    6.2317216894488259E-01 
    6.0908822091932946E-01 
    5.9038070481761817E-01 
    5.6590246134346367E-01 
    5.3393108891270957E-01 
    4.9142217715263903E-01 
    4.3248676222128324E-01 
    3.4944164806093742E-01 
    2.2490636128577748E-01 
    0.0000000000000000E+00 

SCALARS Saturarion double 1 
LOOKUP_TABLE default 

    1.0000000000000000E+00 
    9.7977992764564970E-01 
    9.4394359122780991E-01 
    8.8018504490638549E-01 
    8.0745710409371052E-01 
    7.4306858738154213E-01 
    6.8535364197957904E-01 
    6.3328596881890509E-01 
    5.8619426982736633E-01 
    5.3461657356761372E-01 
    4.1523714230831382E-01 
    5.1738442846773036E-02 
    1.0021773709023433E-06 
    1.0000000006023067E-06 
    9.9999999999999995E-07 
    9.9999999999999995E-07 
    9.7969551905325802E-01 
    9.6211171286974961E-01 
    9.2987940699374394E-01 
    8.7663405445308451E-01 
    8.1263363827335122E-01 
    7.5228933145544130E-01 
    6.9595556729757879E-01 
    6.4428518863198070E-01 
    5.9739203232968285E-01 
    5.4908823834977472E-01 
    4.5849805357128443E-01 
    1.5143830954304449E-01 
    1.4437191192419549E-04 
    1.0068774494500283E-06 
    1.0000000000000332E-06 
    9.9999999999999995E-07 
    9.4367434316293153E-01 
    9.2971933713031818E-01 
    8.9944080126860704E-01 
    8.5784829429809673E-01 
    8.0817094120272159E-01 
    7.5706964531833687E-01 
    7.0594146147901082E-01 
    6.5696974253809037E-01 
    6.1092508852733485E-01 
    5.6447259445559939E-01 
    4.9662863222672160E-01 
    2.8398451318150114E-01 
    8.1168584880052051E-03 
    3.4327036004667246E-06 
    1.0000005200148865E-06 
    9.9999999999999995E-07 
    8.7961357572510745E-01 
    8.7631786669198986E-01 
    8.5773223193671277E-01 
    8.2825369548670702E-01 
    7.9231335124182067E-01 
    7.5157838246724606E-01 
    7.0828374440980602E-01 
    6.6455516242811730E-01 
    6.2126412184801727E-01 
    5.7737685908783176E-01 
    5.2252731840503586E-01 
    3.9666963608254857E-01 
    6.7970845634120522E-02 
    1.9839974127674914E-04 
    1.0051721545497804E-06 
    9.9999999999999995E-07 
    8.0681519522260292E-01 
    8.1218773938238631E-01 
    8.0790229491445853E-01 
    7.9214730431627112E-01 
    7.6801551340498320E-01 
    7.3763201169126202E-01 
    7.0314932947068998E-01 
    6.6621655267252788E-01 
    6.2775054391412421E-01 
    5.8781125031906101E-01 
    5.4254629445055047E-01 
    4.5448561336679905E-01 
    1.6890736206717541E-01 
    7.7317105597652269E-04 
    1.0398093353542420E-06 
    1.0000000024305972E-06 
    7.4244132802522322E-01 
    7.5185028791214581E-01 
    7.5673361125412109E-01 
    7.5123331950518302E-01 
    7.3742115607471559E-01 
    7.1709244222952084E-01 
    6.9159056678191333E-01 
    6.6227022052426787E-01 
    6.3002826655267430E-01 
    5.9509064307818826E-01 
    5.5596457341247796E-01 
    4.9227154190141059E-01 
    2.8342477257885934E-01 
    1.4794205527926648E-02 
    1.3002043752676195E-05 
    1.0000072618470543E-06 
    6.8435308046861643E-01 
    6.9541604526806344E-01 
    7.0566439875679043E-01 
    7.0794254653727284E-01 
    7.0278362019833596E-01 
    6.9141050857056963E-01 
    6.7463860326529013E-01 
    6.5334545465118865E-01 
    6.2820229883467948E-01 
    5.9914784649760422E-01 
    5.6543039460324773E-01 
    5.1343518760384632E-01 
    3.8268993088696490E-01 
    6.4685553110119920E-02 
    1.5338885086684957E-04 
    1.0029905824588849E-06 
    6.3196552925337635E-01 
    6.4350486975763610E-01 
    6.5661663664464531E-01 
    6.6428132742467172E-01 
    6.6583443471056847E-01 
    6.6192512568882278E-01 
    6.5317869638498738E-01 
    6.3995929644455196E-01 
    6.2240287374928172E-01 
    6.0012954846929878E-01 
    5.7202756252678100E-01 
    5.3229970948360372E-01 
    4.3538402745881294E-01 
    1.3410129458006140E-01 
    4.0219570110683296E-04 
    1.0227875922608475E-06 
    5.8479233521592344E-01 
    5.9640481275353063E-01 
    6.1048550015776781E-01 
    6.2099436080329240E-01 
    6.2748327912139501E-01 
    6.2967738415713104E-01 
    6.2788390148538353E-01 
    6.2220120766726061E-01 
    6.1232336141793708E-01 
    5.9743315131283581E-01 
    5.7634878713599613E-01 
    5.4563108594190068E-01 
    4.7748543780710329E-01 
    2.4227835465730063E-01 
    1.1813938289698145E-02 
    7.8294781810929895E-06 
    5.3358643815216911E-01 
    5.4847101720625790E-01 
    5.6446379860016038E-01 
    5.7716017635370442E-01 
    5.8750476834281085E-01 
    5.9483993929258516E-01 
    5.9887563278633582E-01 
    5.9979314832548802E-01 
    5.9716642560826438E-01 
    5.8988580578604732E-01 
    5.7655825512151304E-01 
    5.5480145401706271E-01 
    5.0665974166821592E-01 
    3.6064872304766166E-01 
    5.9348954146816409E-02 
    2.0791562596643277E-04 
    4.1501624845872670E-01 
    4.5921977938374126E-01 
    4.9795101297591982E-01 
    5.2267545052969955E-01 
    5.4204466399048623E-01 
    5.5565774717845318E-01 
    5.6546083813564452E-01 
    5.7193564009261944E-01 
    5.7593711330269648E-01 
    5.7620826703543626E-01 
    5.7106378378198153E-01 
    5.5871705621440448E-01 
    5.2686698804918375E-01 
    4.2517686396486054E-01 
    1.2479316086221280E-01 
    5.1666748867463760E-04 
    5.2395505347078000E-02 
    1.5429555596619476E-01 
    2.9033073764001366E-01 
    3.9959889972492824E-01 
    4.5374553215480834E-01 
    4.9123585515949014E-01 
    5.1322970772858723E-01 
    5.3249957592991537E-01 
    5.4536519588125920E-01 
    5.5427789497193425E-01 
    5.5830434371134674E-01 
    5.5588877217481414E-01 
    5.4018209105196313E-01 
    4.7518585707220984E-01 
    2.4208723086521849E-01 
    2.6698647632550272E-02 
    1.0024347971081270E-06 
    1.5144813980817395E-04 
    9.5252261400443870E-03 
    6.9009913507154824E-02 
    1.6672303067231942E-01 
    2.8014386575852196E-01 
    3.8188984299076795E-01 
    4.3556383967074236E-01 
    4.7722936283901141E-01 
    5.0600975881110821E-01 
    5.2659358299007719E-01 
    5.3994768613101107E-01 
    5.4168805438587520E-01 
    5.1186671576619713E-01 
    3.8515948331253475E-01 
    1.4775666937575874E-01 
    1.0000000006850330E-06 
    1.0078579987319388E-06 
    4.4536736581789986E-06 
    1.7577894716738212E-04 
    7.0508923652389400E-04 
    1.4393430458293275E-02 
    6.5751356244363693E-02 
    1.3295262364264374E-01 
    2.4110117058899150E-01 
    3.6045710655816893E-01 
    4.2704998681944889E-01 
    4.7608148592519639E-01 
    5.1222205483796324E-01 
    5.1549612794289301E-01 
    4.5541865746823829E-01 
    2.5571892288614140E-01 
    9.9999999999999995E-07 
    1.0000000000001486E-06 
    1.0000008818657573E-06 
    1.0041441281422325E-06 
    1.0385200578654226E-06 
    1.2590677656863088E-05 
    1.7253030170027417E-04 
    3.6677821220710823E-04 
    1.2586863296715786E-02 
    6.0001449986579011E-02 
    1.3129822979580591E-01 
    2.4471667414531895E-01 
    3.8628642446244904E-01 
    4.5515578681897423E-01 
    4.6522497109215322E-01 
    3.4199300640405811E-01 
    9.9999999999999995E-07 
    9.9999999999999995E-07 
    9.9999999999999995E-07 
    9.9999999999999995E-07 
    1.0000000019082059E-06 
    1.0000067919814686E-06 
    1.0037660245180212E-06 
    1.0212851300641233E-06 
    9.0622914594811182E-06 
    2.3645794492498426E-04 
    6.7436938444533133E-04 
    2.3121481127995436E-02 
    1.4850292925689992E-01 
    2.5445860241668711E-01 
    3.4192773153471073E-01 
    3.4196714312965809E-01 
