# vtk DataFile Version 2.0
Pressure Field Data 
ASCII 
DATASET UNSTRUCTURED_GRID 

POINTS 289 double 

    0.0000000000000000E+00     0.0000000000000000E+00     0.0000000000000000E+00 
    1.0000000000000000E+00     0.0000000000000000E+00     0.0000000000000000E+00 
    1.0000000000000000E+00     1.0000000000000000E+00     0.0000000000000000E+00 
    0.0000000000000000E+00     1.0000000000000000E+00     0.0000000000000000E+00 
    6.2499999999872928E-02     0.0000000000000000E+00     0.0000000000000000E+00 
    1.2499999999977310E-01     0.0000000000000000E+00     0.0000000000000000E+00 
    1.8749999999959341E-01     0.0000000000000000E+00     0.0000000000000000E+00 
    2.4999999999941089E-01     0.0000000000000000E+00     0.0000000000000000E+00 
    3.1249999999922851E-01     0.0000000000000000E+00     0.0000000000000000E+00 
    3.7499999999904610E-01     0.0000000000000000E+00     0.0000000000000000E+00 
    4.3749999999886358E-01     0.0000000000000000E+00     0.0000000000000000E+00 
    4.9999999999869210E-01     0.0000000000000000E+00     0.0000000000000000E+00 
    5.6249999999884603E-01     0.0000000000000000E+00     0.0000000000000000E+00 
    6.2499999999901090E-01     0.0000000000000000E+00     0.0000000000000000E+00 
    6.8749999999917577E-01     0.0000000000000000E+00     0.0000000000000000E+00 
    7.4999999999934064E-01     0.0000000000000000E+00     0.0000000000000000E+00 
    8.1249999999950551E-01     0.0000000000000000E+00     0.0000000000000000E+00 
    8.7499999999967026E-01     0.0000000000000000E+00     0.0000000000000000E+00 
    9.3749999999983513E-01     0.0000000000000000E+00     0.0000000000000000E+00 
    1.0000000000000000E+00     6.2499999999872928E-02     0.0000000000000000E+00 
    1.0000000000000000E+00     1.2499999999977310E-01     0.0000000000000000E+00 
    1.0000000000000000E+00     1.8749999999959341E-01     0.0000000000000000E+00 
    1.0000000000000000E+00     2.4999999999941089E-01     0.0000000000000000E+00 
    1.0000000000000000E+00     3.1249999999922851E-01     0.0000000000000000E+00 
    1.0000000000000000E+00     3.7499999999904610E-01     0.0000000000000000E+00 
    1.0000000000000000E+00     4.3749999999886358E-01     0.0000000000000000E+00 
    1.0000000000000000E+00     4.9999999999869210E-01     0.0000000000000000E+00 
    1.0000000000000000E+00     5.6249999999884603E-01     0.0000000000000000E+00 
    1.0000000000000000E+00     6.2499999999901090E-01     0.0000000000000000E+00 
    1.0000000000000000E+00     6.8749999999917577E-01     0.0000000000000000E+00 
    1.0000000000000000E+00     7.4999999999934064E-01     0.0000000000000000E+00 
    1.0000000000000000E+00     8.1249999999950551E-01     0.0000000000000000E+00 
    1.0000000000000000E+00     8.7499999999967026E-01     0.0000000000000000E+00 
    1.0000000000000000E+00     9.3749999999983513E-01     0.0000000000000000E+00 
    9.3749999999973976E-01     1.0000000000000000E+00     0.0000000000000000E+00 
    8.7499999999950118E-01     1.0000000000000000E+00     0.0000000000000000E+00 
    8.1249999999991318E-01     1.0000000000000000E+00     0.0000000000000000E+00 
    7.5000000000034706E-01     1.0000000000000000E+00     0.0000000000000000E+00 
    6.8750000000078049E-01     1.0000000000000000E+00     0.0000000000000000E+00 
    6.2500000000121403E-01     1.0000000000000000E+00     0.0000000000000000E+00 
    5.6250000000164757E-01     1.0000000000000000E+00     0.0000000000000000E+00 
    5.0000000000205946E-01     1.0000000000000000E+00     0.0000000000000000E+00 
    4.3750000000182099E-01     1.0000000000000000E+00     0.0000000000000000E+00 
    3.7500000000156092E-01     1.0000000000000000E+00     0.0000000000000000E+00 
    3.1250000000130068E-01     1.0000000000000000E+00     0.0000000000000000E+00 
    2.5000000000104050E-01     1.0000000000000000E+00     0.0000000000000000E+00 
    1.8750000000078040E-01     1.0000000000000000E+00     0.0000000000000000E+00 
    1.2500000000052031E-01     1.0000000000000000E+00     0.0000000000000000E+00 
    6.2500000000260125E-02     1.0000000000000000E+00     0.0000000000000000E+00 
    0.0000000000000000E+00     9.3749999999973976E-01     0.0000000000000000E+00 
    0.0000000000000000E+00     8.7499999999950118E-01     0.0000000000000000E+00 
    0.0000000000000000E+00     8.1249999999991318E-01     0.0000000000000000E+00 
    0.0000000000000000E+00     7.5000000000034706E-01     0.0000000000000000E+00 
    0.0000000000000000E+00     6.8750000000078049E-01     0.0000000000000000E+00 
    0.0000000000000000E+00     6.2500000000121403E-01     0.0000000000000000E+00 
    0.0000000000000000E+00     5.6250000000164757E-01     0.0000000000000000E+00 
    0.0000000000000000E+00     5.0000000000205946E-01     0.0000000000000000E+00 
    0.0000000000000000E+00     4.3750000000182099E-01     0.0000000000000000E+00 
    0.0000000000000000E+00     3.7500000000156092E-01     0.0000000000000000E+00 
    0.0000000000000000E+00     3.1250000000130068E-01     0.0000000000000000E+00 
    0.0000000000000000E+00     2.5000000000104050E-01     0.0000000000000000E+00 
    0.0000000000000000E+00     1.8750000000078040E-01     0.0000000000000000E+00 
    0.0000000000000000E+00     1.2500000000052031E-01     0.0000000000000000E+00 
    0.0000000000000000E+00     6.2500000000260125E-02     0.0000000000000000E+00 
    6.2499999999897131E-02     6.2500000000235922E-02     0.0000000000000000E+00 
    6.2499999999921327E-02     1.2500000000047351E-01     0.0000000000000000E+00 
    6.2499999999945530E-02     1.8750000000070621E-01     0.0000000000000000E+00 
    6.2499999999969733E-02     2.5000000000093858E-01     0.0000000000000000E+00 
    6.2499999999993928E-02     3.1250000000117117E-01     0.0000000000000000E+00 
    6.2500000000018124E-02     3.7500000000140382E-01     0.0000000000000000E+00 
    6.2500000000042327E-02     4.3750000000163619E-01     0.0000000000000000E+00 
    6.2500000000066530E-02     5.0000000000184897E-01     0.0000000000000000E+00 
    6.2500000000090733E-02     5.6250000000147260E-01     0.0000000000000000E+00 
    6.2500000000114922E-02     6.2500000000107636E-01     0.0000000000000000E+00 
    6.2500000000139125E-02     6.8750000000068034E-01     0.0000000000000000E+00 
    6.2500000000163328E-02     7.5000000000028411E-01     0.0000000000000000E+00 
    6.2500000000187531E-02     8.1249999999988787E-01     0.0000000000000000E+00 
    6.2500000000211720E-02     8.7499999999951172E-01     0.0000000000000000E+00 
    6.2500000000235922E-02     9.3749999999974565E-01     0.0000000000000000E+00 
    1.2499999999981980E-01     6.2500000000211733E-02     0.0000000000000000E+00 
    1.2499999999986650E-01     1.2500000000042691E-01     0.0000000000000000E+00 
    1.2499999999991319E-01     1.8750000000063199E-01     0.0000000000000000E+00 
    1.2499999999995989E-01     2.5000000000083678E-01     0.0000000000000000E+00 
    1.2500000000000661E-01     3.1250000000104172E-01     0.0000000000000000E+00 
    1.2500000000005329E-01     3.7500000000124661E-01     0.0000000000000000E+00 
    1.2500000000010000E-01     4.3750000000145117E-01     0.0000000000000000E+00 
    1.2500000000014669E-01     5.0000000000163858E-01     0.0000000000000000E+00 
    1.2500000000019340E-01     5.6250000000129741E-01     0.0000000000000000E+00 
    1.2500000000024011E-01     6.2500000000093847E-01     0.0000000000000000E+00 
    1.2500000000028680E-01     6.8750000000057998E-01     0.0000000000000000E+00 
    1.2500000000033351E-01     7.5000000000022127E-01     0.0000000000000000E+00 
    1.2500000000038020E-01     8.1249999999986211E-01     0.0000000000000000E+00 
    1.2500000000042691E-01     8.7499999999952238E-01     0.0000000000000000E+00 
    1.2500000000047359E-01     9.3749999999975164E-01     0.0000000000000000E+00 
    1.8749999999966760E-01     6.2500000000187531E-02     0.0000000000000000E+00 
    1.8749999999974179E-01     1.2500000000038020E-01     0.0000000000000000E+00 
    1.8749999999981601E-01     1.8750000000055780E-01     0.0000000000000000E+00 
    1.8749999999989009E-01     2.5000000000073502E-01     0.0000000000000000E+00 
    1.8749999999996431E-01     3.1250000000091221E-01     0.0000000000000000E+00 
    1.8750000000003850E-01     3.7500000000108941E-01     0.0000000000000000E+00 
    1.8750000000011269E-01     4.3750000000126649E-01     0.0000000000000000E+00 
    1.8750000000018691E-01     5.0000000000142808E-01     0.0000000000000000E+00 
    1.8750000000026110E-01     5.6250000000112244E-01     0.0000000000000000E+00 
    1.8750000000033529E-01     6.2500000000080080E-01     0.0000000000000000E+00 
    1.8750000000040951E-01     6.8750000000047962E-01     0.0000000000000000E+00 
    1.8750000000048361E-01     7.5000000000015843E-01     0.0000000000000000E+00 
    1.8750000000055780E-01     8.1249999999983680E-01     0.0000000000000000E+00 
    1.8750000000063199E-01     8.7499999999953304E-01     0.0000000000000000E+00 
    1.8750000000070621E-01     9.3749999999975764E-01     0.0000000000000000E+00 
    2.4999999999951281E-01     6.2500000000163314E-02     0.0000000000000000E+00 
    2.4999999999961461E-01     1.2500000000033351E-01     0.0000000000000000E+00 
    2.4999999999971650E-01     1.8750000000048361E-01     0.0000000000000000E+00 
    2.4999999999981831E-01     2.5000000000063310E-01     0.0000000000000000E+00 
    2.4999999999992020E-01     3.1250000000078260E-01     0.0000000000000000E+00 
    2.5000000000002198E-01     3.7500000000093209E-01     0.0000000000000000E+00 
    2.5000000000012390E-01     4.3750000000108180E-01     0.0000000000000000E+00 
    2.5000000000022571E-01     5.0000000000121769E-01     0.0000000000000000E+00 
    2.5000000000032763E-01     5.6250000000094724E-01     0.0000000000000000E+00 
    2.5000000000042938E-01     6.2500000000066314E-01     0.0000000000000000E+00 
    2.5000000000053119E-01     6.8750000000037925E-01     0.0000000000000000E+00 
[...]
CELL_DATA 256 
SCALARS Pressure double 1 
LOOKUP_TABLE default 

    1.1292066428062020E+00 
    1.0748646619239537E+00 
    1.0343377567875900E+00 
    9.9789964819786481E-01 
    9.6376469069438309E-01 
    9.3126100585013849E-01 
    8.9405623746362151E-01 
    8.5830485399132794E-01 
    8.3217525375319013E-01 
    8.1225255929416540E-01 
    7.9753934869059162E-01 
    7.8720158238964344E-01 
    7.8045886969570810E-01 
    7.7655209207582232E-01 
    7.7472722246264480E-01 
    7.7423118560021753E-01 
    1.0748977623017797E+00 
    1.0633350839545410E+00 
    1.0361466409061730E+00 
    1.0045613279021361E+00 
    9.7232774212524442E-01 
    9.4091329327918893E-01 
    9.0516590986457734E-01 
    8.6783209216873780E-01 
    8.3937200011176527E-01 
    8.1733775765992212E-01 
    8.0080365610693438E-01 
    7.8898082987239404E-01 
    7.8111225079149715E-01 
    7.7645040677972355E-01 
    7.7424523516329602E-01 
    7.7374513250259402E-01 
    1.0343638659687844E+00 
    1.0361590886399228E+00 
    1.0222926150150968E+00 
    9.9894589605964890E-01 
    9.7141460998006024E-01 
    9.4257723677957406E-01 
    9.0870624159515190E-01 
    8.7156245740307969E-01 
    8.4191338924989034E-01 
    8.1855750180031206E-01 
    8.0076240383791109E-01 
    7.8790132434725368E-01 
    7.7930643215573359E-01 
    7.7427455054029681E-01 
    7.7207246020218367E-01 
    7.7195236280567980E-01 
    9.9786026173780296E-01 
    1.0045369875802110E+00 
    9.9892998718810111E-01 
    9.8337619009333366E-01 
    9.6161153967266488E-01 
    9.3639466466412791E-01 
    9.0471584698314889E-01 
    8.6882485195058468E-01 
    8.3906774556203412E-01 
    8.1517139978388953E-01 
    7.9668141805674542E-01 
    7.8322479188691985E-01 
    7.7429198385833631E-01 
    7.6926393372520685E-01 
    7.6744168326542805E-01 
    7.6808335307920828E-01 
    9.6363838679904334E-01 
    9.7223023710662315E-01 
    9.7135350412269172E-01 
    9.6158493143662449E-01 
    9.4488421924202703E-01 
    9.2285395264351633E-01 
    8.9324858272097585E-01 
    8.5921383790144545E-01 
    8.3047336664643345E-01 
    8.0670826167860643E-01 
    7.8799774053818739E-01 
    7.7431232292563013E-01 
    7.6537064565194157E-01 
    7.6067991133358948E-01 
    7.5959073124765630E-01 
    7.6136406077342877E-01 
    9.3109682480247669E-01 
    9.4075909023594262E-01 
    9.4246488925338234E-01 
    9.3632961959146910E-01 
    9.2281734016786887E-01 
    9.0214089780289608E-01 
    8.7438898098398354E-01 
    8.4311629658354204E-01 
    8.1623338774214094E-01 
    7.9305292275436501E-01 
    7.7439543202605954E-01 
    7.6067631861049356E-01 
    7.5192276273002767E-01 
    7.4781754684453039E-01 
    7.4777267321178587E-01 
    7.5103538703563100E-01 
    8.9393491132489955E-01 
    9.0504171942011291E-01 
    9.0859353337755733E-01 
    9.0462115301854407E-01 
    8.9316930628559421E-01 
    8.7434023121625126E-01 
    8.4948090687615685E-01 
    8.2223580425736198E-01 
    7.9716090501447001E-01 
    7.7457374499365228E-01 
    7.5589101846611739E-01 
    7.4203414756254116E-01 
    7.3342817503860935E-01 
    7.2999888574573324E-01 
    7.3123451269693374E-01 
    7.3633283108801917E-01 
    8.5822263684877031E-01 
    8.6775388046153168E-01 
    8.7149690756026832E-01 
    8.6875573410184226E-01 
    8.5913104046651534E-01 
    8.4304841299370126E-01 
    8.2220793990827012E-01 
    7.9882913613464068E-01 
    7.7475250638397231E-01 
    7.5218879306997632E-01 
    7.3291818761209448E-01 
    7.1837765357425321E-01 
    7.0949729568533648E-01 
    7.0655984248918136E-01 
    7.0917228063405369E-01 
    7.1642626264973275E-01 
    8.3210790174078553E-01 
    8.3930153967789867E-01 
    8.4184343693892927E-01 
    8.3899868342449202E-01 
    8.3040615809642937E-01 
    8.1617488369086288E-01 
    7.9712130572862461E-01 
    7.7473444802954494E-01 
    7.5077628433740407E-01 
    7.2728979202805688E-01 
    7.0638658300562640E-01 
    6.9006132908920603E-01 
    6.7992132831165419E-01 
    6.7683489644557293E-01 
    6.8066967595766925E-01 
    6.9035986317231068E-01 
    8.1219793965713694E-01 
    8.1727867627191719E-01 
    8.1849409467971213E-01 
    8.1510740567394535E-01 
    8.0664724315126324E-01 
    7.9299841841447694E-01 
    7.7453048176691519E-01 
    7.5216053934887905E-01 
    7.2727685939293707E-01 
    7.0172603650508114E-01 
    6.7776813913181400E-01 
    6.5795012426394739E-01 
    6.4478539419050829E-01 
    6.4015574122509278E-01 
    6.4458733567815873E-01 
    6.5691272206005447E-01 
    7.9749503966697333E-01 
    8.0075297922016087E-01 
    8.0070436682540636E-01 
    7.9662132606775538E-01 
    7.8794060335754845E-01 
    7.7434353777543585E-01 
    7.5584658233444513E-01 
    7.3288445833258242E-01 
    7.0636507120487302E-01 
    6.7775824593595158E-01 
    6.4922051272765391E-01 
    6.2368820119340840E-01 
    6.0474449387054408E-01 
    5.9593948433631816E-01 
    5.9939436238830179E-01 
    6.1433159716953789E-01 
    7.8716642565238659E-01 
    7.8893790425229615E-01 
    7.8784894799436267E-01 
    7.8316878380278954E-01 
    7.7425841094282244E-01 
    7.6062645673795648E-01 
    7.4198968396853326E-01 
    7.1834092298861385E-01 
    6.9003409000321525E-01 
    6.5793281098220235E-01 
    6.2368009099241439E-01 
    5.9010565139471682E-01 
    5.6162373849079228E-01 
    5.4407494752436847E-01 
    5.4297974754924805E-01 
    5.5979154581929169E-01 
    7.8043447810465028E-01 
    7.8107923738867746E-01 
    7.7926152867289078E-01 
    7.7424054739103343E-01 
    7.6531934188954842E-01 
    7.5187434162927258E-01 
    7.3338375968066349E-01 
    7.0945845262927976E-01 
    6.7988989130611666E-01 
    6.4476247152536992E-01 
    6.0473000094276719E-01 
    5.6161699736524984E-01 
    5.1950779587579565E-01 
    4.8611700174136968E-01 
    4.7271785551552725E-01 
    4.8827119041071831E-01 
    7.7653961404569927E-01 
    7.7642930077137240E-01 
    7.7423832536445603E-01 
    7.6921656815331385E-01 
    7.6062981987689038E-01 
    7.4776944631455033E-01 
    7.2995386209803714E-01 
    7.0651895945628373E-01 
    6.7680010593619311E-01 
    6.4012859390905530E-01 
    5.9592005907921697E-01 
    5.4406268501995536E-01 
    4.8611118116041058E-01 
    4.2828108327790049E-01 
    3.8701185429970597E-01 
    3.8996252994247227E-01 
    7.7472578258930935E-01 
    7.7423710969285087E-01 
    7.7204626311545399E-01 
    7.6739818335261789E-01 
    7.5954063218568857E-01 
    7.4772393268353277E-01 
    7.3118820966384979E-01 
    7.0912923847944853E-01 
    6.8063201613518132E-01 
    6.4455692044093871E-01 
    5.9937107573284143E-01 
    5.4296298612901572E-01 
    4.7270714432490041E-01 
    3.8700687540310985E-01 
    2.9342608479542726E-01 
    2.4379903674043193E-01 
    7.7423667524367490E-01 
    7.7374778510258047E-01 
    7.7193505043188737E-01 
    7.6804250824380260E-01 
    7.6131271156255198E-01 
    7.5098533869365525E-01 
    7.3628450024339276E-01 
    7.1638071457436325E-01 
    6.9031933541357005E-01 
    6.5687943707946039E-01 
    6.1430498756107677E-01 
    5.5977100072115371E-01 
    4.8825644753863878E-01 
    3.8995358703036548E-01 
    2.4379532204361268E-01 
    0.0000000000000000E+00 

SCALARS Saturarion double 1 
LOOKUP_TABLE default 

    9.9999999612198098E-01 
    9.3317150141486138E-01 
    8.1646719063493856E-01 
    6.8543639883471441E-01 
    6.0821528031147676E-01 
    5.2073317510521622E-01 
    2.4901300288005557E-01 
    4.3691442748199164E-04 
    1.0000002211733747E-06 
    1.0000000000000262E-06 
    9.9999999999999995E-07 
    9.9999999999999995E-07 
    9.9999999999999995E-07 
    9.9999999999999995E-07 
    9.9999999999999995E-07 
    9.9999999999999995E-07 
    9.3279960048271160E-01 
    8.7798162878859598E-01 
    7.8302891928251506E-01 
    6.8019574666150862E-01 
    6.0907247192394998E-01 
    5.2799771665179540E-01 
    3.1453926651440117E-01 
    6.1991020772076627E-03 
    1.3828198217566331E-06 
    1.0000000662275647E-06 
    9.9999999999999995E-07 
    9.9999999999999995E-07 
    9.9999999999999995E-07 
    9.9999999999999995E-07 
    9.9999999999999995E-07 
    9.9999999999999995E-07 
    8.1522912740564080E-01 
    7.8241166490235270E-01 
    7.1865851485299448E-01 
    6.5126467164221846E-01 
    5.9723355913452758E-01 
    5.3292473748771874E-01 
    3.6699876646808238E-01 
    2.0806230650526603E-02 
    3.2134537204631196E-06 
    1.0000003529361757E-06 
    1.0000000000000199E-06 
    9.9999999999999995E-07 
    9.9999999999999995E-07 
    9.9999999999999995E-07 
    9.9999999999999995E-07 
    9.9999999999999995E-07 
    6.8345319521122461E-01 
    6.7900799977984916E-01 
    6.5087975089117278E-01 
    6.1438751602992725E-01 
    5.7754190750501588E-01 
    5.2396473785085551E-01 
    3.7807716266580516E-01 
    2.6302480308240981E-02 
    2.2443909073689695E-06 
    1.0000006189153915E-06 
    9.9999999999999995E-07 
    9.9999999999999995E-07 
    9.9999999999999995E-07 
    9.9999999999999995E-07 
    9.9999999999999995E-07 
    9.9999999999999995E-07 
    6.0666290073761320E-01 
    6.0791413009424489E-01 
    5.9649048612292632E-01 
    5.7715324145383284E-01 
    5.4629674789752058E-01 
    4.9794739492059731E-01 
    3.3139518610396934E-01 
    1.2507760904899069E-02 
    4.6430969149011220E-06 
    1.0000006476493872E-06 
    1.0000000000000451E-06 
    9.9999999999999995E-07 
    9.9999999999999995E-07 
    9.9999999999999995E-07 
    9.9999999999999995E-07 
    9.9999999999999995E-07 
    5.2017667916336141E-01 
    5.2776436128368975E-01 
    5.3237567643644523E-01 
    5.2327217748398802E-01 
    4.9741581044809591E-01 
    4.3485823734258033E-01 
    1.9325747974830479E-01 
    8.0151062239445614E-04 
    1.0601821401893909E-06 
    1.0000000038355381E-06 
    1.0000000000000002E-06 
    9.9999999999999995E-07 
    9.9999999999999995E-07 
    9.9999999999999995E-07 
    9.9999999999999995E-07 
    9.9999999999999995E-07 
    2.4853506487443622E-01 
    3.1790307842892945E-01 
    3.6930019500081296E-01 
    3.7726670898563719E-01 
    3.2917285728153695E-01 
    1.9248081036315062E-01 
    1.9575927339914940E-02 
    1.0791310069465862E-05 
    1.0000062634459937E-06 
    1.0000000000000135E-06 
    9.9999999999999995E-07 
    9.9999999999999995E-07 
    9.9999999999999995E-07 
    9.9999999999999995E-07 
    9.9999999999999995E-07 
    9.9999999999999995E-07 
    4.1547595921839536E-04 
    6.7461596547507101E-03 
    2.1947832668067199E-02 
    2.6377324431211199E-02 
    1.1878753488281664E-02 
    7.7194882724501940E-04 
    1.0773057575729986E-05 
    1.0000124705315012E-06 
    1.0000000000010507E-06 
    9.9999999999999995E-07 
    9.9999999999999995E-07 
    9.9999999999999995E-07 
    9.9999999999999995E-07 
    9.9999999999999995E-07 
    9.9999999999999995E-07 
    9.9999999999999995E-07 
    1.0000002687811353E-06 
    1.4962799234149097E-06 
    3.3159952651917748E-06 
    2.8362560397901099E-06 
    4.3476973161984521E-06 
    1.0587035531455260E-06 
    1.0000062427505908E-06 
    1.0000000000010473E-06 
    9.9999999999999995E-07 
    9.9999999999999995E-07 
    9.9999999999999995E-07 
    9.9999999999999995E-07 
    9.9999999999999995E-07 
    9.9999999999999995E-07 
    9.9999999999999995E-07 
    9.9999999999999995E-07 
    1.0000000000000313E-06 
    1.0000000901579692E-06 
    1.0000006929383379E-06 
    1.0000009217342916E-06 
    1.0000006831982078E-06 
    1.0000000036081225E-06 
    1.0000000000000135E-06 
    9.9999999999999995E-07 
    9.9999999999999995E-07 
    9.9999999999999995E-07 
    9.9999999999999995E-07 
    9.9999999999999995E-07 
    9.9999999999999995E-07 
    9.9999999999999995E-07 
    9.9999999999999995E-07 
    9.9999999999999995E-07 
    9.9999999999999995E-07 
    9.9999999999999995E-07 
    1.0000000000000042E-06 
    1.0000000000000082E-06 
    1.0000000000000158E-06 
    1.0000000000000002E-06 
    9.9999999999999995E-07 
    9.9999999999999995E-07 
    9.9999999999999995E-07 
    9.9999999999999995E-07 
    9.9999999999999995E-07 
    9.9999999999999995E-07 
    9.9999999999999995E-07 
    9.9999999999999995E-07 
    9.9999999999999995E-07 
    9.9999999999999995E-07 
    9.9999999999999995E-07 
    9.9999999999999995E-07 
    9.9999999999999995E-07 
    9.9999999999999995E-07 
    9.9999999999999995E-07 
    9.9999999999999995E-07 
    9.9999999999999995E-07 
    9.9999999999999995E-07 
    9.9999999999999995E-07 
    9.9999999999999995E-07 
    9.9999999999999995E-07 
    9.9999999999999995E-07 
    9.9999999999999995E-07 
    9.9999999999999995E-07 
    9.9999999999999995E-07 
    9.9999999999999995E-07 
    9.9999999999999995E-07 
    9.9999999999999995E-07 
    9.9999999999999995E-07 
    9.9999999999999995E-07 
    9.9999999999999995E-07 
    9.9999999999999995E-07 
    9.9999999999999995E-07 
    9.9999999999999995E-07 
    9.9999999999999995E-07 
    9.9999999999999995E-07 
    9.9999999999999995E-07 
    9.9999999999999995E-07 
    9.9999999999999995E-07 
    9.9999999999999995E-07 
    9.9999999999999995E-07 
    9.9999999999999995E-07 
    9.9999999999999995E-07 
    9.9999999999999995E-07 
    9.9999999999999995E-07 
    9.9999999999999995E-07 
    9.9999999999999995E-07 
    9.9999999999999995E-07 
    9.9999999999999995E-07 
    9.9999999999999995E-07 
    9.9999999999999995E-07 
    9.9999999999999995E-07 
    9.9999999999999995E-07 
    9.9999999999999995E-07 
    9.9999999999999995E-07 
    9.9999999999999995E-07 
    9.9999999999999995E-07 
    9.9999999999999995E-07 
    9.9999999999999995E-07 
    9.9999999999999995E-07 
    9.9999999999999995E-07 
    9.9999999999999995E-07 
    9.9999999999999995E-07 
    9.9999999999999995E-07 
    9.9999999999999995E-07 
    9.9999999999999995E-07 
    9.9999999999999995E-07 
    9.9999999999999995E-07 
    9.9999999999999995E-07 
    9.9999999999999995E-07 
    9.9999999999999995E-07 
    9.9999999999999995E-07 
    9.9999999999999995E-07 
    9.9999999999999995E-07 
    9.9999999999999995E-07 
    9.9999999999999995E-07 
    9.9999999999999995E-07 
    9.9999999999999995E-07 
    9.9999999999999995E-07 
    9.9999999999999995E-07 
    9.9999999999999995E-07 
    9.9999999999999995E-07 
    9.9999999999999995E-07 
    9.9999999999999995E-07 
    9.9999999999999995E-07 
    9.9999999999999995E-07 
    9.9999999999999995E-07 
    9.9999999999999995E-07 
    9.9999999999999995E-07 
    1.0000001281294874E-06 
