# vtk DataFile Version 2.0
Pressure Field Data 
ASCII 
DATASET UNSTRUCTURED_GRID 

POINTS 289 double 

    0.0000000000000000E+00     0.0000000000000000E+00     0.0000000000000000E+00 
    1.0000000000000000E+00     0.0000000000000000E+00     0.0000000000000000E+00 
    1.0000000000000000E+00     1.0000000000000000E+00     0.0000000000000000E+00 
    0.0000000000000000E+00     1.0000000000000000E+00     0.0000000000000000E+00 
    6.2499999999872928E-02     0.0000000000000000E+00     0.0000000000000000E+00 
    1.2499999999977310E-01     0.0000000000000000E+00     0.0000000000000000E+00 
    1.8749999999959341E-01     0.0000000000000000E+00     0.0000000000000000E+00 
    2.4999999999941089E-01     0.0000000000000000E+00     0.0000000000000000E+00 
    3.1249999999922851E-01     0.0000000000000000E+00     0.0000000000000000E+00 
    3.7499999999904610E-01     0.0000000000000000E+00     0.0000000000000000E+00 
    4.3749999999886358E-01     0.0000000000000000E+00     0.0000000000000000E+00 
    4.9999999999869210E-01     0.0000000000000000E+00     0.0000000000000000E+00 
    5.6249999999884603E-01     0.0000000000000000E+00     0.0000000000000000E+00 
    6.2499999999901090E-01     0.0000000000000000E+00     0.0000000000000000E+00 
    6.8749999999917577E-01     0.0000000000000000E+00     0.0000000000000000E+00 
    7.4999999999934064E-01     0.0000000000000000E+00     0.0000000000000000E+00 
    8.1249999999950551E-01     0.0000000000000000E+00     0.0000000000000000E+00 
    8.7499999999967026E-01     0.0000000000000000E+00     0.0000000000000000E+00 
    9.3749999999983513E-01     0.0000000000000000E+00     0.0000000000000000E+00 
    1.0000000000000000E+00     6.2499999999872928E-02     0.0000000000000000E+00 
    1.0000000000000000E+00     1.2499999999977310E-01     0.0000000000000000E+00 
    1.0000000000000000E+00     1.8749999999959341E-01     0.0000000000000000E+00 
    1.0000000000000000E+00     2.4999999999941089E-01     0.0000000000000000E+00 
    1.0000000000000000E+00     3.1249999999922851E-01     0.0000000000000000E+00 
    1.0000000000000000E+00     3.7499999999904610E-01     0.0000000000000000E+00 
    1.0000000000000000E+00     4.3749999999886358E-01     0.0000000000000000E+00 
    1.0000000000000000E+00     4.9999999999869210E-01     0.0000000000000000E+00 
    1.0000000000000000E+00     5.6249999999884603E-01     0.0000000000000000E+00 
    1.0000000000000000E+00     6.2499999999901090E-01     0.0000000000000000E+00 
    1.0000000000000000E+00     6.8749999999917577E-01     0.0000000000000000E+00 
    1.0000000000000000E+00     7.4999999999934064E-01     0.0000000000000000E+00 
    1.0000000000000000E+00     8.1249999999950551E-01     0.0000000000000000E+00 
    1.0000000000000000E+00     8.7499999999967026E-01     0.0000000000000000E+00 
    1.0000000000000000E+00     9.3749999999983513E-01     0.0000000000000000E+00 
    9.3749999999973976E-01     1.0000000000000000E+00     0.0000000000000000E+00 
    8.7499999999950118E-01     1.0000000000000000E+00     0.0000000000000000E+00 
    8.1249999999991318E-01     1.0000000000000000E+00     0.0000000000000000E+00 
    7.5000000000034706E-01     1.0000000000000000E+00     0.0000000000000000E+00 
    6.8750000000078049E-01     1.0000000000000000E+00     0.0000000000000000E+00 
    6.2500000000121403E-01     1.0000000000000000E+00     0.0000000000000000E+00 
    5.6250000000164757E-01     1.0000000000000000E+00     0.0000000000000000E+00 
    5.0000000000205946E-01     1.0000000000000000E+00     0.0000000000000000E+00 
    4.3750000000182099E-01     1.0000000000000000E+00     0.0000000000000000E+00 
    3.7500000000156092E-01     1.0000000000000000E+00     0.0000000000000000E+00 
    3.1250000000130068E-01     1.0000000000000000E+00     0.0000000000000000E+00 
    2.5000000000104050E-01     1.0000000000000000E+00     0.0000000000000000E+00 
    1.8750000000078040E-01     1.0000000000000000E+00     0.0000000000000000E+00 
    1.2500000000052031E-01     1.0000000000000000E+00     0.0000000000000000E+00 
    6.2500000000260125E-02     1.0000000000000000E+00     0.0000000000000000E+00 
    0.0000000000000000E+00     9.3749999999973976E-01     0.0000000000000000E+00 
    0.0000000000000000E+00     8.7499999999950118E-01     0.0000000000000000E+00 
    0.0000000000000000E+00     8.1249999999991318E-01     0.0000000000000000E+00 
    0.0000000000000000E+00     7.5000000000034706E-01     0.0000000000000000E+00 
    0.0000000000000000E+00     6.8750000000078049E-01     0.0000000000000000E+00 
    0.0000000000000000E+00     6.2500000000121403E-01     0.0000000000000000E+00 
    0.0000000000000000E+00     5.6250000000164757E-01     0.0000000000000000E+00 
    0.0000000000000000E+00     5.0000000000205946E-01     0.0000000000000000E+00 
    0.0000000000000000E+00     4.3750000000182099E-01     0.0000000000000000E+00 
    0.0000000000000000E+00     3.7500000000156092E-01     0.0000000000000000E+00 
    0.0000000000000000E+00     3.1250000000130068E-01     0.0000000000000000E+00 
    0.0000000000000000E+00     2.5000000000104050E-01     0.0000000000000000E+00 
    0.0000000000000000E+00     1.8750000000078040E-01     0.0000000000000000E+00 
    0.0000000000000000E+00     1.2500000000052031E-01     0.0000000000000000E+00 
    0.0000000000000000E+00     6.2500000000260125E-02     0.0000000000000000E+00 
    6.2499999999897131E-02     6.2500000000235922E-02     0.0000000000000000E+00 
    6.2499999999921327E-02     1.2500000000047351E-01     0.0000000000000000E+00 
    6.2499999999945530E-02     1.8750000000070621E-01     0.0000000000000000E+00 
    6.2499999999969733E-02     2.5000000000093858E-01     0.0000000000000000E+00 
    6.2499999999993928E-02     3.1250000000117117E-01     0.0000000000000000E+00 
    6.2500000000018124E-02     3.7500000000140382E-01     0.0000000000000000E+00 
    6.2500000000042327E-02     4.3750000000163619E-01     0.0000000000000000E+00 
    6.2500000000066530E-02     5.0000000000184897E-01     0.0000000000000000E+00 
    6.2500000000090733E-02     5.6250000000147260E-01     0.0000000000000000E+00 
    6.2500000000114922E-02     6.2500000000107636E-01     0.0000000000000000E+00 
    6.2500000000139125E-02     6.8750000000068034E-01     0.0000000000000000E+00 
    6.2500000000163328E-02     7.5000000000028411E-01     0.0000000000000000E+00 
    6.2500000000187531E-02     8.1249999999988787E-01     0.0000000000000000E+00 
    6.2500000000211720E-02     8.7499999999951172E-01     0.0000000000000000E+00 
    6.2500000000235922E-02     9.3749999999974565E-01     0.0000000000000000E+00 
    1.2499999999981980E-01     6.2500000000211733E-02     0.0000000000000000E+00 
    1.2499999999986650E-01     1.2500000000042691E-01     0.0000000000000000E+00 
    1.2499999999991319E-01     1.8750000000063199E-01     0.0000000000000000E+00 
    1.2499999999995989E-01     2.5000000000083678E-01     0.0000000000000000E+00 
    1.2500000000000661E-01     3.1250000000104172E-01     0.0000000000000000E+00 
    1.2500000000005329E-01     3.7500000000124661E-01     0.0000000000000000E+00 
    1.2500000000010000E-01     4.3750000000145117E-01     0.0000000000000000E+00 
    1.2500000000014669E-01     5.0000000000163858E-01     0.0000000000000000E+00 
    1.2500000000019340E-01     5.6250000000129741E-01     0.0000000000000000E+00 
    1.2500000000024011E-01     6.2500000000093847E-01     0.0000000000000000E+00 
    1.2500000000028680E-01     6.8750000000057998E-01     0.0000000000000000E+00 
    1.2500000000033351E-01     7.5000000000022127E-01     0.0000000000000000E+00 
    1.2500000000038020E-01     8.1249999999986211E-01     0.0000000000000000E+00 
    1.2500000000042691E-01     8.7499999999952238E-01     0.0000000000000000E+00 
    1.2500000000047359E-01     9.3749999999975164E-01     0.0000000000000000E+00 
    1.8749999999966760E-01     6.2500000000187531E-02     0.0000000000000000E+00 
    1.8749999999974179E-01     1.2500000000038020E-01     0.0000000000000000E+00 
    1.8749999999981601E-01     1.8750000000055780E-01     0.0000000000000000E+00 
    1.8749999999989009E-01     2.5000000000073502E-01     0.0000000000000000E+00 
    1.8749999999996431E-01     3.1250000000091221E-01     0.0000000000000000E+00 
    1.8750000000003850E-01     3.7500000000108941E-01     0.0000000000000000E+00 
    1.8750000000011269E-01     4.3750000000126649E-01     0.0000000000000000E+00 
    1.8750000000018691E-01     5.0000000000142808E-01     0.0000000000000000E+00 
    1.8750000000026110E-01     5.6250000000112244E-01     0.0000000000000000E+00 
    1.8750000000033529E-01     6.2500000000080080E-01     0.0000000000000000E+00 
    1.8750000000040951E-01     6.8750000000047962E-01     0.0000000000000000E+00 
    1.8750000000048361E-01     7.5000000000015843E-01     0.0000000000000000E+00 
    1.8750000000055780E-01     8.1249999999983680E-01     0.0000000000000000E+00 
    1.8750000000063199E-01     8.7499999999953304E-01     0.0000000000000000E+00 
    1.8750000000070621E-01     9.3749999999975764E-01     0.0000000000000000E+00 
    2.4999999999951281E-01     6.2500000000163314E-02     0.0000000000000000E+00 
    2.4999999999961461E-01     1.2500000000033351E-01     0.0000000000000000E+00 
    2.4999999999971650E-01     1.8750000000048361E-01     0.0000000000000000E+00 
    2.4999999999981831E-01     2.5000000000063310E-01     0.0000000000000000E+00 
    2.4999999999992020E-01     3.1250000000078260E-01     0.0000000000000000E+00 
    2.5000000000002198E-01     3.7500000000093209E-01     0.0000000000000000E+00 
    2.5000000000012390E-01     4.3750000000108180E-01     0.0000000000000000E+00 
    2.5000000000022571E-01     5.0000000000121769E-01     0.0000000000000000E+00 
    2.5000000000032763E-01     5.6250000000094724E-01     0.0000000000000000E+00 
    2.5000000000042938E-01     6.2500000000066314E-01     0.0000000000000000E+00 
    2.5000000000053119E-01     6.8750000000037925E-01     0.0000000000000000E+00 
[...]
CELL_DATA 256 
SCALARS Pressure double 1 
LOOKUP_TABLE default 

    1.0522430142719434E+00 
    1.0002151811002689E+00 
    9.6472265859807360E-01 
    9.3554517562982376E-01 
    9.0921509723595029E-01 
    8.8553056072517533E-01 
    8.6445937562418396E-01 
    8.4519929124718995E-01 
    8.2448208159996994E-01 
    8.0474474951055874E-01 
    7.9072211159639694E-01 
    7.8091103890670266E-01 
    7.7450418020624312E-01 
    7.7079081190705134E-01 
    7.6905784048190651E-01 
    7.6858844181187924E-01 
    1.0002368976941978E+00 
    9.8935984956412104E-01 
    9.6588737487789733E-01 
    9.4055266715621144E-01 
    9.1544326492901740E-01 
    8.9184288299371595E-01 
    8.7039878528865400E-01 
    8.5087280524777054E-01 
    8.3072360916704746E-01 
    8.0967187391840290E-01 
    7.9381619893764555E-01 
    7.8260582642089715E-01 
    7.7512692142776518E-01 
    7.7069220968300445E-01 
    7.6859640215609693E-01 
    7.6812435346244201E-01 
    9.6475218088382608E-01 
    9.6590265258358399E-01 
    9.5435079291037983E-01 
    9.3589872445489886E-01 
    9.1444324076067185E-01 
    8.9250994935116668E-01 
    8.7161331180196977E-01 
    8.5221335154573918E-01 
    8.3281145179603733E-01 
    8.1133561363504181E-01 
    7.9383421237167007E-01 
    7.8161783451840472E-01 
    7.7342580700558450E-01 
    7.6862271012135197E-01 
    7.6652142402287582E-01 
    7.6640847530585110E-01 
    9.3555827576000394E-01 
    9.4056344774777600E-01 
    9.3590159010999219E-01 
    9.2364695337440506E-01 
    9.0663023408429888E-01 
    8.8737592397457521E-01 
    8.6782176981781123E-01 
    8.4901525796305077E-01 
    8.3042122523415340E-01 
    8.0914103614158595E-01 
    7.9018882203141028E-01 
    7.7729965883642815E-01 
    7.6871307343136408E-01 
    7.6386959534815579E-01 
    7.6210832531350670E-01 
    7.6271335433768650E-01 
    9.0919209772326215E-01 
    9.1542749631313292E-01 
    9.1443209106773515E-01 
    9.0662467818007997E-01 
    8.9355028525180358E-01 
    8.7716958142243162E-01 
    8.5933330361865279E-01 
    8.4137151563284729E-01 
    8.2342854159779943E-01 
    8.0258366841206696E-01 
    7.8256145778929020E-01 
    7.6912710969300335E-01 
    7.6035393521757766E-01 
    7.5573659641462920E-01 
    7.5463133996644882E-01 
    7.5630359584637596E-01 
    8.8547003276033776E-01 
    8.9179080058903559E-01 
    8.9247104951273692E-01 
    8.8735459626203705E-01 
    8.7716084926404059E-01 
    8.6320827361596242E-01 
    8.4698182684837309E-01 
    8.2980803020726901E-01 
    8.1223357823730036E-01 
    7.9162252050813375E-01 
    7.7080358041597719E-01 
    7.5668804255317312E-01 
    7.4776798017820767E-01 
    7.4354125384300696E-01 
    7.4336055249023203E-01 
    7.4643922375121874E-01 
    8.6436537372599298E-01 
    8.7031049038131791E-01 
    8.7154170733481229E-01 
    8.6777634459381281E-01 
    8.5930922949667865E-01 
    8.4697020435624037E-01 
    8.3184571471115709E-01 
    8.1509747390861920E-01 
    7.9745516636203428E-01 
    7.7645413442936673E-01 
    7.5472064731822019E-01 
    7.3961661986199401E-01 
    7.3039918936683468E-01 
    7.2658660287616617E-01 
    7.2753116522141648E-01 
    7.3234981777131358E-01 
    8.4508409339463342E-01 
    8.5076114264119762E-01 
    8.5211962405032582E-01 
    8.4895068169424015E-01 
    8.4133158198096492E-01 
    8.2978312896632267E-01 
    8.1508330881889413E-01 
    7.9814420813700837E-01 
    7.7965733012375937E-01 
    7.5723096710254256E-01 
    7.3404142562887809E-01 
    7.1760258272066679E-01 
    7.0770801825194662E-01 
    7.0412769541332587E-01 
    7.0629070444862352E-01 
    7.1317496020812765E-01 
    8.2437494719933124E-01 
    8.3062805151445318E-01 
    8.3273160677067681E-01 
    8.3035766015541823E-01 
    8.2338101918593742E-01 
    8.1219648651308751E-01 
    7.9742602149505937E-01 
    7.7963811675546224E-01 
    7.5882122848526457E-01 
    7.3395683526212552E-01 
    7.0880582268351899E-01 
    6.9057253552766862E-01 
    6.7924796455861847E-01 
    6.7536130025265928E-01 
    6.7863558138267277E-01 
    6.8789608331792962E-01 
    8.0465464732529113E-01 
    8.0958884637284245E-01 
    8.1126923363733572E-01 
    8.0908515478818688E-01 
    8.0252687922516563E-01 
    7.9155889535794810E-01 
    7.7638607105766577E-01 
    7.5716860698169430E-01 
    7.3391798363685268E-01 
    7.0695453811371500E-01 
    6.7998742172205273E-01 
    6.5903541559345169E-01 
    6.4487298739509291E-01 
    6.3946715415746003E-01 
    6.4332001021075091E-01 
    6.5520769060664041E-01 
    7.9064158970316012E-01 
    7.9373341870963465E-01 
    7.9375181374719883E-01 
    7.9011061531959226E-01 
    7.8249164997676357E-01 
    7.7073189559377320E-01 
    7.5464003720023409E-01 
    7.3395928808418798E-01 
    7.0873869324620065E-01 
    6.7995446647102475E-01 
    6.5073342151221225E-01 
    6.2475768379750252E-01 
    6.0518400299380370E-01 
    5.9577490635908192E-01 
    5.9872817785790389E-01 
    6.1327535982520687E-01 
    7.8083899964429082E-01 
    7.8252990602724948E-01 
    7.8153898530574351E-01 
    7.7722221294963445E-01 
    7.6905516059295020E-01 
    7.5661985140711152E-01 
    7.3954965119648775E-01 
    7.1753901503175532E-01 
    6.9051774573476787E-01 
    6.5899643028773658E-01 
    6.2473965849932422E-01 
    5.9095513145182677E-01 
    5.6213069141035132E-01 
    5.4418531469042064E-01 
    5.4271792158599952E-01 
    5.5922534044120553E-01 
    7.7443983599155786E-01 
    7.7505806741398919E-01 
    7.7335179699202961E-01 
    7.6863769541926663E-01 
    7.6028159214608526E-01 
    7.4769962317206784E-01 
    7.3033410909408847E-01 
    7.0764708189989078E-01 
    6.7919415855200482E-01 
    6.4483051591401486E-01 
    6.0515631710637141E-01 
    5.6211801382335347E-01 
    5.1990463390092745E-01 
    4.8631033280814778E-01 
    4.7267905573164160E-01 
    4.8802662512036210E-01 
    7.7073389395836978E-01 
    7.7063083342148309E-01 
    7.6855413007990914E-01 
    7.6379647379962057E-01 
    7.5566411701663694E-01 
    7.4347219289861532E-01 
    7.2652129743978411E-01 
    7.0406681176121078E-01 
    6.7530686769139259E-01 
    6.3942198601723277E-01 
    5.9574122997193968E-01 
    5.4416393916677530E-01 
    4.8630047508541435E-01 
    4.2843026021119307E-01 
    3.8705561216200834E-01 
    3.8989226299032459E-01 
    7.6900733273953470E-01 
    7.6854257964560879E-01 
    7.6645875813086939E-01 
    7.6203737118545523E-01 
    7.5455831004420471E-01 
    7.4329031049625072E-01 
    7.2746455459591775E-01 
    7.0622843311855577E-01 
    6.7857940329003941E-01 
    6.4327215466354282E-01 
    5.9869003904585916E-01 
    5.4269022944356726E-01 
    4.7266171951191777E-01 
    3.8704777246788946E-01 
    2.9346298575669766E-01 
    2.4379467107253527E-01 
    7.6854177147985503E-01 
    7.6807647984332494E-01 
    7.6635078559397751E-01 
    7.6264372186851803E-01 
    7.5622927179845822E-01 
    7.4636743953748053E-01 
    7.3228117971255557E-01 
    7.1311037379685971E-01 
    6.8783724644645006E-01 
    6.5515674309141125E-01 
    6.1323312123123286E-01 
    5.5919248083324746E-01 
    4.8800344161179166E-01 
    3.8987847160239303E-01 
    2.4378898946116964E-01 
    0.0000000000000000E+00 

SCALARS Saturarion double 1 
LOOKUP_TABLE default 

    1.0000000000000002E+00 
    9.5978854114896672E-01 
    8.9053299603909175E-01 
    7.7935259192063244E-01 
    6.9420553402343221E-01 
    6.3082977879881796E-01 
    5.7737503123692058E-01 
    5.0402143230498742E-01 
    2.5687287263936504E-01 
    7.0383619903734975E-04 
    1.0000018844596717E-06 
    1.0000000000001958E-06 
    9.9999999999999995E-07 
    9.9999999999999995E-07 
    9.9999999999999995E-07 
    9.9999999999999995E-07 
    9.5957930943117908E-01 
    9.2547254958934966E-01 
    8.6422241328512939E-01 
    7.7600616138103040E-01 
    6.9899052554134455E-01 
    6.3770157552166007E-01 
    5.8462298509592381E-01 
    5.1814039433937642E-01 
    3.4929804899584543E-01 
    1.8634818508971227E-02 
    6.4128469220559402E-06 
    1.0000028301920324E-06 
    9.9999999999999995E-07 
    9.9999999999999995E-07 
    9.9999999999999995E-07 
    9.9999999999999995E-07 
    8.8991680314768484E-01 
    8.6391868936201699E-01 
    8.1347146530421333E-01 
    7.5259574682418939E-01 
    6.9148177743226791E-01 
    6.3749397553919929E-01 
    5.8822265340679736E-01 
    5.3156381687453669E-01 
    4.1780140522806114E-01 
    8.4198752416758324E-02 
    1.0732155329412557E-04 
    1.0019967815289852E-06 
    9.9999999999999974E-07 
    9.9999999999999995E-07 
    9.9999999999999995E-07 
    9.9999999999999995E-07 
    7.7807802706217211E-01 
    7.7524942550414222E-01 
    7.5229308914471327E-01 
    7.1466383774179643E-01 
    6.7026986059689120E-01 
    6.2728413611401013E-01 
    5.8679301972116482E-01 
    5.3901715365895253E-01 
    4.5506993121548828E-01 
    1.6514546235349736E-01 
    1.4087062068842080E-04 
    1.0033693529862919E-06 
    1.0000000001110284E-06 
    9.9999999999999995E-07 
    9.9999999999999995E-07 
    9.9999999999999995E-07 
    6.9286312867526190E-01 
    6.9799766448640210E-01 
    6.9095385000062115E-01 
    6.7005009042219232E-01 
    6.4151171840098453E-01 
    6.1110344325488974E-01 
    5.7973166943493271E-01 
    5.4130343835441985E-01 
    4.7494906443189722E-01 
    2.5171146410125372E-01 
    2.8641405825757466E-03 
    1.2429187049918214E-06 
    1.0000000379083526E-06 
    9.9999999999999995E-07 
    9.9999999999999995E-07 
    9.9999999999999995E-07 
    6.2945019641216338E-01 
    6.3670696817675376E-01 
    6.3686511451416494E-01 
    6.2680188598083353E-01 
    6.1080200785755068E-01 
    5.9065935826795468E-01 
    5.6607288851976989E-01 
    5.3617183946877545E-01 
    4.8520998343256377E-01 
    3.2027196553724424E-01 
    1.1262581839673953E-02 
    2.0371561666152400E-06 
    1.0000001041211637E-06 
    1.0000000000000048E-06 
    9.9999999999999995E-07 
    9.9999999999999995E-07 
    5.7575220252470038E-01 
    5.8389885654380036E-01 
    5.8788719597673289E-01 
    5.8632854119663191E-01 
    5.7914572532169961E-01 
    5.6574378277819792E-01 
    5.4670699242807641E-01 
    5.2355657442426173E-01 
    4.8404706465906011E-01 
    3.4829794069783293E-01 
    2.0440662220748959E-02 
    1.0415540533482057E-06 
    1.0000000207704000E-06 
    9.9999999999999974E-07 
    9.9999999999999995E-07 
    9.9999999999999995E-07 
    5.0233966251004503E-01 
    5.1816463244505051E-01 
    5.3185306333663529E-01 
    5.3898667163140346E-01 
    5.4081952264044197E-01 
    5.3555014966184433E-01 
    5.2329225820937597E-01 
    5.0518706668519842E-01 
    4.7165634565945236E-01 
    3.4376299838276064E-01 
    2.1504275945416724E-02 
    3.4507645890120285E-06 
    1.0000005107196994E-06 
    1.0000000000000343E-06 
    9.9999999999999995E-07 
    9.9999999999999995E-07 
    2.5547030931223419E-01 
    3.5061686123903779E-01 
    4.1977979896691592E-01 
    4.5582052939669948E-01 
    4.7466066090255332E-01 
    4.8457786469239883E-01 
    4.8336609806721481E-01 
    4.7138396561306517E-01 
    4.3768529302165143E-01 
    2.8371031130719188E-01 
    7.5720958558799459E-03 
    2.5548347010234798E-06 
    1.0000004036330022E-06 
    1.0000000000000012E-06 
    9.9999999999999995E-07 
    9.9999999999999995E-07 
    6.8633107231290294E-04 
    1.9531663508033554E-02 
    8.7583732419867416E-02 
    1.6631584836865776E-01 
    2.5184223717693455E-01 
    3.1912791933703544E-01 
    3.4678704471553329E-01 
    3.4189533197357896E-01 
    2.8212815028399307E-01 
    9.9563588719157103E-02 
    3.3558376301309604E-04 
    1.0205608236347873E-06 
    1.0000000000002140E-06 
    9.9999999999999995E-07 
    9.9999999999999995E-07 
    9.9999999999999995E-07 
    1.0000021826151132E-06 
    7.0744469736466347E-06 
    1.1124555399967060E-04 
    1.3917338424297273E-04 
    2.8097998547220262E-03 
    1.0894504548492985E-02 
    1.9711940783375480E-02 
    2.0527320424030385E-02 
    7.1900215292562001E-03 
    3.3514563736383593E-04 
    1.0467929168955413E-06 
    1.0000000145880768E-06 
    1.0000000000000012E-06 
    9.9999999999999995E-07 
    9.9999999999999995E-07 
    9.9999999999999995E-07 
    1.0000000000002240E-06 
    1.0000034693429291E-06 
    1.0018872684992813E-06 
    1.0032180721332790E-06 
    1.2290125757151482E-06 
    1.9283722106630072E-06 
    1.0353539674016923E-06 
    3.2757387768032848E-06 
    2.4125412337005820E-06 
    1.0206254245755442E-06 
    1.0000000146526374E-06 
    1.0000000000000027E-06 
    9.9999999999999995E-07 
    9.9999999999999995E-07 
    9.9999999999999995E-07 
    9.9999999999999995E-07 
    9.9999999999999995E-07 
    9.9999999999999995E-07 
    1.0000000000311058E-06 
    1.0000000000548455E-06 
    1.0000000352303317E-06 
    1.0000000900909784E-06 
    1.0000000162374200E-06 
    1.0000004500727386E-06 
    1.0000003573154860E-06 
    1.0000000000001918E-06 
    1.0000000000000012E-06 
    9.9999999999999995E-07 
    9.9999999999999995E-07 
    9.9999999999999995E-07 
    9.9999999999999995E-07 
    9.9999999999999995E-07 
    9.9999999999999995E-07 
    9.9999999999999995E-07 
    9.9999999999999995E-07 
    9.9999999999999995E-07 
    9.9999999999999995E-07 
    1.0000000000000042E-06 
    9.9999999999999995E-07 
    1.0000000000000298E-06 
    1.0000000000000012E-06 
    9.9999999999999995E-07 
    9.9999999999999995E-07 
    9.9999999999999995E-07 
    9.9999999999999995E-07 
    9.9999999999999995E-07 
    9.9999999999999995E-07 
    9.9999999999999995E-07 
    9.9999999999999995E-07 
    9.9999999999999995E-07 
    9.9999999999999995E-07 
    9.9999999999999995E-07 
    9.9999999999999995E-07 
    9.9999999999999995E-07 
    9.9999999999999995E-07 
    9.9999999999999995E-07 
    9.9999999999999995E-07 
    9.9999999999999995E-07 
    9.9999999999999995E-07 
    9.9999999999999995E-07 
    9.9999999999999995E-07 
    9.9999999999999995E-07 
    9.9999999999999995E-07 
    9.9999999999999995E-07 
    9.9999999999999995E-07 
    9.9999999999999995E-07 
    9.9999999999999995E-07 
    9.9999999999999995E-07 
    9.9999999999999995E-07 
    9.9999999999999995E-07 
    9.9999999999999995E-07 
    9.9999999999999995E-07 
    9.9999999999999995E-07 
    9.9999999999999995E-07 
    9.9999999999999995E-07 
    9.9999999999999995E-07 
    9.9999999999999995E-07 
    9.9999999999999995E-07 
    9.9999999999999995E-07 
    1.0000002545943656E-06 
