# vtk DataFile Version 2.0
Pressure Field Data 
ASCII 
DATASET UNSTRUCTURED_GRID 

POINTS 289 double 

    0.0000000000000000E+00     0.0000000000000000E+00     0.0000000000000000E+00 
    1.0000000000000000E+00     0.0000000000000000E+00     0.0000000000000000E+00 
    1.0000000000000000E+00     1.0000000000000000E+00     0.0000000000000000E+00 
    0.0000000000000000E+00     1.0000000000000000E+00     0.0000000000000000E+00 
    6.2499999999872928E-02     0.0000000000000000E+00     0.0000000000000000E+00 
    1.2499999999977310E-01     0.0000000000000000E+00     0.0000000000000000E+00 
    1.8749999999959341E-01     0.0000000000000000E+00     0.0000000000000000E+00 
    2.4999999999941089E-01     0.0000000000000000E+00     0.0000000000000000E+00 
    3.1249999999922851E-01     0.0000000000000000E+00     0.0000000000000000E+00 
    3.7499999999904610E-01     0.0000000000000000E+00     0.0000000000000000E+00 
    4.3749999999886358E-01     0.0000000000000000E+00     0.0000000000000000E+00 
    4.9999999999869210E-01     0.0000000000000000E+00     0.0000000000000000E+00 
    5.6249999999884603E-01     0.0000000000000000E+00     0.0000000000000000E+00 
    6.2499999999901090E-01     0.0000000000000000E+00     0.0000000000000000E+00 
    6.8749999999917577E-01     0.0000000000000000E+00     0.0000000000000000E+00 
    7.4999999999934064E-01     0.0000000000000000E+00     0.0000000000000000E+00 
    8.1249999999950551E-01     0.0000000000000000E+00     0.0000000000000000E+00 
    8.7499999999967026E-01     0.0000000000000000E+00     0.0000000000000000E+00 
    9.3749999999983513E-01     0.0000000000000000E+00     0.0000000000000000E+00 
    1.0000000000000000E+00     6.2499999999872928E-02     0.0000000000000000E+00 
    1.0000000000000000E+00     1.2499999999977310E-01     0.0000000000000000E+00 
    1.0000000000000000E+00     1.8749999999959341E-01     0.0000000000000000E+00 
    1.0000000000000000E+00     2.4999999999941089E-01     0.0000000000000000E+00 
    1.0000000000000000E+00     3.1249999999922851E-01     0.0000000000000000E+00 
    1.0000000000000000E+00     3.7499999999904610E-01     0.0000000000000000E+00 
    1.0000000000000000E+00     4.3749999999886358E-01     0.0000000000000000E+00 
    1.0000000000000000E+00     4.9999999999869210E-01     0.0000000000000000E+00 
    1.0000000000000000E+00     5.6249999999884603E-01     0.0000000000000000E+00 
    1.0000000000000000E+00     6.2499999999901090E-01     0.0000000000000000E+00 
    1.0000000000000000E+00     6.8749999999917577E-01     0.0000000000000000E+00 
    1.0000000000000000E+00     7.4999999999934064E-01     0.0000000000000000E+00 
    1.0000000000000000E+00     8.1249999999950551E-01     0.0000000000000000E+00 
    1.0000000000000000E+00     8.7499999999967026E-01     0.0000000000000000E+00 
    1.0000000000000000E+00     9.3749999999983513E-01     0.0000000000000000E+00 
    9.3749999999973976E-01     1.0000000000000000E+00     0.0000000000000000E+00 
    8.7499999999950118E-01     1.0000000000000000E+00     0.0000000000000000E+00 
    8.1249999999991318E-01     1.0000000000000000E+00     0.0000000000000000E+00 
    7.5000000000034706E-01     1.0000000000000000E+00     0.0000000000000000E+00 
    6.8750000000078049E-01     1.0000000000000000E+00     0.0000000000000000E+00 
    6.2500000000121403E-01     1.0000000000000000E+00     0.0000000000000000E+00 
    5.6250000000164757E-01     1.0000000000000000E+00     0.0000000000000000E+00 
    5.0000000000205946E-01     1.0000000000000000E+00     0.0000000000000000E+00 
    4.3750000000182099E-01     1.0000000000000000E+00     0.0000000000000000E+00 
    3.7500000000156092E-01     1.0000000000000000E+00     0.0000000000000000E+00 
    3.1250000000130068E-01     1.0000000000000000E+00     0.0000000000000000E+00 
    2.5000000000104050E-01     1.0000000000000000E+00     0.0000000000000000E+00 
    1.8750000000078040E-01     1.0000000000000000E+00     0.0000000000000000E+00 
    1.2500000000052031E-01     1.0000000000000000E+00     0.0000000000000000E+00 
    6.2500000000260125E-02     1.0000000000000000E+00     0.0000000000000000E+00 
    0.0000000000000000E+00     9.3749999999973976E-01     0.0000000000000000E+00 
    0.0000000000000000E+00     8.7499999999950118E-01     0.0000000000000000E+00 
    0.0000000000000000E+00     8.1249999999991318E-01     0.0000000000000000E+00 
    0.0000000000000000E+00     7.5000000000034706E-01     0.0000000000000000E+00 
    0.0000000000000000E+00     6.8750000000078049E-01     0.0000000000000000E+00 
    0.0000000000000000E+00     6.2500000000121403E-01     0.0000000000000000E+00 
    0.0000000000000000E+00     5.6250000000164757E-01     0.0000000000000000E+00 
    0.0000000000000000E+00     5.0000000000205946E-01     0.0000000000000000E+00 
    0.0000000000000000E+00     4.3750000000182099E-01     0.0000000000000000E+00 
    0.0000000000000000E+00     3.7500000000156092E-01     0.0000000000000000E+00 
    0.0000000000000000E+00     3.1250000000130068E-01     0.0000000000000000E+00 
    0.0000000000000000E+00     2.5000000000104050E-01     0.0000000000000000E+00 
    0.0000000000000000E+00     1.8750000000078040E-01     0.0000000000000000E+00 
    0.0000000000000000E+00     1.2500000000052031E-01     0.0000000000000000E+00 
    0.0000000000000000E+00     6.2500000000260125E-02     0.0000000000000000E+00 
    6.2499999999897131E-02     6.2500000000235922E-02     0.0000000000000000E+00 
    6.2499999999921327E-02     1.2500000000047351E-01     0.0000000000000000E+00 
    6.2499999999945530E-02     1.8750000000070621E-01     0.0000000000000000E+00 
    6.2499999999969733E-02     2.5000000000093858E-01     0.0000000000000000E+00 
    6.2499999999993928E-02     3.1250000000117117E-01     0.0000000000000000E+00 
    6.2500000000018124E-02     3.7500000000140382E-01     0.0000000000000000E+00 
    6.2500000000042327E-02     4.3750000000163619E-01     0.0000000000000000E+00 
    6.2500000000066530E-02     5.0000000000184897E-01     0.0000000000000000E+00 
    6.2500000000090733E-02     5.6250000000147260E-01     0.0000000000000000E+00 
    6.2500000000114922E-02     6.2500000000107636E-01     0.0000000000000000E+00 
    6.2500000000139125E-02     6.8750000000068034E-01     0.0000000000000000E+00 
    6.2500000000163328E-02     7.5000000000028411E-01     0.0000000000000000E+00 
    6.2500000000187531E-02     8.1249999999988787E-01     0.0000000000000000E+00 
    6.2500000000211720E-02     8.7499999999951172E-01     0.0000000000000000E+00 
    6.2500000000235922E-02     9.3749999999974565E-01     0.0000000000000000E+00 
    1.2499999999981980E-01     6.2500000000211733E-02     0.0000000000000000E+00 
    1.2499999999986650E-01     1.2500000000042691E-01     0.0000000000000000E+00 
    1.2499999999991319E-01     1.8750000000063199E-01     0.0000000000000000E+00 
    1.2499999999995989E-01     2.5000000000083678E-01     0.0000000000000000E+00 
    1.2500000000000661E-01     3.1250000000104172E-01     0.0000000000000000E+00 
    1.2500000000005329E-01     3.7500000000124661E-01     0.0000000000000000E+00 
    1.2500000000010000E-01     4.3750000000145117E-01     0.0000000000000000E+00 
    1.2500000000014669E-01     5.0000000000163858E-01     0.0000000000000000E+00 
    1.2500000000019340E-01     5.6250000000129741E-01     0.0000000000000000E+00 
    1.2500000000024011E-01     6.2500000000093847E-01     0.0000000000000000E+00 
    1.2500000000028680E-01     6.8750000000057998E-01     0.0000000000000000E+00 
    1.2500000000033351E-01     7.5000000000022127E-01     0.0000000000000000E+00 
    1.2500000000038020E-01     8.1249999999986211E-01     0.0000000000000000E+00 
    1.2500000000042691E-01     8.7499999999952238E-01     0.0000000000000000E+00 
    1.2500000000047359E-01     9.3749999999975164E-01     0.0000000000000000E+00 
    1.8749999999966760E-01     6.2500000000187531E-02     0.0000000000000000E+00 
    1.8749999999974179E-01     1.2500000000038020E-01     0.0000000000000000E+00 
    1.8749999999981601E-01     1.8750000000055780E-01     0.0000000000000000E+00 
    1.8749999999989009E-01     2.5000000000073502E-01     0.0000000000000000E+00 
    1.8749999999996431E-01     3.1250000000091221E-01     0.0000000000000000E+00 
    1.8750000000003850E-01     3.7500000000108941E-01     0.0000000000000000E+00 
    1.8750000000011269E-01     4.3750000000126649E-01     0.0000000000000000E+00 
    1.8750000000018691E-01     5.0000000000142808E-01     0.0000000000000000E+00 
    1.8750000000026110E-01     5.6250000000112244E-01     0.0000000000000000E+00 
    1.8750000000033529E-01     6.2500000000080080E-01     0.0000000000000000E+00 
    1.8750000000040951E-01     6.8750000000047962E-01     0.0000000000000000E+00 
    1.8750000000048361E-01     7.5000000000015843E-01     0.0000000000000000E+00 
    1.8750000000055780E-01     8.1249999999983680E-01     0.0000000000000000E+00 
    1.8750000000063199E-01     8.7499999999953304E-01     0.0000000000000000E+00 
    1.8750000000070621E-01     9.3749999999975764E-01     0.0000000000000000E+00 
    2.4999999999951281E-01     6.2500000000163314E-02     0.0000000000000000E+00 
    2.4999999999961461E-01     1.2500000000033351E-01     0.0000000000000000E+00 
    2.4999999999971650E-01     1.8750000000048361E-01     0.0000000000000000E+00 
    2.4999999999981831E-01     2.5000000000063310E-01     0.0000000000000000E+00 
    2.4999999999992020E-01     3.1250000000078260E-01     0.0000000000000000E+00 
    2.5000000000002198E-01     3.7500000000093209E-01     0.0000000000000000E+00 
    2.5000000000012390E-01     4.3750000000108180E-01     0.0000000000000000E+00 
    2.5000000000022571E-01     5.0000000000121769E-01     0.0000000000000000E+00 
    2.5000000000032763E-01     5.6250000000094724E-01     0.0000000000000000E+00 
    2.5000000000042938E-01     6.2500000000066314E-01     0.0000000000000000E+00 
    2.5000000000053119E-01     6.8750000000037925E-01     0.0000000000000000E+00 
[...]
CELL_DATA 256 
SCALARS Pressure double 1 
LOOKUP_TABLE default 

    1.0640525195289907E+00 
    1.0117535396221624E+00 
    9.7567839153721092E-01 
    9.4563500037727788E-01 
    9.1831307094807657E-01 
    8.9369013767382854E-01 
    8.7160450111697119E-01 
    8.5058060662036905E-01 
    8.2732602230925190E-01 
    8.0696732343025679E-01 
    7.9281424791715271E-01 
    7.8285922050009027E-01 
    7.7635748682661632E-01 
    7.7258844065360510E-01 
    7.7082872640666122E-01 
    7.7035153984506721E-01 
    1.0117764930081219E+00 
    1.0008187099643215E+00 
    9.7691804398347803E-01 
    9.5084171155807273E-01 
    9.2481559999148288E-01 
    9.0032177643064548E-01 
    8.7797455856328543E-01 
    8.5704201926195567E-01 
    8.3404548160990155E-01 
    8.1187720742769276E-01 
    7.9596727371763232E-01 
    7.8458314045267741E-01 
    7.7699117453526423E-01 
    7.7248968812948160E-01 
    7.7036143163121507E-01 
    7.6988092068529701E-01 
    9.7570765865270759E-01 
    9.7693304761624800E-01 
    9.6511399190589797E-01 
    9.4607381899104648E-01 
    9.2382317558074289E-01 
    9.0106763974152493E-01 
    8.7934135501113486E-01 
    8.5875222713132959E-01 
    8.3650642945732756E-01 
    8.1330348075652070E-01 
    7.9600725991104415E-01 
    7.8358704842209870E-01 
    7.7526739427123015E-01 
    7.7039201879433827E-01 
    7.6825863351054402E-01 
    7.6814254154276895E-01 
    9.4564272108158787E-01 
    9.5084874610653591E-01 
    9.4607428790850090E-01 
    9.3340285502645004E-01 
    9.1575032611515039E-01 
    8.9578407038097418E-01 
    8.7547930672181129E-01 
    8.5562828167740368E-01 
    8.3448962336626464E-01 
    8.1097855431922561E-01 
    7.9235083292290642E-01 
    7.7920961274100897E-01 
    7.7048364890765486E-01 
    7.6556956801895026E-01 
    7.6378369073158481E-01 
    7.6439744555470790E-01 
    9.1827634651692946E-01 
    9.2478921880588616E-01 
    9.2380487684199142E-01 
    9.1574125052884303E-01 
    9.0220516272752072E-01 
    8.8524850106280406E-01 
    8.6675259750847977E-01 
    8.4788136427871053E-01 
    8.2778324820840743E-01 
    8.0436959928161444E-01 
    7.8445884719982206E-01 
    7.7084985176779752E-01 
    7.6197194575067062E-01 
    7.5730765653605003E-01 
    7.5619681272999761E-01 
    7.5789639772581985E-01 
    8.9361004259078480E-01 
    9.0025214120856589E-01 
    9.0101532096896830E-01 
    8.9575400779031811E-01 
    8.8523496531461132E-01 
    8.7081662652378966E-01 
    8.5399391512212608E-01 
    8.3597997546200076E-01 
    8.1642688777336203E-01 
    7.9301728406989735E-01 
    7.7198181502954621E-01 
    7.5800897230059583E-01 
    7.4911233871248684E-01 
    7.4490493005751290E-01 
    7.4475679450828391E-01 
    7.4788913016405079E-01 
    8.7149136608010513E-01 
    8.7786644445446416E-01 
    8.7925206329442263E-01 
    8.7542007129571686E-01 
    8.6671823002115622E-01 
    8.5397660866628589E-01 
    8.3827660155926931E-01 
    8.2066094467375117E-01 
    8.0069248490867573E-01 
    7.7682964346283800E-01 
    7.5486167897788825E-01 
    7.4034885202613610E-01 
    7.3135025597301551E-01 
    7.2766264613068143E-01 
    7.2869777961003168E-01 
    7.3360402703347150E-01 
    8.5045417830762693E-01 
    8.5691638592805686E-01 
    8.5864274496072901E-01 
    8.5554826933295192E-01 
    8.4782630189710018E-01 
    8.3594187194371172E-01 
    8.2063892913475700E-01 
    8.0268873698985677E-01 
    7.8101154345991530E-01 
    7.5601475498563830E-01 
    7.3323369649773906E-01 
    7.1771225537160299E-01 
    7.0821308312178721E-01 
    7.0486665727563480E-01 
    7.0718342104661669E-01 
    7.1418945107896448E-01 
    8.2721956831065324E-01 
    8.3394643089499787E-01 
    8.3642301192403301E-01 
    8.3441673924731219E-01 
    8.2771434416319811E-01 
    8.1635799351650495E-01 
    8.0063002702163977E-01 
    7.8097119553240224E-01 
    7.5728335761811283E-01 
    7.3113498337278748E-01 
    7.0765697355586665E-01 
    6.9024810346881260E-01 
    6.7936993109169785E-01 
    6.7577516660094927E-01 
    6.7924567975219130E-01 
    6.8865063523048475E-01 
    8.0689098135095294E-01 
    8.1180308949804636E-01 
    8.1324158478948316E-01 
    8.1092828024235974E-01 
    8.0431299623782515E-01 
    7.9294753540619478E-01 
    7.7675538886580997E-01 
    7.5595353260542320E-01 
    7.3110622579541262E-01 
    7.0415863298025472E-01 
    6.7930868617764750E-01 
    6.5863157470128564E-01 
    6.4478074433951904E-01 
    6.3963456052548306E-01 
    6.4368277344398073E-01 
    6.5571555329035580E-01 
    7.9275123677563453E-01 
    7.9590102146484643E-01 
    7.9594097455058410E-01 
    7.9228869921668765E-01 
    7.8440190426658107E-01 
    7.7192924603886426E-01 
    7.5481295885948929E-01 
    7.3319401774197879E-01 
    7.0763276333140002E-01 
    6.7929812046702276E-01 
    6.5049364927377473E-01 
    6.2448071370832614E-01 
    6.0503836696958513E-01 
    5.9580041493623359E-01 
    5.9890921360882532E-01 
    6.1357996014060168E-01 
    7.8280586991859968E-01 
    7.8452475434065638E-01 
    7.8352440198705264E-01 
    7.7914775054424190E-01 
    7.7079259557384316E-01 
    7.5795676083974417E-01 
    7.4030137452648059E-01 
    7.1767168449158603E-01 
    6.9021779719416620E-01 
    6.5861252093453182E-01 
    6.2447186818693212E-01 
    5.9074690270599861E-01 
    5.6199217536531698E-01 
    5.4414684963007898E-01 
    5.4278520920944373E-01 
    5.5938360616434990E-01 
    7.7631325594591671E-01 
    7.7694115189335045E-01 
    7.7521042337843549E-01 
    7.7042416070296660E-01 
    7.6191506058249314E-01 
    7.4905988051606343E-01 
    7.3130246549063493E-01 
    7.0817106148965348E-01 
    6.7933569959543394E-01 
    6.4475576181310157E-01 
    6.0502262125279249E-01 
    5.6198488323415019E-01 
    5.1979895831154987E-01 
    4.8625552886335505E-01 
    4.7268690829653659E-01 
    4.8809301698070806E-01 
    7.7255332537295096E-01 
    7.7244886683209635E-01 
    7.7034177330495057E-01 
    7.6551286547376418E-01 
    7.5725082283792500E-01 
    7.4485161285214985E-01 
    7.2761359895098410E-01 
    7.0482264092344682E-01 
    6.7573774417525778E-01 
    6.3960522243923090E-01 
    5.9577939453059059E-01 
    5.4413365526540536E-01 
    4.8624934302494149E-01 
    4.2838926970879504E-01 
    3.8704246853280011E-01 
    3.8991051382884712E-01 
    7.7080164398889328E-01 
    7.7033013774097880E-01 
    7.6821596434362716E-01 
    7.6372983594676280E-01 
    7.5613941557963804E-01 
    7.4470211574260059E-01 
    7.2864691341617538E-01 
    7.0713705438025809E-01 
    6.7920531816564034E-01 
    6.4364995860218854E-01 
    5.9888403613250984E-01 
    5.4276723724816223E-01 
    4.7267559429117667E-01 
    3.8703726794991905E-01 
    2.9345273948541895E-01 
    2.4379533675865722E-01 
    7.7032930995447546E-01 
    7.6985722746362151E-01 
    7.6810639474622311E-01 
    7.6434548791314305E-01 
    7.5783752878595600E-01 
    7.4783277923353531E-01 
    7.3355084779256163E-01 
    7.1414035733649550E-01 
    6.8860721463084829E-01 
    6.5567957967397683E-01 
    6.1355118025123323E-01 
    5.5936161807968376E-01 
    4.8807749105166764E-01 
    3.8990119038476129E-01 
    2.4379145902389612E-01 
    0.0000000000000000E+00 

SCALARS Saturarion double 1 
LOOKUP_TABLE default 

    1.0000000000000002E+00 
    9.5661231609419506E-01 
    8.8134067094594393E-01 
    7.6606380622540537E-01 
    6.8090146516274408E-01 
    6.1898822378621987E-01 
    5.6238191328416198E-01 
    4.6610699813890116E-01 
    1.3363973997249545E-01 
    1.0020660100133679E-06 
    1.0000000010956131E-06 
    9.9999999999999995E-07 
    9.9999999999999995E-07 
    9.9999999999999995E-07 
    9.9999999999999995E-07 
    9.9999999999999995E-07 
    9.5638335093700932E-01 
    9.1972475535652420E-01 
    8.5393754911677644E-01 
    7.6255776991321422E-01 
    6.8536616514586512E-01 
    6.2525293115691405E-01 
    5.6960157552604429E-01 
    4.8767687037828394E-01 
    2.2399916127939520E-01 
    4.8335431966080289E-04 
    1.0074194241409412E-06 
    1.0000000009473595E-06 
    9.9999999999999995E-07 
    9.9999999999999995E-07 
    9.9999999999999995E-07 
    9.9999999999999995E-07 
    8.8065721558028720E-01 
    8.5359497765781867E-01 
    8.0108718818502100E-01 
    7.3837213758565579E-01 
    6.7702064179755339E-01 
    6.2402437276928102E-01 
    5.7358208362725116E-01 
    5.0729129475003676E-01 
    3.2742196440015564E-01 
    1.3706742149307047E-02 
    5.9356908750163789E-06 
    1.0000024564047415E-06 
    9.9999999999999974E-07 
    9.9999999999999995E-07 
    9.9999999999999995E-07 
    9.9999999999999995E-07 
    7.6469125958156059E-01 
    7.6173742233254593E-01 
    7.3805268119094891E-01 
    6.9955944723402008E-01 
    6.5529073403964522E-01 
    6.1377943392284451E-01 
    5.7296666566671073E-01 
    5.1810769436867032E-01 
    3.9398602017903850E-01 
    5.5383480766553042E-02 
    3.7895997853405315E-05 
    1.0001379349981770E-06 
    1.0000000000010564E-06 
    9.9999999999999995E-07 
    9.9999999999999995E-07 
    9.9999999999999995E-07 
    6.7945207816841791E-01 
    6.8429296966499775E-01 
    6.7646250218726800E-01 
    6.5506354572867598E-01 
    6.2723223327300193E-01 
    5.9804750076204471E-01 
    5.6589656133798560E-01 
    5.2235649702009745E-01 
    4.2813607427831946E-01 
    1.1360911283716837E-01 
    2.9453546514008084E-05 
    1.0000943102899530E-06 
    1.0000000000250243E-06 
    9.9999999999999995E-07 
    9.9999999999999995E-07 
    9.9999999999999995E-07 
    6.1760000877763921E-01 
    6.2428035646714319E-01 
    6.2337454811276061E-01 
    6.1325342682823758E-01 
    5.9770354188661812E-01 
    5.7699528019489488E-01 
    5.5110275411375498E-01 
    5.1745619117447672E-01 
    4.4190559188882472E-01 
    1.4807730716921452E-01 
    9.9858608643847333E-06 
    1.0000114625424175E-06 
    1.0000000000000031E-06 
    9.9999999999999995E-07 
    9.9999999999999995E-07 
    9.9999999999999995E-07 
    5.6083305369798642E-01 
    5.6904127634889112E-01 
    5.7328762273733525E-01 
    5.7247865175942336E-01 
    5.6527222529925369E-01 
    5.5079160797487403E-01 
    5.3058480103572059E-01 
    5.0347878786291445E-01 
    4.3767929536770711E-01 
    1.5110817643615226E-01 
    3.2274331025082856E-05 
    1.0001960071467660E-06 
    1.0000000000951010E-06 
    9.9999999999999995E-07 
    9.9999999999999995E-07 
    9.9999999999999995E-07 
    4.6458263395414245E-01 
    4.8809059222130979E-01 
    5.0777086329929366E-01 
    5.1819682270774825E-01 
    5.2182988201100333E-01 
    5.1681304372687298E-01 
    5.0313492434511198E-01 
    4.7838414960900000E-01 
    4.0738784771719944E-01 
    1.0829054287384091E-01 
    9.1717849614670748E-05 
    1.0008937219602355E-06 
    1.0000000001148409E-06 
    9.9999999999999995E-07 
    9.9999999999999995E-07 
    9.9999999999999995E-07 
    1.3290862251346186E-01 
    2.2648888110804771E-01 
    3.3075165755654040E-01 
    3.9522855463479334E-01 
    4.2777323699282133E-01 
    4.4113372790544714E-01 
    4.3658316174623368E-01 
    4.0684417971743242E-01 
    2.8632508770249837E-01 
    2.5595720666089592E-02 
    2.7914383191516109E-05 
    1.0000515731614692E-06 
    1.0000000000000008E-06 
    9.9999999999999995E-07 
    9.9999999999999995E-07 
    9.9999999999999995E-07 
    1.0025193232301846E-06 
    5.4840872764469343E-04 
    1.4827581640938980E-02 
    5.6199877504640415E-02 
    1.1301783064250291E-01 
    1.4619454366341558E-01 
    1.4892463703058281E-01 
    1.0670476842036654E-01 
    2.5125107547324849E-02 
    1.0325545022633603E-04 
    1.0005771381735023E-06 
    1.0000000000319473E-06 
    9.9999999999999995E-07 
    9.9999999999999995E-07 
    9.9999999999999995E-07 
    9.9999999999999995E-07 
    1.0000000013611336E-06 
    1.0088670147158417E-06 
    6.5940878883359530E-06 
    3.5223237257370331E-05 
    2.6743401827873711E-05 
    8.8211259252582248E-06 
    3.0574367754018294E-05 
    9.2332279571204291E-05 
    2.6836102593871876E-05 
    1.0005407570727867E-06 
    1.0000000001092441E-06 
    9.9999999999999995E-07 
    9.9999999999999995E-07 
    9.9999999999999995E-07 
    9.9999999999999995E-07 
    9.9999999999999995E-07 
    9.9999999999999995E-07 
    1.0000000011359268E-06 
    1.0000030465003771E-06 
    1.0001146169923853E-06 
    1.0000769339048426E-06 
    1.0000097444099122E-06 
    1.0001746606405879E-06 
    1.0008697735623686E-06 
    1.0000475201805982E-06 
    1.0000000000297422E-06 
    9.9999999999999995E-07 
    9.9999999999999995E-07 
    9.9999999999999995E-07 
    9.9999999999999995E-07 
    9.9999999999999995E-07 
    9.9999999999999995E-07 
    9.9999999999999995E-07 
    9.9999999999999995E-07 
    9.9999999999999974E-07 
    1.0000000000011479E-06 
    1.0000000000211341E-06 
    1.0000000000000076E-06 
    1.0000000000839524E-06 
    1.0000000001099109E-06 
    1.0000000000000025E-06 
    9.9999999999999995E-07 
    9.9999999999999995E-07 
    9.9999999999999995E-07 
    9.9999999999999995E-07 
    9.9999999999999995E-07 
    9.9999999999999995E-07 
    9.9999999999999995E-07 
    9.9999999999999995E-07 
    9.9999999999999995E-07 
    9.9999999999999995E-07 
    9.9999999999999995E-07 
    9.9999999999999995E-07 
    9.9999999999999995E-07 
    9.9999999999999995E-07 
    9.9999999999999995E-07 
    9.9999999999999995E-07 
    9.9999999999999995E-07 
    9.9999999999999995E-07 
    9.9999999999999995E-07 
    9.9999999999999995E-07 
    9.9999999999999995E-07 
    9.9999999999999995E-07 
    9.9999999999999995E-07 
    9.9999999999999995E-07 
    9.9999999999999995E-07 
    9.9999999999999995E-07 
    9.9999999999999995E-07 
    9.9999999999999995E-07 
    9.9999999999999995E-07 
    9.9999999999999995E-07 
    9.9999999999999995E-07 
    9.9999999999999995E-07 
    9.9999999999999995E-07 
    9.9999999999999995E-07 
    9.9999999999999995E-07 
    9.9999999999999995E-07 
    9.9999999999999995E-07 
    9.9999999999999995E-07 
    9.9999999999999995E-07 
    9.9999999999999995E-07 
    9.9999999999999995E-07 
    9.9999999999999995E-07 
    9.9999999999999995E-07 
    9.9999999999999995E-07 
    9.9999999999999995E-07 
    9.9999999999999995E-07 
    9.9999999999999995E-07 
    9.9999999999999995E-07 
    9.9999999999999995E-07 
    9.9999999999999995E-07 
    9.9999999999999995E-07 
    9.9999999999999995E-07 
    9.9999999999999995E-07 
    9.9999999999999995E-07 
    1.0000002303432065E-06 
