# vtk DataFile Version 2.0
Pressure Field Data 
ASCII 
DATASET UNSTRUCTURED_GRID 

POINTS 289 double 

    0.0000000000000000E+00     0.0000000000000000E+00     0.0000000000000000E+00 
    1.0000000000000000E+00     0.0000000000000000E+00     0.0000000000000000E+00 
    1.0000000000000000E+00     1.0000000000000000E+00     0.0000000000000000E+00 
    0.0000000000000000E+00     1.0000000000000000E+00     0.0000000000000000E+00 
    6.2499999999872928E-02     0.0000000000000000E+00     0.0000000000000000E+00 
    1.2499999999977310E-01     0.0000000000000000E+00     0.0000000000000000E+00 
    1.8749999999959341E-01     0.0000000000000000E+00     0.0000000000000000E+00 
    2.4999999999941089E-01     0.0000000000000000E+00     0.0000000000000000E+00 
    3.1249999999922851E-01     0.0000000000000000E+00     0.0000000000000000E+00 
    3.7499999999904610E-01     0.0000000000000000E+00     0.0000000000000000E+00 
    4.3749999999886358E-01     0.0000000000000000E+00     0.0000000000000000E+00 
    4.9999999999869210E-01     0.0000000000000000E+00     0.0000000000000000E+00 
    5.6249999999884603E-01     0.0000000000000000E+00     0.0000000000000000E+00 
    6.2499999999901090E-01     0.0000000000000000E+00     0.0000000000000000E+00 
    6.8749999999917577E-01     0.0000000000000000E+00     0.0000000000000000E+00 
    7.4999999999934064E-01     0.0000000000000000E+00     0.0000000000000000E+00 
    8.1249999999950551E-01     0.0000000000000000E+00     0.0000000000000000E+00 
    8.7499999999967026E-01     0.0000000000000000E+00     0.0000000000000000E+00 
    9.3749999999983513E-01     0.0000000000000000E+00     0.0000000000000000E+00 
    1.0000000000000000E+00     6.2499999999872928E-02     0.0000000000000000E+00 
    1.0000000000000000E+00     1.2499999999977310E-01     0.0000000000000000E+00 
    1.0000000000000000E+00     1.8749999999959341E-01     0.0000000000000000E+00 
    1.0000000000000000E+00     2.4999999999941089E-01     0.0000000000000000E+00 
    1.0000000000000000E+00     3.1249999999922851E-01     0.0000000000000000E+00 
    1.0000000000000000E+00     3.7499999999904610E-01     0.0000000000000000E+00 
    1.0000000000000000E+00     4.3749999999886358E-01     0.0000000000000000E+00 
    1.0000000000000000E+00     4.9999999999869210E-01     0.0000000000000000E+00 
    1.0000000000000000E+00     5.6249999999884603E-01     0.0000000000000000E+00 
    1.0000000000000000E+00     6.2499999999901090E-01     0.0000000000000000E+00 
    1.0000000000000000E+00     6.8749999999917577E-01     0.0000000000000000E+00 
    1.0000000000000000E+00     7.4999999999934064E-01     0.0000000000000000E+00 
    1.0000000000000000E+00     8.1249999999950551E-01     0.0000000000000000E+00 
    1.0000000000000000E+00     8.7499999999967026E-01     0.0000000000000000E+00 
    1.0000000000000000E+00     9.3749999999983513E-01     0.0000000000000000E+00 
    9.3749999999973976E-01     1.0000000000000000E+00     0.0000000000000000E+00 
    8.7499999999950118E-01     1.0000000000000000E+00     0.0000000000000000E+00 
    8.1249999999991318E-01     1.0000000000000000E+00     0.0000000000000000E+00 
    7.5000000000034706E-01     1.0000000000000000E+00     0.0000000000000000E+00 
    6.8750000000078049E-01     1.0000000000000000E+00     0.0000000000000000E+00 
    6.2500000000121403E-01     1.0000000000000000E+00     0.0000000000000000E+00 
    5.6250000000164757E-01     1.0000000000000000E+00     0.0000000000000000E+00 
    5.0000000000205946E-01     1.0000000000000000E+00     0.0000000000000000E+00 
    4.3750000000182099E-01     1.0000000000000000E+00     0.0000000000000000E+00 
    3.7500000000156092E-01     1.0000000000000000E+00     0.0000000000000000E+00 
    3.1250000000130068E-01     1.0000000000000000E+00     0.0000000000000000E+00 
    2.5000000000104050E-01     1.0000000000000000E+00     0.0000000000000000E+00 
    1.8750000000078040E-01     1.0000000000000000E+00     0.0000000000000000E+00 
    1.2500000000052031E-01     1.0000000000000000E+00     0.0000000000000000E+00 
    6.2500000000260125E-02     1.0000000000000000E+00     0.0000000000000000E+00 
    0.0000000000000000E+00     9.3749999999973976E-01     0.0000000000000000E+00 
    0.0000000000000000E+00     8.7499999999950118E-01     0.0000000000000000E+00 
    0.0000000000000000E+00     8.1249999999991318E-01     0.0000000000000000E+00 
    0.0000000000000000E+00     7.5000000000034706E-01     0.0000000000000000E+00 
    0.0000000000000000E+00     6.8750000000078049E-01     0.0000000000000000E+00 
    0.0000000000000000E+00     6.2500000000121403E-01     0.0000000000000000E+00 
    0.0000000000000000E+00     5.6250000000164757E-01     0.0000000000000000E+00 
    0.0000000000000000E+00     5.0000000000205946E-01     0.0000000000000000E+00 
    0.0000000000000000E+00     4.3750000000182099E-01     0.0000000000000000E+00 
    0.0000000000000000E+00     3.7500000000156092E-01     0.0000000000000000E+00 
    0.0000000000000000E+00     3.1250000000130068E-01     0.0000000000000000E+00 
    0.0000000000000000E+00     2.5000000000104050E-01     0.0000000000000000E+00 
    0.0000000000000000E+00     1.8750000000078040E-01     0.0000000000000000E+00 
    0.0000000000000000E+00     1.2500000000052031E-01     0.0000000000000000E+00 
    0.0000000000000000E+00     6.2500000000260125E-02     0.0000000000000000E+00 
    6.2499999999897131E-02     6.2500000000235922E-02     0.0000000000000000E+00 
    6.2499999999921327E-02     1.2500000000047351E-01     0.0000000000000000E+00 
    6.2499999999945530E-02     1.8750000000070621E-01     0.0000000000000000E+00 
    6.2499999999969733E-02     2.5000000000093858E-01     0.0000000000000000E+00 
    6.2499999999993928E-02     3.1250000000117117E-01     0.0000000000000000E+00 
    6.2500000000018124E-02     3.7500000000140382E-01     0.0000000000000000E+00 
    6.2500000000042327E-02     4.3750000000163619E-01     0.0000000000000000E+00 
    6.2500000000066530E-02     5.0000000000184897E-01     0.0000000000000000E+00 
    6.2500000000090733E-02     5.6250000000147260E-01     0.0000000000000000E+00 
    6.2500000000114922E-02     6.2500000000107636E-01     0.0000000000000000E+00 
    6.2500000000139125E-02     6.8750000000068034E-01     0.0000000000000000E+00 
    6.2500000000163328E-02     7.5000000000028411E-01     0.0000000000000000E+00 
    6.2500000000187531E-02     8.1249999999988787E-01     0.0000000000000000E+00 
    6.2500000000211720E-02     8.7499999999951172E-01     0.0000000000000000E+00 
    6.2500000000235922E-02     9.3749999999974565E-01     0.0000000000000000E+00 
    1.2499999999981980E-01     6.2500000000211733E-02     0.0000000000000000E+00 
    1.2499999999986650E-01     1.2500000000042691E-01     0.0000000000000000E+00 
    1.2499999999991319E-01     1.8750000000063199E-01     0.0000000000000000E+00 
    1.2499999999995989E-01     2.5000000000083678E-01     0.0000000000000000E+00 
    1.2500000000000661E-01     3.1250000000104172E-01     0.0000000000000000E+00 
    1.2500000000005329E-01     3.7500000000124661E-01     0.0000000000000000E+00 
    1.2500000000010000E-01     4.3750000000145117E-01     0.0000000000000000E+00 
    1.2500000000014669E-01     5.0000000000163858E-01     0.0000000000000000E+00 
    1.2500000000019340E-01     5.6250000000129741E-01     0.0000000000000000E+00 
    1.2500000000024011E-01     6.2500000000093847E-01     0.0000000000000000E+00 
    1.2500000000028680E-01     6.8750000000057998E-01     0.0000000000000000E+00 
    1.2500000000033351E-01     7.5000000000022127E-01     0.0000000000000000E+00 
    1.2500000000038020E-01     8.1249999999986211E-01     0.0000000000000000E+00 
    1.2500000000042691E-01     8.7499999999952238E-01     0.0000000000000000E+00 
    1.2500000000047359E-01     9.3749999999975164E-01     0.0000000000000000E+00 
    1.8749999999966760E-01     6.2500000000187531E-02     0.0000000000000000E+00 
    1.8749999999974179E-01     1.2500000000038020E-01     0.0000000000000000E+00 
    1.8749999999981601E-01     1.8750000000055780E-01     0.0000000000000000E+00 
    1.8749999999989009E-01     2.5000000000073502E-01     0.0000000000000000E+00 
    1.8749999999996431E-01     3.1250000000091221E-01     0.0000000000000000E+00 
    1.8750000000003850E-01     3.7500000000108941E-01     0.0000000000000000E+00 
    1.8750000000011269E-01     4.3750000000126649E-01     0.0000000000000000E+00 
    1.8750000000018691E-01     5.0000000000142808E-01     0.0000000000000000E+00 
    1.8750000000026110E-01     5.6250000000112244E-01     0.0000000000000000E+00 
    1.8750000000033529E-01     6.2500000000080080E-01     0.0000000000000000E+00 
    1.8750000000040951E-01     6.8750000000047962E-01     0.0000000000000000E+00 
    1.8750000000048361E-01     7.5000000000015843E-01     0.0000000000000000E+00 
    1.8750000000055780E-01     8.1249999999983680E-01     0.0000000000000000E+00 
    1.8750000000063199E-01     8.7499999999953304E-01     0.0000000000000000E+00 
    1.8750000000070621E-01     9.3749999999975764E-01     0.0000000000000000E+00 
    2.4999999999951281E-01     6.2500000000163314E-02     0.0000000000000000E+00 
    2.4999999999961461E-01     1.2500000000033351E-01     0.0000000000000000E+00 
    2.4999999999971650E-01     1.8750000000048361E-01     0.0000000000000000E+00 
    2.4999999999981831E-01     2.5000000000063310E-01     0.0000000000000000E+00 
    2.4999999999992020E-01     3.1250000000078260E-01     0.0000000000000000E+00 
    2.5000000000002198E-01     3.7500000000093209E-01     0.0000000000000000E+00 
    2.5000000000012390E-01     4.3750000000108180E-01     0.0000000000000000E+00 
    2.5000000000022571E-01     5.0000000000121769E-01     0.0000000000000000E+00 
    2.5000000000032763E-01     5.6250000000094724E-01     0.0000000000000000E+00 
    2.5000000000042938E-01     6.2500000000066314E-01     0.0000000000000000E+00 
    2.5000000000053119E-01     6.8750000000037925E-01     0.0000000000000000E+00 
[...]
CELL_DATA 256 
SCALARS Pressure double 1 
LOOKUP_TABLE default 

    6.8259674636625389E-01 
    6.3286282883731504E-01 
    6.0185812663682381E-01 
    5.7965491050107210E-01 
    5.6209046026589626E-01 
    5.4744831658078508E-01 
    5.3505825845914934E-01 
    5.2462687976755651E-01 
    5.1599975589984282E-01 
    5.0908937385684971E-01 
    5.0381713384317517E-01 
    4.9988640674456331E-01 
    4.9651330378233316E-01 
    4.9417559425828017E-01 
    4.9314247554995899E-01 
    4.9286484312209522E-01 
    6.3286774046484506E-01 
    6.2261922335230835E-01 
    6.0250892068349449E-01 
    5.8310419710496875E-01 
    5.6601161631620689E-01 
    5.5111841179899868E-01 
    5.3821708631269793E-01 
    5.2717560427432864E-01 
    5.1791267914725725E-01 
    5.1038432334712802E-01 
    5.0456343235143586E-01 
    5.0027130221469218E-01 
    4.9678673725401368E-01 
    4.9410067258960028E-01 
    4.9286019152667609E-01 
    4.9258586579729036E-01 
    6.0186511521792507E-01 
    6.0251264692482964E-01 
    5.9319851822265623E-01 
    5.7958774325370044E-01 
    5.6512281921875640E-01 
    5.5124664732237350E-01 
    5.3856152967794424E-01 
    5.2733906942519926E-01 
    5.1771290052889507E-01 
    5.0976233061196197E-01 
    5.0354194117842743E-01 
    4.9899705048641568E-01 
    4.9560205810171271E-01 
    4.9287170530137425E-01 
    4.9161334893674330E-01 
    4.9155643876828092E-01 
    5.7965958140700669E-01 
    5.8310783276290834E-01 
    5.7958930460856717E-01 
    5.7102231475463050E-01 
    5.5983233463310178E-01 
    5.4776642562810518E-01 
    5.3590918599183990E-01 
    5.2491468242950745E-01 
    5.1518503059851262E-01 
    5.0698321981491523E-01 
    5.0048776847915866E-01 
    4.9577267062388913E-01 
    4.9255548843989388E-01 
    4.9007599054381151E-01 
    4.8897078594604471E-01 
    4.8935068520610248E-01 
    5.6209036540341295E-01 
    5.6601184975795216E-01 
    5.6512321422102019E-01 
    5.5983277014801869E-01 
    5.5141299308600278E-01 
    5.4124503362488319E-01 
    5.3046690650017025E-01 
    5.1992949700940383E-01 
    5.1025278188773671E-01 
    5.0189273290862513E-01 
    4.9518122520639224E-01 
    4.9033018751517149E-01 
    4.8725902610895927E-01 
    4.8524491459339858E-01 
    4.8451814785032143E-01 
    4.8554995384869976E-01 
    5.4744404816065484E-01 
    5.5111422485087747E-01 
    5.5124343768210926E-01 
    5.4776501584600756E-01 
    5.4124428467700858E-01 
    5.3259423242256898E-01 
    5.2278119200177287E-01 
    5.1268034841164822E-01 
    5.0303878507788280E-01 
    4.9447749996189178E-01 
    4.8749381329565555E-01 
    4.8245227503132426E-01 
    4.7947983955235463E-01 
    4.7803271225518640E-01 
    4.7788064150915555E-01 
    4.7973591534921717E-01 
    5.3504877551146546E-01 
    5.3820799473692027E-01 
    5.3855337428746808E-01 
    5.3590351249213797E-01 
    5.3046299939979180E-01 
    5.2277851373177608E-01 
    5.1358632571121987E-01 
    5.0368627558006362E-01 
    4.9387171991889411E-01 
    4.8488983298269850E-01 
    4.7740771871593141E-01 
    4.7196933277170627E-01 
    4.6892528972234826E-01 
    4.6801553074014918E-01 
    4.6859693141870767E-01 
    4.7142143376950874E-01 
    5.2460910679282491E-01 
    5.2715964592835374E-01 
    5.2732511473796961E-01 
    5.2490360300043115E-01 
    5.1992045124243158E-01 
    5.1267271496259559E-01 
    5.0368152893180218E-01 
    4.9362425612090738E-01 
    4.8327975312781551E-01 
    4.7348244159919833E-01 
    4.6507162452641543E-01 
    4.5881718528396337E-01 
    4.5533232179403027E-01 
    4.5468391798229968E-01 
    4.5602580802034598E-01 
    4.6004168981894994E-01 
    5.1597217095845682E-01 
    5.1788778348289566E-01 
    5.1769155857306326E-01 
    5.1516773963170825E-01 
    5.1023741077394524E-01 
    5.0302419829678713E-01 
    4.9385994496092694E-01 
    4.8327333811000972E-01 
    4.7197528559978336E-01 
    4.6083971274155783E-01 
    4.5086686976385770E-01 
    4.4310318992844139E-01 
    4.3851095102745608E-01 
    4.3755388468174833E-01 
    4.3955460685528691E-01 
    4.4497661868374849E-01 
    5.0905146834620718E-01 
    5.1034872451946123E-01 
    5.0973076372323012E-01 
    5.0695743779509106E-01 
    5.0186958776585588E-01 
    4.9445448544539716E-01 
    4.8486906986002531E-01 
    4.7346772386564612E-01 
    4.6083214724679078E-01 
    4.4780006768601915E-01 
    4.3547937466514175E-01 
    4.2521378009826549E-01 
    4.1844540384769768E-01 
    4.1627406242328607E-01 
    4.1848406941973115E-01 
    4.2531446207861334E-01 
    5.0376823107776492E-01 
    5.0451524684996196E-01 
    5.0349718500374818E-01 
    5.0045014741719440E-01 
    4.9514759227013466E-01 
    4.8746021771703757E-01 
    4.7737588256859204E-01 
    4.6504632746863200E-01 
    4.5084985370433223E-01 
    4.3547060496359796E-01 
    4.1999207848744358E-01 
    4.0597673346335361E-01 
    3.9542601558043217E-01 
    3.9041244020204324E-01 
    3.9175463793901844E-01 
    3.9959030374496407E-01 
    4.9982899950814341E-01 
    5.0021333486711983E-01 
    4.9894144650188110E-01 
    4.9572427419060205E-01 
    4.9028548563913693E-01 
    4.8240596626042764E-01 
    4.7192367868080343E-01 
    4.5877811030290622E-01 
    4.4307371223142000E-01 
    4.2519403559315055E-01 
    4.0596822650201436E-01 
    3.8691954121908723E-01 
    3.7047563696970387E-01 
    3.5992574864987825E-01 
    3.5804646328344514E-01 
    3.6570667140671143E-01 
    4.9645519466957455E-01 
    4.9673043436206360E-01 
    4.9554828711454618E-01 
    4.9250618187596473E-01 
    4.8721046082193820E-01 
    4.7942339270632234E-01 
    4.6886522449676743E-01 
    4.5527700504425372E-01 
    4.3846692475080556E-01 
    4.1841371803670591E-01 
    3.9541179440518032E-01 
    3.7047507434161780E-01 
    3.4586339933188326E-01 
    3.2574967744295458E-01 
    3.1606764433718448E-01 
    3.2086511568518661E-01 
    4.9412013954689482E-01 
    4.9404637928261541E-01 
    4.9282041030817986E-01 
    4.9002904642727996E-01 
    4.8519959580161420E-01 
    4.7798141758686485E-01 
    4.6795594076984354E-01 
    4.5462567456965780E-01 
    4.3750723077395970E-01 
    4.1624355259745233E-01 
    3.9040925858595282E-01 
    3.5994741966479660E-01 
    3.2577449350543930E-01 
    2.9118397315543576E-01 
    2.6479558551413240E-01 
    2.5909297774535084E-01 
    4.9308767256827502E-01 
    4.9280581471154949E-01 
    4.9156008742056340E-01 
    4.8891871634554374E-01 
    4.8446921137413290E-01 
    4.7783092398242832E-01 
    4.6854092140841869E-01 
    4.5597189646139497E-01 
    4.3950495201849127E-01 
    4.1846885196096739E-01 
    3.9177141127917298E-01 
    3.5809687312930732E-01 
    3.1613105749958292E-01 
    2.6481669433530730E-01 
    2.0755309804926778E-01 
    1.6698667391116881E-01 
    4.9281023443859234E-01 
    4.9253153336378491E-01 
    4.9150291310779926E-01 
    4.8929828790694441E-01 
    4.8549941625912246E-01 
    4.7968529374124003E-01 
    4.7136710397795334E-01 
    4.5998542882984672E-01 
    4.4491560844938277E-01 
    4.2528746864898231E-01 
    3.9961826588016047E-01 
    3.6575042083942555E-01 
    3.2094513363113936E-01 
    2.5912890433210134E-01 
    1.6694830860317400E-01 
    0.0000000000000000E+00 

SCALARS Saturarion double 1 
LOOKUP_TABLE default 

    1.0000000000000000E+00 
    9.8757302766428490E-01 
    9.6457879219329878E-01 
    9.2385337251037747E-01 
    8.7008407790726561E-01 
    8.1502893718483926E-01 
    7.6220546259267941E-01 
    7.1051693050455600E-01 
    6.5939176697849533E-01 
    6.0982998999630977E-01 
    5.6186465579814726E-01 
    4.8215333281480871E-01 
    1.6619438135192943E-01 
    1.0325689340390379E-06 
    1.0000000056836480E-06 
    9.9999999999999995E-07 
    9.8753217981828678E-01 
    9.7661925421504669E-01 
    9.5565015575701273E-01 
    9.2147547101508831E-01 
    8.7446856223256897E-01 
    8.2343988861886519E-01 
    7.7261156648771334E-01 
    7.2227498715284777E-01 
    6.7207584263001907E-01 
    6.2260855935069859E-01 
    5.7496719780914562E-01 
    5.0781929653347802E-01 
    2.8898859112071285E-01 
    4.3720501864280168E-03 
    1.3911752273817028E-06 
    1.0000000249284312E-06 
    9.6444085821929193E-01 
    9.5556480757897588E-01 
    9.3552073728794749E-01 
    9.0779586834599257E-01 
    8.7047146497245775E-01 
    8.2759853866545130E-01 
    7.8248183181254516E-01 
    7.3601223994662690E-01 
    6.8830200408079745E-01 
    6.4000381748716428E-01 
    5.9250531749915070E-01 
    5.3693064647836852E-01 
    4.0178353543865569E-01 
    5.9497857828159896E-02 
    1.1754145567784258E-04 
    1.0008767162433077E-06 
    9.2353405269096311E-01 
    9.2127407974553299E-01 
    9.0770963186832321E-01 
    8.8549278125460118E-01 
    8.5679240912829768E-01 
    8.2289929471562084E-01 
    7.8532127832218490E-01 
    7.4465985953023295E-01 
    7.0124355177595321E-01 
    6.5569166899418541E-01 
    6.0897929244979754E-01 
    5.5878700175530727E-01 
    4.6250876336382024E-01 
    1.5609489441396507E-01 
    3.5681540279223052E-04 
    1.0163389436933039E-06 
    8.6970838660143157E-01 
    8.7421214068890407E-01 
    8.7032794066642638E-01 
    8.5670287548310653E-01 
    8.3646371360284832E-01 
    8.1119145125088066E-01 
    7.8144266903312998E-01 
    7.4756130970191670E-01 
    7.0982846617058792E-01 
    6.6868443022972046E-01 
    6.2443200360468054E-01 
    5.7718289077809981E-01 
    5.0629740714752380E-01 
    2.7063329280914628E-01 
    1.0459545825878920E-02 
    5.0004852195572355E-06 
    8.1465732749822062E-01 
    8.2320999027444708E-01 
    8.2743187143474695E-01 
    8.2269021382753160E-01 
    8.1104335412419670E-01 
    7.9387464329087676E-01 
    7.7174734850805093E-01 
    7.4503036004871437E-01 
    7.1377787750202615E-01 
    6.7801824630545549E-01 
    6.3766459405631182E-01 
    5.9334993462972996E-01 
    5.3289224017604864E-01 
    3.7887209956917173E-01 
    5.0383304070810701E-02 
    6.4829158379648344E-05 
    7.6155899355432877E-01 
    7.7234245827566161E-01 
    7.8239517453792085E-01 
    7.8513129955280059E-01 
    7.8117141631524722E-01 
    7.7159729230702112E-01 
    7.5696359446689021E-01 
    7.3755585619384068E-01 
    7.1325095291466989E-01 
    6.8359042459846076E-01 
    6.4810943011720756E-01 
    6.0684703999449974E-01 
    5.5634042578160559E-01 
    4.3689174978381096E-01 
    1.0364236307172743E-01 
    1.1868600066944012E-04 
    7.0963032997332831E-01 
    7.2189127112074769E-01 
    7.3595186747894581E-01 
    7.4457853787053940E-01 
    7.4728889775678098E-01 
    7.4473562509122515E-01 
    7.3741038428259575E-01 
    7.2540112944196578E-01 
    7.0837373812335591E-01 
    6.8560020125326859E-01 
    6.5611723647678721E-01 
    6.1911150217522426E-01 
    5.7511082586086648E-01 
    4.8481473138036318E-01 
    1.8994669936202527E-01 
    1.5834884598169413E-03 
    6.5846751516199598E-01 
    6.7152595553554906E-01 
    6.8815316356195344E-01 
    7.0114772981512163E-01 
    7.0965632814283708E-01 
    7.1348780855789251E-01 
    7.1299048332999948E-01 
    7.0821973852685616E-01 
    6.9876369903352775E-01 
    6.8361932100586531E-01 
    6.6141949034544256E-01 
    6.3042084692156175E-01 
    5.9066352623468077E-01 
    5.1919856874291048E-01 
    2.7340605337994656E-01 
    9.7328373607222882E-03 
    6.0877050845885217E-01 
    6.2188328880330379E-01 
    6.3976114817834240E-01 
    6.5540018920271192E-01 
    6.6841076837502778E-01 
    6.7780216427837936E-01 
    6.8338611660874560E-01 
    6.8536943147400797E-01 
    6.8344798535290108E-01 
    6.7652288472021394E-01 
    6.6276065363598258E-01 
    6.3972989121040225E-01 
    6.0544633909726087E-01 
    5.4689418053257377E-01 
    3.7792971290950550E-01 
    5.8741869080887840E-02 
    5.6040703497965427E-01 
    5.7401817499708363E-01 
    5.9221303621034116E-01 
    6.0862469873894010E-01 
    6.2389376038538003E-01 
    6.3728771937779416E-01 
    6.4798390996192012E-01 
    6.5597656952327277E-01 
    6.6114130015023231E-01 
    6.6256195465960621E-01 
    6.5820995302279273E-01 
    6.4509537648907711E-01 
    6.1924439297083034E-01 
    5.7155731515313002E-01 
    4.3820885138573112E-01 
    1.3687410632348110E-01 
    4.8018197164835374E-01 
    5.0741525130204690E-01 
    5.3732351736443806E-01 
    5.5896818847383500E-01 
    5.7677160143164463E-01 
    5.9271575932099985E-01 
    6.0651847280326221E-01 
    6.1904335504559804E-01 
    6.3024897716005557E-01 
    6.3943516309056836E-01 
    6.4487186133770724E-01 
    6.4343266959035716E-01 
    6.2980939593462160E-01 
    5.9632763645814446E-01 
    4.9487954610578283E-01 
    2.2561595662606343E-01 
    1.6405124351174305E-01 
    2.8984842569671143E-01 
    4.0463281203441681E-01 
    4.6418637080358177E-01 
    5.0664898418602022E-01 
    5.3275080332772617E-01 
    5.5603481463188864E-01 
    5.7489632728398377E-01 
    5.9062742377371646E-01 
    6.0541999317070927E-01 
    6.1915007572449587E-01 
    6.2964504040523850E-01 
    6.3104724697571724E-01 
    6.1406520081357041E-01 
    5.4377589477383226E-01 
    3.0422167436141523E-01 
    1.0349583475508254E-06 
    4.6055383535458351E-03 
    6.3916990179150202E-02 
    1.5760285991892772E-01 
    2.7179856766920363E-01 
    3.7946221681008446E-01 
    4.3916852659794736E-01 
    4.8614212729308015E-01 
    5.2036300707872962E-01 
    5.4774433947853640E-01 
    5.7264885887688455E-01 
    5.9676948082538495E-01 
    6.1414819633169371E-01 
    6.1483816649450751E-01 
    5.8227181700024500E-01 
    3.8556822053050838E-01 
    1.0000000063998292E-06 
    1.4430363458610861E-06 
    1.3621608083060746E-04 
    3.5092768730641730E-04 
    1.1081538162228488E-02 
    5.1244742505624746E-02 
    1.1009850448806767E-01 
    1.9202953872299111E-01 
    2.7637523986995927E-01 
    3.7868553796296761E-01 
    4.4042979252605680E-01 
    4.9569937730643832E-01 
    5.4388875700688144E-01 
    5.8186397903904374E-01 
    5.9093403760067464E-01 
    4.6166443042455835E-01 
    9.9999999999999995E-07 
    1.0000000287532506E-06 
    1.0012098147181148E-06 
    1.0139595351136458E-06 
    5.6381939851671901E-06 
    7.4493104896214199E-05 
    1.3684824895986595E-04 
    1.0701222195139996E-03 
    1.2132809123974245E-02 
    5.2629500323566454E-02 
    1.5049297781500284E-01 
    2.2612576088196315E-01 
    3.0488907399259113E-01 
    3.8428727848972816E-01 
    4.6169995617501547E-01 
    4.6170185700766564E-01 
