# vtk DataFile Version 2.0
Pressure Field Data 
ASCII 
DATASET UNSTRUCTURED_GRID 

POINTS 289 double 

    0.0000000000000000E+00     0.0000000000000000E+00     0.0000000000000000E+00 
    1.0000000000000000E+00     0.0000000000000000E+00     0.0000000000000000E+00 
    1.0000000000000000E+00     1.0000000000000000E+00     0.0000000000000000E+00 
    0.0000000000000000E+00     1.0000000000000000E+00     0.0000000000000000E+00 
    6.2499999999872928E-02     0.0000000000000000E+00     0.0000000000000000E+00 
    1.2499999999977310E-01     0.0000000000000000E+00     0.0000000000000000E+00 
    1.8749999999959341E-01     0.0000000000000000E+00     0.0000000000000000E+00 
    2.4999999999941089E-01     0.0000000000000000E+00     0.0000000000000000E+00 
    3.1249999999922851E-01     0.0000000000000000E+00     0.0000000000000000E+00 
    3.7499999999904610E-01     0.0000000000000000E+00     0.0000000000000000E+00 
    4.3749999999886358E-01     0.0000000000000000E+00     0.0000000000000000E+00 
    4.9999999999869210E-01     0.0000000000000000E+00     0.0000000000000000E+00 
    5.6249999999884603E-01     0.0000000000000000E+00     0.0000000000000000E+00 
    6.2499999999901090E-01     0.0000000000000000E+00     0.0000000000000000E+00 
    6.8749999999917577E-01     0.0000000000000000E+00     0.0000000000000000E+00 
    7.4999999999934064E-01     0.0000000000000000E+00     0.0000000000000000E+00 
    8.1249999999950551E-01     0.0000000000000000E+00     0.0000000000000000E+00 
    8.7499999999967026E-01     0.0000000000000000E+00     0.0000000000000000E+00 
    9.3749999999983513E-01     0.0000000000000000E+00     0.0000000000000000E+00 
    1.0000000000000000E+00     6.2499999999872928E-02     0.0000000000000000E+00 
    1.0000000000000000E+00     1.2499999999977310E-01     0.0000000000000000E+00 
    1.0000000000000000E+00     1.8749999999959341E-01     0.0000000000000000E+00 
    1.0000000000000000E+00     2.4999999999941089E-01     0.0000000000000000E+00 
    1.0000000000000000E+00     3.1249999999922851E-01     0.0000000000000000E+00 
    1.0000000000000000E+00     3.7499999999904610E-01     0.0000000000000000E+00 
    1.0000000000000000E+00     4.3749999999886358E-01     0.0000000000000000E+00 
    1.0000000000000000E+00     4.9999999999869210E-01     0.0000000000000000E+00 
    1.0000000000000000E+00     5.6249999999884603E-01     0.0000000000000000E+00 
    1.0000000000000000E+00     6.2499999999901090E-01     0.0000000000000000E+00 
    1.0000000000000000E+00     6.8749999999917577E-01     0.0000000000000000E+00 
    1.0000000000000000E+00     7.4999999999934064E-01     0.0000000000000000E+00 
    1.0000000000000000E+00     8.1249999999950551E-01     0.0000000000000000E+00 
    1.0000000000000000E+00     8.7499999999967026E-01     0.0000000000000000E+00 
    1.0000000000000000E+00     9.3749999999983513E-01     0.0000000000000000E+00 
    9.3749999999973976E-01     1.0000000000000000E+00     0.0000000000000000E+00 
    8.7499999999950118E-01     1.0000000000000000E+00     0.0000000000000000E+00 
    8.1249999999991318E-01     1.0000000000000000E+00     0.0000000000000000E+00 
    7.5000000000034706E-01     1.0000000000000000E+00     0.0000000000000000E+00 
    6.8750000000078049E-01     1.0000000000000000E+00     0.0000000000000000E+00 
    6.2500000000121403E-01     1.0000000000000000E+00     0.0000000000000000E+00 
    5.6250000000164757E-01     1.0000000000000000E+00     0.0000000000000000E+00 
    5.0000000000205946E-01     1.0000000000000000E+00     0.0000000000000000E+00 
    4.3750000000182099E-01     1.0000000000000000E+00     0.0000000000000000E+00 
    3.7500000000156092E-01     1.0000000000000000E+00     0.0000000000000000E+00 
    3.1250000000130068E-01     1.0000000000000000E+00     0.0000000000000000E+00 
    2.5000000000104050E-01     1.0000000000000000E+00     0.0000000000000000E+00 
    1.8750000000078040E-01     1.0000000000000000E+00     0.0000000000000000E+00 
    1.2500000000052031E-01     1.0000000000000000E+00     0.0000000000000000E+00 
    6.2500000000260125E-02     1.0000000000000000E+00     0.0000000000000000E+00 
    0.0000000000000000E+00     9.3749999999973976E-01     0.0000000000000000E+00 
    0.0000000000000000E+00     8.7499999999950118E-01     0.0000000000000000E+00 
    0.0000000000000000E+00     8.1249999999991318E-01     0.0000000000000000E+00 
    0.0000000000000000E+00     7.5000000000034706E-01     0.0000000000000000E+00 
    0.0000000000000000E+00     6.8750000000078049E-01     0.0000000000000000E+00 
    0.0000000000000000E+00     6.2500000000121403E-01     0.0000000000000000E+00 
    0.0000000000000000E+00     5.6250000000164757E-01     0.0000000000000000E+00 
    0.0000000000000000E+00     5.0000000000205946E-01     0.0000000000000000E+00 
    0.0000000000000000E+00     4.3750000000182099E-01     0.0000000000000000E+00 
    0.0000000000000000E+00     3.7500000000156092E-01     0.0000000000000000E+00 
    0.0000000000000000E+00     3.1250000000130068E-01     0.0000000000000000E+00 
    0.0000000000000000E+00     2.5000000000104050E-01     0.0000000000000000E+00 
    0.0000000000000000E+00     1.8750000000078040E-01     0.0000000000000000E+00 
    0.0000000000000000E+00     1.2500000000052031E-01     0.0000000000000000E+00 
    0.0000000000000000E+00     6.2500000000260125E-02     0.0000000000000000E+00 
    6.2499999999897131E-02     6.2500000000235922E-02     0.0000000000000000E+00 
    6.2499999999921327E-02     1.2500000000047351E-01     0.0000000000000000E+00 
    6.2499999999945530E-02     1.8750000000070621E-01     0.0000000000000000E+00 
    6.2499999999969733E-02     2.5000000000093858E-01     0.0000000000000000E+00 
    6.2499999999993928E-02     3.1250000000117117E-01     0.0000000000000000E+00 
    6.2500000000018124E-02     3.7500000000140382E-01     0.0000000000000000E+00 
    6.2500000000042327E-02     4.3750000000163619E-01     0.0000000000000000E+00 
    6.2500000000066530E-02     5.0000000000184897E-01     0.0000000000000000E+00 
    6.2500000000090733E-02     5.6250000000147260E-01     0.0000000000000000E+00 
    6.2500000000114922E-02     6.2500000000107636E-01     0.0000000000000000E+00 
    6.2500000000139125E-02     6.8750000000068034E-01     0.0000000000000000E+00 
    6.2500000000163328E-02     7.5000000000028411E-01     0.0000000000000000E+00 
    6.2500000000187531E-02     8.1249999999988787E-01     0.0000000000000000E+00 
    6.2500000000211720E-02     8.7499999999951172E-01     0.0000000000000000E+00 
    6.2500000000235922E-02     9.3749999999974565E-01     0.0000000000000000E+00 
    1.2499999999981980E-01     6.2500000000211733E-02     0.0000000000000000E+00 
    1.2499999999986650E-01     1.2500000000042691E-01     0.0000000000000000E+00 
    1.2499999999991319E-01     1.8750000000063199E-01     0.0000000000000000E+00 
    1.2499999999995989E-01     2.5000000000083678E-01     0.0000000000000000E+00 
    1.2500000000000661E-01     3.1250000000104172E-01     0.0000000000000000E+00 
    1.2500000000005329E-01     3.7500000000124661E-01     0.0000000000000000E+00 
    1.2500000000010000E-01     4.3750000000145117E-01     0.0000000000000000E+00 
    1.2500000000014669E-01     5.0000000000163858E-01     0.0000000000000000E+00 
    1.2500000000019340E-01     5.6250000000129741E-01     0.0000000000000000E+00 
    1.2500000000024011E-01     6.2500000000093847E-01     0.0000000000000000E+00 
    1.2500000000028680E-01     6.8750000000057998E-01     0.0000000000000000E+00 
    1.2500000000033351E-01     7.5000000000022127E-01     0.0000000000000000E+00 
    1.2500000000038020E-01     8.1249999999986211E-01     0.0000000000000000E+00 
    1.2500000000042691E-01     8.7499999999952238E-01     0.0000000000000000E+00 
    1.2500000000047359E-01     9.3749999999975164E-01     0.0000000000000000E+00 
    1.8749999999966760E-01     6.2500000000187531E-02     0.0000000000000000E+00 
    1.8749999999974179E-01     1.2500000000038020E-01     0.0000000000000000E+00 
    1.8749999999981601E-01     1.8750000000055780E-01     0.0000000000000000E+00 
    1.8749999999989009E-01     2.5000000000073502E-01     0.0000000000000000E+00 
    1.8749999999996431E-01     3.1250000000091221E-01     0.0000000000000000E+00 
    1.8750000000003850E-01     3.7500000000108941E-01     0.0000000000000000E+00 
    1.8750000000011269E-01     4.3750000000126649E-01     0.0000000000000000E+00 
    1.8750000000018691E-01     5.0000000000142808E-01     0.0000000000000000E+00 
    1.8750000000026110E-01     5.6250000000112244E-01     0.0000000000000000E+00 
    1.8750000000033529E-01     6.2500000000080080E-01     0.0000000000000000E+00 
    1.8750000000040951E-01     6.8750000000047962E-01     0.0000000000000000E+00 
    1.8750000000048361E-01     7.5000000000015843E-01     0.0000000000000000E+00 
    1.8750000000055780E-01     8.1249999999983680E-01     0.0000000000000000E+00 
    1.8750000000063199E-01     8.7499999999953304E-01     0.0000000000000000E+00 
    1.8750000000070621E-01     9.3749999999975764E-01     0.0000000000000000E+00 
    2.4999999999951281E-01     6.2500000000163314E-02     0.0000000000000000E+00 
    2.4999999999961461E-01     1.2500000000033351E-01     0.0000000000000000E+00 
    2.4999999999971650E-01     1.8750000000048361E-01     0.0000000000000000E+00 
    2.4999999999981831E-01     2.5000000000063310E-01     0.0000000000000000E+00 
    2.4999999999992020E-01     3.1250000000078260E-01     0.0000000000000000E+00 
    2.5000000000002198E-01     3.7500000000093209E-01     0.0000000000000000E+00 
    2.5000000000012390E-01     4.3750000000108180E-01     0.0000000000000000E+00 
    2.5000000000022571E-01     5.0000000000121769E-01     0.0000000000000000E+00 
    2.5000000000032763E-01     5.6250000000094724E-01     0.0000000000000000E+00 
    2.5000000000042938E-01     6.2500000000066314E-01     0.0000000000000000E+00 
    2.5000000000053119E-01     6.8750000000037925E-01     0.0000000000000000E+00 
[...]
CELL_DATA 256 
SCALARS Pressure double 1 
LOOKUP_TABLE default 

    1.1010671649979622E+00 
    1.0477410408841876E+00 
    1.0094351988874883E+00 
    9.7612141836733868E-01 
    9.4524449116084552E-01 
    9.1704691033848396E-01 
    8.8962014960533053E-01 
    8.5853803206370649E-01 
    8.3087033312456560E-01 
    8.1112396457585745E-01 
    7.9653918752714015E-01 
    7.8628769800995890E-01 
    7.7959912989168212E-01 
    7.7572286043163041E-01 
    7.7391199031284885E-01 
    7.7341972313090879E-01 
    1.0477702638452104E+00 
    1.0365088651850554E+00 
    1.0109671653141703E+00 
    9.8208188200955782E-01 
    9.5278417732023557E-01 
    9.2505090119171807E-01 
    8.9823808660879911E-01 
    8.6766468329312929E-01 
    8.3794934460217707E-01 
    8.1615227060706830E-01 
    7.9977586826888170E-01 
    7.8805414881513058E-01 
    7.8024848062968621E-01 
    7.7562242954276028E-01 
    7.7343378015500708E-01 
    7.7293728700532494E-01 
    1.0094664713825716E+00 
    1.0109829940174160E+00 
    9.9814499521635547E-01 
    9.7689282753107709E-01 
    9.5183604152485801E-01 
    9.2619341650715747E-01 
    9.0062813964799560E-01 
    8.7106617469119163E-01 
    8.4044833425941701E-01 
    8.1736183499625314E-01 
    7.9974612158838809E-01 
    7.8699238440474439E-01 
    7.7846180551894695E-01 
    7.7346541243159728E-01 
    7.7127820499489297E-01 
    7.7115821069574786E-01 
    9.7611209979304059E-01 
    9.8207843431151987E-01 
    9.7688744351012757E-01 
    9.6270330489810185E-01 
    9.4287545473768541E-01 
    9.2045410855619880E-01 
    8.9680952569040895E-01 
    8.6858433065231966E-01 
    8.3801315657308095E-01 
    8.1414248627880559E-01 
    7.9576616002805300E-01 
    7.8238636590542032E-01 
    7.7350147884320486E-01 
    7.6849905154615195E-01 
    7.6668459606231010E-01 
    7.6731954632319344E-01 
    9.4516535856069328E-01 
    9.5272689560884083E-01 
    9.5179994088944042E-01 
    9.4285834113696376E-01 
    9.2775931653255805E-01 
    9.0874664363757163E-01 
    8.8724275447677692E-01 
    8.6021640764736096E-01 
    8.3019346574654995E-01 
    8.0606146543953361E-01 
    7.8730439573660604E-01 
    7.7361532645116327E-01 
    7.6467931554659674E-01 
    7.5999076227834761E-01 
    7.5889518098484388E-01 
    7.6065141794107116E-01 
    9.1691839450431645E-01 
    9.2493755169649006E-01 
    9.2611134050234156E-01 
    9.2040746406493756E-01 
    9.0872435880832325E-01 
    8.9239673110164441E-01 
    8.7227161571739442E-01 
    8.4599633219916681E-01 
    8.1670666115969259E-01 
    7.9290292434964382E-01 
    7.7401397131914496E-01 
    7.6018401196596941E-01 
    7.5137468312077671E-01 
    7.4723621447730426E-01 
    7.4716398353023450E-01 
    7.5039606096923794E-01 
    8.8948711301862471E-01 
    8.9810540001673500E-01 
    9.0051924429334085E-01 
    8.9673832917044394E-01 
    8.8719501315615223E-01 
    8.7224042425563630E-01 
    8.5187330592780830E-01 
    8.2598795510847978E-01 
    7.9796211195427147E-01 
    7.7482479231024282E-01 
    7.5581741863240248E-01 
    7.4176848482442370E-01 
    7.3304897887093090E-01 
    7.2954878142266655E-01 
    7.3073372631121947E-01 
    7.3578735078740898E-01 
    8.5842966984101232E-01 
    8.6755922966005605E-01 
    8.7097113595720588E-01 
    8.6849943568633103E-01 
    8.6013510734213316E-01 
    8.4592328695263719E-01 
    8.2594698889314822E-01 
    8.0137154070711147E-01 
    7.7551296434171613E-01 
    7.5261967175776512E-01 
    7.3305971803555392E-01 
    7.1830754385744944E-01 
    7.0928267034405179E-01 
    7.0624738378360008E-01 
    7.0879020796502168E-01 
    7.1598830627733068E-01 
    8.3078595571864955E-01 
    8.3786507737117788E-01 
    8.4037140059866045E-01 
    8.3793863503742561E-01 
    8.3010474483171592E-01 
    8.1661414197817794E-01 
    7.9789711650474926E-01 
    7.7548610927252237E-01 
    7.5149291348010505E-01 
    7.2776515234842398E-01 
    7.0663895678348743E-01 
    6.9012626366687257E-01 
    6.7984142350395815E-01 
    6.7664797700941770E-01 
    6.8040386791970975E-01 
    6.9003279089989655E-01 
    8.1105478866709757E-01 
    8.1607947048239116E-01 
    8.1728705089210296E-01 
    8.1406854376896365E-01 
    8.0598762935272639E-01 
    7.9283090205427242E-01 
    7.7476382075933992E-01 
    7.5257937505113603E-01 
    7.2774692054445933E-01 
    7.0212324535948423E-01 
    6.7803662876103232E-01 
    6.5808263721335158E-01 
    6.4479673280003147E-01 
    6.4006830716286955E-01 
    6.4442296513566211E-01 
    6.5668870007329860E-01 
    7.9648171390809075E-01 
    7.9971223430757776E-01 
    7.9967590553135481E-01 
    7.9569456250535042E-01 
    7.8723517858764924E-01 
    7.7394843383303447E-01 
    7.5575894977869895E-01 
    7.3301425068082426E-01 
    7.0660975156577954E-01 
    6.7802326177174055E-01 
    6.4944032912488026E-01 
    6.2383086693696721E-01 
    6.0480245884006978E-01 
    5.9591920147576338E-01 
    5.9930845895778850E-01 
    6.1419385425706274E-01 
    7.8623995036190186E-01 
    7.8799863694174410E-01 
    7.8692763939443122E-01 
    7.8231831535431517E-01 
    7.7354951676376960E-01 
    7.6012203109362164E-01 
    7.4171189023875539E-01 
    7.1825985666406278E-01 
    6.9009050239678549E-01 
    6.5805987334676830E-01 
    6.2382028532176304E-01 
    5.9021985606307859E-01 
    5.6169156651469043E-01 
    5.4409050839746942E-01 
    5.4294656316855938E-01 
    5.5971831667046468E-01 
    7.7956242534590892E-01 
    7.8020312076338605E-01 
    7.7840465245654722E-01 
    7.7343796360363382E-01 
    7.6461621119609624E-01 
    7.5131469065443468E-01 
    7.3299330217364889E-01 
    7.0923344515198838E-01 
    6.7980123743709997E-01 
    6.4476728870079836E-01 
    6.0478384599137303E-01 
    5.6168294210812630E-01 
    5.1956059160547718E-01 
    4.8614317003694524E-01 
    4.7271366244340063E-01 
    4.8824006968796529E-01 
    7.7569826987611323E-01 
    7.7558922743945435E-01 
    7.7341721697890442E-01 
    7.6843974771460666E-01 
    7.5992889825640320E-01 
    7.4717667228920592E-01 
    7.2949280777012215E-01 
    7.0619637777129096E-01 
    6.7660431168108315E-01 
    6.4003397383049510E-01 
    5.9589453153440675E-01 
    5.4407497061642118E-01 
    4.8613586035099232E-01 
    4.2830093904240052E-01 
    3.8701812637721938E-01 
    3.8995401286788312E-01 
    7.7389858045465820E-01 
    7.7341378809701389E-01 
    7.7124036073042856E-01 
    7.6662933310962578E-01 
    7.5883325689964198E-01 
    7.4710373549284093E-01 
    7.3067648159364329E-01 
    7.0873702652199799E-01 
    6.8035711097516149E-01 
    6.4438482421181453E-01 
    5.9927908676691577E-01 
    5.4292547972027227E-01 
    4.7270031516269440E-01 
    3.8701197556466749E-01 
    2.9343103521395952E-01 
    2.4379880500858955E-01 
    7.7341329067102438E-01 
    7.7292820220452430E-01 
    7.7112951711552302E-01 
    7.6726706705189496E-01 
    7.6058810175389002E-01 
    7.5033438310239453E-01 
    7.3572792706356049E-01 
    7.1593239106923645E-01 
    6.8998279723075429E-01 
    6.5664713731656466E-01 
    6.1416042947873040E-01 
    5.5969259467919230E-01 
    4.8822178325145810E-01 
    3.8994300031589035E-01 
    2.4379423337257000E-01 
    0.0000000000000000E+00 

SCALARS Saturarion double 1 
LOOKUP_TABLE default 

    9.9999999999121902E-01 
    9.4472048891707261E-01 
    8.4767436424672360E-01 
    7.2133723551162165E-01 
    6.4017577078664578E-01 
    5.7640673138337806E-01 
    4.7663258576826528E-01 
    1.4082030078304628E-01 
    1.0008881897489288E-06 
    1.0000000004227583E-06 
    9.9999999999999995E-07 
    9.9999999999999995E-07 
    9.9999999999999995E-07 
    9.9999999999999995E-07 
    9.9999999999999995E-07 
    9.9999999999999995E-07 
    9.4441862141632482E-01 
    8.9839273168132783E-01 
    8.1685609344547150E-01 
    7.1708868428612971E-01 
    6.4292208446154797E-01 
    5.8104832277662977E-01 
    4.9284231739797008E-01 
    2.1739773788369460E-01 
    2.9201745987113319E-04 
    1.0025645199371137E-06 
    1.0000000002606788E-06 
    9.9999999999999995E-07 
    9.9999999999999995E-07 
    9.9999999999999995E-07 
    9.9999999999999995E-07 
    9.9999999999999995E-07 
    8.4671416827306267E-01 
    8.1636990675140775E-01 
    7.5733459792699187E-01 
    6.9016289635808004E-01 
    6.3148281042581411E-01 
    5.7974301473812306E-01 
    5.0774457704618225E-01 
    3.0255415994066681E-01 
    5.8130947307479704E-03 
    1.5455615612779315E-06 
    1.0000001019028518E-06 
    9.9999999999999995E-07 
    9.9999999999999995E-07 
    9.9999999999999995E-07 
    9.9999999999999995E-07 
    9.9999999999999995E-07 
    7.1962666917679718E-01 
    7.1604506008033408E-01 
    6.8980731799132811E-01 
    6.5020710507254487E-01 
    6.1044813855868196E-01 
    5.7124814352214703E-01 
    5.1321882168258970E-01 
    3.5464541251779502E-01 
    1.8211708241139386E-02 
    2.3888862747776263E-06 
    1.0000004678087588E-06 
    9.9999999999999995E-07 
    9.9999999999999995E-07 
    9.9999999999999995E-07 
    9.9999999999999995E-07 
    9.9999999999999995E-07 
    6.3851560834421617E-01 
    6.4168412092507832E-01 
    6.3080425593497802E-01 
    6.1015323480794348E-01 
    5.8506568211962395E-01 
    5.5293529137679320E-01 
    5.0517959082358543E-01 
    3.6017348642148622E-01 
    2.1705871367664432E-02 
    2.5201202941489969E-06 
    1.0000003022554675E-06 
    1.0000000000000459E-06 
    9.9999999999999995E-07 
    9.9999999999999995E-07 
    9.9999999999999995E-07 
    9.9999999999999995E-07 
    5.7536351619385373E-01 
    5.8033411263561363E-01 
    5.7901545887551131E-01 
    5.7053841308724862E-01 
    5.5260928216280747E-01 
    5.2589032777118894E-01 
    4.8226328408291830E-01 
    3.1543999041352960E-01 
    9.7079138540824561E-03 
    3.2196241377774312E-06 
    1.0000005636017830E-06 
    1.0000000000000002E-06 
    9.9999999999999995E-07 
    9.9999999999999995E-07 
    9.9999999999999995E-07 
    9.9999999999999995E-07 
    4.7595891115195871E-01 
    4.9332287879046438E-01 
    5.0797960082490234E-01 
    5.1282913804354691E-01 
    5.0455560253684406E-01 
    4.8191638953562060E-01 
    4.2483712497839632E-01 
    1.8876061522169554E-01 
    6.7262706410456949E-04 
    1.0508947766480358E-06 
    1.0000000027729309E-06 
    9.9999999999999995E-07 
    9.9999999999999995E-07 
    9.9999999999999995E-07 
    9.9999999999999995E-07 
    9.9999999999999995E-07 
    1.4145169779598926E-01 
    2.2087197672913250E-01 
    3.0557305378796884E-01 
    3.5456352120892504E-01 
    3.5810059057253651E-01 
    3.1356773020901824E-01 
    1.8803580428346220E-01 
    2.0071941759235171E-02 
    1.1493218705781743E-05 
    1.0000072765858718E-06 
    1.0000000000000052E-06 
    9.9999999999999995E-07 
    9.9999999999999995E-07 
    9.9999999999999995E-07 
    9.9999999999999995E-07 
    9.9999999999999995E-07 
    1.0011869571731654E-06 
    3.5234310071160835E-04 
    6.2631540803777495E-03 
    1.8008517867402152E-02 
    2.0763916586011961E-02 
    9.2069680157325189E-03 
    6.5323442675967018E-04 
    1.1494802347004319E-05 
    1.0000149099464055E-06 
    1.0000000000013561E-06 
    9.9999999999999995E-07 
    9.9999999999999995E-07 
    9.9999999999999995E-07 
    9.9999999999999995E-07 
    9.9999999999999995E-07 
    9.9999999999999995E-07 
    1.0000000005742220E-06 
    1.0033222918304189E-06 
    1.6368821187087361E-06 
    2.0516971586966467E-06 
    2.5176541083810348E-06 
    2.9897231061286250E-06 
    1.0501460171860640E-06 
    1.0000072789399678E-06 
    1.0000000000013558E-06 
    9.9999999999999995E-07 
    9.9999999999999995E-07 
    9.9999999999999995E-07 
    9.9999999999999995E-07 
    9.9999999999999995E-07 
    9.9999999999999995E-07 
    9.9999999999999995E-07 
    9.9999999999999995E-07 
    1.0000000005179331E-06 
    1.0000001241537146E-06 
    1.0000003300831156E-06 
    1.0000002587343789E-06 
    1.0000005182206757E-06 
    1.0000000026223735E-06 
    1.0000000000000052E-06 
    9.9999999999999995E-07 
    9.9999999999999995E-07 
    9.9999999999999995E-07 
    9.9999999999999995E-07 
    9.9999999999999995E-07 
    9.9999999999999995E-07 
    9.9999999999999995E-07 
    9.9999999999999995E-07 
    9.9999999999999995E-07 
    9.9999999999999995E-07 
    9.9999999999999995E-07 
    9.9999999999999995E-07 
    1.0000000000000459E-06 
    1.0000000000000004E-06 
    9.9999999999999995E-07 
    9.9999999999999995E-07 
    9.9999999999999995E-07 
    9.9999999999999995E-07 
    9.9999999999999995E-07 
    9.9999999999999995E-07 
    9.9999999999999995E-07 
    9.9999999999999995E-07 
    9.9999999999999995E-07 
    9.9999999999999995E-07 
    9.9999999999999995E-07 
    9.9999999999999995E-07 
    9.9999999999999995E-07 
    9.9999999999999995E-07 
    9.9999999999999995E-07 
    9.9999999999999995E-07 
    9.9999999999999995E-07 
    9.9999999999999995E-07 
    9.9999999999999995E-07 
    9.9999999999999995E-07 
    9.9999999999999995E-07 
    9.9999999999999995E-07 
    9.9999999999999995E-07 
    9.9999999999999995E-07 
    9.9999999999999995E-07 
    9.9999999999999995E-07 
    9.9999999999999995E-07 
    9.9999999999999995E-07 
    9.9999999999999995E-07 
    9.9999999999999995E-07 
    9.9999999999999995E-07 
    9.9999999999999995E-07 
    9.9999999999999995E-07 
    9.9999999999999995E-07 
    9.9999999999999995E-07 
    9.9999999999999995E-07 
    9.9999999999999995E-07 
    9.9999999999999995E-07 
    9.9999999999999995E-07 
    9.9999999999999995E-07 
    9.9999999999999995E-07 
    9.9999999999999995E-07 
    9.9999999999999995E-07 
    9.9999999999999995E-07 
    9.9999999999999995E-07 
    9.9999999999999995E-07 
    9.9999999999999995E-07 
    9.9999999999999995E-07 
    9.9999999999999995E-07 
    9.9999999999999995E-07 
    9.9999999999999995E-07 
    9.9999999999999995E-07 
    9.9999999999999995E-07 
    9.9999999999999995E-07 
    9.9999999999999995E-07 
    9.9999999999999995E-07 
    9.9999999999999995E-07 
    9.9999999999999995E-07 
    9.9999999999999995E-07 
    9.9999999999999995E-07 
    9.9999999999999995E-07 
    9.9999999999999995E-07 
    9.9999999999999995E-07 
    9.9999999999999995E-07 
    9.9999999999999995E-07 
    9.9999999999999995E-07 
    9.9999999999999995E-07 
    9.9999999999999995E-07 
    9.9999999999999995E-07 
    9.9999999999999995E-07 
    9.9999999999999995E-07 
    9.9999999999999995E-07 
    9.9999999999999995E-07 
    1.0000001663646385E-06 
