# vtk DataFile Version 2.0
Pressure Field Data 
ASCII 
DATASET UNSTRUCTURED_GRID 

POINTS 289 double 

    0.0000000000000000E+00     0.0000000000000000E+00     0.0000000000000000E+00 
    1.0000000000000000E+00     0.0000000000000000E+00     0.0000000000000000E+00 
    1.0000000000000000E+00     1.0000000000000000E+00     0.0000000000000000E+00 
    0.0000000000000000E+00     1.0000000000000000E+00     0.0000000000000000E+00 
    6.2499999999872928E-02     0.0000000000000000E+00     0.0000000000000000E+00 
    1.2499999999977310E-01     0.0000000000000000E+00     0.0000000000000000E+00 
    1.8749999999959341E-01     0.0000000000000000E+00     0.0000000000000000E+00 
    2.4999999999941089E-01     0.0000000000000000E+00     0.0000000000000000E+00 
    3.1249999999922851E-01     0.0000000000000000E+00     0.0000000000000000E+00 
    3.7499999999904610E-01     0.0000000000000000E+00     0.0000000000000000E+00 
    4.3749999999886358E-01     0.0000000000000000E+00     0.0000000000000000E+00 
    4.9999999999869210E-01     0.0000000000000000E+00     0.0000000000000000E+00 
    5.6249999999884603E-01     0.0000000000000000E+00     0.0000000000000000E+00 
    6.2499999999901090E-01     0.0000000000000000E+00     0.0000000000000000E+00 
    6.8749999999917577E-01     0.0000000000000000E+00     0.0000000000000000E+00 
    7.4999999999934064E-01     0.0000000000000000E+00     0.0000000000000000E+00 
    8.1249999999950551E-01     0.0000000000000000E+00     0.0000000000000000E+00 
    8.7499999999967026E-01     0.0000000000000000E+00     0.0000000000000000E+00 
    9.3749999999983513E-01     0.0000000000000000E+00     0.0000000000000000E+00 
    1.0000000000000000E+00     6.2499999999872928E-02     0.0000000000000000E+00 
    1.0000000000000000E+00     1.2499999999977310E-01     0.0000000000000000E+00 
    1.0000000000000000E+00     1.8749999999959341E-01     0.0000000000000000E+00 
    1.0000000000000000E+00     2.4999999999941089E-01     0.0000000000000000E+00 
    1.0000000000000000E+00     3.1249999999922851E-01     0.0000000000000000E+00 
    1.0000000000000000E+00     3.7499999999904610E-01     0.0000000000000000E+00 
    1.0000000000000000E+00     4.3749999999886358E-01     0.0000000000000000E+00 
    1.0000000000000000E+00     4.9999999999869210E-01     0.0000000000000000E+00 
    1.0000000000000000E+00     5.6249999999884603E-01     0.0000000000000000E+00 
    1.0000000000000000E+00     6.2499999999901090E-01     0.0000000000000000E+00 
    1.0000000000000000E+00     6.8749999999917577E-01     0.0000000000000000E+00 
    1.0000000000000000E+00     7.4999999999934064E-01     0.0000000000000000E+00 
    1.0000000000000000E+00     8.1249999999950551E-01     0.0000000000000000E+00 
    1.0000000000000000E+00     8.7499999999967026E-01     0.0000000000000000E+00 
    1.0000000000000000E+00     9.3749999999983513E-01     0.0000000000000000E+00 
    9.3749999999973976E-01     1.0000000000000000E+00     0.0000000000000000E+00 
    8.7499999999950118E-01     1.0000000000000000E+00     0.0000000000000000E+00 
    8.1249999999991318E-01     1.0000000000000000E+00     0.0000000000000000E+00 
    7.5000000000034706E-01     1.0000000000000000E+00     0.0000000000000000E+00 
    6.8750000000078049E-01     1.0000000000000000E+00     0.0000000000000000E+00 
    6.2500000000121403E-01     1.0000000000000000E+00     0.0000000000000000E+00 
    5.6250000000164757E-01     1.0000000000000000E+00     0.0000000000000000E+00 
    5.0000000000205946E-01     1.0000000000000000E+00     0.0000000000000000E+00 
    4.3750000000182099E-01     1.0000000000000000E+00     0.0000000000000000E+00 
    3.7500000000156092E-01     1.0000000000000000E+00     0.0000000000000000E+00 
    3.1250000000130068E-01     1.0000000000000000E+00     0.0000000000000000E+00 
    2.5000000000104050E-01     1.0000000000000000E+00     0.0000000000000000E+00 
    1.8750000000078040E-01     1.0000000000000000E+00     0.0000000000000000E+00 
    1.2500000000052031E-01     1.0000000000000000E+00     0.0000000000000000E+00 
    6.2500000000260125E-02     1.0000000000000000E+00     0.0000000000000000E+00 
    0.0000000000000000E+00     9.3749999999973976E-01     0.0000000000000000E+00 
    0.0000000000000000E+00     8.7499999999950118E-01     0.0000000000000000E+00 
    0.0000000000000000E+00     8.1249999999991318E-01     0.0000000000000000E+00 
    0.0000000000000000E+00     7.5000000000034706E-01     0.0000000000000000E+00 
    0.0000000000000000E+00     6.8750000000078049E-01     0.0000000000000000E+00 
    0.0000000000000000E+00     6.2500000000121403E-01     0.0000000000000000E+00 
    0.0000000000000000E+00     5.6250000000164757E-01     0.0000000000000000E+00 
    0.0000000000000000E+00     5.0000000000205946E-01     0.0000000000000000E+00 
    0.0000000000000000E+00     4.3750000000182099E-01     0.0000000000000000E+00 
    0.0000000000000000E+00     3.7500000000156092E-01     0.0000000000000000E+00 
    0.0000000000000000E+00     3.1250000000130068E-01     0.0000000000000000E+00 
    0.0000000000000000E+00     2.5000000000104050E-01     0.0000000000000000E+00 
    0.0000000000000000E+00     1.8750000000078040E-01     0.0000000000000000E+00 
    0.0000000000000000E+00     1.2500000000052031E-01     0.0000000000000000E+00 
    0.0000000000000000E+00     6.2500000000260125E-02     0.0000000000000000E+00 
    6.2499999999897131E-02     6.2500000000235922E-02     0.0000000000000000E+00 
    6.2499999999921327E-02     1.2500000000047351E-01     0.0000000000000000E+00 
    6.2499999999945530E-02     1.8750000000070621E-01     0.0000000000000000E+00 
    6.2499999999969733E-02     2.5000000000093858E-01     0.0000000000000000E+00 
    6.2499999999993928E-02     3.1250000000117117E-01     0.0000000000000000E+00 
    6.2500000000018124E-02     3.7500000000140382E-01     0.0000000000000000E+00 
    6.2500000000042327E-02     4.3750000000163619E-01     0.0000000000000000E+00 
    6.2500000000066530E-02     5.0000000000184897E-01     0.0000000000000000E+00 
    6.2500000000090733E-02     5.6250000000147260E-01     0.0000000000000000E+00 
    6.2500000000114922E-02     6.2500000000107636E-01     0.0000000000000000E+00 
    6.2500000000139125E-02     6.8750000000068034E-01     0.0000000000000000E+00 
    6.2500000000163328E-02     7.5000000000028411E-01     0.0000000000000000E+00 
    6.2500000000187531E-02     8.1249999999988787E-01     0.0000000000000000E+00 
    6.2500000000211720E-02     8.7499999999951172E-01     0.0000000000000000E+00 
    6.2500000000235922E-02     9.3749999999974565E-01     0.0000000000000000E+00 
    1.2499999999981980E-01     6.2500000000211733E-02     0.0000000000000000E+00 
    1.2499999999986650E-01     1.2500000000042691E-01     0.0000000000000000E+00 
    1.2499999999991319E-01     1.8750000000063199E-01     0.0000000000000000E+00 
    1.2499999999995989E-01     2.5000000000083678E-01     0.0000000000000000E+00 
    1.2500000000000661E-01     3.1250000000104172E-01     0.0000000000000000E+00 
    1.2500000000005329E-01     3.7500000000124661E-01     0.0000000000000000E+00 
    1.2500000000010000E-01     4.3750000000145117E-01     0.0000000000000000E+00 
    1.2500000000014669E-01     5.0000000000163858E-01     0.0000000000000000E+00 
    1.2500000000019340E-01     5.6250000000129741E-01     0.0000000000000000E+00 
    1.2500000000024011E-01     6.2500000000093847E-01     0.0000000000000000E+00 
    1.2500000000028680E-01     6.8750000000057998E-01     0.0000000000000000E+00 
    1.2500000000033351E-01     7.5000000000022127E-01     0.0000000000000000E+00 
    1.2500000000038020E-01     8.1249999999986211E-01     0.0000000000000000E+00 
    1.2500000000042691E-01     8.7499999999952238E-01     0.0000000000000000E+00 
    1.2500000000047359E-01     9.3749999999975164E-01     0.0000000000000000E+00 
    1.8749999999966760E-01     6.2500000000187531E-02     0.0000000000000000E+00 
    1.8749999999974179E-01     1.2500000000038020E-01     0.0000000000000000E+00 
    1.8749999999981601E-01     1.8750000000055780E-01     0.0000000000000000E+00 
    1.8749999999989009E-01     2.5000000000073502E-01     0.0000000000000000E+00 
    1.8749999999996431E-01     3.1250000000091221E-01     0.0000000000000000E+00 
    1.8750000000003850E-01     3.7500000000108941E-01     0.0000000000000000E+00 
    1.8750000000011269E-01     4.3750000000126649E-01     0.0000000000000000E+00 
    1.8750000000018691E-01     5.0000000000142808E-01     0.0000000000000000E+00 
    1.8750000000026110E-01     5.6250000000112244E-01     0.0000000000000000E+00 
    1.8750000000033529E-01     6.2500000000080080E-01     0.0000000000000000E+00 
    1.8750000000040951E-01     6.8750000000047962E-01     0.0000000000000000E+00 
    1.8750000000048361E-01     7.5000000000015843E-01     0.0000000000000000E+00 
    1.8750000000055780E-01     8.1249999999983680E-01     0.0000000000000000E+00 
    1.8750000000063199E-01     8.7499999999953304E-01     0.0000000000000000E+00 
    1.8750000000070621E-01     9.3749999999975764E-01     0.0000000000000000E+00 
    2.4999999999951281E-01     6.2500000000163314E-02     0.0000000000000000E+00 
    2.4999999999961461E-01     1.2500000000033351E-01     0.0000000000000000E+00 
    2.4999999999971650E-01     1.8750000000048361E-01     0.0000000000000000E+00 
    2.4999999999981831E-01     2.5000000000063310E-01     0.0000000000000000E+00 
    2.4999999999992020E-01     3.1250000000078260E-01     0.0000000000000000E+00 
    2.5000000000002198E-01     3.7500000000093209E-01     0.0000000000000000E+00 
    2.5000000000012390E-01     4.3750000000108180E-01     0.0000000000000000E+00 
    2.5000000000022571E-01     5.0000000000121769E-01     0.0000000000000000E+00 
    2.5000000000032763E-01     5.6250000000094724E-01     0.0000000000000000E+00 
    2.5000000000042938E-01     6.2500000000066314E-01     0.0000000000000000E+00 
    2.5000000000053119E-01     6.8750000000037925E-01     0.0000000000000000E+00 
[...]
CELL_DATA 256 
SCALARS Pressure double 1 
LOOKUP_TABLE default 

    1.1631619431375919E+00 
    1.1072707157843200E+00 
    1.0633552942926476E+00 
    1.0223833262398354E+00 
    9.8273556443911980E-01 
    9.3786882377260061E-01 
    8.9285598335967165E-01 
    8.5901110004982895E-01 
    8.3276582708938596E-01 
    8.1274789796772584E-01 
    7.9797118054781258E-01 
    7.8759232879947461E-01 
    7.8082444936863349E-01 
    7.7690374810415919E-01 
    7.7507261692364848E-01 
    7.7457496923998936E-01 
    1.1073082711273285E+00 
    1.0952882112387332E+00 
    1.0655793158383675E+00 
    1.0301241004864976E+00 
    9.9319562673674600E-01 
    9.5075040465801530E-01 
    9.0483388192047121E-01 
    8.6859839259938387E-01 
    8.4000392227113141E-01 
    8.1785287132762319E-01 
    8.0124564823258304E-01 
    7.8937634744117968E-01 
    7.8147914728720769E-01 
    7.7680119155586180E-01 
    7.7458871427909104E-01 
    7.7408715586812815E-01 
    1.0633697316687272E+00 
    1.0655835581857283E+00 
    1.0501787082374980E+00 
    1.0238949305338303E+00 
    9.9241482202949804E-01 
    9.5325610182034626E-01 
    9.0886703763639254E-01 
    8.7220586380942833E-01 
    8.4252265024988637E-01 
    8.1905421342150209E-01 
    8.0118975798520387E-01 
    7.8828483161409857E-01 
    7.7966290688916029E-01 
    7.7461592034671078E-01 
    7.7240754688543722E-01 
    7.7228762013910723E-01 
    1.0223002655192368E+00 
    1.0300642638177013E+00 
    1.0238597726641980E+00 
    1.0062420364183704E+00 
    9.8069949773219567E-01 
    9.4547345907715297E-01 
    9.0415459643556739E-01 
    8.6899808252779831E-01 
    8.3949692945434173E-01 
    8.1557323403540705E-01 
    7.9705248525778394E-01 
    7.8357122394805057E-01 
    7.7462160301276239E-01 
    7.6958420547383999E-01 
    7.6775935366416648E-01 
    7.6840434012357295E-01 
    9.8256475594811143E-01 
    9.9304880669565476E-01 
    9.9231731270245227E-01 
    9.8065080073978017E-01 
    9.5892010652323667E-01 
    9.2760864307859692E-01 
    8.9095037229348395E-01 
    8.5885648600024955E-01 
    8.3058585497073789E-01 
    8.0693446821740811E-01 
    7.8826484877263137E-01 
    7.7459231573219844E-01 
    7.6565414714574020E-01 
    7.6096546730489589E-01 
    7.5988047755535792E-01 
    7.6166185446546775E-01 
    9.3770778211831618E-01 
    9.5059956662585376E-01 
    9.5313495907990953E-01 
    9.4538854878396272E-01 
    9.2756232335403266E-01 
    9.0133964614857287E-01 
    8.7111749020462259E-01 
    8.4256983962873255E-01 
    8.1607031795956075E-01 
    7.9308670120278191E-01 
    7.7453340998100006E-01 
    7.6086830075031220E-01 
    7.5214350802439467E-01 
    7.4805557176026183E-01 
    7.4802409443276041E-01 
    7.5130075079319669E-01 
    8.9274550413641351E-01 
    9.0473038502530345E-01 
    9.0878580796293740E-01 
    9.0408607859135570E-01 
    8.9089219941800180E-01 
    8.7109287695819582E-01 
    8.4730132761314725E-01 
    8.2175763754619757E-01 
    7.9688050669671495E-01 
    7.7447098650490409E-01 
    7.5591259067542804E-01 
    7.4213513050706092E-01 
    7.3357861894593057E-01 
    7.3018115123229776E-01 
    7.3143958394706443E-01 
    7.3655758440283581E-01 
    8.5892330660223659E-01 
    8.6850732476922687E-01 
    8.7212007885397091E-01 
    8.6892346199950543E-01 
    8.5879769553639584E-01 
    8.4253214150787403E-01 
    8.2174047905582837E-01 
    7.9834333418653070E-01 
    7.7443445582970771E-01 
    7.5201357111616973E-01 
    7.3285781114673354E-01 
    7.1840212977484308E-01 
    7.0958134731808553E-01 
    7.0668525986350839E-01 
    7.0932755539341885E-01 
    7.1660545453033309E-01 
    8.3269557155874196E-01 
    8.3992925126372131E-01 
    8.4244770319647544E-01 
    8.3942771550306550E-01 
    8.3052756785269988E-01 
    8.1602651268968918E-01 
    7.9685227476633214E-01 
    7.7442125527927586E-01 
    7.5050751409529493E-01 
    7.2710359664447066E-01 
    7.0628551191414435E-01 
    6.9003388851010494E-01 
    6.7995205352411003E-01 
    6.7690948321126410E-01 
    6.8077709589578472E-01 
    6.9049291505452182E-01 
    8.1269116580341483E-01 
    8.1779122568391860E-01 
    8.1898828072067498E-01 
    8.1550892978628930E-01 
    8.0687753213002567E-01 
    7.9304013997930234E-01 
    7.7443595815914013E-01 
    7.5199098055910318E-01 
    7.2709313075472604E-01 
    7.0157125475285398E-01 
    6.7766238969020021E-01 
    6.5789721133399737E-01 
    6.4478044864565898E-01 
    6.4019055737332786E-01 
    6.4465355626100984E-01 
    6.5700348158629795E-01 
    7.9792533349148242E-01 
    8.0119333148920779E-01 
    8.0113040830108162E-01 
    7.9699230245894170E-01 
    7.8820981812752999E-01 
    7.7448593894717288E-01 
    7.5587364779218946E-01 
    7.3282897154194704E-01 
    7.0626724107417893E-01 
    6.7765392466325569E-01 
    6.4913400691867662E-01 
    6.2363178525093510E-01 
    6.0472144089773183E-01 
    5.9594762885283559E-01 
    5.9942896597726192E-01 
    6.1438726653987108E-01 
    7.8755605697913944E-01 
    7.8933236662239037E-01 
    7.8823177791994847E-01 
    7.8351529167557732E-01 
    7.7453964726139135E-01 
    7.6082106745137734E-01 
    7.4209433431335226E-01 
    7.1836923144741638E-01 
    6.9000979900587611E-01 
    6.5788191960334041E-01 
    6.2362456387644472E-01 
    5.9006047226474290E-01 
    5.6159688316203982E-01 
    5.4406886723896641E-01 
    5.4299319423429571E-01 
    5.5982113998889926E-01 
    7.8079913861632133E-01 
    7.8144534802348986E-01 
    7.7961757772075602E-01 
    7.7457028595563959E-01 
    7.6560368364425169E-01 
    7.5209682005072320E-01 
    7.3353675449399902E-01 
    7.0954543185231711E-01 
    6.7992335670992743E-01 
    6.4475964821217313E-01 
    6.0470829230432355E-01 
    5.6159074640884465E-01 
    5.1948684457923266E-01 
    4.8610667037242933E-01 
    4.7271966965679557E-01 
    4.8828382430778272E-01 
    7.7689034564147275E-01 
    7.7677931012440771E-01 
    7.7457927762542511E-01 
    7.6953693688437086E-01 
    7.6091604143528513E-01 
    7.4800876230243674E-01 
    7.3013802055048926E-01 
    7.0664664936310562E-01 
    6.7687700804827655E-01 
    6.4016544084077365E-01 
    5.9592975083636457E-01 
    5.4405758822352634E-01 
    4.8610129488807785E-01 
    4.2827319288415505E-01 
    3.8700943113246994E-01 
    3.8996605810054419E-01 
    7.7507014190957813E-01 
    7.7457966049320603E-01 
    7.7238078037408608E-01 
    7.6771587203315195E-01 
    7.5983096532400130E-01 
    7.4797641366299605E-01 
    7.3139478685193360E-01 
    7.0928636019536684E-01 
    6.8074143569901358E-01 
    6.4462505677029702E-01 
    5.9940731551048765E-01 
    5.4297764994375119E-01 
    4.7270971213548335E-01 
    3.8700478447221531E-01 
    2.9342412179221955E-01 
    2.4379919026329885E-01 
    7.7457932722207123E-01 
    7.7408869883908948E-01 
    7.7226952860385256E-01 
    7.6836339521044039E-01 
    7.6161103320462165E-01 
    7.5125158998548713E-01 
    7.3651051696699721E-01 
    7.1656150192842694E-01 
    6.9045420235649912E-01 
    6.5697204834169143E-01 
    6.1436236112792764E-01 
    5.5980198021975824E-01 
    4.8827005832566228E-01 
    3.8995768668314418E-01 
    2.4379570988970323E-01 
    0.0000000000000000E+00 

SCALARS Saturarion double 1 
LOOKUP_TABLE default 

    9.9999898023120537E-01 
    9.1585080840477762E-01 
    7.7277754158560186E-01 
    6.4336693628000963E-01 
    5.5355565966973186E-01 
    3.1914001751426407E-01 
    4.3533572622960880E-03 
    1.0000008096875039E-06 
    1.0000000000001603E-06 
    9.9999999999999995E-07 
    9.9999999999999995E-07 
    9.9999999999999995E-07 
    9.9999999999999995E-07 
    9.9999999999999995E-07 
    9.9999999999999995E-07 
    9.9999999999999995E-07 
    9.1537469702533780E-01 
    8.4804376382594238E-01 
    7.3652351952667716E-01 
    6.3617426536263821E-01 
    5.5452088286726087E-01 
    3.6547412822322145E-01 
    1.6337509632114510E-02 
    2.3515470342930565E-06 
    1.0000001466661053E-06 
    1.0000000000000074E-06 
    9.9999999999999995E-07 
    9.9999999999999995E-07 
    9.9999999999999995E-07 
    9.9999999999999995E-07 
    9.9999999999999995E-07 
    9.9999999999999995E-07 
    7.7111789842333112E-01 
    7.3577091260868310E-01 
    6.6822723933245920E-01 
    6.0742148944934615E-01 
    5.4626428487749124E-01 
    3.8346180758409698E-01 
    2.3636456877106783E-02 
    1.1772157862687206E-06 
    1.0000000675552257E-06 
    9.9999999999999995E-07 
    9.9999999999999995E-07 
    9.9999999999999995E-07 
    9.9999999999999995E-07 
    9.9999999999999995E-07 
    9.9999999999999995E-07 
    9.9999999999999995E-07 
    6.4121119243203273E-01 
    6.3493966507528243E-01 
    6.0697777378102691E-01 
    5.7332614260029668E-01 
    5.1718614207762692E-01 
    3.4042528424329432E-01 
    1.1990153090204490E-02 
    4.1618367857535057E-06 
    1.0000004573882820E-06 
    1.0000000000000237E-06 
    9.9999999999999995E-07 
    9.9999999999999995E-07 
    9.9999999999999995E-07 
    9.9999999999999995E-07 
    9.9999999999999995E-07 
    9.9999999999999995E-07 
    5.5232485362710315E-01 
    5.5377483667395477E-01 
    5.4562819051493250E-01 
    5.1672694930055396E-01 
    4.5086121802492302E-01 
    2.0226115640911013E-01 
    8.9096878794360165E-04 
    1.0549894853988997E-06 
    1.0000000037118184E-06 
    1.0000000000000002E-06 
    9.9999999999999995E-07 
    9.9999999999999995E-07 
    9.9999999999999995E-07 
    9.9999999999999995E-07 
    9.9999999999999995E-07 
    9.9999999999999995E-07 
    3.1889938702146242E-01 
    3.6733317723944642E-01 
    3.8460677100940965E-01 
    3.3906068537865791E-01 
    2.0134956382649530E-01 
    2.3059167698143992E-02 
    1.5233712902473779E-05 
    1.0000124838367123E-06 
    1.0000000000000059E-06 
    9.9999999999999995E-07 
    9.9999999999999995E-07 
    9.9999999999999995E-07 
    9.9999999999999995E-07 
    9.9999999999999995E-07 
    9.9999999999999995E-07 
    9.9999999999999995E-07 
    4.1128518431017601E-03 
    1.7143339583252648E-02 
    2.5002171855997641E-02 
    1.2139760535182667E-02 
    8.5550489468271440E-04 
    1.5207266368625220E-05 
    1.0000239815022626E-06 
    1.0000000000019767E-06 
    9.9999999999999995E-07 
    9.9999999999999995E-07 
    9.9999999999999995E-07 
    9.9999999999999995E-07 
    9.9999999999999995E-07 
    9.9999999999999995E-07 
    9.9999999999999995E-07 
    9.9999999999999995E-07 
    1.0000008977974421E-06 
    2.7043063441679974E-06 
    1.1957174895983700E-06 
    4.5083323211989913E-06 
    1.0541951447591882E-06 
    1.0000124343061460E-06 
    1.0000000000019710E-06 
    9.9999999999999995E-07 
    9.9999999999999995E-07 
    9.9999999999999995E-07 
    9.9999999999999995E-07 
    9.9999999999999995E-07 
    9.9999999999999995E-07 
    9.9999999999999995E-07 
    9.9999999999999995E-07 
    9.9999999999999995E-07 
    1.0000000000001742E-06 
    1.0000001967476805E-06 
    1.0000000762071237E-06 
    1.0000005310051708E-06 
    1.0000000035839666E-06 
    1.0000000000000061E-06 
    9.9999999999999995E-07 
    9.9999999999999995E-07 
    9.9999999999999995E-07 
    9.9999999999999995E-07 
    9.9999999999999995E-07 
    9.9999999999999995E-07 
    9.9999999999999995E-07 
    9.9999999999999995E-07 
    9.9999999999999995E-07 
    9.9999999999999995E-07 
    9.9999999999999995E-07 
    1.0000000000000097E-06 
    9.9999999999999974E-07 
    1.0000000000000273E-06 
    1.0000000000000002E-06 
    9.9999999999999995E-07 
    9.9999999999999995E-07 
    9.9999999999999995E-07 
    9.9999999999999995E-07 
    9.9999999999999995E-07 
    9.9999999999999995E-07 
    9.9999999999999995E-07 
    9.9999999999999995E-07 
    9.9999999999999995E-07 
    9.9999999999999995E-07 
    9.9999999999999995E-07 
    9.9999999999999995E-07 
    9.9999999999999995E-07 
    9.9999999999999995E-07 
    9.9999999999999995E-07 
    9.9999999999999995E-07 
    9.9999999999999995E-07 
    9.9999999999999995E-07 
    9.9999999999999995E-07 
    9.9999999999999995E-07 
    9.9999999999999995E-07 
    9.9999999999999995E-07 
    9.9999999999999995E-07 
    9.9999999999999995E-07 
    9.9999999999999995E-07 
    9.9999999999999995E-07 
    9.9999999999999995E-07 
    9.9999999999999995E-07 
    9.9999999999999995E-07 
    9.9999999999999995E-07 
    9.9999999999999995E-07 
    9.9999999999999995E-07 
    9.9999999999999995E-07 
    9.9999999999999995E-07 
    9.9999999999999995E-07 
    9.9999999999999995E-07 
    9.9999999999999995E-07 
    9.9999999999999995E-07 
    9.9999999999999995E-07 
    9.9999999999999995E-07 
    9.9999999999999995E-07 
    9.9999999999999995E-07 
    9.9999999999999995E-07 
    9.9999999999999995E-07 
    9.9999999999999995E-07 
    9.9999999999999995E-07 
    9.9999999999999995E-07 
    9.9999999999999995E-07 
    9.9999999999999995E-07 
    9.9999999999999995E-07 
    9.9999999999999995E-07 
    9.9999999999999995E-07 
    9.9999999999999995E-07 
    9.9999999999999995E-07 
    9.9999999999999995E-07 
    9.9999999999999995E-07 
    9.9999999999999995E-07 
    9.9999999999999995E-07 
    9.9999999999999995E-07 
    9.9999999999999995E-07 
    9.9999999999999995E-07 
    9.9999999999999995E-07 
    9.9999999999999995E-07 
    9.9999999999999995E-07 
    9.9999999999999995E-07 
    9.9999999999999995E-07 
    9.9999999999999995E-07 
    9.9999999999999995E-07 
    9.9999999999999995E-07 
    9.9999999999999995E-07 
    9.9999999999999995E-07 
    9.9999999999999995E-07 
    9.9999999999999995E-07 
    9.9999999999999995E-07 
    9.9999999999999995E-07 
    9.9999999999999995E-07 
    9.9999999999999995E-07 
    9.9999999999999995E-07 
    9.9999999999999995E-07 
    9.9999999999999995E-07 
    9.9999999999999995E-07 
    9.9999999999999995E-07 
    9.9999999999999995E-07 
    9.9999999999999995E-07 
    9.9999999999999995E-07 
    9.9999999999999995E-07 
    9.9999999999999995E-07 
    9.9999999999999995E-07 
    9.9999999999999995E-07 
    9.9999999999999995E-07 
    9.9999999999999995E-07 
    9.9999999999999995E-07 
    9.9999999999999995E-07 
    9.9999999999999995E-07 
    9.9999999999999995E-07 
    9.9999999999999995E-07 
    9.9999999999999995E-07 
    9.9999999999999995E-07 
    9.9999999999999995E-07 
    9.9999999999999995E-07 
    9.9999999999999995E-07 
    9.9999999999999995E-07 
    9.9999999999999995E-07 
    9.9999999999999995E-07 
    9.9999999999999995E-07 
    9.9999999999999995E-07 
    1.0000000928174356E-06 
