# vtk DataFile Version 2.0
Pressure Field Data 
ASCII 
DATASET UNSTRUCTURED_GRID 

POINTS 289 double 

    0.0000000000000000E+00     0.0000000000000000E+00     0.0000000000000000E+00 
    1.0000000000000000E+00     0.0000000000000000E+00     0.0000000000000000E+00 
    1.0000000000000000E+00     1.0000000000000000E+00     0.0000000000000000E+00 
    0.0000000000000000E+00     1.0000000000000000E+00     0.0000000000000000E+00 
    6.2499999999872928E-02     0.0000000000000000E+00     0.0000000000000000E+00 
    1.2499999999977310E-01     0.0000000000000000E+00     0.0000000000000000E+00 
    1.8749999999959341E-01     0.0000000000000000E+00     0.0000000000000000E+00 
    2.4999999999941089E-01     0.0000000000000000E+00     0.0000000000000000E+00 
    3.1249999999922851E-01     0.0000000000000000E+00     0.0000000000000000E+00 
    3.7499999999904610E-01     0.0000000000000000E+00     0.0000000000000000E+00 
    4.3749999999886358E-01     0.0000000000000000E+00     0.0000000000000000E+00 
    4.9999999999869210E-01     0.0000000000000000E+00     0.0000000000000000E+00 
    5.6249999999884603E-01     0.0000000000000000E+00     0.0000000000000000E+00 
    6.2499999999901090E-01     0.0000000000000000E+00     0.0000000000000000E+00 
    6.8749999999917577E-01     0.0000000000000000E+00     0.0000000000000000E+00 
    7.4999999999934064E-01     0.0000000000000000E+00     0.0000000000000000E+00 
    8.1249999999950551E-01     0.0000000000000000E+00     0.0000000000000000E+00 
    8.7499999999967026E-01     0.0000000000000000E+00     0.0000000000000000E+00 
    9.3749999999983513E-01     0.0000000000000000E+00     0.0000000000000000E+00 
    1.0000000000000000E+00     6.2499999999872928E-02     0.0000000000000000E+00 
    1.0000000000000000E+00     1.2499999999977310E-01     0.0000000000000000E+00 
    1.0000000000000000E+00     1.8749999999959341E-01     0.0000000000000000E+00 
    1.0000000000000000E+00     2.4999999999941089E-01     0.0000000000000000E+00 
    1.0000000000000000E+00     3.1249999999922851E-01     0.0000000000000000E+00 
    1.0000000000000000E+00     3.7499999999904610E-01     0.0000000000000000E+00 
    1.0000000000000000E+00     4.3749999999886358E-01     0.0000000000000000E+00 
    1.0000000000000000E+00     4.9999999999869210E-01     0.0000000000000000E+00 
    1.0000000000000000E+00     5.6249999999884603E-01     0.0000000000000000E+00 
    1.0000000000000000E+00     6.2499999999901090E-01     0.0000000000000000E+00 
    1.0000000000000000E+00     6.8749999999917577E-01     0.0000000000000000E+00 
    1.0000000000000000E+00     7.4999999999934064E-01     0.0000000000000000E+00 
    1.0000000000000000E+00     8.1249999999950551E-01     0.0000000000000000E+00 
    1.0000000000000000E+00     8.7499999999967026E-01     0.0000000000000000E+00 
    1.0000000000000000E+00     9.3749999999983513E-01     0.0000000000000000E+00 
    9.3749999999973976E-01     1.0000000000000000E+00     0.0000000000000000E+00 
    8.7499999999950118E-01     1.0000000000000000E+00     0.0000000000000000E+00 
    8.1249999999991318E-01     1.0000000000000000E+00     0.0000000000000000E+00 
    7.5000000000034706E-01     1.0000000000000000E+00     0.0000000000000000E+00 
    6.8750000000078049E-01     1.0000000000000000E+00     0.0000000000000000E+00 
    6.2500000000121403E-01     1.0000000000000000E+00     0.0000000000000000E+00 
    5.6250000000164757E-01     1.0000000000000000E+00     0.0000000000000000E+00 
    5.0000000000205946E-01     1.0000000000000000E+00     0.0000000000000000E+00 
    4.3750000000182099E-01     1.0000000000000000E+00     0.0000000000000000E+00 
    3.7500000000156092E-01     1.0000000000000000E+00     0.0000000000000000E+00 
    3.1250000000130068E-01     1.0000000000000000E+00     0.0000000000000000E+00 
    2.5000000000104050E-01     1.0000000000000000E+00     0.0000000000000000E+00 
    1.8750000000078040E-01     1.0000000000000000E+00     0.0000000000000000E+00 
    1.2500000000052031E-01     1.0000000000000000E+00     0.0000000000000000E+00 
    6.2500000000260125E-02     1.0000000000000000E+00     0.0000000000000000E+00 
    0.0000000000000000E+00     9.3749999999973976E-01     0.0000000000000000E+00 
    0.0000000000000000E+00     8.7499999999950118E-01     0.0000000000000000E+00 
    0.0000000000000000E+00     8.1249999999991318E-01     0.0000000000000000E+00 
    0.0000000000000000E+00     7.5000000000034706E-01     0.0000000000000000E+00 
    0.0000000000000000E+00     6.8750000000078049E-01     0.0000000000000000E+00 
    0.0000000000000000E+00     6.2500000000121403E-01     0.0000000000000000E+00 
    0.0000000000000000E+00     5.6250000000164757E-01     0.0000000000000000E+00 
    0.0000000000000000E+00     5.0000000000205946E-01     0.0000000000000000E+00 
    0.0000000000000000E+00     4.3750000000182099E-01     0.0000000000000000E+00 
    0.0000000000000000E+00     3.7500000000156092E-01     0.0000000000000000E+00 
    0.0000000000000000E+00     3.1250000000130068E-01     0.0000000000000000E+00 
    0.0000000000000000E+00     2.5000000000104050E-01     0.0000000000000000E+00 
    0.0000000000000000E+00     1.8750000000078040E-01     0.0000000000000000E+00 
    0.0000000000000000E+00     1.2500000000052031E-01     0.0000000000000000E+00 
    0.0000000000000000E+00     6.2500000000260125E-02     0.0000000000000000E+00 
    6.2499999999897131E-02     6.2500000000235922E-02     0.0000000000000000E+00 
    6.2499999999921327E-02     1.2500000000047351E-01     0.0000000000000000E+00 
    6.2499999999945530E-02     1.8750000000070621E-01     0.0000000000000000E+00 
    6.2499999999969733E-02     2.5000000000093858E-01     0.0000000000000000E+00 
    6.2499999999993928E-02     3.1250000000117117E-01     0.0000000000000000E+00 
    6.2500000000018124E-02     3.7500000000140382E-01     0.0000000000000000E+00 
    6.2500000000042327E-02     4.3750000000163619E-01     0.0000000000000000E+00 
    6.2500000000066530E-02     5.0000000000184897E-01     0.0000000000000000E+00 
    6.2500000000090733E-02     5.6250000000147260E-01     0.0000000000000000E+00 
    6.2500000000114922E-02     6.2500000000107636E-01     0.0000000000000000E+00 
    6.2500000000139125E-02     6.8750000000068034E-01     0.0000000000000000E+00 
    6.2500000000163328E-02     7.5000000000028411E-01     0.0000000000000000E+00 
    6.2500000000187531E-02     8.1249999999988787E-01     0.0000000000000000E+00 
    6.2500000000211720E-02     8.7499999999951172E-01     0.0000000000000000E+00 
    6.2500000000235922E-02     9.3749999999974565E-01     0.0000000000000000E+00 
    1.2499999999981980E-01     6.2500000000211733E-02     0.0000000000000000E+00 
    1.2499999999986650E-01     1.2500000000042691E-01     0.0000000000000000E+00 
    1.2499999999991319E-01     1.8750000000063199E-01     0.0000000000000000E+00 
    1.2499999999995989E-01     2.5000000000083678E-01     0.0000000000000000E+00 
    1.2500000000000661E-01     3.1250000000104172E-01     0.0000000000000000E+00 
    1.2500000000005329E-01     3.7500000000124661E-01     0.0000000000000000E+00 
    1.2500000000010000E-01     4.3750000000145117E-01     0.0000000000000000E+00 
    1.2500000000014669E-01     5.0000000000163858E-01     0.0000000000000000E+00 
    1.2500000000019340E-01     5.6250000000129741E-01     0.0000000000000000E+00 
    1.2500000000024011E-01     6.2500000000093847E-01     0.0000000000000000E+00 
    1.2500000000028680E-01     6.8750000000057998E-01     0.0000000000000000E+00 
    1.2500000000033351E-01     7.5000000000022127E-01     0.0000000000000000E+00 
    1.2500000000038020E-01     8.1249999999986211E-01     0.0000000000000000E+00 
    1.2500000000042691E-01     8.7499999999952238E-01     0.0000000000000000E+00 
    1.2500000000047359E-01     9.3749999999975164E-01     0.0000000000000000E+00 
    1.8749999999966760E-01     6.2500000000187531E-02     0.0000000000000000E+00 
    1.8749999999974179E-01     1.2500000000038020E-01     0.0000000000000000E+00 
    1.8749999999981601E-01     1.8750000000055780E-01     0.0000000000000000E+00 
    1.8749999999989009E-01     2.5000000000073502E-01     0.0000000000000000E+00 
    1.8749999999996431E-01     3.1250000000091221E-01     0.0000000000000000E+00 
    1.8750000000003850E-01     3.7500000000108941E-01     0.0000000000000000E+00 
    1.8750000000011269E-01     4.3750000000126649E-01     0.0000000000000000E+00 
    1.8750000000018691E-01     5.0000000000142808E-01     0.0000000000000000E+00 
    1.8750000000026110E-01     5.6250000000112244E-01     0.0000000000000000E+00 
    1.8750000000033529E-01     6.2500000000080080E-01     0.0000000000000000E+00 
    1.8750000000040951E-01     6.8750000000047962E-01     0.0000000000000000E+00 
    1.8750000000048361E-01     7.5000000000015843E-01     0.0000000000000000E+00 
    1.8750000000055780E-01     8.1249999999983680E-01     0.0000000000000000E+00 
    1.8750000000063199E-01     8.7499999999953304E-01     0.0000000000000000E+00 
    1.8750000000070621E-01     9.3749999999975764E-01     0.0000000000000000E+00 
    2.4999999999951281E-01     6.2500000000163314E-02     0.0000000000000000E+00 
    2.4999999999961461E-01     1.2500000000033351E-01     0.0000000000000000E+00 
    2.4999999999971650E-01     1.8750000000048361E-01     0.0000000000000000E+00 
    2.4999999999981831E-01     2.5000000000063310E-01     0.0000000000000000E+00 
    2.4999999999992020E-01     3.1250000000078260E-01     0.0000000000000000E+00 
    2.5000000000002198E-01     3.7500000000093209E-01     0.0000000000000000E+00 
    2.5000000000012390E-01     4.3750000000108180E-01     0.0000000000000000E+00 
    2.5000000000022571E-01     5.0000000000121769E-01     0.0000000000000000E+00 
    2.5000000000032763E-01     5.6250000000094724E-01     0.0000000000000000E+00 
    2.5000000000042938E-01     6.2500000000066314E-01     0.0000000000000000E+00 
    2.5000000000053119E-01     6.8750000000037925E-01     0.0000000000000000E+00 
[...]
CELL_DATA 256 
SCALARS Pressure double 1 
LOOKUP_TABLE default 

    9.6786900653323904E-01 
    9.1716753802328876E-01 
    8.8436175355946978E-01 
    8.5936570461603501E-01 
    8.3818319447574818E-01 
    8.1963334837875357E-01 
    8.0344807573774746E-01 
    7.8959060849627982E-01 
    7.7800435804042933E-01 
    7.6819039107967335E-01 
    7.5843885343147410E-01 
    7.5016191421349032E-01 
    7.4502198473443937E-01 
    7.4205711672211583E-01 
    7.4067566866633994E-01 
    7.4030313106492451E-01 
    9.1718033775518359E-01 
    9.0666296578407568E-01 
    8.8518747078844529E-01 
    8.6338805210265546E-01 
    8.4298263758417080E-01 
    8.2432529750810835E-01 
    8.0762438704996420E-01 
    7.9305537463521059E-01 
    7.8073674505224844E-01 
    7.7043022147897877E-01 
    7.6069793902211869E-01 
    7.5154395252381778E-01 
    7.4551274031989379E-01 
    7.4197401418677178E-01 
    7.4030382591637367E-01 
    7.3993105079269028E-01 
    8.8438044246453851E-01 
    8.8519728463201175E-01 
    8.7492743290967168E-01 
    8.5929879252720232E-01 
    8.4188907799003443E-01 
    8.2450490315782110E-01 
    8.0812411532718964E-01 
    7.9335135070157148E-01 
    7.8058592727311760E-01 
    7.6989275243044719E-01 
    7.6037820841568760E-01 
    7.5091423071814489E-01 
    7.4415479707046206E-01 
    7.4031539078204667E-01 
    7.3863752794991488E-01 
    7.3855096820098132E-01 
    8.5938060487622248E-01 
    8.6339952734521663E-01 
    8.5930394191541526E-01 
    8.4909601304913773E-01 
    8.3535809328527610E-01 
    8.2009849346845254E-01 
    8.0471491934643313E-01 
    7.9020018773967460E-01 
    7.7726643629337611E-01 
    7.6630155928600674E-01 
    7.5698599663764932E-01 
    7.4776300391737449E-01 
    7.4041831910067568E-01 
    7.3652172236944990E-01 
    7.3510292025804735E-01 
    7.3558489003921079E-01 
    8.3818715849800463E-01 
    8.4298727636336079E-01 
    8.4189263413056525E-01 
    8.3535976739195861E-01 
    8.2478040061140800E-01 
    8.1172856696237816E-01 
    7.9760849974450854E-01 
    7.8360147092812671E-01 
    7.7066587429749844E-01 
    7.5948189363334007E-01 
    7.5018356053983415E-01 
    7.4153392356549386E-01 
    7.3391039137921121E-01 
    7.3006502694274433E-01 
    7.2912928776651409E-01 
    7.3045245431997963E-01 
    8.1962601392635648E-01 
    8.2431926736739802E-01 
    8.2450015673241295E-01 
    8.2009578490920387E-01 
    8.1172674530886546E-01 
    8.0044465960545608E-01 
    7.8744114930130782E-01 
    7.7390105325257863E-01 
    7.6092391416869598E-01 
    7.4942844803100672E-01 
    7.3994505092094609E-01 
    7.3183188709010427E-01 
    7.2426478521869986E-01 
    7.2039455075745784E-01 
    7.2012304315864095E-01 
    7.2255294727506691E-01 
    8.0342507759959558E-01 
    8.0760451756980389E-01 
    8.0810713193871642E-01 
    8.0470285552973986E-01 
    7.9760060044465675E-01 
    7.8743683194866654E-01 
    7.7513024243210271E-01 
    7.6175704781640996E-01 
    7.4845572083650325E-01 
    7.3632143219166113E-01 
    7.2622822786858154E-01 
    7.1819685316055371E-01 
    7.1087273119066285E-01 
    7.0686209069598116E-01 
    7.0742044546741290E-01 
    7.1122791854683187E-01 
    7.8954453208060860E-01 
    7.9301516286077178E-01 
    7.9331839798854276E-01 
    7.9017611628553408E-01 
    7.8358437236700307E-01 
    7.7388965161320378E-01 
    7.6175154428499336E-01 
    7.4807936135731568E-01 
    7.3396721426832023E-01 
    7.2061978289167405E-01 
    7.0921954902304030E-01 
    7.0036795876835034E-01 
    6.9313056875080958E-01 
    6.8889483939719021E-01 
    6.9028772261088378E-01 
    6.9572983294788515E-01 
    7.7793623323800332E-01 
    7.8067426011185215E-01 
    7.8053624331756855E-01 
    7.7723143894027114E-01 
    7.7063875902833168E-01 
    7.6090219939007320E-01 
    7.4844146597332006E-01 
    7.3396094281424740E-01 
    7.1844227123179971E-01 
    7.0312730390264067E-01 
    6.8946916069371489E-01 
    6.7868784924974312E-01 
    6.7076678125696287E-01 
    6.6587606870983695E-01 
    6.6778254907774115E-01 
    6.7512560205557848E-01 
    7.6811612905751814E-01 
    7.7035614126484120E-01 
    7.6983332458196219E-01 
    7.6626290851922108E-01 
    7.5945062873701452E-01 
    7.4939748527195427E-01 
    7.3629541955742550E-01 
    7.2060399018297938E-01 
    7.0311955525348202E-01 
    6.8501808012997345E-01 
    6.6792045129608746E-01 
    6.5366454962752885E-01 
    6.4341248996863576E-01 
    6.3700139254534260E-01 
    6.3857444061331803E-01 
    6.4813368107728841E-01 
    7.5838341538475329E-01 
    7.6064611554269046E-01 
    7.6033476940296585E-01 
    7.5695848671109500E-01 
    7.5015743204602170E-01 
    7.3990676921413201E-01 
    7.2618690232930538E-01 
    7.0918948629253942E-01 
    6.8944915473641477E-01 
    6.6790615370125095E-01 
    6.4613041525738790E-01 
    6.2640528009222596E-01 
    6.1106048826293491E-01 
    6.0126978995159952E-01 
    6.0099825048879174E-01 
    6.1290806433273337E-01 
    7.5011293876647323E-01 
    7.5149940191947118E-01 
    7.5087950473346021E-01 
    7.4773395485589811E-01 
    7.4149754153453529E-01 
    7.3177901675999057E-01 
    7.1813632143965667E-01 
    7.0032193742213222E-01 
    6.7865876935646963E-01 
    6.5363594722306284E-01 
    6.2638552747615817E-01 
    5.9921947413705223E-01 
    5.7541577839428926E-01 
    5.5841644322792094E-01 
    5.5283211959240286E-01 
    5.6632431358360147E-01 
    7.4497266886962787E-01 
    7.4546371531608535E-01 
    7.4410640032205244E-01 
    7.4036942918396909E-01 
    7.3386137850631317E-01 
    7.2420335907667899E-01 
    7.1080686913736024E-01 
    6.9308031967176809E-01 
    6.7073680431917804E-01 
    6.4337125634389924E-01 
    6.1102246259198822E-01 
    5.7539958398506352E-01 
    5.3953945974945861E-01 
    5.0879624565443327E-01 
    4.9121078293667086E-01 
    5.0237194237402694E-01 
    7.4200843132887595E-01 
    7.4192532030323932E-01 
    7.4026687266380742E-01 
    7.3647356753409232E-01 
    7.3001762891469490E-01 
    7.2034549629519706E-01 
    7.0681220750613616E-01 
    6.8885031922581630E-01 
    6.6585009771566839E-01 
    6.3697723152043806E-01 
    6.0124185811686404E-01 
    5.5841962345116469E-01 
    5.0881314198978045E-01 
    4.5680297728702779E-01 
    4.1333892478927381E-01 
    4.0834559883101684E-01 
    7.4062730097916674E-01 
    7.4025533249822217E-01 
    7.3858887601749224E-01 
    7.3505475964950995E-01 
    7.2908204123961573E-01 
    7.2007613163734163E-01 
    7.0737443719178783E-01 
    6.9024570446307643E-01 
    6.6775125462478624E-01 
    6.3855329517594428E-01 
    6.0097961326436478E-01 
    5.5285182187755211E-01 
    4.9124186209800214E-01 
    4.1333793910138777E-01 
    3.2271579520676702E-01 
    2.6187343163170201E-01 
    7.4025491073168148E-01 
    7.3988265669360220E-01 
    7.3850211401597154E-01 
    7.3553647828393609E-01 
    7.3040511047807799E-01 
    7.2250625446972994E-01 
    7.1118249815775247E-01 
    6.9568781533145607E-01 
    6.7509129789527267E-01 
    6.4810933257150560E-01 
    6.1288997821438007E-01 
    5.6632225325269192E-01 
    5.0239526230029175E-01 
    4.0833864889675175E-01 
    2.6183277175801872E-01 
    0.0000000000000000E+00 

SCALARS Saturarion double 1 
LOOKUP_TABLE default 

    1.0000000000000000E+00 
    9.7552888204134680E-01 
    9.3286255589608857E-01 
    8.5696385666324082E-01 
    7.7827132982088376E-01 
    7.1192362477452209E-01 
    6.5460980759477572E-01 
    6.0510179325174740E-01 
    5.5704959657601483E-01 
    4.8020557138428016E-01 
    1.8984628014184596E-01 
    6.4276005514033783E-06 
    1.0000000194327135E-06 
    1.0000000000000008E-06 
    9.9999999999999995E-07 
    9.9999999999999995E-07 
    9.7541853888292418E-01 
    9.5425066605047271E-01 
    9.1609230139508435E-01 
    8.5291892490641208E-01 
    7.8377883055804110E-01 
    7.2105527920508850E-01 
    6.6462178174590758E-01 
    6.1521751249986989E-01 
    5.6843876141036287E-01 
    5.0308369214317583E-01 
    3.0182393412833070E-01 
    6.2770711874421369E-03 
    1.8666797885379305E-06 
    1.0000001332210035E-06 
    9.9999999999999995E-07 
    9.9999999999999995E-07 
    9.3251961938458550E-01 
    9.1589738518010122E-01 
    8.8021188516803961E-01 
    8.3255625191289373E-01 
    7.7921638807624782E-01 
    7.2537687077557211E-01 
    6.7365828865626565E-01 
    6.2610297503041623E-01 
    5.8024977228577179E-01 
    5.2600178670102171E-01 
    4.0271661657058883E-01 
    7.0518566516066389E-02 
    1.5090940707794117E-04 
    1.0027858377734935E-06 
    9.9999999999999995E-07 
    9.9999999999999995E-07 
    8.5625025916846698E-01 
    8.5253200571512133E-01 
    8.3240207377461306E-01 
    8.0097571886645103E-01 
    7.6214975522094452E-01 
    7.1899987760878381E-01 
    6.7492967571144735E-01 
    6.3187055708214723E-01 
    5.8915036124399867E-01 
    5.4164136468909618E-01 
    4.5824187896615132E-01 
    1.8140813317849364E-01 
    6.6217013554161234E-04 
    1.0437807717214371E-06 
    1.0000000024693265E-06 
    9.9999999999999995E-07 
    7.7748146312280320E-01 
    7.8321348145311609E-01 
    7.7887205777224244E-01 
    7.6195714176672602E-01 
    7.3598658086870039E-01 
    7.0396651193075888E-01 
    6.6866592598141583E-01 
    6.3216776489270099E-01 
    5.9477530076167129E-01 
    5.5409583321646416E-01 
    4.9286936628077332E-01 
    2.9781064194677159E-01 
    1.5416287905107502E-02 
    1.3917173788511293E-05 
    1.0000113007640861E-06 
    9.9999999999999995E-07 
    7.1113563434517657E-01 
    7.2048226335763199E-01 
    7.2495139767067263E-01 
    7.1860814398999473E-01 
    7.0374408772679220E-01 
    6.8230875666088231E-01 
    6.5622503183012948E-01 
    6.2748374653589623E-01 
    5.9658955119569834E-01 
    5.6182071753312746E-01 
    5.1305758945182589E-01 
    3.9324814463478236E-01 
    7.4504134775642522E-02 
    1.7990995757726042E-04 
    1.0058549658020250E-06 
    9.9999999999999995E-07 
    6.5339302435979696E-01 
    6.6388472246636032E-01 
    6.7325757787349594E-01 
    6.7454037555967794E-01 
    6.6829007245578365E-01 
    6.5603640177285516E-01 
    6.3900759943721175E-01 
    6.1839639526994572E-01 
    5.9449705271422348E-01 
    5.6600100942295828E-01 
    5.2781945616143677E-01 
    4.3985435075122270E-01 
    1.5862713124974281E-01 
    7.4858027415750539E-04 
    1.0390998721550294E-06 
    1.0000000031355505E-06 
    6.0357796950771703E-01 
    6.1428717046801973E-01 
    6.2570503298317426E-01 
    6.3159123462984901E-01 
    6.3177724042313210E-01 
    6.2710136459764843E-01 
    6.1818755029304562E-01 
    6.0529067558933936E-01 
    5.8824787912852183E-01 
    5.6633129605128274E-01 
    5.3591756716719363E-01 
    4.7415971056971351E-01 
    2.6631059244096161E-01 
    1.2990295635938138E-02 
    1.1068129203834136E-05 
    1.0000058057556963E-06 
    5.5561802179483022E-01 
    5.6757413512663180E-01 
    5.8003421887197137E-01 
    5.8897870610896219E-01 
    5.9452381742700333E-01 
    5.9618722355942910E-01 
    5.9408134500980048E-01 
    5.8797468496428074E-01 
    5.7749453525668415E-01 
    5.6231313067526190E-01 
    5.4074545360927051E-01 
    4.9639741214194255E-01 
    3.7286898136771846E-01 
    7.5991657108655075E-02 
    3.0817373417208415E-04 
    1.0147723447452220E-06 
    4.7959615637872588E-01 
    5.0322833504836917E-01 
    5.2660476435291825E-01 
    5.4151677099672990E-01 
    5.5389219289874814E-01 
    5.6170873770208096E-01 
    5.6570134896443158E-01 
    5.6587527976080187E-01 
    5.6195156273288505E-01 
    5.5354636795762291E-01 
    5.4011785845288618E-01 
    5.1141501992140137E-01 
    4.3030979933380475E-01 
    1.6097449408548656E-01 
    1.6572663172656646E-03 
    1.1064878286943839E-06 
    1.9035669223969692E-01 
    3.0549867015436455E-01 
    4.0647190711732911E-01 
    4.5884030550315341E-01 
    4.9233871477952751E-01 
    5.1269996541998897E-01 
    5.2762854334041043E-01 
    5.3562315026619389E-01 
    5.4013156015615471E-01 
    5.3967206492031294E-01 
    5.3389206949079515E-01 
    5.1851614137429569E-01 
    4.6841919993229081E-01 
    2.7951635824653714E-01 
    2.7820922881166360E-02 
    6.0447201773880663E-05 
    6.7181671631227561E-06 
    7.1278481202085246E-03 
    7.6141282558145840E-02 
    1.8067861672658372E-01 
    2.9374255705722935E-01 
    3.9078298146774026E-01 
    4.3980699515028643E-01 
    4.7456053347566673E-01 
    4.9617352757224720E-01 
    5.1095985216079387E-01 
    5.1820653910632775E-01 
    5.1658862853607623E-01 
    4.9172819267750817E-01 
    3.9365563367816342E-01 
    1.0613619516882460E-01 
    4.3847038297959649E-04 
    1.0000000223270837E-06 
    2.1417022567552348E-06 
    1.7027861795552778E-04 
    5.9827289259580679E-04 
    1.4807456756231876E-02 
    7.3231495245002165E-02 
    1.5945936378810624E-01 
    2.6838907143140117E-01 
    3.7375067305785026E-01 
    4.2982261146669659E-01 
    4.6796692475981200E-01 
    4.9148985853248173E-01 
    4.9430131615793116E-01 
    4.4639632857315148E-01 
    2.3600111240105121E-01 
    2.3262373287241209E-02 
    1.0000000000000012E-06 
    1.0000001909744919E-06 
    1.0037641326367805E-06 
    1.0323316694254649E-06 
    1.3066496240576456E-05 
    1.8917409360605825E-04 
    8.1778446054640006E-04 
    1.3102716479802275E-02 
    7.5451388532575311E-02 
    1.6202694931721384E-01 
    2.8337427811105786E-01 
    3.9419152838638222E-01 
    4.4649929708006664E-01 
    4.5804453709683213E-01 
    3.7039399470908890E-01 
    1.6590917472367273E-01 
    9.9999999999999995E-07 
    9.9999999999999995E-07 
    9.9999999999999995E-07 
    1.0000000021352076E-06 
    1.0000099146644714E-06 
    1.0063342778606100E-06 
    1.0447370039848039E-06 
    1.1437571626524548E-05 
    2.9073073342931810E-04 
    1.7944830703283772E-03 
    2.8949956008836052E-02 
    1.0461509170458629E-01 
    2.3504111942143902E-01 
    3.6959440086772638E-01 
    3.8203672336409050E-01 
    2.6351739619388537E-01 
    9.9999999999999995E-07 
    9.9999999999999995E-07 
    9.9999999999999995E-07 
    9.9999999999999995E-07 
    9.9999999999999995E-07 
    9.9999999999999995E-07 
    1.0000000037221069E-06 
    1.0000062974784513E-06 
    1.0129750338393709E-06 
    1.1251184269516379E-06 
    6.4467819200846852E-05 
    4.0146517533743667E-04 
    2.3487029968849885E-02 
    1.6350350891912413E-01 
    2.6335451427451356E-01 
    2.6314216650596695E-01 
