# vtk DataFile Version 2.0
Pressure Field Data 
ASCII 
DATASET UNSTRUCTURED_GRID 

POINTS 289 double 

    0.0000000000000000E+00     0.0000000000000000E+00     0.0000000000000000E+00 
    1.0000000000000000E+00     0.0000000000000000E+00     0.0000000000000000E+00 
    1.0000000000000000E+00     1.0000000000000000E+00     0.0000000000000000E+00 
    0.0000000000000000E+00     1.0000000000000000E+00     0.0000000000000000E+00 
    6.2499999999872928E-02     0.0000000000000000E+00     0.0000000000000000E+00 
    1.2499999999977310E-01     0.0000000000000000E+00     0.0000000000000000E+00 
    1.8749999999959341E-01     0.0000000000000000E+00     0.0000000000000000E+00 
    2.4999999999941089E-01     0.0000000000000000E+00     0.0000000000000000E+00 
    3.1249999999922851E-01     0.0000000000000000E+00     0.0000000000000000E+00 
    3.7499999999904610E-01     0.0000000000000000E+00     0.0000000000000000E+00 
    4.3749999999886358E-01     0.0000000000000000E+00     0.0000000000000000E+00 
    4.9999999999869210E-01     0.0000000000000000E+00     0.0000000000000000E+00 
    5.6249999999884603E-01     0.0000000000000000E+00     0.0000000000000000E+00 
    6.2499999999901090E-01     0.0000000000000000E+00     0.0000000000000000E+00 
    6.8749999999917577E-01     0.0000000000000000E+00     0.0000000000000000E+00 
    7.4999999999934064E-01     0.0000000000000000E+00     0.0000000000000000E+00 
    8.1249999999950551E-01     0.0000000000000000E+00     0.0000000000000000E+00 
    8.7499999999967026E-01     0.0000000000000000E+00     0.0000000000000000E+00 
    9.3749999999983513E-01     0.0000000000000000E+00     0.0000000000000000E+00 
    1.0000000000000000E+00     6.2499999999872928E-02     0.0000000000000000E+00 
    1.0000000000000000E+00     1.2499999999977310E-01     0.0000000000000000E+00 
    1.0000000000000000E+00     1.8749999999959341E-01     0.0000000000000000E+00 
    1.0000000000000000E+00     2.4999999999941089E-01     0.0000000000000000E+00 
    1.0000000000000000E+00     3.1249999999922851E-01     0.0000000000000000E+00 
    1.0000000000000000E+00     3.7499999999904610E-01     0.0000000000000000E+00 
    1.0000000000000000E+00     4.3749999999886358E-01     0.0000000000000000E+00 
    1.0000000000000000E+00     4.9999999999869210E-01     0.0000000000000000E+00 
    1.0000000000000000E+00     5.6249999999884603E-01     0.0000000000000000E+00 
    1.0000000000000000E+00     6.2499999999901090E-01     0.0000000000000000E+00 
    1.0000000000000000E+00     6.8749999999917577E-01     0.0000000000000000E+00 
    1.0000000000000000E+00     7.4999999999934064E-01     0.0000000000000000E+00 
    1.0000000000000000E+00     8.1249999999950551E-01     0.0000000000000000E+00 
    1.0000000000000000E+00     8.7499999999967026E-01     0.0000000000000000E+00 
    1.0000000000000000E+00     9.3749999999983513E-01     0.0000000000000000E+00 
    9.3749999999973976E-01     1.0000000000000000E+00     0.0000000000000000E+00 
    8.7499999999950118E-01     1.0000000000000000E+00     0.0000000000000000E+00 
    8.1249999999991318E-01     1.0000000000000000E+00     0.0000000000000000E+00 
    7.5000000000034706E-01     1.0000000000000000E+00     0.0000000000000000E+00 
    6.8750000000078049E-01     1.0000000000000000E+00     0.0000000000000000E+00 
    6.2500000000121403E-01     1.0000000000000000E+00     0.0000000000000000E+00 
    5.6250000000164757E-01     1.0000000000000000E+00     0.0000000000000000E+00 
    5.0000000000205946E-01     1.0000000000000000E+00     0.0000000000000000E+00 
    4.3750000000182099E-01     1.0000000000000000E+00     0.0000000000000000E+00 
    3.7500000000156092E-01     1.0000000000000000E+00     0.0000000000000000E+00 
    3.1250000000130068E-01     1.0000000000000000E+00     0.0000000000000000E+00 
    2.5000000000104050E-01     1.0000000000000000E+00     0.0000000000000000E+00 
    1.8750000000078040E-01     1.0000000000000000E+00     0.0000000000000000E+00 
    1.2500000000052031E-01     1.0000000000000000E+00     0.0000000000000000E+00 
    6.2500000000260125E-02     1.0000000000000000E+00     0.0000000000000000E+00 
    0.0000000000000000E+00     9.3749999999973976E-01     0.0000000000000000E+00 
    0.0000000000000000E+00     8.7499999999950118E-01     0.0000000000000000E+00 
    0.0000000000000000E+00     8.1249999999991318E-01     0.0000000000000000E+00 
    0.0000000000000000E+00     7.5000000000034706E-01     0.0000000000000000E+00 
    0.0000000000000000E+00     6.8750000000078049E-01     0.0000000000000000E+00 
    0.0000000000000000E+00     6.2500000000121403E-01     0.0000000000000000E+00 
    0.0000000000000000E+00     5.6250000000164757E-01     0.0000000000000000E+00 
    0.0000000000000000E+00     5.0000000000205946E-01     0.0000000000000000E+00 
    0.0000000000000000E+00     4.3750000000182099E-01     0.0000000000000000E+00 
    0.0000000000000000E+00     3.7500000000156092E-01     0.0000000000000000E+00 
    0.0000000000000000E+00     3.1250000000130068E-01     0.0000000000000000E+00 
    0.0000000000000000E+00     2.5000000000104050E-01     0.0000000000000000E+00 
    0.0000000000000000E+00     1.8750000000078040E-01     0.0000000000000000E+00 
    0.0000000000000000E+00     1.2500000000052031E-01     0.0000000000000000E+00 
    0.0000000000000000E+00     6.2500000000260125E-02     0.0000000000000000E+00 
    6.2499999999897131E-02     6.2500000000235922E-02     0.0000000000000000E+00 
    6.2499999999921327E-02     1.2500000000047351E-01     0.0000000000000000E+00 
    6.2499999999945530E-02     1.8750000000070621E-01     0.0000000000000000E+00 
    6.2499999999969733E-02     2.5000000000093858E-01     0.0000000000000000E+00 
    6.2499999999993928E-02     3.1250000000117117E-01     0.0000000000000000E+00 
    6.2500000000018124E-02     3.7500000000140382E-01     0.0000000000000000E+00 
    6.2500000000042327E-02     4.3750000000163619E-01     0.0000000000000000E+00 
    6.2500000000066530E-02     5.0000000000184897E-01     0.0000000000000000E+00 
    6.2500000000090733E-02     5.6250000000147260E-01     0.0000000000000000E+00 
    6.2500000000114922E-02     6.2500000000107636E-01     0.0000000000000000E+00 
    6.2500000000139125E-02     6.8750000000068034E-01     0.0000000000000000E+00 
    6.2500000000163328E-02     7.5000000000028411E-01     0.0000000000000000E+00 
    6.2500000000187531E-02     8.1249999999988787E-01     0.0000000000000000E+00 
    6.2500000000211720E-02     8.7499999999951172E-01     0.0000000000000000E+00 
    6.2500000000235922E-02     9.3749999999974565E-01     0.0000000000000000E+00 
    1.2499999999981980E-01     6.2500000000211733E-02     0.0000000000000000E+00 
    1.2499999999986650E-01     1.2500000000042691E-01     0.0000000000000000E+00 
    1.2499999999991319E-01     1.8750000000063199E-01     0.0000000000000000E+00 
    1.2499999999995989E-01     2.5000000000083678E-01     0.0000000000000000E+00 
    1.2500000000000661E-01     3.1250000000104172E-01     0.0000000000000000E+00 
    1.2500000000005329E-01     3.7500000000124661E-01     0.0000000000000000E+00 
    1.2500000000010000E-01     4.3750000000145117E-01     0.0000000000000000E+00 
    1.2500000000014669E-01     5.0000000000163858E-01     0.0000000000000000E+00 
    1.2500000000019340E-01     5.6250000000129741E-01     0.0000000000000000E+00 
    1.2500000000024011E-01     6.2500000000093847E-01     0.0000000000000000E+00 
    1.2500000000028680E-01     6.8750000000057998E-01     0.0000000000000000E+00 
    1.2500000000033351E-01     7.5000000000022127E-01     0.0000000000000000E+00 
    1.2500000000038020E-01     8.1249999999986211E-01     0.0000000000000000E+00 
    1.2500000000042691E-01     8.7499999999952238E-01     0.0000000000000000E+00 
    1.2500000000047359E-01     9.3749999999975164E-01     0.0000000000000000E+00 
    1.8749999999966760E-01     6.2500000000187531E-02     0.0000000000000000E+00 
    1.8749999999974179E-01     1.2500000000038020E-01     0.0000000000000000E+00 
    1.8749999999981601E-01     1.8750000000055780E-01     0.0000000000000000E+00 
    1.8749999999989009E-01     2.5000000000073502E-01     0.0000000000000000E+00 
    1.8749999999996431E-01     3.1250000000091221E-01     0.0000000000000000E+00 
    1.8750000000003850E-01     3.7500000000108941E-01     0.0000000000000000E+00 
    1.8750000000011269E-01     4.3750000000126649E-01     0.0000000000000000E+00 
    1.8750000000018691E-01     5.0000000000142808E-01     0.0000000000000000E+00 
    1.8750000000026110E-01     5.6250000000112244E-01     0.0000000000000000E+00 
    1.8750000000033529E-01     6.2500000000080080E-01     0.0000000000000000E+00 
    1.8750000000040951E-01     6.8750000000047962E-01     0.0000000000000000E+00 
    1.8750000000048361E-01     7.5000000000015843E-01     0.0000000000000000E+00 
    1.8750000000055780E-01     8.1249999999983680E-01     0.0000000000000000E+00 
    1.8750000000063199E-01     8.7499999999953304E-01     0.0000000000000000E+00 
    1.8750000000070621E-01     9.3749999999975764E-01     0.0000000000000000E+00 
    2.4999999999951281E-01     6.2500000000163314E-02     0.0000000000000000E+00 
    2.4999999999961461E-01     1.2500000000033351E-01     0.0000000000000000E+00 
    2.4999999999971650E-01     1.8750000000048361E-01     0.0000000000000000E+00 
    2.4999999999981831E-01     2.5000000000063310E-01     0.0000000000000000E+00 
    2.4999999999992020E-01     3.1250000000078260E-01     0.0000000000000000E+00 
    2.5000000000002198E-01     3.7500000000093209E-01     0.0000000000000000E+00 
    2.5000000000012390E-01     4.3750000000108180E-01     0.0000000000000000E+00 
    2.5000000000022571E-01     5.0000000000121769E-01     0.0000000000000000E+00 
    2.5000000000032763E-01     5.6250000000094724E-01     0.0000000000000000E+00 
    2.5000000000042938E-01     6.2500000000066314E-01     0.0000000000000000E+00 
    2.5000000000053119E-01     6.8750000000037925E-01     0.0000000000000000E+00 
[...]
CELL_DATA 256 
SCALARS Pressure double 1 
LOOKUP_TABLE default 

    6.9559941429450955E-01 
    6.4582355979361683E-01 
    6.1474186260246966E-01 
    5.9242346045625871E-01 
    5.7470747142172873E-01 
    5.5989480255811652E-01 
    5.4733388388937887E-01 
    5.3674176571415455E-01 
    5.2797281889486369E-01 
    5.2094867092371722E-01 
    5.1558641192036003E-01 
    5.1152902046781745E-01 
    5.0800043328020372E-01 
    5.0561625850879655E-01 
    5.0456617143064653E-01 
    5.0428372123673004E-01 
    6.4582906761696190E-01 
    6.3556831402671310E-01 
    6.1539932536144770E-01 
    5.9589498612622338E-01 
    5.7866363303429724E-01 
    5.6360674794338328E-01 
    5.5053545064480369E-01 
    5.3932955748891342E-01 
    5.2991747717162907E-01 
    5.2226666879739514E-01 
    5.1635440379494146E-01 
    5.1196115435539624E-01 
    5.0829833272626224E-01 
    5.0553691378630428E-01 
    5.0427876380172143E-01 
    5.0399982901853790E-01 
    6.1475000956765746E-01 
    6.1540367910726579E-01 
    6.0604804678117052E-01 
    5.9235154347751651E-01 
    5.7776097286379036E-01 
    5.6373103144635739E-01 
    5.5088063968239354E-01 
    5.3949354027987240E-01 
    5.2971396169507179E-01 
    5.2163382998635921E-01 
    5.1531699266094633E-01 
    5.1068268348593349E-01 
    5.0712208435374162E-01 
    5.0427603594349635E-01 
    5.0300998827058652E-01 
    5.0295246915733671E-01 
    5.9242976780827195E-01 
    5.9589981866158204E-01 
    5.9235374365331339E-01 
    5.8371350208953521E-01 
    5.7241069689338608E-01 
    5.6020244049036694E-01 
    5.4818674187442828E-01 
    5.3702930705222540E-01 
    5.2714375876462283E-01 
    5.1880651398508415E-01 
    5.1220817550415676E-01 
    5.0741454281649900E-01 
    5.0407148553736669E-01 
    5.0144627731488278E-01 
    5.0033050371404564E-01 
    5.0071132440923138E-01 
    5.7470948907478159E-01 
    5.7866560352987184E-01 
    5.7776265384194936E-01 
    5.7241184563697145E-01 
    5.6389172037667445E-01 
    5.5359236601696871E-01 
    5.4266236572654092E-01 
    5.3196369641712427E-01 
    5.2212873938519022E-01 
    5.1362744341131916E-01 
    5.0680502037088215E-01 
    5.0187878430230237E-01 
    4.9872400715699594E-01 
    4.9655818993033041E-01 
    4.9579966271061643E-01 
    4.9684428811576892E-01 
    5.5989321976583684E-01 
    5.6360486293349177E-01 
    5.6372971445372411E-01 
    5.6020242878876392E-01 
    5.5359235437688492E-01 
    5.4481933334359567E-01 
    5.3485848036291361E-01 
    5.2459591004210737E-01 
    5.1479186620041550E-01 
    5.0608192757072390E-01 
    4.9897729427247794E-01 
    4.9385021477413205E-01 
    4.9080410608793007E-01 
    4.8922093346568651E-01 
    4.8903354224102241E-01 
    4.9092845519398071E-01 
    5.4732767717094055E-01 
    5.5052928227727083E-01 
    5.5087501644688441E-01 
    5.4818315287585428E-01 
    5.4265994683419516E-01 
    5.3485658450879714E-01 
    5.2551664610062998E-01 
    5.1545042161225108E-01 
    5.0546471566858753E-01 
    4.9632239690224428E-01 
    4.8870711129873806E-01 
    4.8317773765023564E-01 
    4.8007594097026851E-01 
    4.7905786686598212E-01 
    4.7959432689154197E-01 
    4.8248546425206384E-01 
    5.3672771820818677E-01 
    5.3931708950732915E-01 
    5.3948279819988088E-01 
    5.3702107581926362E-01 
    5.3195696917796753E-01 
    5.2458993871985993E-01 
    5.1544660252799823E-01 
    5.0521339740224280E-01 
    4.9468223353613794E-01 
    4.8470426315934545E-01 
    4.7613852979496629E-01 
    4.6977836288589236E-01 
    4.6625235921958103E-01 
    4.6555198853561064E-01 
    4.6684004383230504E-01 
    4.7091653003458517E-01 
    5.2794918561519710E-01 
    5.2989640343229849E-01 
    5.2969634117399833E-01 
    5.2713002121868835E-01 
    5.2211654120917395E-01 
    5.1477990963004427E-01 
    5.0545498012038248E-01 
    4.9467705384074218E-01 
    4.8316895857715847E-01 
    4.7182188948315928E-01 
    4.6165785857007707E-01 
    4.5374965828367542E-01 
    4.4908540686846227E-01 
    4.4808909380983897E-01 
    4.5004054172454994E-01 
    4.5555203523360904E-01 
    5.2091478226750954E-01 
    5.2223492659981596E-01 
    5.2160618739635423E-01 
    5.1878482415631622E-01 
    5.1360830084962827E-01 
    5.0606256475723488E-01 
    4.9630497871413948E-01 
    4.8469239660288832E-01 
    4.7181600033924642E-01 
    4.5853092459677897E-01 
    4.4596829150367762E-01 
    4.3550099642224605E-01 
    4.2860382918439588E-01 
    4.2637010907836131E-01 
    4.2854537725589453E-01 
    4.3552940899335973E-01 
    5.1554199147757840E-01 
    5.1631035352265497E-01 
    5.1527658370325402E-01 
    5.1217544922162461E-01 
    5.0677652347836633E-01 
    4.9894848371299361E-01 
    4.8868005218442612E-01 
    4.7611823164464490E-01 
    4.6164478304792955E-01 
    4.4596131858559573E-01 
    4.3017488928021941E-01 
    4.1588003294976761E-01 
    4.0512450479120493E-01 
    4.0001987752273210E-01 
    4.0134591670921221E-01 
    4.0942826050976877E-01 
    5.1147717346884813E-01 
    5.1190850621897155E-01 
    5.1063290058081645E-01 
    5.0737266784141921E-01 
    5.0184127064080208E-01 
    4.9380991111080402E-01 
    4.8313758947421903E-01 
    4.6974692143121982E-01 
    4.5372770875977192E-01 
    4.3548520725540835E-01 
    4.1587248779359931E-01 
    3.9643920192099652E-01 
    3.7966835017433415E-01 
    3.6893120031912413E-01 
    3.6698846704417876E-01 
    3.7489831950446356E-01 
    5.0795004948653333E-01 
    5.0824961477642916E-01 
    5.0707672426462858E-01 
    5.0403128441305511E-01 
    4.9868474593620976E-01 
    4.9075448610792022E-01 
    4.8002042361522196E-01 
    4.6620859663259123E-01 
    4.4905694449691447E-01 
    4.2858073607791475E-01 
    4.0511199681546467E-01 
    3.7966756139606683E-01 
    3.5454304691180782E-01 
    3.3401737604762294E-01 
    3.2408141868128643E-01 
    3.2900878349511664E-01 
    5.0557006288387174E-01 
    5.0549188221989860E-01 
    5.0423448274652327E-01 
    5.0140998244518198E-01 
    4.9652428199265997E-01 
    4.8918039340797331E-01 
    4.7900732638359345E-01 
    4.6551300467375351E-01 
    4.4806979271929714E-01 
    4.2635325464269686E-01 
    4.0001677586317047E-01 
    3.6894998440683130E-01 
    3.3403882694779041E-01 
    2.9867694689383439E-01 
    2.7162014398397444E-01 
    2.6572554896909811E-01 
    5.0452097522807937E-01 
    5.0423409770399574E-01 
    5.0296691681205419E-01 
    5.0028944793576591E-01 
    4.9576276406707964E-01 
    4.8899711792042477E-01 
    4.7955232474917459E-01 
    4.6680742436176315E-01 
    4.5002423873971731E-01 
    4.2855207165143167E-01 
    4.0135919033259193E-01 
    3.6702932349580658E-01 
    3.2413557861138809E-01 
    2.7163397458578481E-01 
    2.1297110105741474E-01 
    1.7132114873605628E-01 
    5.0423880371814889E-01 
    5.0395528735100770E-01 
    5.0290911384925785E-01 
    5.0066980609627187E-01 
    4.9680573727037752E-01 
    4.9089167515133197E-01 
    4.8244655037193224E-01 
    4.7087900957331319E-01 
    4.5552042406481869E-01 
    4.3553431786741098E-01 
    4.0945696567748668E-01 
    3.7492091348976381E-01 
    3.2907199959414485E-01 
    2.6574497119388696E-01 
    1.7127425836052229E-01 
    0.0000000000000000E+00 

SCALARS Saturarion double 1 
LOOKUP_TABLE default 

    1.0000000000000000E+00 
    9.8704797686343126E-01 
    9.6316473631798560E-01 
    9.2086680285291200E-01 
    8.6548574896043351E-01 
    8.0942483377407237E-01 
    7.5600971362927882E-01 
    7.0393880862250202E-01 
    6.5281758182534633E-01 
    6.0374445927945652E-01 
    5.5548962853382500E-01 
    4.6637646045757941E-01 
    1.2757244401294418E-01 
    1.0087937333404725E-06 
    1.0000000020354093E-06 
    9.9999999999999995E-07 
    9.8700444168749779E-01 
    9.7563789127820488E-01 
    9.5387960977842390E-01 
    9.1840757046785826E-01 
    8.6994529932220610E-01 
    8.1792928037277235E-01 
    7.6648717425660795E-01 
    7.1573058154420688E-01 
    6.6543840972276458E-01 
    6.1636149370241977E-01 
    5.6896007803477566E-01 
    4.9570381777632566E-01 
    2.4586643741530315E-01 
    1.3186571683172772E-03 
    1.0405411926645286E-06 
    1.0000000025465302E-06 
    9.6301832226105033E-01 
    9.5378914708401275E-01 
    9.3302178956094373E-01 
    9.0432042887245478E-01 
    8.6587089156048080E-01 
    8.2216711193799019E-01 
    7.7645786555646101E-01 
    7.2951928244137376E-01 
    6.8160142778026245E-01 
    6.3352850729758747E-01 
    5.8644132421823381E-01 
    5.2826455161695185E-01 
    3.7058392289147984E-01 
    3.7493466149867302E-02 
    5.6325241131221531E-05 
    1.0001442250192986E-06 
    9.2053044233625880E-01 
    9.1819762470791300E-01 
    9.0423226351445796E-01 
    8.8135413259614570E-01 
    8.5194227576056636E-01 
    8.1745217405257420E-01 
    7.7933843139758474E-01 
    7.3820093507574203E-01 
    6.9451434279258795E-01 
    6.4903046308047363E-01 
    6.0265098908222936E-01 
    5.5080459244883540E-01 
    4.4737586845357674E-01 
    1.2712667836745170E-01 
    2.1501402740159456E-04 
    1.0123103839381651E-06 
    8.6509269965990765E-01 
    8.6967800664884476E-01 
    8.6572181291002159E-01 
    8.5184812291179557E-01 
    8.3128694858118790E-01 
    8.0561505518219412E-01 
    7.7540437949878149E-01 
    7.4109593469937174E-01 
    7.0308406903817722E-01 
    6.6189579677277466E-01 
    6.1786216995835741E-01 
    5.7067123978971679E-01 
    4.9259866303282207E-01 
    2.3338617873241643E-01 
    5.4650043085884186E-03 
    1.8959037556982731E-06 
    8.0903582729050394E-01 
    8.1768642659292534E-01 
    8.2198937598930388E-01 
    8.1723152873683702E-01 
    8.0546049239380724E-01 
    7.8803232863778749E-01 
    7.6556294477388342E-01 
    7.3851417529485219E-01 
    7.0700556634632694E-01 
    6.7112893630006576E-01 
    6.3086066120013429E-01 
    5.8674359035620882E-01 
    5.2219529839418266E-01 
    3.4849522204820810E-01 
    3.1915703778492330E-02 
    3.6181498183843562E-05 
    7.5534019163930177E-01 
    7.6620374655532197E-01 
    7.7636149456323555E-01 
    7.7913750664939130E-01 
    7.7512348827941735E-01 
    7.6540889915231780E-01 
    7.5057737443146311E-01 
    7.3094610067944787E-01 
    7.0642553575012124E-01 
    6.7661322837944182E-01 
    6.4111350687358892E-01 
    6.0003616968361895E-01 
    5.4947142957105999E-01 
    4.2138830634822455E-01 
    8.7414439791088150E-02 
    1.1439397588436548E-04 
    7.0302337985755137E-01 
    7.1532593700406588E-01 
    7.2944487199777353E-01 
    7.3810753436612042E-01 
    7.4081166888875927E-01 
    7.3821183409873314E-01 
    7.3079802184238485E-01 
    7.1865653364872395E-01 
    7.0146869017908198E-01 
    6.7855059673438500E-01 
    6.4900416857829579E-01 
    6.1221906065342435E-01 
    5.6768152562383289E-01 
    4.7010202784026184E-01 
    1.5876612873849746E-01 
    6.6698464452348409E-04 
    6.5185497758029853E-01 
    6.6485309838097373E-01 
    6.8142368106632922E-01 
    6.9439649476494325E-01 
    7.0289574571689650E-01 
    7.0670560748479028E-01 
    7.0616085685691032E-01 
    7.0131321948023595E-01 
    6.9175604123269774E-01 
    6.7650517825486622E-01 
    6.5423896612986476E-01 
    6.2337113127107047E-01 
    5.8351975736332140E-01 
    5.0480250846056696E-01 
    2.4030745346255714E-01 
    6.3065542242260724E-03 
    6.0263741346554389E-01 
    6.1559020336995818E-01 
    6.3324730752038516E-01 
    6.4871086816903378E-01 
    6.6160166393670450E-01 
    6.7090112742298780E-01 
    6.7640473131439449E-01 
    6.7831805230463349E-01 
    6.7633268253270307E-01 
    6.6934555220214009E-01 
    6.5553751300703111E-01 
    6.3253998211834150E-01 
    5.9848453393190393E-01 
    5.3698555714368834E-01 
    3.5756945168217902E-01 
    4.0066554706573644E-02 
    5.5402211908609167E-01 
    5.6801879759984242E-01 
    5.8617480577857939E-01 
    6.0230809890201009E-01 
    6.1731770448304946E-01 
    6.3047731093909942E-01 
    6.4098725773634979E-01 
    6.4886283883049023E-01 
    6.5395843628597239E-01 
    6.5533604013965641E-01 
    6.5095837150925806E-01 
    6.3784446750754697E-01 
    6.1221274291298522E-01 
    5.6419752142780055E-01 
    4.2521177762094275E-01 
    1.1780562952151184E-01 
    4.6436071842829962E-01 
    4.9547100931384025E-01 
    5.2883080266344762E-01 
    5.5108234596073624E-01 
    5.7027760808483119E-01 
    5.8609924266314439E-01 
    5.9969213565168578E-01 
    6.1213683497606219E-01 
    6.2319396233500635E-01 
    6.3224055999404682E-01 
    6.3761558280988317E-01 
    6.3616915850791311E-01 
    6.2266030775798187E-01 
    5.8947128085924638E-01 
    4.8321114846299557E-01 
    2.1081636203741486E-01 
    1.2567843639876936E-01 
    2.4722178460005356E-01 
    3.7409217197685918E-01 
    4.4914680253163308E-01 
    4.9311513282677294E-01 
    5.2174890831879761E-01 
    5.4914413105756310E-01 
    5.6761742860254771E-01 
    5.8356000767150740E-01 
    5.9847786492538779E-01 
    6.1213041067814389E-01 
    6.2249745834651282E-01 
    6.2387264234419526E-01 
    6.0677468732115492E-01 
    5.3295473271668081E-01 
    2.9181878078451534E-01 
    1.0096041435673233E-06 
    1.4126025460793707E-03 
    4.0877697454796150E-02 
    1.2872099348872412E-01 
    2.3451398814866856E-01 
    3.4893714704875267E-01 
    4.2420190409192732E-01 
    4.7277142545212836E-01 
    5.0611246554572320E-01 
    5.3737561583214533E-01 
    5.6509183518588046E-01 
    5.8990269545555840E-01 
    6.0682117158435056E-01 
    6.0724614476274330E-01 
    5.7299280067096514E-01 
    3.7479322128523701E-01 
    1.0000000023564704E-06 
    1.0459397556898670E-06 
    6.7261471377358471E-05 
    1.9791577643967067E-04 
    5.7739292208692896E-03 
    3.2995030840955029E-02 
    9.3414608445281086E-02 
    1.6039524565255422E-01 
    2.4180937882573586E-01 
    3.5717179926844594E-01 
    4.2748830425776213E-01 
    4.8387084345358378E-01 
    5.3294900769156694E-01 
    5.7262304424820232E-01 
    5.8160468773708562E-01 
    4.5175305025145340E-01 
    9.9999999999999995E-07 
    1.0000000028816583E-06 
    1.0002098621404943E-06 
    1.0106018448168922E-06 
    2.0122009101375570E-06 
    4.2926358629689282E-05 
    1.3133403348907695E-04 
    4.5647016665838615E-04 
    7.9885258182783303E-03 
    3.5432987289156732E-02 
    1.3269836151489220E-01 
    2.1088001679608126E-01 
    2.9224436393910519E-01 
    3.7337532293435521E-01 
    4.5176672611056978E-01 
    4.5177846215662204E-01 
