# vtk DataFile Version 2.0
Pressure Field Data 
ASCII 
DATASET UNSTRUCTURED_GRID 

POINTS 289 double 

    0.0000000000000000E+00     0.0000000000000000E+00     0.0000000000000000E+00 
    1.0000000000000000E+00     0.0000000000000000E+00     0.0000000000000000E+00 
    1.0000000000000000E+00     1.0000000000000000E+00     0.0000000000000000E+00 
    0.0000000000000000E+00     1.0000000000000000E+00     0.0000000000000000E+00 
    6.2499999999872928E-02     0.0000000000000000E+00     0.0000000000000000E+00 
    1.2499999999977310E-01     0.0000000000000000E+00     0.0000000000000000E+00 
    1.8749999999959341E-01     0.0000000000000000E+00     0.0000000000000000E+00 
    2.4999999999941089E-01     0.0000000000000000E+00     0.0000000000000000E+00 
    3.1249999999922851E-01     0.0000000000000000E+00     0.0000000000000000E+00 
    3.7499999999904610E-01     0.0000000000000000E+00     0.0000000000000000E+00 
    4.3749999999886358E-01     0.0000000000000000E+00     0.0000000000000000E+00 
    4.9999999999869210E-01     0.0000000000000000E+00     0.0000000000000000E+00 
    5.6249999999884603E-01     0.0000000000000000E+00     0.0000000000000000E+00 
    6.2499999999901090E-01     0.0000000000000000E+00     0.0000000000000000E+00 
    6.8749999999917577E-01     0.0000000000000000E+00     0.0000000000000000E+00 
    7.4999999999934064E-01     0.0000000000000000E+00     0.0000000000000000E+00 
    8.1249999999950551E-01     0.0000000000000000E+00     0.0000000000000000E+00 
    8.7499999999967026E-01     0.0000000000000000E+00     0.0000000000000000E+00 
    9.3749999999983513E-01     0.0000000000000000E+00     0.0000000000000000E+00 
    1.0000000000000000E+00     6.2499999999872928E-02     0.0000000000000000E+00 
    1.0000000000000000E+00     1.2499999999977310E-01     0.0000000000000000E+00 
    1.0000000000000000E+00     1.8749999999959341E-01     0.0000000000000000E+00 
    1.0000000000000000E+00     2.4999999999941089E-01     0.0000000000000000E+00 
    1.0000000000000000E+00     3.1249999999922851E-01     0.0000000000000000E+00 
    1.0000000000000000E+00     3.7499999999904610E-01     0.0000000000000000E+00 
    1.0000000000000000E+00     4.3749999999886358E-01     0.0000000000000000E+00 
    1.0000000000000000E+00     4.9999999999869210E-01     0.0000000000000000E+00 
    1.0000000000000000E+00     5.6249999999884603E-01     0.0000000000000000E+00 
    1.0000000000000000E+00     6.2499999999901090E-01     0.0000000000000000E+00 
    1.0000000000000000E+00     6.8749999999917577E-01     0.0000000000000000E+00 
    1.0000000000000000E+00     7.4999999999934064E-01     0.0000000000000000E+00 
    1.0000000000000000E+00     8.1249999999950551E-01     0.0000000000000000E+00 
    1.0000000000000000E+00     8.7499999999967026E-01     0.0000000000000000E+00 
    1.0000000000000000E+00     9.3749999999983513E-01     0.0000000000000000E+00 
    9.3749999999973976E-01     1.0000000000000000E+00     0.0000000000000000E+00 
    8.7499999999950118E-01     1.0000000000000000E+00     0.0000000000000000E+00 
    8.1249999999991318E-01     1.0000000000000000E+00     0.0000000000000000E+00 
    7.5000000000034706E-01     1.0000000000000000E+00     0.0000000000000000E+00 
    6.8750000000078049E-01     1.0000000000000000E+00     0.0000000000000000E+00 
    6.2500000000121403E-01     1.0000000000000000E+00     0.0000000000000000E+00 
    5.6250000000164757E-01     1.0000000000000000E+00     0.0000000000000000E+00 
    5.0000000000205946E-01     1.0000000000000000E+00     0.0000000000000000E+00 
    4.3750000000182099E-01     1.0000000000000000E+00     0.0000000000000000E+00 
    3.7500000000156092E-01     1.0000000000000000E+00     0.0000000000000000E+00 
    3.1250000000130068E-01     1.0000000000000000E+00     0.0000000000000000E+00 
    2.5000000000104050E-01     1.0000000000000000E+00     0.0000000000000000E+00 
    1.8750000000078040E-01     1.0000000000000000E+00     0.0000000000000000E+00 
    1.2500000000052031E-01     1.0000000000000000E+00     0.0000000000000000E+00 
    6.2500000000260125E-02     1.0000000000000000E+00     0.0000000000000000E+00 
    0.0000000000000000E+00     9.3749999999973976E-01     0.0000000000000000E+00 
    0.0000000000000000E+00     8.7499999999950118E-01     0.0000000000000000E+00 
    0.0000000000000000E+00     8.1249999999991318E-01     0.0000000000000000E+00 
    0.0000000000000000E+00     7.5000000000034706E-01     0.0000000000000000E+00 
    0.0000000000000000E+00     6.8750000000078049E-01     0.0000000000000000E+00 
    0.0000000000000000E+00     6.2500000000121403E-01     0.0000000000000000E+00 
    0.0000000000000000E+00     5.6250000000164757E-01     0.0000000000000000E+00 
    0.0000000000000000E+00     5.0000000000205946E-01     0.0000000000000000E+00 
    0.0000000000000000E+00     4.3750000000182099E-01     0.0000000000000000E+00 
    0.0000000000000000E+00     3.7500000000156092E-01     0.0000000000000000E+00 
    0.0000000000000000E+00     3.1250000000130068E-01     0.0000000000000000E+00 
    0.0000000000000000E+00     2.5000000000104050E-01     0.0000000000000000E+00 
    0.0000000000000000E+00     1.8750000000078040E-01     0.0000000000000000E+00 
    0.0000000000000000E+00     1.2500000000052031E-01     0.0000000000000000E+00 
    0.0000000000000000E+00     6.2500000000260125E-02     0.0000000000000000E+00 
    6.2499999999897131E-02     6.2500000000235922E-02     0.0000000000000000E+00 
    6.2499999999921327E-02     1.2500000000047351E-01     0.0000000000000000E+00 
    6.2499999999945530E-02     1.8750000000070621E-01     0.0000000000000000E+00 
    6.2499999999969733E-02     2.5000000000093858E-01     0.0000000000000000E+00 
    6.2499999999993928E-02     3.1250000000117117E-01     0.0000000000000000E+00 
    6.2500000000018124E-02     3.7500000000140382E-01     0.0000000000000000E+00 
    6.2500000000042327E-02     4.3750000000163619E-01     0.0000000000000000E+00 
    6.2500000000066530E-02     5.0000000000184897E-01     0.0000000000000000E+00 
    6.2500000000090733E-02     5.6250000000147260E-01     0.0000000000000000E+00 
    6.2500000000114922E-02     6.2500000000107636E-01     0.0000000000000000E+00 
    6.2500000000139125E-02     6.8750000000068034E-01     0.0000000000000000E+00 
    6.2500000000163328E-02     7.5000000000028411E-01     0.0000000000000000E+00 
    6.2500000000187531E-02     8.1249999999988787E-01     0.0000000000000000E+00 
    6.2500000000211720E-02     8.7499999999951172E-01     0.0000000000000000E+00 
    6.2500000000235922E-02     9.3749999999974565E-01     0.0000000000000000E+00 
    1.2499999999981980E-01     6.2500000000211733E-02     0.0000000000000000E+00 
    1.2499999999986650E-01     1.2500000000042691E-01     0.0000000000000000E+00 
    1.2499999999991319E-01     1.8750000000063199E-01     0.0000000000000000E+00 
    1.2499999999995989E-01     2.5000000000083678E-01     0.0000000000000000E+00 
    1.2500000000000661E-01     3.1250000000104172E-01     0.0000000000000000E+00 
    1.2500000000005329E-01     3.7500000000124661E-01     0.0000000000000000E+00 
    1.2500000000010000E-01     4.3750000000145117E-01     0.0000000000000000E+00 
    1.2500000000014669E-01     5.0000000000163858E-01     0.0000000000000000E+00 
    1.2500000000019340E-01     5.6250000000129741E-01     0.0000000000000000E+00 
    1.2500000000024011E-01     6.2500000000093847E-01     0.0000000000000000E+00 
    1.2500000000028680E-01     6.8750000000057998E-01     0.0000000000000000E+00 
    1.2500000000033351E-01     7.5000000000022127E-01     0.0000000000000000E+00 
    1.2500000000038020E-01     8.1249999999986211E-01     0.0000000000000000E+00 
    1.2500000000042691E-01     8.7499999999952238E-01     0.0000000000000000E+00 
    1.2500000000047359E-01     9.3749999999975164E-01     0.0000000000000000E+00 
    1.8749999999966760E-01     6.2500000000187531E-02     0.0000000000000000E+00 
    1.8749999999974179E-01     1.2500000000038020E-01     0.0000000000000000E+00 
    1.8749999999981601E-01     1.8750000000055780E-01     0.0000000000000000E+00 
    1.8749999999989009E-01     2.5000000000073502E-01     0.0000000000000000E+00 
    1.8749999999996431E-01     3.1250000000091221E-01     0.0000000000000000E+00 
    1.8750000000003850E-01     3.7500000000108941E-01     0.0000000000000000E+00 
    1.8750000000011269E-01     4.3750000000126649E-01     0.0000000000000000E+00 
    1.8750000000018691E-01     5.0000000000142808E-01     0.0000000000000000E+00 
    1.8750000000026110E-01     5.6250000000112244E-01     0.0000000000000000E+00 
    1.8750000000033529E-01     6.2500000000080080E-01     0.0000000000000000E+00 
    1.8750000000040951E-01     6.8750000000047962E-01     0.0000000000000000E+00 
    1.8750000000048361E-01     7.5000000000015843E-01     0.0000000000000000E+00 
    1.8750000000055780E-01     8.1249999999983680E-01     0.0000000000000000E+00 
    1.8750000000063199E-01     8.7499999999953304E-01     0.0000000000000000E+00 
    1.8750000000070621E-01     9.3749999999975764E-01     0.0000000000000000E+00 
    2.4999999999951281E-01     6.2500000000163314E-02     0.0000000000000000E+00 
    2.4999999999961461E-01     1.2500000000033351E-01     0.0000000000000000E+00 
    2.4999999999971650E-01     1.8750000000048361E-01     0.0000000000000000E+00 
    2.4999999999981831E-01     2.5000000000063310E-01     0.0000000000000000E+00 
    2.4999999999992020E-01     3.1250000000078260E-01     0.0000000000000000E+00 
    2.5000000000002198E-01     3.7500000000093209E-01     0.0000000000000000E+00 
    2.5000000000012390E-01     4.3750000000108180E-01     0.0000000000000000E+00 
    2.5000000000022571E-01     5.0000000000121769E-01     0.0000000000000000E+00 
    2.5000000000032763E-01     5.6250000000094724E-01     0.0000000000000000E+00 
    2.5000000000042938E-01     6.2500000000066314E-01     0.0000000000000000E+00 
    2.5000000000053119E-01     6.8750000000037925E-01     0.0000000000000000E+00 
[...]
CELL_DATA 256 
SCALARS Pressure double 1 
LOOKUP_TABLE default 

    8.3483293492123201E-01 
    7.8457982174730678E-01 
    7.5261712521397317E-01 
    7.2895067893874821E-01 
    7.0947166468364420E-01 
    6.9272405112624635E-01 
    6.7825929830095244E-01 
    6.6591881550175480E-01 
    6.5566763972087849E-01 
    6.4742466132163456E-01 
    6.4066581339998474E-01 
    6.3425373529682350E-01 
    6.2943949383903797E-01 
    6.2680526703141792E-01 
    6.2558152430304215E-01 
    6.2525173910405807E-01 
    7.8458882771753247E-01 
    7.7419319265341924E-01 
    7.5335555198203352E-01 
    7.3269071144525921E-01 
    7.1384471341878220E-01 
    6.9692638407765994E-01 
    6.8195358341403634E-01 
    6.6894575784538501E-01 
    6.5796890673974273E-01 
    6.4905965896996598E-01 
    6.4191599770413466E-01 
    6.3535830549200623E-01 
    6.2986488963849940E-01 
    6.2672477025160445E-01 
    6.2525005004849576E-01 
    6.2492130219643560E-01 
    7.5263008547523014E-01 
    7.5336234156214932E-01 
    7.4353555640647695E-01 
    7.2885026439947709E-01 
    7.1281327519153737E-01 
    6.9704410443748988E-01 
    6.8234491790685781E-01 
    6.6914569279049141E-01 
    6.5774501516521355E-01 
    6.4834662682543787E-01 
    6.4088277812221972E-01 
    6.3447760713465373E-01 
    6.2868420602043096E-01 
    6.2524490100153440E-01 
    6.2377075512211611E-01 
    6.2369717204976383E-01 
    7.2896065275842203E-01 
    7.3269838868896320E-01 
    7.2885375767482719E-01 
    7.1939105811035653E-01 
    7.0681837466946640E-01 
    6.9301801451138034E-01 
    6.7923504332585771E-01 
    6.6628246496998977E-01 
    6.5473787543838324E-01 
    6.4501569585917873E-01 
    6.3729935479227440E-01 
    6.3114348473499804E-01 
    6.2549457535562736E-01 
    6.2187853165508256E-01 
    6.2064147944429560E-01 
    6.2107217262611747E-01 
    7.0947411253117820E-01 
    7.1384759552718646E-01 
    7.1281574810908943E-01 
    7.0681979094099912E-01 
    6.9720367192028110E-01 
    6.8545436325355369E-01 
    6.7284044362769702E-01 
    6.6036989023238157E-01 
    6.4884303689309331E-01 
    6.3888668312553754E-01 
    6.3092485463997061E-01 
    6.2489212258465421E-01 
    6.1972548210042400E-01 
    6.1613712478428850E-01 
    6.1535676513771265E-01 
    6.1653590353786059E-01 
    6.9271926280355856E-01 
    6.9692211673910209E-01 
    6.9704088601429781E-01 
    6.9301639337192578E-01 
    6.8545298161313661E-01 
    6.7533998015073737E-01 
    6.6375600229387632E-01 
    6.5172682974103247E-01 
    6.4018140214634001E-01 
    6.2993028697625641E-01 
    6.2162111266353914E-01 
    6.1552936639125666E-01 
    6.1093295915415902E-01 
    6.0763066949678179E-01 
    6.0741117680227530E-01 
    6.0956750110228275E-01 
    6.7824494490046860E-01 
    6.8194088443015699E-01 
    6.8233365589104478E-01 
    6.7922654476765065E-01 
    6.7283380153479122E-01 
    6.6375142689183741E-01 
    6.5280744113366884E-01 
    6.4093832758463887E-01 
    6.2911782347635747E-01 
    6.1830240023483196E-01 
    6.0936225908707120E-01 
    6.0290876353008038E-01 
    5.9870795757463280E-01 
    5.9586437161722161E-01 
    5.9621476959470465E-01 
    5.9959404026478202E-01 
    6.6588855118284906E-01 
    6.6891982198587330E-01 
    6.6912370262876042E-01 
    6.6626482186557945E-01 
    6.6035510609577341E-01 
    6.5171465009522811E-01 
    6.4093120224547617E-01 
    6.2879956000147019E-01 
    6.1627207073217716E-01 
    6.0440552669704040E-01 
    5.9428550365551458E-01 
    5.8688118166567815E-01 
    5.8249263940953477E-01 
    5.8007602706977301E-01 
    5.8106932835940639E-01 
    5.8595365460338955E-01 
    6.5561790120058183E-01 
    6.5792451739591229E-01 
    6.5770806589610675E-01 
    6.5470910847206631E-01 
    6.4881847810051352E-01 
    6.4015911926654223E-01 
    6.2910075601272697E-01 
    6.1626324094375917E-01 
    6.0251541721637114E-01 
    5.8895460841017067E-01 
    5.7685608134737743E-01 
    5.6755773207042204E-01 
    5.6196354819749350E-01 
    5.5959844920123336E-01 
    5.6118962504531356E-01 
    5.6784528230306597E-01 
    6.4735939028240308E-01 
    6.4899719513151610E-01 
    6.4829348886968519E-01 
    6.4497589337002215E-01 
    6.3885311848825166E-01 
    6.2989714869908564E-01 
    6.1827267513768258E-01 
    6.0438490218751761E-01 
    5.8894394575904319E-01 
    5.7299807344840814E-01 
    5.5794438711702032E-01 
    5.4550766072835177E-01 
    5.3735006649278383E-01 
    5.3399814923965427E-01 
    5.3562038045657245E-01 
    5.4414655497766196E-01 
    6.4059734782894295E-01 
    6.4184619518875496E-01 
    6.4082077297074669E-01 
    6.3725262136966698E-01 
    6.3088569270267225E-01 
    6.2157930641792014E-01 
    6.0931964314934695E-01 
    5.9425075071961964E-01 
    5.7683132117755354E-01 
    5.5792907985757634E-01 
    5.3888942155860464E-01 
    5.2171174333460490E-01 
    5.0892258616257124E-01 
    5.0249712809542080E-01 
    5.0296169128853374E-01 
    5.1321993141350886E-01 
    6.3419351323610107E-01 
    6.3530141701576404E-01 
    6.3442714174418291E-01 
    6.3110259220524001E-01 
    6.2485735145291987E-01 
    6.1548529184065903E-01 
    6.0285663721619231E-01 
    5.8683382343445534E-01 
    5.6751737088969090E-01 
    5.4547056678442141E-01 
    5.2168719531950281E-01 
    4.9805658715489487E-01 
    4.7772831966435431E-01 
    4.6442108837005069E-01 
    4.6086625116823005E-01 
    4.7191878154252975E-01 
    6.2938235689122790E-01 
    6.2981036052116834E-01 
    6.2863646114055505E-01 
    6.2545373970928930E-01 
    6.1968578366807370E-01 
    6.1088490956132491E-01 
    5.9864666153989687E-01 
    5.8243411252683153E-01 
    5.6190283774913485E-01 
    5.3728272063145155E-01 
    5.0886687636876793E-01 
    4.7771018344134220E-01 
    4.4682382728279652E-01 
    4.2126963069265577E-01 
    4.0752727366829145E-01 
    4.1490868810630593E-01 
    6.2674812748490905E-01 
    6.2666834405240823E-01 
    6.2519013327327244E-01 
    6.2182446318340079E-01 
    6.1608526274435760E-01 
    6.0757575132931174E-01 
    5.9579622774961671E-01 
    5.8000802174674648E-01 
    5.5951907938292300E-01 
    5.3390146028926910E-01 
    5.0240436367259467E-01 
    4.6441489105074862E-01 
    4.2130793554998253E-01 
    3.7736253775797118E-01 
    3.4229856551019278E-01 
    3.3513233263612086E-01 
    6.2552433102081684E-01 
    6.2519321152554963E-01 
    6.2371488718955559E-01 
    6.2058629865505088E-01 
    6.1530205003392258E-01 
    6.0735516379253651E-01 
    5.9615272512430051E-01 
    5.8099985827653799E-01 
    5.6110602580772173E-01 
    5.3551059325091899E-01 
    5.0284657593712623E-01 
    4.6088466522191540E-01 
    4.0764817728909680E-01 
    3.4233026035842046E-01 
    2.6824500221536196E-01 
    2.1587499901333371E-01 
    6.2519442592157348E-01 
    6.2486416289157276E-01 
    6.2364082191545755E-01 
    6.2101658501160450E-01 
    6.1648046907619936E-01 
    6.0951076450688357E-01 
    5.9953306882150370E-01 
    5.8588614317244547E-01 
    5.6776694703739672E-01 
    5.4404332733878524E-01 
    5.1308718024444022E-01 
    4.7188617165178870E-01 
    4.1510430484277505E-01 
    3.3519227519610861E-01 
    2.1582020597264079E-01 
    0.0000000000000000E+00 

SCALARS Saturarion double 1 
LOOKUP_TABLE default 

    1.0000000000000000E+00 
    9.8108181986687337E-01 
    9.4735052393862484E-01 
    8.8739058744040422E-01 
    8.1708335179986269E-01 
    7.5361033131464805E-01 
    6.9619662692310014E-01 
    6.4350192433308750E-01 
    5.9573372315595885E-01 
    5.4720216193338955E-01 
    4.5455798080474685E-01 
    1.1463357995171945E-01 
    1.0043758528611599E-06 
    1.0000000018180353E-06 
    9.9999999999999995E-07 
    9.9999999999999995E-07 
    9.8100513343133500E-01 
    9.6452660670933155E-01 
    9.3412443336754314E-01 
    8.8402489400334439E-01 
    8.2214986965173720E-01 
    7.6277661112640760E-01 
    7.0689722510140485E-01 
    6.5476310000908877E-01 
    6.0710308840257021E-01 
    5.6047962740287094E-01 
    4.8524875036111181E-01 
    2.2762613614965521E-01 
    6.9337948599376600E-04 
    1.0188117697195510E-06 
    1.0000000016526203E-06 
    9.9999999999999995E-07 
    9.4710376460447665E-01 
    9.3397625279663932E-01 
    9.0536679333796810E-01 
    8.6592127628244075E-01 
    8.1768224193898464E-01 
    7.6758151693880783E-01 
    7.1705235263805100E-01 
    6.6785434076507821E-01 
    6.2125444646836525E-01 
    5.7561379064807527E-01 
    5.1674581127817742E-01 
    3.5615219720085955E-01 
    3.2444102806538755E-02 
    4.4773996876369714E-05 
    1.0001227934007630E-06 
    9.9999999999999995E-07 
    8.8686172237218597E-01 
    8.8372775281889360E-01 
    8.6581278803485007E-01 
    8.3713875445351260E-01 
    8.0211094198086530E-01 
    7.6233716233570770E-01 
    7.1960157481290743E-01 
    6.7585549949698587E-01 
    6.3227133379588518E-01 
    5.8841215721912088E-01 
    5.3747850602497593E-01 
    4.3792599404090798E-01 
    1.2620526752691122E-01 
    2.7911202223791142E-04 
    1.0290585095136852E-06 
    1.0000000000002276E-06 
    8.1648717233489587E-01 
    8.2173988463272785E-01 
    8.1743901705800714E-01 
    8.0195626934156905E-01 
    7.7846026354170894E-01 
    7.4875462610220778E-01 
    7.1473203180093170E-01 
    6.7791707836454718E-01 
    6.3924788871855664E-01 
    5.9905287902416871E-01 
    5.5559666919212158E-01 
    4.8207290996739788E-01 
    2.3859771386848103E-01 
    6.8927798936674915E-03 
    2.8573516885415874E-06 
    1.0000002776248518E-06 
    7.5302752828217689E-01 
    7.6237484662023491E-01 
    7.6727252847185401E-01 
    7.6200967396975094E-01 
    7.4855040664446271E-01 
    7.2862005225966042E-01 
    7.0348257665333402E-01 
    6.7429528779280856E-01 
    6.4183164560051575E-01 
    6.0650213323030222E-01 
    5.6770705750506367E-01 
    5.1080467528189566E-01 
    3.5827588527875753E-01 
    4.3180482279983966E-02 
    9.5676162937192544E-05 
    1.0007130755977388E-06 
    6.9526137922808684E-01 
    7.0641529209681186E-01 
    7.1681635980750968E-01 
    7.1928426079269459E-01 
    7.1437461557773241E-01 
    7.0330400736280863E-01 
    6.8679413529283473E-01 
    6.6556650594990796E-01 
    6.4017039155805555E-01 
    6.1068825373951996E-01 
    5.7679076188152034E-01 
    5.3262597536958844E-01 
    4.2571000974822043E-01 
    1.0962009516464018E-01 
    2.0360420083879413E-04 
    1.0136183492473068E-06 
    6.4225260064849043E-01 
    6.5405201764366483E-01 
    6.6754654676086400E-01 
    6.7560249089380231E-01 
    6.7754032921021723E-01 
    6.7395413312914454E-01 
    6.6540543151676346E-01 
    6.5219830541404378E-01 
    6.3441807841289610E-01 
    6.1179536122676526E-01 
    5.8354183525537318E-01 
    5.4613532628377082E-01 
    4.6752855209781224E-01 
    2.0064695553109835E-01 
    2.8738566480167181E-03 
    1.2690414750037532E-06 
    5.9438106545038061E-01 
    6.0615218538817550E-01 
    6.2081356759181006E-01 
    6.3199191861875137E-01 
    6.3897559697980533E-01 
    6.4148981853771303E-01 
    6.3987259586033873E-01 
    6.3423406696387696E-01 
    6.2428777633229182E-01 
    6.0926024711635984E-01 
    5.8795577664757426E-01 
    5.5837861117174348E-01 
    4.9840491555229910E-01 
    3.0497505841363315E-01 
    2.8358602126541680E-02 
    6.1794093605751959E-05 
    5.4604194238743975E-01 
    5.5971781654241770E-01 
    5.7544012527626143E-01 
    5.8813131538100238E-01 
    5.9873652972161051E-01 
    6.0625208597453606E-01 
    6.1043451034876905E-01 
    6.1149070788186388E-01 
    6.0902077703220669E-01 
    6.0191572476873545E-01 
    5.8858097484404492E-01 
    5.6716738227403074E-01 
    5.2555252408678654E-01 
    4.0437063334444034E-01 
    8.9370569116127327E-02 
    2.8184021093536070E-04 
    4.5386068583975298E-01 
    4.8566409883765649E-01 
    5.1761777172876877E-01 
    5.3757888781072272E-01 
    5.5501941606660399E-01 
    5.6735743977225461E-01 
    5.7673973557137248E-01 
    5.8343091165102523E-01 
    5.8758947439817710E-01 
    5.8826998222158822E-01 
    5.8349709796584992E-01 
    5.7114957476671091E-01 
    5.4332163959119650E-01 
    4.6039903071404470E-01 
    1.7906946468450929E-01 
    1.9877313980251714E-03 
    1.1502106968567258E-01 
    2.3068905938126050E-01 
    3.6045547771049652E-01 
    4.3945969379223071E-01 
    4.8211442308903157E-01 
    5.1036193720013712E-01 
    5.3243329255870731E-01 
    5.4634925268480350E-01 
    5.5829241333381296E-01 
    5.6672221011974999E-01 
    5.7076452466242866E-01 
    5.6849238620173614E-01 
    5.5403107802246387E-01 
    4.9862794745850963E-01 
    2.9965258323331001E-01 
    4.7575662140632767E-02 
    1.0049349400561994E-06 
    7.8463845303586321E-04 
    3.5771845111828911E-02 
    1.2896922941819364E-01 
    2.3816910500895624E-01 
    3.5529564751088083E-01 
    4.2512927741650713E-01 
    4.6754758279677333E-01 
    4.9833958033858711E-01 
    5.2509621538837692E-01 
    5.4300324166741565E-01 
    5.5385809054452084E-01 
    5.5474919346412432E-01 
    5.2800695966890021E-01 
    4.0988972410379987E-01 
    1.6842209121918345E-01 
    1.0000000020456415E-06 
    1.0225721280534974E-06 
    5.4450346888133542E-05 
    2.4071481326352174E-04 
    6.4078418726699624E-03 
    4.1773246595847774E-02 
    1.1083076023939968E-01 
    2.0001619230675635E-01 
    3.0344964846850730E-01 
    4.0475850260849089E-01 
    4.6114169210428935E-01 
    4.9905007328619894E-01 
    5.2821305018824405E-01 
    5.3035390309765684E-01 
    4.7514060186614587E-01 
    2.7239456012288243E-01 
    9.9999999999999995E-07 
    1.0000000020912097E-06 
    1.0001890069587584E-06 
    1.0221597047464015E-06 
    2.6031230024851740E-06 
    9.7725870896142532E-05 
    2.2674293680542421E-04 
    2.4733747037727085E-03 
    2.9726689886661561E-02 
    8.9247006129227605E-02 
    1.8642825314298828E-01 
    3.0673172596149245E-01 
    4.0968807204860075E-01 
    4.7444631007873028E-01 
    4.8637260868130250E-01 
    3.5893895911702911E-01 
    9.9999999999999995E-07 
    9.9999999999999995E-07 
    9.9999999999999995E-07 
    1.0000000000006676E-06 
    1.0000002278760005E-06 
    1.0007347113385051E-06 
    1.0167565360299450E-06 
    1.2070903796758908E-06 
    7.4304238472629256E-05 
    3.0673340936012079E-04 
    2.9946884156368766E-03 
    4.2303006947809210E-02 
    1.6843448246105774E-01 
    2.7040889513476030E-01 
    3.5900211397486481E-01 
    3.5919977136650555E-01 
