# vtk DataFile Version 2.0
Pressure Field Data 
ASCII 
DATASET UNSTRUCTURED_GRID 

POINTS 289 double 

    0.0000000000000000E+00     0.0000000000000000E+00     0.0000000000000000E+00 
    1.0000000000000000E+00     0.0000000000000000E+00     0.0000000000000000E+00 
    1.0000000000000000E+00     1.0000000000000000E+00     0.0000000000000000E+00 
    0.0000000000000000E+00     1.0000000000000000E+00     0.0000000000000000E+00 
    6.2499999999872928E-02     0.0000000000000000E+00     0.0000000000000000E+00 
    1.2499999999977310E-01     0.0000000000000000E+00     0.0000000000000000E+00 
    1.8749999999959341E-01     0.0000000000000000E+00     0.0000000000000000E+00 
    2.4999999999941089E-01     0.0000000000000000E+00     0.0000000000000000E+00 
    3.1249999999922851E-01     0.0000000000000000E+00     0.0000000000000000E+00 
    3.7499999999904610E-01     0.0000000000000000E+00     0.0000000000000000E+00 
    4.3749999999886358E-01     0.0000000000000000E+00     0.0000000000000000E+00 
    4.9999999999869210E-01     0.0000000000000000E+00     0.0000000000000000E+00 
    5.6249999999884603E-01     0.0000000000000000E+00     0.0000000000000000E+00 
    6.2499999999901090E-01     0.0000000000000000E+00     0.0000000000000000E+00 
    6.8749999999917577E-01     0.0000000000000000E+00     0.0000000000000000E+00 
    7.4999999999934064E-01     0.0000000000000000E+00     0.0000000000000000E+00 
    8.1249999999950551E-01     0.0000000000000000E+00     0.0000000000000000E+00 
    8.7499999999967026E-01     0.0000000000000000E+00     0.0000000000000000E+00 
    9.3749999999983513E-01     0.0000000000000000E+00     0.0000000000000000E+00 
    1.0000000000000000E+00     6.2499999999872928E-02     0.0000000000000000E+00 
    1.0000000000000000E+00     1.2499999999977310E-01     0.0000000000000000E+00 
    1.0000000000000000E+00     1.8749999999959341E-01     0.0000000000000000E+00 
    1.0000000000000000E+00     2.4999999999941089E-01     0.0000000000000000E+00 
    1.0000000000000000E+00     3.1249999999922851E-01     0.0000000000000000E+00 
    1.0000000000000000E+00     3.7499999999904610E-01     0.0000000000000000E+00 
    1.0000000000000000E+00     4.3749999999886358E-01     0.0000000000000000E+00 
    1.0000000000000000E+00     4.9999999999869210E-01     0.0000000000000000E+00 
    1.0000000000000000E+00     5.6249999999884603E-01     0.0000000000000000E+00 
    1.0000000000000000E+00     6.2499999999901090E-01     0.0000000000000000E+00 
    1.0000000000000000E+00     6.8749999999917577E-01     0.0000000000000000E+00 
    1.0000000000000000E+00     7.4999999999934064E-01     0.0000000000000000E+00 
    1.0000000000000000E+00     8.1249999999950551E-01     0.0000000000000000E+00 
    1.0000000000000000E+00     8.7499999999967026E-01     0.0000000000000000E+00 
    1.0000000000000000E+00     9.3749999999983513E-01     0.0000000000000000E+00 
    9.3749999999973976E-01     1.0000000000000000E+00     0.0000000000000000E+00 
    8.7499999999950118E-01     1.0000000000000000E+00     0.0000000000000000E+00 
    8.1249999999991318E-01     1.0000000000000000E+00     0.0000000000000000E+00 
    7.5000000000034706E-01     1.0000000000000000E+00     0.0000000000000000E+00 
    6.8750000000078049E-01     1.0000000000000000E+00     0.0000000000000000E+00 
    6.2500000000121403E-01     1.0000000000000000E+00     0.0000000000000000E+00 
    5.6250000000164757E-01     1.0000000000000000E+00     0.0000000000000000E+00 
    5.0000000000205946E-01     1.0000000000000000E+00     0.0000000000000000E+00 
    4.3750000000182099E-01     1.0000000000000000E+00     0.0000000000000000E+00 
    3.7500000000156092E-01     1.0000000000000000E+00     0.0000000000000000E+00 
    3.1250000000130068E-01     1.0000000000000000E+00     0.0000000000000000E+00 
    2.5000000000104050E-01     1.0000000000000000E+00     0.0000000000000000E+00 
    1.8750000000078040E-01     1.0000000000000000E+00     0.0000000000000000E+00 
    1.2500000000052031E-01     1.0000000000000000E+00     0.0000000000000000E+00 
    6.2500000000260125E-02     1.0000000000000000E+00     0.0000000000000000E+00 
    0.0000000000000000E+00     9.3749999999973976E-01     0.0000000000000000E+00 
    0.0000000000000000E+00     8.7499999999950118E-01     0.0000000000000000E+00 
    0.0000000000000000E+00     8.1249999999991318E-01     0.0000000000000000E+00 
    0.0000000000000000E+00     7.5000000000034706E-01     0.0000000000000000E+00 
    0.0000000000000000E+00     6.8750000000078049E-01     0.0000000000000000E+00 
    0.0000000000000000E+00     6.2500000000121403E-01     0.0000000000000000E+00 
    0.0000000000000000E+00     5.6250000000164757E-01     0.0000000000000000E+00 
    0.0000000000000000E+00     5.0000000000205946E-01     0.0000000000000000E+00 
    0.0000000000000000E+00     4.3750000000182099E-01     0.0000000000000000E+00 
    0.0000000000000000E+00     3.7500000000156092E-01     0.0000000000000000E+00 
    0.0000000000000000E+00     3.1250000000130068E-01     0.0000000000000000E+00 
    0.0000000000000000E+00     2.5000000000104050E-01     0.0000000000000000E+00 
    0.0000000000000000E+00     1.8750000000078040E-01     0.0000000000000000E+00 
    0.0000000000000000E+00     1.2500000000052031E-01     0.0000000000000000E+00 
    0.0000000000000000E+00     6.2500000000260125E-02     0.0000000000000000E+00 
    6.2499999999897131E-02     6.2500000000235922E-02     0.0000000000000000E+00 
    6.2499999999921327E-02     1.2500000000047351E-01     0.0000000000000000E+00 
    6.2499999999945530E-02     1.8750000000070621E-01     0.0000000000000000E+00 
    6.2499999999969733E-02     2.5000000000093858E-01     0.0000000000000000E+00 
    6.2499999999993928E-02     3.1250000000117117E-01     0.0000000000000000E+00 
    6.2500000000018124E-02     3.7500000000140382E-01     0.0000000000000000E+00 
    6.2500000000042327E-02     4.3750000000163619E-01     0.0000000000000000E+00 
    6.2500000000066530E-02     5.0000000000184897E-01     0.0000000000000000E+00 
    6.2500000000090733E-02     5.6250000000147260E-01     0.0000000000000000E+00 
    6.2500000000114922E-02     6.2500000000107636E-01     0.0000000000000000E+00 
    6.2500000000139125E-02     6.8750000000068034E-01     0.0000000000000000E+00 
    6.2500000000163328E-02     7.5000000000028411E-01     0.0000000000000000E+00 
    6.2500000000187531E-02     8.1249999999988787E-01     0.0000000000000000E+00 
    6.2500000000211720E-02     8.7499999999951172E-01     0.0000000000000000E+00 
    6.2500000000235922E-02     9.3749999999974565E-01     0.0000000000000000E+00 
    1.2499999999981980E-01     6.2500000000211733E-02     0.0000000000000000E+00 
    1.2499999999986650E-01     1.2500000000042691E-01     0.0000000000000000E+00 
    1.2499999999991319E-01     1.8750000000063199E-01     0.0000000000000000E+00 
    1.2499999999995989E-01     2.5000000000083678E-01     0.0000000000000000E+00 
    1.2500000000000661E-01     3.1250000000104172E-01     0.0000000000000000E+00 
    1.2500000000005329E-01     3.7500000000124661E-01     0.0000000000000000E+00 
    1.2500000000010000E-01     4.3750000000145117E-01     0.0000000000000000E+00 
    1.2500000000014669E-01     5.0000000000163858E-01     0.0000000000000000E+00 
    1.2500000000019340E-01     5.6250000000129741E-01     0.0000000000000000E+00 
    1.2500000000024011E-01     6.2500000000093847E-01     0.0000000000000000E+00 
    1.2500000000028680E-01     6.8750000000057998E-01     0.0000000000000000E+00 
    1.2500000000033351E-01     7.5000000000022127E-01     0.0000000000000000E+00 
    1.2500000000038020E-01     8.1249999999986211E-01     0.0000000000000000E+00 
    1.2500000000042691E-01     8.7499999999952238E-01     0.0000000000000000E+00 
    1.2500000000047359E-01     9.3749999999975164E-01     0.0000000000000000E+00 
    1.8749999999966760E-01     6.2500000000187531E-02     0.0000000000000000E+00 
    1.8749999999974179E-01     1.2500000000038020E-01     0.0000000000000000E+00 
    1.8749999999981601E-01     1.8750000000055780E-01     0.0000000000000000E+00 
    1.8749999999989009E-01     2.5000000000073502E-01     0.0000000000000000E+00 
    1.8749999999996431E-01     3.1250000000091221E-01     0.0000000000000000E+00 
    1.8750000000003850E-01     3.7500000000108941E-01     0.0000000000000000E+00 
    1.8750000000011269E-01     4.3750000000126649E-01     0.0000000000000000E+00 
    1.8750000000018691E-01     5.0000000000142808E-01     0.0000000000000000E+00 
    1.8750000000026110E-01     5.6250000000112244E-01     0.0000000000000000E+00 
    1.8750000000033529E-01     6.2500000000080080E-01     0.0000000000000000E+00 
    1.8750000000040951E-01     6.8750000000047962E-01     0.0000000000000000E+00 
    1.8750000000048361E-01     7.5000000000015843E-01     0.0000000000000000E+00 
    1.8750000000055780E-01     8.1249999999983680E-01     0.0000000000000000E+00 
    1.8750000000063199E-01     8.7499999999953304E-01     0.0000000000000000E+00 
    1.8750000000070621E-01     9.3749999999975764E-01     0.0000000000000000E+00 
    2.4999999999951281E-01     6.2500000000163314E-02     0.0000000000000000E+00 
    2.4999999999961461E-01     1.2500000000033351E-01     0.0000000000000000E+00 
    2.4999999999971650E-01     1.8750000000048361E-01     0.0000000000000000E+00 
    2.4999999999981831E-01     2.5000000000063310E-01     0.0000000000000000E+00 
    2.4999999999992020E-01     3.1250000000078260E-01     0.0000000000000000E+00 
    2.5000000000002198E-01     3.7500000000093209E-01     0.0000000000000000E+00 
    2.5000000000012390E-01     4.3750000000108180E-01     0.0000000000000000E+00 
    2.5000000000022571E-01     5.0000000000121769E-01     0.0000000000000000E+00 
    2.5000000000032763E-01     5.6250000000094724E-01     0.0000000000000000E+00 
    2.5000000000042938E-01     6.2500000000066314E-01     0.0000000000000000E+00 
    2.5000000000053119E-01     6.8750000000037925E-01     0.0000000000000000E+00 
[...]
CELL_DATA 256 
SCALARS Pressure double 1 
LOOKUP_TABLE default 

    6.5564584923285563E-01 
    6.0600418303843395E-01 
    5.7516869995728426E-01 
    5.5321705637696439E-01 
    5.3598328941089912E-01 
    5.2171525989761292E-01 
    5.0970163894657583E-01 
    4.9962511018033956E-01 
    4.9131340137873009E-01 
    4.8465852263287307E-01 
    4.7957866160825413E-01 
    4.7587656386073213E-01 
    4.7286387039837963E-01 
    4.7066428104439212E-01 
    4.6966053885100456E-01 
    4.6939207786891363E-01 
    6.0600803630782629E-01 
    5.9578660946550976E-01 
    5.7580555286105461E-01 
    5.5661883264708900E-01 
    5.3982924273040012E-01 
    5.2529511605414636E-01 
    5.1276824440003377E-01 
    5.0208942669968870E-01 
    4.9315755203194456E-01 
    4.8590507276974376E-01 
    4.8028738169533763E-01 
    4.7619156500412213E-01 
    4.7307161893510175E-01 
    4.7059389704589455E-01 
    4.6938581917575634E-01 
    4.6912182016539994E-01 
    5.7517376184785918E-01 
    5.7580824519656892E-01 
    5.6658580150590931E-01 
    5.5316321667627977E-01 
    5.3897355319415408E-01 
    5.2543558517920008E-01 
    5.1311507211341878E-01 
    5.0225576894199686E-01 
    4.9296938330969620E-01 
    4.8530972824118146E-01 
    4.7930654846858189E-01 
    4.7493812435769556E-01 
    4.7185439867322476E-01 
    4.6940593567684974E-01 
    4.6817324730491466E-01 
    4.6812489049550782E-01 
    5.5321923767738068E-01 
    5.5662064636762276E-01 
    5.5316382436097333E-01 
    5.4475882597948067E-01 
    5.3381785984873287E-01 
    5.2206671387806647E-01 
    5.1055996794653302E-01 
    4.9992521891506825E-01 
    4.9054057410001040E-01 
    4.8264144458477393E-01 
    4.7637775163547097E-01 
    4.7182815232348957E-01 
    4.6882298493331026E-01 
    4.6666237854170384E-01 
    4.6561343072799122E-01 
    4.6599454247751176E-01 
    5.3598023147097085E-01 
    5.3982702347874656E-01 
    5.3897212059387412E-01 
    5.3381727359237696E-01 
    5.2562155228282836E-01 
    5.1574623348685222E-01 
    5.0530524863502890E-01 
    4.9512481411272652E-01 
    4.8579876687672074E-01 
    4.7775349055979155E-01 
    4.7129041903274166E-01 
    4.6660303872518888E-01 
    4.6369087661854524E-01 
    4.6198875737313266E-01 
    4.6134999881975947E-01 
    4.6234262287985345E-01 
    5.2170742425821826E-01 
    5.2528787618167894E-01 
    5.2542985418454258E-01 
    5.2206342615296941E-01 
    5.1574452758401579E-01 
    5.0737022279100152E-01 
    4.9788683439971354E-01 
    4.8814561938731532E-01 
    4.7886538310867277E-01 
    4.7063545754043429E-01 
    4.6392126657794469E-01 
    4.5906000695153193E-01 
    4.5621670689023269E-01 
    4.5503403017519428E-01 
    4.5499407981198964E-01 
    4.5674751741261954E-01 
    5.0968802941543312E-01 
    5.1275548094321122E-01 
    5.1310376289053305E-01 
    5.1055171541229372E-01 
    5.0529957645267010E-01 
    4.9788330610252585E-01 
    4.8902261180697298E-01 
    4.7949426476424167E-01 
    4.7006204689552111E-01 
    4.6143876576007709E-01 
    4.5425568884599371E-01 
    4.4902521901100761E-01 
    4.4609776490369235E-01 
    4.4534936401233566E-01 
    4.4602177957812850E-01 
    4.4872158741508961E-01 
    4.9960295652580788E-01 
    5.0206931453784265E-01 
    5.0223799551842141E-01 
    4.9991079810562106E-01 
    4.9511318270749050E-01 
    4.8813630120035639E-01 
    4.7948865198158269E-01 
    4.6982712404836074E-01 
    4.5990141731638839E-01 
    4.5050860688256350E-01 
    4.4244461902998594E-01 
    4.3643409911811554E-01 
    4.3304970912789176E-01 
    4.3242790587412017E-01 
    4.3386230375274126E-01 
    4.3775406645149956E-01 
    4.9128161593589853E-01 
    4.9312846637545948E-01 
    4.9294388748016910E-01 
    4.9051932556633043E-01 
    4.8578003764051814E-01 
    4.7884829674764912E-01 
    4.7004848927980619E-01 
    4.5989387169309909E-01 
    4.4906914782161317E-01 
    4.3840937317126927E-01 
    4.2886392039009363E-01 
    4.2141887800846539E-01 
    4.1696994070900206E-01 
    4.1603111247202929E-01 
    4.1810991675055825E-01 
    4.2331601102995381E-01 
    4.8461707402393600E-01 
    4.8586594397487148E-01 
    4.8527438976807064E-01 
    4.8261157332768601E-01 
    4.7772643010494797E-01 
    4.7060920261793188E-01 
    4.6141531851094730E-01 
    4.5049136108101873E-01 
    4.3839983611980460E-01 
    4.2594165424174485E-01 
    4.1416912895028019E-01 
    4.0435175016910951E-01 
    3.9783903157568917E-01 
    3.9575533446859740E-01 
    3.9805269303841312E-01 
    4.0454500125587411E-01 
    4.7952643003771023E-01 
    4.8023630872723516E-01 
    4.7925838896398998E-01 
    4.7633576143841000E-01 
    4.7125207850243583E-01 
    4.6388346088377030E-01 
    4.5422035087393892E-01 
    4.4241548681972603E-01 
    4.2884225478078652E-01 
    4.1415655976505661E-01 
    3.9938790066012503E-01 
    3.8601565815295347E-01 
    3.7593185642472077E-01 
    3.7115721341156993E-01 
    3.7256541141706268E-01 
    3.7986903392302690E-01 
    4.7581470413294086E-01 
    4.7612944013766673E-01 
    4.7487712755284023E-01 
    4.7177290238188213E-01 
    4.6655140227644032E-01 
    4.5900734551909173E-01 
    4.4897530967906130E-01 
    4.3639117223661739E-01 
    4.2138247643762328E-01 
    4.0432290088447409E-01 
    3.8600043548477730E-01 
    3.6785069104744328E-01 
    3.5217848182939948E-01 
    3.4214882020009302E-01 
    3.4049496349999991E-01 
    3.4767039325254556E-01 
    4.7279661249873506E-01 
    4.7300567990891618E-01 
    4.7178950139776299E-01 
    4.6876228137676434E-01 
    4.6363166116703231E-01 
    4.5615169619438495E-01 
    4.4603366963200930E-01 
    4.3299317313144420E-01 
    4.1691832687430125E-01 
    3.9779119076467706E-01 
    3.7590031967759413E-01 
    3.5216843733632830E-01 
    3.2872365839828133E-01 
    3.0956702186479063E-01 
    3.0044815601489583E-01 
    3.0499932240948618E-01 
    4.7059651634452226E-01 
    4.7052700412448795E-01 
    4.6934123443213943E-01 
    4.6660231131693902E-01 
    4.6192960007872880E-01 
    4.5496800850770508E-01 
    4.4528052855677380E-01 
    4.3236702264707316E-01 
    4.1597141893484552E-01 
    3.9569049139033974E-01 
    3.7111468265099412E-01 
    3.4214596617023424E-01 
    3.0958636249317512E-01 
    2.7663310969263172E-01 
    2.5156474679881441E-01 
    2.4620049228333971E-01 
    4.6959331041645741E-01 
    4.6931891819756028E-01 
    4.6810722613828420E-01 
    4.6554936974493633E-01 
    4.6128754770806485E-01 
    4.5492736680698642E-01 
    4.4595171709644998E-01 
    4.3380567877508136E-01 
    4.1804672969657553E-01 
    3.9798648413790849E-01 
    3.7253069282183621E-01 
    3.4052330325514429E-01 
    3.0052013818990381E-01 
    2.5160854486391593E-01 
    1.9708900202572852E-01 
    1.5860937917219109E-01 
    4.6932500596445381E-01 
    4.6905496260466384E-01 
    4.6805865675053016E-01 
    4.6592948016013241E-01 
    4.6227843521035900E-01 
    4.5667975158141666E-01 
    4.4864956138290196E-01 
    4.3769368533119374E-01 
    4.2325168156016035E-01 
    4.0446666156107675E-01 
    3.7983831782798294E-01 
    3.4770724840149286E-01 
    3.0510033549643018E-01 
    2.4628382098572438E-01 
    1.5860785428430230E-01 
    0.0000000000000000E+00 

SCALARS Saturarion double 1 
LOOKUP_TABLE default 

    1.0000000000000000E+00 
    9.8873107371190538E-01 
    9.6771418633595929E-01 
    9.3047221412289149E-01 
    8.8042156181501463E-01 
    8.2784961252393352E-01 
    7.7652626427518912E-01 
    7.2587229768571482E-01 
    6.7503497343157837E-01 
    6.2455781628822127E-01 
    5.7608319915978801E-01 
    5.1139472057341606E-01 
    2.6375978047424853E-01 
    3.9195980760499399E-04 
    1.0000018180883254E-06 
    1.0000000000000444E-06 
    9.8869598861834618E-01 
    9.7878574392363016E-01 
    9.5957797220439212E-01 
    9.2827499544211667E-01 
    8.8461850157216371E-01 
    8.3602318856705193E-01 
    7.8674459597767032E-01 
    7.3750578892766938E-01 
    6.8778483099372900E-01 
    6.3769656983433654E-01 
    5.8888440739438375E-01 
    5.3200937019546035E-01 
    3.7618008653168789E-01 
    3.1915443447896666E-02 
    1.8420054822726196E-05 
    1.0000101864303335E-06 
    9.6759466728632004E-01 
    9.5950380944262537E-01 
    9.4108573985539468E-01 
    9.1552475000604050E-01 
    8.8081005118421041E-01 
    8.3999966121678549E-01 
    7.9635003517075009E-01 
    7.5105487411201255E-01 
    7.0404963470225390E-01 
    6.5553417454940988E-01 
    6.0680531530432513E-01 
    5.5495775376133905E-01 
    4.5125293757204521E-01 
    1.2734374858283473E-01 
    2.0923238487322165E-04 
    1.0087209367141094E-06 
    9.3019074086952702E-01 
    9.2809340425158882E-01 
    9.1544362576994387E-01 
    8.9474401754162591E-01 
    8.6776741390351819E-01 
    8.3535497202425579E-01 
    7.9905387047947696E-01 
    7.5956219155635962E-01 
    7.1696609726748717E-01 
    6.7152037212681159E-01 
    6.2403264812545722E-01 
    5.7542059056173323E-01 
    4.9767385064327874E-01 
    2.3435843848553356E-01 
    4.0597759105682352E-03 
    1.3993804861944475E-06 
    8.8008425972192439E-01 
    8.8438574758502309E-01 
    8.8067772031056590E-01 
    8.6768715965600118E-01 
    8.4826923086643669E-01 
    8.2393878019846423E-01 
    7.9525912605262239E-01 
    7.6243816317847091E-01 
    7.2551291601276824E-01 
    6.8466871290946651E-01 
    6.4004692351565562E-01 
    5.9261047756409890E-01 
    5.2887331568778895E-01 
    3.5621033089062842E-01 
    3.3778117156319190E-02 
    4.4450416107464934E-05 
    8.2751711091618452E-01 
    8.3582116409880391E-01 
    8.3985601696170242E-01 
    8.3517165143532734E-01 
    8.2380625433707533E-01 
    8.0720941283952474E-01 
    7.8588718296040760E-01 
    7.6001091969655266E-01 
    7.2946604733751974E-01 
    6.9411458416835803E-01 
    6.5369588642228715E-01 
    6.0852687283398332E-01 
    5.5632975548367880E-01 
    4.3086337453302731E-01 
    9.6409611438998830E-02 
    1.2952023564487318E-04 
    7.7593331781220254E-01 
    7.8650747658708975E-01 
    7.9628478169933770E-01 
    7.9888982343193449E-01 
    7.9501195804938785E-01 
    7.8574746772226778E-01 
    7.7159743920752621E-01 
    7.5275371870185737E-01 
    7.2901290305656330E-01 
    6.9980144706616365E-01 
    6.6448601781472572E-01 
    6.2274940494741515E-01 
    5.7397076988145190E-01 
    4.7616068485008323E-01 
    1.6039884874618868E-01 
    3.6275456003083818E-04 
    7.2505076025306048E-01 
    7.3716583284856418E-01 
    7.5102162950556950E-01 
    7.5950538790893762E-01 
    7.6219306908737139E-01 
    7.5973563280734258E-01 
    7.5261576591845991E-01 
    7.4091843070122942E-01 
    7.2428992457737840E-01 
    7.0192298533819408E-01 
    6.7271342879215190E-01 
    6.3555758248058947E-01 
    5.9037388662939261E-01 
    5.0996076804702373E-01 
    2.4558499749381632E-01 
    7.8687016576740737E-03 
    6.7419506003146501E-01 
    6.8730966615686262E-01 
    7.0395935892631678E-01 
    7.1691583978469520E-01 
    7.2537742155083684E-01 
    7.2920214113447046E-01 
    7.2876582779116961E-01 
    7.2414131838007201E-01 
    7.1491958747679807E-01 
    7.0006982078867297E-01 
    6.7813630201820263E-01 
    6.4714405256121932E-01 
    6.0645216287814607E-01 
    5.4215069685917705E-01 
    3.6083046730709833E-01 
    3.1141794723004674E-02 
    6.2361970173129844E-01 
    6.3708365951683388E-01 
    6.5538536131868397E-01 
    6.7129955173701095E-01 
    6.8444865929768928E-01 
    6.9393332928616402E-01 
    6.9961264469466322E-01 
    7.0169983540730652E-01 
    6.9990260570354557E-01 
    6.9313900380640114E-01 
    6.7955949624134260E-01 
    6.5660143731690224E-01 
    6.2182824246840540E-01 
    5.6839195016966815E-01 
    4.2418234205584804E-01 
    1.0884233049822932E-01 
    5.7469577582012077E-01 
    5.8798982532080912E-01 
    6.0653581284461844E-01 
    6.2369212237445226E-01 
    6.3954413472019578E-01 
    6.5335310936374791E-01 
    6.6437223472888696E-01 
    6.7257795916188512E-01 
    6.7786491759649625E-01 
    6.7936689799902417E-01 
    6.7509973583824423E-01 
    6.6205251312573032E-01 
    6.3599148237045289E-01 
    5.9315466459203470E-01 
    4.7447902289249794E-01 
    1.7317305252677903E-01 
    5.0955486407272188E-01 
    5.3127240568175627E-01 
    5.5499200096497714E-01 
    5.7539652975949351E-01 
    5.9214249960944443E-01 
    6.0791025292028711E-01 
    6.2244154266385521E-01 
    6.3550577878637726E-01 
    6.4698957459070239E-01 
    6.5632498677806828E-01 
    6.6184255881616638E-01 
    6.6044394735156864E-01 
    6.4675955021385656E-01 
    6.1431469587324816E-01 
    5.2023247736786182E-01 
    2.5435388743672321E-01 
    2.6113857044459332E-01 
    3.7589263808936318E-01 
    4.5277089234137746E-01 
    4.9912514579771422E-01 
    5.2925117466999150E-01 
    5.5610061227885588E-01 
    5.7402378321454406E-01 
    5.9023917472074450E-01 
    6.0632736608186566E-01 
    6.2176619419801593E-01 
    6.3590919683333391E-01 
    6.4660764881155874E-01 
    6.4801119718656197E-01 
    6.3092556809759903E-01 
    5.6456585237166579E-01 
    3.2819487364624733E-01 
    3.6271373551614091E-04 
    3.2546378538975497E-02 
    1.3305691451654120E-01 
    2.3692612116721334E-01 
    3.5712434493411410E-01 
    4.3150604656675845E-01 
    4.7806441492632673E-01 
    5.1080300508862098E-01 
    5.4254576233153284E-01 
    5.6851807945900812E-01 
    5.9379721603849145E-01 
    6.1479332430866596E-01 
    6.3107435650587862E-01 
    6.3170003900813942E-01 
    6.0124705260754907E-01 
    4.0727221728924878E-01 
    1.0000018648299880E-06 
    1.9912004711083301E-05 
    2.2717753695369956E-04 
    3.8541265641031781E-03 
    3.5517891378160936E-02 
    9.6634700729281819E-02 
    1.7001007988709221E-01 
    2.4933584493136196E-01 
    3.6240270273403691E-01 
    4.2423685231877789E-01 
    4.7742279541852389E-01 
    5.2233577320892333E-01 
    5.6551299567924507E-01 
    6.0107588719367466E-01 
    6.0860277275460539E-01 
    4.8169740798683919E-01 
    1.0000000000000457E-06 
    1.0000120440016892E-06 
    1.0108189206868979E-06 
    1.3656752445986017E-06 
    5.2794012446607916E-05 
    1.3779810043841430E-04 
    6.2722936100046789E-04 
    5.4829490629314959E-03 
    3.5338090701917887E-02 
    1.0037811779010938E-01 
    1.8444613469037832E-01 
    2.5513412341024144E-01 
    3.2920745125697176E-01 
    4.0631947592245043E-01 
    4.8169885813127872E-01 
    4.8175005399403131E-01 
