# vtk DataFile Version 2.0
Pressure Field Data 
ASCII 
DATASET UNSTRUCTURED_GRID 

POINTS 289 double 

    0.0000000000000000E+00     0.0000000000000000E+00     0.0000000000000000E+00 
    1.0000000000000000E+00     0.0000000000000000E+00     0.0000000000000000E+00 
    1.0000000000000000E+00     1.0000000000000000E+00     0.0000000000000000E+00 
    0.0000000000000000E+00     1.0000000000000000E+00     0.0000000000000000E+00 
    6.2499999999872928E-02     0.0000000000000000E+00     0.0000000000000000E+00 
    1.2499999999977310E-01     0.0000000000000000E+00     0.0000000000000000E+00 
    1.8749999999959341E-01     0.0000000000000000E+00     0.0000000000000000E+00 
    2.4999999999941089E-01     0.0000000000000000E+00     0.0000000000000000E+00 
    3.1249999999922851E-01     0.0000000000000000E+00     0.0000000000000000E+00 
    3.7499999999904610E-01     0.0000000000000000E+00     0.0000000000000000E+00 
    4.3749999999886358E-01     0.0000000000000000E+00     0.0000000000000000E+00 
    4.9999999999869210E-01     0.0000000000000000E+00     0.0000000000000000E+00 
    5.6249999999884603E-01     0.0000000000000000E+00     0.0000000000000000E+00 
    6.2499999999901090E-01     0.0000000000000000E+00     0.0000000000000000E+00 
    6.8749999999917577E-01     0.0000000000000000E+00     0.0000000000000000E+00 
    7.4999999999934064E-01     0.0000000000000000E+00     0.0000000000000000E+00 
    8.1249999999950551E-01     0.0000000000000000E+00     0.0000000000000000E+00 
    8.7499999999967026E-01     0.0000000000000000E+00     0.0000000000000000E+00 
    9.3749999999983513E-01     0.0000000000000000E+00     0.0000000000000000E+00 
    1.0000000000000000E+00     6.2499999999872928E-02     0.0000000000000000E+00 
    1.0000000000000000E+00     1.2499999999977310E-01     0.0000000000000000E+00 
    1.0000000000000000E+00     1.8749999999959341E-01     0.0000000000000000E+00 
    1.0000000000000000E+00     2.4999999999941089E-01     0.0000000000000000E+00 
    1.0000000000000000E+00     3.1249999999922851E-01     0.0000000000000000E+00 
    1.0000000000000000E+00     3.7499999999904610E-01     0.0000000000000000E+00 
    1.0000000000000000E+00     4.3749999999886358E-01     0.0000000000000000E+00 
    1.0000000000000000E+00     4.9999999999869210E-01     0.0000000000000000E+00 
    1.0000000000000000E+00     5.6249999999884603E-01     0.0000000000000000E+00 
    1.0000000000000000E+00     6.2499999999901090E-01     0.0000000000000000E+00 
    1.0000000000000000E+00     6.8749999999917577E-01     0.0000000000000000E+00 
    1.0000000000000000E+00     7.4999999999934064E-01     0.0000000000000000E+00 
    1.0000000000000000E+00     8.1249999999950551E-01     0.0000000000000000E+00 
    1.0000000000000000E+00     8.7499999999967026E-01     0.0000000000000000E+00 
    1.0000000000000000E+00     9.3749999999983513E-01     0.0000000000000000E+00 
    9.3749999999973976E-01     1.0000000000000000E+00     0.0000000000000000E+00 
    8.7499999999950118E-01     1.0000000000000000E+00     0.0000000000000000E+00 
    8.1249999999991318E-01     1.0000000000000000E+00     0.0000000000000000E+00 
    7.5000000000034706E-01     1.0000000000000000E+00     0.0000000000000000E+00 
    6.8750000000078049E-01     1.0000000000000000E+00     0.0000000000000000E+00 
    6.2500000000121403E-01     1.0000000000000000E+00     0.0000000000000000E+00 
    5.6250000000164757E-01     1.0000000000000000E+00     0.0000000000000000E+00 
    5.0000000000205946E-01     1.0000000000000000E+00     0.0000000000000000E+00 
    4.3750000000182099E-01     1.0000000000000000E+00     0.0000000000000000E+00 
    3.7500000000156092E-01     1.0000000000000000E+00     0.0000000000000000E+00 
    3.1250000000130068E-01     1.0000000000000000E+00     0.0000000000000000E+00 
    2.5000000000104050E-01     1.0000000000000000E+00     0.0000000000000000E+00 
    1.8750000000078040E-01     1.0000000000000000E+00     0.0000000000000000E+00 
    1.2500000000052031E-01     1.0000000000000000E+00     0.0000000000000000E+00 
    6.2500000000260125E-02     1.0000000000000000E+00     0.0000000000000000E+00 
    0.0000000000000000E+00     9.3749999999973976E-01     0.0000000000000000E+00 
    0.0000000000000000E+00     8.7499999999950118E-01     0.0000000000000000E+00 
    0.0000000000000000E+00     8.1249999999991318E-01     0.0000000000000000E+00 
    0.0000000000000000E+00     7.5000000000034706E-01     0.0000000000000000E+00 
    0.0000000000000000E+00     6.8750000000078049E-01     0.0000000000000000E+00 
    0.0000000000000000E+00     6.2500000000121403E-01     0.0000000000000000E+00 
    0.0000000000000000E+00     5.6250000000164757E-01     0.0000000000000000E+00 
    0.0000000000000000E+00     5.0000000000205946E-01     0.0000000000000000E+00 
    0.0000000000000000E+00     4.3750000000182099E-01     0.0000000000000000E+00 
    0.0000000000000000E+00     3.7500000000156092E-01     0.0000000000000000E+00 
    0.0000000000000000E+00     3.1250000000130068E-01     0.0000000000000000E+00 
    0.0000000000000000E+00     2.5000000000104050E-01     0.0000000000000000E+00 
    0.0000000000000000E+00     1.8750000000078040E-01     0.0000000000000000E+00 
    0.0000000000000000E+00     1.2500000000052031E-01     0.0000000000000000E+00 
    0.0000000000000000E+00     6.2500000000260125E-02     0.0000000000000000E+00 
    6.2499999999897131E-02     6.2500000000235922E-02     0.0000000000000000E+00 
    6.2499999999921327E-02     1.2500000000047351E-01     0.0000000000000000E+00 
    6.2499999999945530E-02     1.8750000000070621E-01     0.0000000000000000E+00 
    6.2499999999969733E-02     2.5000000000093858E-01     0.0000000000000000E+00 
    6.2499999999993928E-02     3.1250000000117117E-01     0.0000000000000000E+00 
    6.2500000000018124E-02     3.7500000000140382E-01     0.0000000000000000E+00 
    6.2500000000042327E-02     4.3750000000163619E-01     0.0000000000000000E+00 
    6.2500000000066530E-02     5.0000000000184897E-01     0.0000000000000000E+00 
    6.2500000000090733E-02     5.6250000000147260E-01     0.0000000000000000E+00 
    6.2500000000114922E-02     6.2500000000107636E-01     0.0000000000000000E+00 
    6.2500000000139125E-02     6.8750000000068034E-01     0.0000000000000000E+00 
    6.2500000000163328E-02     7.5000000000028411E-01     0.0000000000000000E+00 
    6.2500000000187531E-02     8.1249999999988787E-01     0.0000000000000000E+00 
    6.2500000000211720E-02     8.7499999999951172E-01     0.0000000000000000E+00 
    6.2500000000235922E-02     9.3749999999974565E-01     0.0000000000000000E+00 
    1.2499999999981980E-01     6.2500000000211733E-02     0.0000000000000000E+00 
    1.2499999999986650E-01     1.2500000000042691E-01     0.0000000000000000E+00 
    1.2499999999991319E-01     1.8750000000063199E-01     0.0000000000000000E+00 
    1.2499999999995989E-01     2.5000000000083678E-01     0.0000000000000000E+00 
    1.2500000000000661E-01     3.1250000000104172E-01     0.0000000000000000E+00 
    1.2500000000005329E-01     3.7500000000124661E-01     0.0000000000000000E+00 
    1.2500000000010000E-01     4.3750000000145117E-01     0.0000000000000000E+00 
    1.2500000000014669E-01     5.0000000000163858E-01     0.0000000000000000E+00 
    1.2500000000019340E-01     5.6250000000129741E-01     0.0000000000000000E+00 
    1.2500000000024011E-01     6.2500000000093847E-01     0.0000000000000000E+00 
    1.2500000000028680E-01     6.8750000000057998E-01     0.0000000000000000E+00 
    1.2500000000033351E-01     7.5000000000022127E-01     0.0000000000000000E+00 
    1.2500000000038020E-01     8.1249999999986211E-01     0.0000000000000000E+00 
    1.2500000000042691E-01     8.7499999999952238E-01     0.0000000000000000E+00 
    1.2500000000047359E-01     9.3749999999975164E-01     0.0000000000000000E+00 
    1.8749999999966760E-01     6.2500000000187531E-02     0.0000000000000000E+00 
    1.8749999999974179E-01     1.2500000000038020E-01     0.0000000000000000E+00 
    1.8749999999981601E-01     1.8750000000055780E-01     0.0000000000000000E+00 
    1.8749999999989009E-01     2.5000000000073502E-01     0.0000000000000000E+00 
    1.8749999999996431E-01     3.1250000000091221E-01     0.0000000000000000E+00 
    1.8750000000003850E-01     3.7500000000108941E-01     0.0000000000000000E+00 
    1.8750000000011269E-01     4.3750000000126649E-01     0.0000000000000000E+00 
    1.8750000000018691E-01     5.0000000000142808E-01     0.0000000000000000E+00 
    1.8750000000026110E-01     5.6250000000112244E-01     0.0000000000000000E+00 
    1.8750000000033529E-01     6.2500000000080080E-01     0.0000000000000000E+00 
    1.8750000000040951E-01     6.8750000000047962E-01     0.0000000000000000E+00 
    1.8750000000048361E-01     7.5000000000015843E-01     0.0000000000000000E+00 
    1.8750000000055780E-01     8.1249999999983680E-01     0.0000000000000000E+00 
    1.8750000000063199E-01     8.7499999999953304E-01     0.0000000000000000E+00 
    1.8750000000070621E-01     9.3749999999975764E-01     0.0000000000000000E+00 
    2.4999999999951281E-01     6.2500000000163314E-02     0.0000000000000000E+00 
    2.4999999999961461E-01     1.2500000000033351E-01     0.0000000000000000E+00 
    2.4999999999971650E-01     1.8750000000048361E-01     0.0000000000000000E+00 
    2.4999999999981831E-01     2.5000000000063310E-01     0.0000000000000000E+00 
    2.4999999999992020E-01     3.1250000000078260E-01     0.0000000000000000E+00 
    2.5000000000002198E-01     3.7500000000093209E-01     0.0000000000000000E+00 
    2.5000000000012390E-01     4.3750000000108180E-01     0.0000000000000000E+00 
    2.5000000000022571E-01     5.0000000000121769E-01     0.0000000000000000E+00 
    2.5000000000032763E-01     5.6250000000094724E-01     0.0000000000000000E+00 
    2.5000000000042938E-01     6.2500000000066314E-01     0.0000000000000000E+00 
    2.5000000000053119E-01     6.8750000000037925E-01     0.0000000000000000E+00 
[...]
CELL_DATA 256 
SCALARS Pressure double 1 
LOOKUP_TABLE default 

    8.0842632870472386E-01 
    7.5826481726612027E-01 
    7.2647213946400302E-01 
    7.0306989404782672E-01 
    6.8393404200328889E-01 
    6.6755682445028441E-01 
    6.5345248551253110E-01 
    6.4143667447720487E-01 
    6.3145685523171058E-01 
    6.2345877481092316E-01 
    6.1707367228621079E-01 
    6.1113670124387609E-01 
    6.0647451756496129E-01 
    6.0390743917098755E-01 
    6.0271707264941765E-01 
    6.0239625962604781E-01 
    7.5827304779505000E-01 
    7.4790285611264340E-01 
    7.2719398951162895E-01 
    7.0675582321901764E-01 
    6.8822398847907706E-01 
    6.7166235794511842E-01 
    6.5705037342262740E-01 
    6.4437810551253072E-01 
    6.3368461226098571E-01 
    6.2501201544328011E-01 
    6.1816716681044570E-01 
    6.1214748945048292E-01 
    6.0690050791682149E-01 
    6.0382968818701965E-01 
    6.0239480240699095E-01 
    6.0207488518618268E-01 
    7.2648393256079591E-01 
    7.2720017165904449E-01 
    7.1746388013542239E-01 
    7.0296996580575077E-01 
    6.8721212362976902E-01 
    6.7177506777709473E-01 
    6.5742669108007878E-01 
    6.4456562396525119E-01 
    6.3345868815219053E-01 
    6.2430117164244570E-01 
    6.1709580604362602E-01 
    6.1118752467264115E-01 
    6.0578262996491206E-01 
    6.0239058651288546E-01 
    6.0095602879863341E-01 
    6.0088425489571107E-01 
    7.0307877264832519E-01 
    7.0676265688151252E-01 
    7.0297305579200886E-01 
    6.9366604892392614E-01 
    6.8133460741600482E-01 
    6.6783622659219410E-01 
    6.5438785853201753E-01 
    6.4177044838638131E-01 
    6.3052770587515727E-01 
    6.2105507399891136E-01 
    6.1356570493013507E-01 
    6.0778958450615772E-01 
    6.0264299962065848E-01 
    5.9910173831541169E-01 
    5.9790862842464809E-01 
    5.9832989761030519E-01 
    6.8393593005332309E-01 
    6.8822629425980952E-01 
    6.8721417022919373E-01 
    6.8133584260147295E-01 
    6.7192374826139467E-01 
    6.6044706420375388E-01 
    6.4815033417117240E-01 
    6.3601010139709757E-01 
    6.2479222816184510E-01 
    6.1509645154506931E-01 
    6.0734660823265085E-01 
    6.0158579071324092E-01 
    5.9695309510110639E-01 
    5.9354201316186339E-01 
    5.9277239815722926E-01 
    5.9391922623492710E-01 
    6.6755208774415398E-01 
    6.7165803197775142E-01 
    6.7177179944308574E-01 
    6.6783461819093093E-01 
    6.6044575220701507E-01 
    6.5058200604757888E-01 
    6.3930117163062516E-01 
    6.2760012500255680E-01 
    6.1637305346571225E-01 
    6.0639745100182474E-01 
    5.9830521664622283E-01 
    5.9244237476386741E-01 
    5.8833076766674375E-01 
    5.8530661834527986E-01 
    5.8503906073638390E-01 
    5.8714232660460797E-01 
    6.5343914893324440E-01 
    6.5703838409748272E-01 
    6.5741598968763160E-01 
    6.5437980367039517E-01 
    6.4814401256706045E-01 
    6.3929672996046516E-01 
    6.2864958193566300E-01 
    6.1711345195536760E-01 
    6.0562714943888563E-01 
    5.9510813902739090E-01 
    5.8639385883247608E-01 
    5.8013056087997505E-01 
    5.7629145668124693E-01 
    5.7382201466107929E-01 
    5.7412342836487329E-01 
    5.7744021639603160E-01 
    6.4140902267683431E-01 
    6.4435430262237603E-01 
    6.4454527162886333E-01 
    6.4175392583817448E-01 
    6.3599599686293584E-01 
    6.2758819918984854E-01 
    6.1710626746735098E-01 
    6.0532294367461303E-01 
    5.9315727681239538E-01 
    5.8162550781374478E-01 
    5.7177113070394858E-01 
    5.6454379403157973E-01 
    5.6036250773587204E-01 
    5.5838316991257464E-01 
    5.5940769793073830E-01 
    5.6419481439367825E-01 
    6.3141131279657192E-01 
    6.3364407221235186E-01 
    6.3342463869169940E-01 
    6.3050063296163295E-01 
    6.2476859207218105E-01 
    6.1635119027485752E-01 
    6.0560997337093925E-01 
    5.9314804499892670E-01 
    5.7980405430895388E-01 
    5.6663705830521316E-01 
    5.5488294540125116E-01 
    5.4584710200582021E-01 
    5.4051785777236994E-01 
    5.3858156737108442E-01 
    5.4017835869363384E-01 
    5.4663000088453506E-01 
    6.2339736632777798E-01 
    6.2495371079329332E-01 
    6.2425094048320551E-01 
    6.2101630061678770E-01 
    6.1506321982929768E-01 
    6.0636486213565066E-01 
    5.9507872108566184E-01 
    5.8160424917737641E-01 
    5.6662549049209809E-01 
    5.5115099522379618E-01 
    5.3654045440686249E-01 
    5.2446818432528031E-01 
    5.1664206316116379E-01 
    5.1374107744216446E-01 
    5.1547135519084641E-01 
    5.2363288305804745E-01 
    6.1700551315012853E-01 
    6.1809898221302306E-01 
    6.1703465678531277E-01 
    6.1351784194705306E-01 
    6.0730542691198652E-01 
    5.9826292461396913E-01 
    5.8635178048522396E-01 
    5.7173549958425995E-01 
    5.5485600381923927E-01 
    5.3652354860071905E-01 
    5.1805958118335127E-01 
    5.0139751107661767E-01 
    4.8897732790629822E-01 
    4.8283320169281335E-01 
    4.8356906090889290E-01 
    4.9357203128316185E-01 
    6.1107527639646553E-01 
    6.1208817812326932E-01 
    6.1113242653908206E-01 
    6.0774198025902870E-01 
    6.0154510587040377E-01 
    5.9239753296910314E-01 
    5.8008037116973188E-01 
    5.6449641433095299E-01 
    5.4580432393387368E-01 
    5.2442831047427763E-01 
    5.0137172209997938E-01 
    4.7852856946672834E-01 
    4.5886816686755272E-01 
    4.4604187010954943E-01 
    4.4282235025740968E-01 
    4.5330322482190871E-01 
    6.0641728275819018E-01 
    6.0684553515590356E-01 
    6.0573292123032407E-01 
    6.0259692485244265E-01 
    5.9691062448727772E-01 
    5.8828421937103303E-01 
    5.7623454191644841E-01 
    5.6030593500828252E-01 
    5.4046073276953233E-01 
    5.1657293415179373E-01 
    4.8891852849891076E-01 
    4.5884600454111524E-01 
    4.2913754830627293E-01 
    4.0465532610932986E-01 
    3.9182950356517648E-01 
    3.9848860740140585E-01 
    6.0385064522681442E-01 
    6.0377346345758354E-01 
    6.0233576186973870E-01 
    5.9904797139168620E-01 
    5.9349373482938395E-01 
    5.8525873402101969E-01 
    5.7376069300176169E-01 
    5.5832201984977858E-01 
    5.3851618669871237E-01 
    5.1364994418054333E-01 
    4.8274454338790213E-01 
    4.4602195765258756E-01 
    4.0467414449001027E-01 
    3.6252691725879232E-01 
    3.2922910255023247E-01 
    3.2217892792464409E-01 
    6.0266054173721428E-01 
    6.0233863634282669E-01 
    6.0090093641810605E-01 
    5.9785475972647184E-01 
    5.9272097812142588E-01 
    5.8498953382072527E-01 
    5.7406888659834809E-01 
    5.5935187460881675E-01 
    5.4012120491484972E-01 
    5.1539104169228178E-01 
    4.8346910684105726E-01 
    4.4282572189651331E-01 
    3.9191702495185687E-01 
    3.2926786690735049E-01 
    2.5824261819132949E-01 
    2.0774781269224057E-01 
    6.0233971779274165E-01 
    6.0201857647285362E-01 
    6.0082888225713860E-01 
    5.9827574795980532E-01 
    5.9386662920006505E-01 
    5.8709093551569402E-01 
    5.7738693684828712E-01 
    5.6414037643164061E-01 
    5.4657872085897941E-01 
    5.2357051112770470E-01 
    4.9346941634403629E-01 
    4.5325571289397176E-01 
    3.9861526624966470E-01 
    3.2224939368955080E-01 
    2.0773555287001857E-01 
    0.0000000000000000E+00 

SCALARS Saturarion double 1 
LOOKUP_TABLE default 

    1.0000000000000000E+00 
    9.8222202023782312E-01 
    9.5034399312644680E-01 
    8.9373075983255057E-01 
    8.2578756990706970E-01 
    7.6327720760569562E-01 
    7.0629195470721595E-01 
    6.5322365421770168E-01 
    6.0468188215989727E-01 
    5.5754265437185568E-01 
    4.8119336662127049E-01 
    1.8201476569240180E-01 
    1.8983369989259252E-06 
    1.0000000093723528E-06 
    9.9999999999999995E-07 
    9.9999999999999995E-07 
    9.8215198447220331E-01 
    9.6664443918239673E-01 
    9.3785728305587435E-01 
    8.9053374698787768E-01 
    8.3075610968992941E-01 
    7.7236734065581536E-01 
    7.1703748633346098E-01 
    6.6469020833585712E-01 
    6.1626899668781532E-01 
    5.7015341159939537E-01 
    5.0542655244688506E-01 
    3.0297621676119402E-01 
    6.4096202123782526E-03 
    1.8820584717512542E-06 
    1.0000001075114379E-06 
    9.9999999999999995E-07 
    9.5011685396462819E-01 
    9.3771985639929289E-01 
    9.1057746387468552E-01 
    8.7309538329829250E-01 
    8.2629839157975116E-01 
    7.7714116216661955E-01 
    7.2728795992257522E-01 
    6.7807147449187333E-01 
    6.3093165788376193E-01 
    5.8543855347106843E-01 
    5.3170308473335104E-01 
    4.0818506102576818E-01 
    7.3978670916676800E-02 
    1.7848005704458031E-04 
    1.0035522731931409E-06 
    9.9999999999999995E-07 
    8.9323902982751069E-01 
    8.9025291583881205E-01 
    8.7299212934338244E-01 
    8.4515046939354177E-01 
    8.1095915109738947E-01 
    7.7208307863566816E-01 
    7.2998419386369806E-01 
    6.8635485409517927E-01 
    6.4250725300396161E-01 
    5.9851074318876685E-01 
    5.5039634786901226E-01 
    4.6440453496342360E-01 
    1.8293111734183828E-01 
    9.3941276406024751E-04 
    1.0603423724636203E-06 
    1.0000000038383537E-06 
    8.2523145232959838E-01 
    8.3037666574488389E-01 
    8.2607707293519450E-01 
    8.1081568046165331E-01 
    7.8787467600346517E-01 
    7.5884164153232803E-01 
    7.2531775446887858E-01 
    6.8870698665081032E-01 
    6.4993385756298128E-01 
    6.0945970573488839E-01 
    5.6640320354248486E-01 
    5.0372043610794948E-01 
    3.0566986005571550E-01 
    2.2567483394545770E-02 
    3.1724109855716229E-05 
    1.0000436190820086E-06 
    7.6273247919569132E-01 
    7.7199767752462300E-01 
    7.7685664755061856E-01 
    7.7177248213955574E-01 
    7.5864445060167163E-01 
    7.3909628848118269E-01 
    7.1432949703896742E-01 
    6.8536165703927132E-01 
    6.5283280142499178E-01 
    6.1719019952471366E-01 
    5.7842727359026691E-01 
    5.2697510314730855E-01 
    4.0711202844469474E-01 
    8.6479149949797274E-02 
    1.9628327222300619E-04 
    1.0063683331441519E-06 
    7.0541207627376812E-01 
    7.1660219673318093E-01 
    7.2708570472301393E-01 
    7.2968965623099880E-01 
    7.2497076486543521E-01 
    7.1415311389585046E-01 
    6.9791330879244107E-01 
    6.7684669012927190E-01 
    6.5136427262458163E-01 
    6.2155372719249902E-01 
    5.8725376487861247E-01 
    5.4541484452954114E-01 
    4.5465430590972244E-01 
    1.5928226349287183E-01 
    7.1086705789738221E-04 
    1.0283540974831800E-06 
    6.5203904439684468E-01 
    6.6404372895248320E-01 
    6.7781132806044131E-01 
    6.8612826741303345E-01 
    6.8833950096912200E-01 
    6.8502374272047173E-01 
    6.7668877333458088E-01 
    6.6357624117890190E-01 
    6.4569185556495601E-01 
    6.2276900575806138E-01 
    5.9416769401073566E-01 
    5.5889733780388151E-01 
    4.9069492576263357E-01 
    2.5908391229767841E-01 
    1.1088922802205886E-02 
    6.3184191337744179E-06 
    6.0338814916600469E-01 
    6.1536985049785287E-01 
    6.3051397227285622E-01 
    6.4223462987796287E-01 
    6.4966247486550044E-01 
    6.5249612689275072E-01 
    6.5107898092268091E-01 
    6.4551968113258029E-01 
    6.3551821835352573E-01 
    6.2030805664682587E-01 
    5.9876199804572228E-01 
    5.6934268077300121E-01 
    5.1877708182996063E-01 
    3.7259029434092095E-01 
    5.6774062225644094E-02 
    1.5488429975899068E-04 
    5.5630958071537739E-01 
    5.6930440203991606E-01 
    5.8515240262249391E-01 
    5.9817634987647161E-01 
    6.0913169999513261E-01 
    6.1694332382560857E-01 
    6.2131881184025961E-01 
    6.2249146163682390E-01 
    6.2009122832104446E-01 
    6.1302182621313384E-01 
    5.9961931642894617E-01 
    5.7793731870765397E-01 
    5.3996220834907960E-01 
    4.2999092519456455E-01 
    1.1574249214408153E-01 
    3.3999384159575123E-04 
    4.8019739001665329E-01 
    5.0556346142242869E-01 
    5.3225859648274654E-01 
    5.5043462193230241E-01 
    5.6583201659685789E-01 
    5.7804278362223094E-01 
    5.8716352900172308E-01 
    5.9402932368855632E-01 
    5.9841753568440648E-01 
    5.9933840199866872E-01 
    5.9479407532343997E-01 
    5.8236063858081155E-01 
    5.5630414897520786E-01 
    4.7821452658007257E-01 
    2.1400946172692559E-01 
    6.7339041344875753E-03 
    1.8181551227061385E-01 
    3.0569637790616744E-01 
    4.1094211440253114E-01 
    4.6558221505432790E-01 
    5.0347896207359333E-01 
    5.2679712383132316E-01 
    5.4533248234709919E-01 
    5.5905177347507584E-01 
    5.6929549049528239E-01 
    5.7758622816634930E-01 
    5.8202754789444577E-01 
    5.8002632822191935E-01 
    5.6643966302995874E-01 
    5.1910117667393429E-01 
    3.5492640679015969E-01 
    8.4557440643816539E-02 
    1.9738286699852155E-06 
    6.9444317348400925E-03 
    7.8416372849720542E-02 
    1.8663458850188649E-01 
    3.0698171910436095E-01 
    4.0556369348989096E-01 
    4.5382249908192129E-01 
    4.9065028007691958E-01 
    5.1875040010624385E-01 
    5.3972193778927036E-01 
    5.5604426450528877E-01 
    5.6626647270761865E-01 
    5.6675981440751466E-01 
    5.4406835859897495E-01 
    4.3981254114288326E-01 
    1.9277386662227580E-01 
    1.0000000104873184E-06 
    2.0398729881353931E-06 
    1.9789576055170686E-04 
    9.5230019088248701E-04 
    2.1493217880026665E-02 
    8.4859547575931810E-02 
    1.6085476593731357E-01 
    2.5963924402529914E-01 
    3.7213730194601874E-01 
    4.2971339715454449E-01 
    4.7941099154925843E-01 
    5.1984417040282682E-01 
    5.4412325354538360E-01 
    5.4516861046147380E-01 
    4.9476123985071696E-01 
    2.9059945426294959E-01 
    9.9999999999999995E-07 
    1.0000001333801150E-06 
    1.0046249745492463E-06 
    1.0504072108980064E-06 
    2.8636846784738898E-05 
    2.0566856272056537E-04 
    8.0396905090076751E-04 
    9.6632604004893534E-03 
    5.7695669010185149E-02 
    1.1607990373923431E-01 
    2.2072864843767326E-01 
    3.5878323891420794E-01 
    4.4050690276061988E-01 
    4.9469116636334992E-01 
    5.0442952350581383E-01 
    3.7481666002492275E-01 
    9.9999999999999995E-07 
    9.9999999999999995E-07 
    9.9999999999999995E-07 
    1.0000000037884361E-06 
    1.0000353448836693E-06 
    1.0069855011996726E-06 
    1.0350723283344925E-06 
    4.9647237985433888E-06 
    1.9103302512685512E-04 
    3.7128747671369400E-04 
    9.7102554075106529E-03 
    7.9742911254468557E-02 
    1.9289292764740892E-01 
    2.8909241232987370E-01 
    3.7489598754136094E-01 
    3.7509431939429327E-01 
