# vtk DataFile Version 2.0
Pressure Field Data 
ASCII 
DATASET UNSTRUCTURED_GRID 

POINTS 289 double 

    0.0000000000000000E+00     0.0000000000000000E+00     0.0000000000000000E+00 
    1.0000000000000000E+00     0.0000000000000000E+00     0.0000000000000000E+00 
    1.0000000000000000E+00     1.0000000000000000E+00     0.0000000000000000E+00 
    0.0000000000000000E+00     1.0000000000000000E+00     0.0000000000000000E+00 
    6.2499999999872928E-02     0.0000000000000000E+00     0.0000000000000000E+00 
    1.2499999999977310E-01     0.0000000000000000E+00     0.0000000000000000E+00 
    1.8749999999959341E-01     0.0000000000000000E+00     0.0000000000000000E+00 
    2.4999999999941089E-01     0.0000000000000000E+00     0.0000000000000000E+00 
    3.1249999999922851E-01     0.0000000000000000E+00     0.0000000000000000E+00 
    3.7499999999904610E-01     0.0000000000000000E+00     0.0000000000000000E+00 
    4.3749999999886358E-01     0.0000000000000000E+00     0.0000000000000000E+00 
    4.9999999999869210E-01     0.0000000000000000E+00     0.0000000000000000E+00 
    5.6249999999884603E-01     0.0000000000000000E+00     0.0000000000000000E+00 
    6.2499999999901090E-01     0.0000000000000000E+00     0.0000000000000000E+00 
    6.8749999999917577E-01     0.0000000000000000E+00     0.0000000000000000E+00 
    7.4999999999934064E-01     0.0000000000000000E+00     0.0000000000000000E+00 
    8.1249999999950551E-01     0.0000000000000000E+00     0.0000000000000000E+00 
    8.7499999999967026E-01     0.0000000000000000E+00     0.0000000000000000E+00 
    9.3749999999983513E-01     0.0000000000000000E+00     0.0000000000000000E+00 
    1.0000000000000000E+00     6.2499999999872928E-02     0.0000000000000000E+00 
    1.0000000000000000E+00     1.2499999999977310E-01     0.0000000000000000E+00 
    1.0000000000000000E+00     1.8749999999959341E-01     0.0000000000000000E+00 
    1.0000000000000000E+00     2.4999999999941089E-01     0.0000000000000000E+00 
    1.0000000000000000E+00     3.1249999999922851E-01     0.0000000000000000E+00 
    1.0000000000000000E+00     3.7499999999904610E-01     0.0000000000000000E+00 
    1.0000000000000000E+00     4.3749999999886358E-01     0.0000000000000000E+00 
    1.0000000000000000E+00     4.9999999999869210E-01     0.0000000000000000E+00 
    1.0000000000000000E+00     5.6249999999884603E-01     0.0000000000000000E+00 
    1.0000000000000000E+00     6.2499999999901090E-01     0.0000000000000000E+00 
    1.0000000000000000E+00     6.8749999999917577E-01     0.0000000000000000E+00 
    1.0000000000000000E+00     7.4999999999934064E-01     0.0000000000000000E+00 
    1.0000000000000000E+00     8.1249999999950551E-01     0.0000000000000000E+00 
    1.0000000000000000E+00     8.7499999999967026E-01     0.0000000000000000E+00 
    1.0000000000000000E+00     9.3749999999983513E-01     0.0000000000000000E+00 
    9.3749999999973976E-01     1.0000000000000000E+00     0.0000000000000000E+00 
    8.7499999999950118E-01     1.0000000000000000E+00     0.0000000000000000E+00 
    8.1249999999991318E-01     1.0000000000000000E+00     0.0000000000000000E+00 
    7.5000000000034706E-01     1.0000000000000000E+00     0.0000000000000000E+00 
    6.8750000000078049E-01     1.0000000000000000E+00     0.0000000000000000E+00 
    6.2500000000121403E-01     1.0000000000000000E+00     0.0000000000000000E+00 
    5.6250000000164757E-01     1.0000000000000000E+00     0.0000000000000000E+00 
    5.0000000000205946E-01     1.0000000000000000E+00     0.0000000000000000E+00 
    4.3750000000182099E-01     1.0000000000000000E+00     0.0000000000000000E+00 
    3.7500000000156092E-01     1.0000000000000000E+00     0.0000000000000000E+00 
    3.1250000000130068E-01     1.0000000000000000E+00     0.0000000000000000E+00 
    2.5000000000104050E-01     1.0000000000000000E+00     0.0000000000000000E+00 
    1.8750000000078040E-01     1.0000000000000000E+00     0.0000000000000000E+00 
    1.2500000000052031E-01     1.0000000000000000E+00     0.0000000000000000E+00 
    6.2500000000260125E-02     1.0000000000000000E+00     0.0000000000000000E+00 
    0.0000000000000000E+00     9.3749999999973976E-01     0.0000000000000000E+00 
    0.0000000000000000E+00     8.7499999999950118E-01     0.0000000000000000E+00 
    0.0000000000000000E+00     8.1249999999991318E-01     0.0000000000000000E+00 
    0.0000000000000000E+00     7.5000000000034706E-01     0.0000000000000000E+00 
    0.0000000000000000E+00     6.8750000000078049E-01     0.0000000000000000E+00 
    0.0000000000000000E+00     6.2500000000121403E-01     0.0000000000000000E+00 
    0.0000000000000000E+00     5.6250000000164757E-01     0.0000000000000000E+00 
    0.0000000000000000E+00     5.0000000000205946E-01     0.0000000000000000E+00 
    0.0000000000000000E+00     4.3750000000182099E-01     0.0000000000000000E+00 
    0.0000000000000000E+00     3.7500000000156092E-01     0.0000000000000000E+00 
    0.0000000000000000E+00     3.1250000000130068E-01     0.0000000000000000E+00 
    0.0000000000000000E+00     2.5000000000104050E-01     0.0000000000000000E+00 
    0.0000000000000000E+00     1.8750000000078040E-01     0.0000000000000000E+00 
    0.0000000000000000E+00     1.2500000000052031E-01     0.0000000000000000E+00 
    0.0000000000000000E+00     6.2500000000260125E-02     0.0000000000000000E+00 
    6.2499999999897131E-02     6.2500000000235922E-02     0.0000000000000000E+00 
    6.2499999999921327E-02     1.2500000000047351E-01     0.0000000000000000E+00 
    6.2499999999945530E-02     1.8750000000070621E-01     0.0000000000000000E+00 
    6.2499999999969733E-02     2.5000000000093858E-01     0.0000000000000000E+00 
    6.2499999999993928E-02     3.1250000000117117E-01     0.0000000000000000E+00 
    6.2500000000018124E-02     3.7500000000140382E-01     0.0000000000000000E+00 
    6.2500000000042327E-02     4.3750000000163619E-01     0.0000000000000000E+00 
    6.2500000000066530E-02     5.0000000000184897E-01     0.0000000000000000E+00 
    6.2500000000090733E-02     5.6250000000147260E-01     0.0000000000000000E+00 
    6.2500000000114922E-02     6.2500000000107636E-01     0.0000000000000000E+00 
    6.2500000000139125E-02     6.8750000000068034E-01     0.0000000000000000E+00 
    6.2500000000163328E-02     7.5000000000028411E-01     0.0000000000000000E+00 
    6.2500000000187531E-02     8.1249999999988787E-01     0.0000000000000000E+00 
    6.2500000000211720E-02     8.7499999999951172E-01     0.0000000000000000E+00 
    6.2500000000235922E-02     9.3749999999974565E-01     0.0000000000000000E+00 
    1.2499999999981980E-01     6.2500000000211733E-02     0.0000000000000000E+00 
    1.2499999999986650E-01     1.2500000000042691E-01     0.0000000000000000E+00 
    1.2499999999991319E-01     1.8750000000063199E-01     0.0000000000000000E+00 
    1.2499999999995989E-01     2.5000000000083678E-01     0.0000000000000000E+00 
    1.2500000000000661E-01     3.1250000000104172E-01     0.0000000000000000E+00 
    1.2500000000005329E-01     3.7500000000124661E-01     0.0000000000000000E+00 
    1.2500000000010000E-01     4.3750000000145117E-01     0.0000000000000000E+00 
    1.2500000000014669E-01     5.0000000000163858E-01     0.0000000000000000E+00 
    1.2500000000019340E-01     5.6250000000129741E-01     0.0000000000000000E+00 
    1.2500000000024011E-01     6.2500000000093847E-01     0.0000000000000000E+00 
    1.2500000000028680E-01     6.8750000000057998E-01     0.0000000000000000E+00 
    1.2500000000033351E-01     7.5000000000022127E-01     0.0000000000000000E+00 
    1.2500000000038020E-01     8.1249999999986211E-01     0.0000000000000000E+00 
    1.2500000000042691E-01     8.7499999999952238E-01     0.0000000000000000E+00 
    1.2500000000047359E-01     9.3749999999975164E-01     0.0000000000000000E+00 
    1.8749999999966760E-01     6.2500000000187531E-02     0.0000000000000000E+00 
    1.8749999999974179E-01     1.2500000000038020E-01     0.0000000000000000E+00 
    1.8749999999981601E-01     1.8750000000055780E-01     0.0000000000000000E+00 
    1.8749999999989009E-01     2.5000000000073502E-01     0.0000000000000000E+00 
    1.8749999999996431E-01     3.1250000000091221E-01     0.0000000000000000E+00 
    1.8750000000003850E-01     3.7500000000108941E-01     0.0000000000000000E+00 
    1.8750000000011269E-01     4.3750000000126649E-01     0.0000000000000000E+00 
    1.8750000000018691E-01     5.0000000000142808E-01     0.0000000000000000E+00 
    1.8750000000026110E-01     5.6250000000112244E-01     0.0000000000000000E+00 
    1.8750000000033529E-01     6.2500000000080080E-01     0.0000000000000000E+00 
    1.8750000000040951E-01     6.8750000000047962E-01     0.0000000000000000E+00 
    1.8750000000048361E-01     7.5000000000015843E-01     0.0000000000000000E+00 
    1.8750000000055780E-01     8.1249999999983680E-01     0.0000000000000000E+00 
    1.8750000000063199E-01     8.7499999999953304E-01     0.0000000000000000E+00 
    1.8750000000070621E-01     9.3749999999975764E-01     0.0000000000000000E+00 
    2.4999999999951281E-01     6.2500000000163314E-02     0.0000000000000000E+00 
    2.4999999999961461E-01     1.2500000000033351E-01     0.0000000000000000E+00 
    2.4999999999971650E-01     1.8750000000048361E-01     0.0000000000000000E+00 
    2.4999999999981831E-01     2.5000000000063310E-01     0.0000000000000000E+00 
    2.4999999999992020E-01     3.1250000000078260E-01     0.0000000000000000E+00 
    2.5000000000002198E-01     3.7500000000093209E-01     0.0000000000000000E+00 
    2.5000000000012390E-01     4.3750000000108180E-01     0.0000000000000000E+00 
    2.5000000000022571E-01     5.0000000000121769E-01     0.0000000000000000E+00 
    2.5000000000032763E-01     5.6250000000094724E-01     0.0000000000000000E+00 
    2.5000000000042938E-01     6.2500000000066314E-01     0.0000000000000000E+00 
    2.5000000000053119E-01     6.8750000000037925E-01     0.0000000000000000E+00 
[...]
CELL_DATA 256 
SCALARS Pressure double 1 
LOOKUP_TABLE default 

    9.5355187725250923E-01 
    9.0289213007348579E-01 
    8.7016578816464785E-01 
    8.4529599643678366E-01 
    8.2427371378141889E-01 
    8.0589113428314962E-01 
    7.8986335154399112E-01 
    7.7614454533691646E-01 
    7.6469091393097643E-01 
    7.5506882089749794E-01 
    7.4563269845467139E-01 
    7.3749155524645027E-01 
    7.3239401128525128E-01 
    7.2945846745747167E-01 
    7.2809096408149909E-01 
    7.2772223847336204E-01 
    9.0290462572177488E-01 
    8.9239836907058057E-01 
    8.7098288111443212E-01 
    8.4929069054757966E-01 
    8.2903190391708914E-01 
    8.1053606842863501E-01 
    7.9399333251896431E-01 
    7.7956524784803427E-01 
    7.6737389330981864E-01 
    7.5722728867055555E-01 
    7.4781396963331881E-01 
    7.3886206650858977E-01 
    7.3287680245120490E-01 
    7.2937512179244990E-01 
    7.2772252654980096E-01 
    7.2735378201421108E-01 
    8.7018406369948997E-01 
    8.7099247535869395E-01 
    8.6076367983840585E-01 
    8.4522312718617376E-01 
    8.2794157910954291E-01 
    8.1070705392649156E-01 
    7.9448010835085958E-01 
    7.7984889634234622E-01 
    7.6720971590343290E-01 
    7.5665751775932955E-01 
    7.4741925458707292E-01 
    7.3823873827370090E-01 
    7.3152543130894754E-01 
    7.2773044463383552E-01 
    7.2607218401159868E-01 
    7.2598723652539998E-01 
    8.4531070092508642E-01 
    8.4930199530002004E-01 
    8.4522822603545456E-01 
    8.3508831380912796E-01 
    8.2145768947667896E-01 
    8.0633259197210483E-01 
    7.9109505652730538E-01 
    7.7672046709993325E-01 
    7.6391229384062709E-01 
    7.5307222967792198E-01 
    7.4396090255882441E-01 
    7.3507855251986576E-01 
    7.2782387062422238E-01 
    7.2397309218910977E-01 
    7.2257315749281636E-01 
    7.2305132040146747E-01 
    8.2427799902686727E-01 
    8.2903673220947449E-01 
    8.2794528332165229E-01 
    8.2145946497496669E-01 
    8.1096717913755734E-01 
    7.9803407819943450E-01 
    7.8405036140985862E-01 
    7.7018027771303110E-01 
    7.5736985642757815E-01 
    7.4630250656618524E-01 
    7.3716551704315436E-01 
    7.2886592254515314E-01 
    7.2141557661135158E-01 
    7.1758800912731635E-01 
    7.1666365594521753E-01 
    7.1797337966788288E-01 
    8.0588478939080721E-01 
    8.1053080171520486E-01 
    8.1070287909904448E-01 
    8.0633022243432639E-01 
    7.9803237163999718E-01 
    7.8685483358368435E-01 
    7.7397774468044744E-01 
    7.6057023119035516E-01 
    7.4771820907397168E-01 
    7.3633800875102151E-01 
    7.2699576823149548E-01 
    7.1919156912028959E-01 
    7.1188880495735229E-01 
    7.0801490859855321E-01 
    7.0775373723511681E-01 
    7.1015893043279388E-01 
    7.8984225152436749E-01 
    7.9397505863019446E-01 
    7.9446431895275604E-01 
    7.9108368296115172E-01 
    7.8404269477516420E-01 
    7.7397340917580137E-01 
    7.6178508296468306E-01 
    7.4854082008263911E-01 
    7.3536639783622360E-01 
    7.2334953885901454E-01 
    7.1338350462762234E-01 
    7.0557831829675310E-01 
    6.9858559805829368E-01 
    6.9461569952121027E-01 
    6.9518746660017960E-01 
    6.9895719864450456E-01 
    7.7610127587811195E-01 
    7.7952756187194527E-01 
    7.7981778296891446E-01 
    7.7669742278779719E-01 
    7.7016354916915641E-01 
    7.6055878176964697E-01 
    7.4853516462610636E-01 
    7.3499284347639515E-01 
    7.2101593560898980E-01 
    7.0779817211098117E-01 
    6.9652039054587023E-01 
    6.8784393455676973E-01 
    6.8097509633449893E-01 
    6.7686549426399967E-01 
    6.7824810100820587E-01 
    6.8363347277125353E-01 
    7.6462580694582361E-01 
    7.6731437900421806E-01 
    7.6716203233105695E-01 
    7.6387830502871046E-01 
    7.5734313480987026E-01 
    7.4769646317463578E-01 
    7.3535185856426089E-01 
    7.2100934784017989E-01 
    7.0564335390977206E-01 
    6.9048336893396256E-01 
    6.7697209847612683E-01 
    6.6636685110884297E-01 
    6.5879880584098072E-01 
    6.5414043532255572E-01 
    6.5599435367200853E-01 
    6.6326574622950185E-01 
    7.5499663164221764E-01 
    7.5715593102669831E-01 
    7.5659971159008843E-01 
    7.5303392387483770E-01 
    7.4627086013826782E-01 
    7.3630665414224117E-01 
    7.2332313952272642E-01 
    7.0778170898681658E-01 
    6.9047481349877360E-01 
    6.7256124242226523E-01 
    6.5564692398790092E-01 
    6.4159137365029795E-01 
    6.3163902779487313E-01 
    6.2557856353089247E-01 
    6.2711040038683585E-01 
    6.3658925226851726E-01 
    7.4557755150846838E-01 
    7.4776195954973634E-01 
    7.4737523393183891E-01 
    7.4393314999712890E-01 
    7.3713834381023702E-01 
    7.2695766178022070E-01 
    7.1334288520018319E-01 
    6.9649005696724675E-01 
    6.7695013336112220E-01 
    6.5563057384457080E-01 
    6.3407987304624336E-01 
    6.1459073576404921E-01 
    5.9956905658857862E-01 
    5.9021675481922342E-01 
    5.8997129883253263E-01 
    6.0177135843445839E-01 
    7.3744181532235520E-01 
    7.3881653063197572E-01 
    7.3820195771649100E-01 
    7.3504742367074516E-01 
    7.2882861059665183E-01 
    7.1913903874701057E-01 
    7.0551953656956556E-01 
    6.8779913099644696E-01 
    6.6633432961638528E-01 
    6.4155640889344545E-01 
    6.1456717785644066E-01 
    5.8766805130647448E-01 
    5.6420196213398699E-01 
    5.4770188802103992E-01 
    5.4238151976871196E-01 
    5.5570051704488443E-01 
    7.3234365967740545E-01 
    7.3282660682549949E-01 
    7.3147561719495546E-01 
    7.2777441351364558E-01 
    7.2136602103460168E-01 
    7.1182761535577022E-01 
    6.9852162139143426E-01 
    6.8092545829724882E-01 
    6.5876373824722545E-01 
    6.3158454304269562E-01 
    5.9952189913711385E-01 
    5.6418388528007846E-01 
    5.2870337293839997E-01 
    4.9853448483713392E-01 
    4.8135700976517193E-01 
    4.9224413680302226E-01 
    7.2940877413128247E-01 
    7.2932545466444698E-01 
    7.2768106907938945E-01 
    7.2392458519404668E-01 
    7.1754091031567369E-01 
    7.0796718871544739E-01 
    6.9456738160727227E-01 
    6.7682283575838342E-01 
    6.5411393691462916E-01 
    6.2554703142561674E-01 
    5.9018610325462395E-01 
    5.4771217904468805E-01 
    4.9855321625250032E-01 
    4.4740298757985808E-01 
    4.0485141104776717E-01 
    3.9936452953289558E-01 
    7.2804155915204705E-01 
    7.2767307244707791E-01 
    7.2602281405767777E-01 
    7.2252468035274753E-01 
    7.1661660199164667E-01 
    7.0770770511813064E-01 
    6.9514284747537203E-01 
    6.7820786756371099E-01 
    6.5596504366416242E-01 
    6.2708928650817553E-01 
    5.8995290281346380E-01 
    5.4241090536571601E-01 
    4.8139786402371082E-01 
    4.0485608139905360E-01 
    3.1632242665167559E-01 
    2.5619352346245999E-01 
    7.2767293665064126E-01 
    7.2730436375943674E-01 
    7.2593764066558941E-01 
    7.2300255185803608E-01 
    7.1792609817166808E-01 
    7.1011283800843772E-01 
    6.9891293426528334E-01 
    6.8359314405599025E-01 
    6.6323370275194649E-01 
    6.3656721610115707E-01 
    6.0175490311910218E-01 
    5.5570135742377935E-01 
    4.9227415752910053E-01 
    3.9935516878435584E-01 
    2.5616390050004206E-01 
    0.0000000000000000E+00 

SCALARS Saturarion double 1 
LOOKUP_TABLE default 

    1.0000000000000000E+00 
    9.7604381906146787E-01 
    9.3420366575015046E-01 
    8.5974685308018162E-01 
    7.8162984836982918E-01 
    7.1544862002846421E-01 
    6.5798040954853343E-01 
    6.0818374654391039E-01 
    5.6060015346234437E-01 
    4.8841830466171388E-01 
    2.1792023170674990E-01 
    7.0807949505751329E-05 
    1.0000001946792658E-06 
    1.0000000000000112E-06 
    9.9999999999999995E-07 
    9.9999999999999995E-07 
    9.7593666369978804E-01 
    9.5520091130778839E-01 
    9.1775967463553720E-01 
    8.5574878223549067E-01 
    7.8710278773732589E-01 
    7.2461251518754277E-01 
    6.6808012918382365E-01 
    6.1840108114294279E-01 
    5.7189400933123447E-01 
    5.0972056798250975E-01 
    3.2899735966836641E-01 
    1.2346056784586534E-02 
    4.0924740502780368E-06 
    1.0000008391459422E-06 
    9.9999999999999995E-07 
    9.9999999999999995E-07 
    9.3386966209630684E-01 
    9.1756859772782240E-01 
    8.8253151782119665E-01 
    8.3552416072310887E-01 
    7.8257429769698628E-01 
    7.2901326772716624E-01 
    6.7726412476274589E-01 
    6.2953372251562367E-01 
    5.8383440640030337E-01 
    5.3106498342844011E-01 
    4.1843972932979112E-01 
    9.1199653968729186E-02 
    2.0592486209447433E-04 
    1.0070533698437346E-06 
    9.9999999999999995E-07 
    9.9999999999999995E-07 
    8.5905079631574943E-01 
    8.5537141770594693E-01 
    8.3537559884434498E-01 
    8.0415766260593091E-01 
    7.6567088213079515E-01 
    7.2274693815743440E-01 
    6.7870112177687181E-01 
    6.3553322330686779E-01 
    5.9278324788561720E-01 
    5.4613404068306060E-01 
    4.6762356365418456E-01 
    2.0689257693902094E-01 
    1.6067834945569742E-03 
    1.1099843462744668E-06 
    1.0000000168081275E-06 
    9.9999999999999995E-07 
    7.8085775879251829E-01 
    7.8655175891541518E-01 
    7.8223815403789854E-01 
    7.6548077635991585E-01 
    7.3970476122688378E-01 
    7.0784526220675503E-01 
    6.7258631763007726E-01 
    6.3596910033285814E-01 
    5.9844822777326256E-01 
    5.5807077231740887E-01 
    5.0000350179370889E-01 
    3.2579412098535865E-01 
    2.3991490428219783E-02 
    3.4708077432402619E-05 
    1.0000827016969836E-06 
    9.9999999999999995E-07 
    7.1468171499378030E-01 
    7.2405712923102727E-01 
    7.2859899527696581E-01 
    7.2235987130892543E-01 
    7.0762355175547786E-01 
    6.8630170579290239E-01 
    6.6022540997983381E-01 
    6.3133268556483968E-01 
    6.0027709494311665E-01 
    5.6567411522765176E-01 
    5.1903603970096590E-01 
    4.0988749601207514E-01 
    9.4931277164025454E-02 
    2.1287406613152140E-04 
    1.0120192782846129E-06 
    9.9999999999999995E-07 
    6.5678905160155621E-01 
    6.6736581065660872E-01 
    6.7687555562190460E-01 
    6.7831498772175391E-01 
    6.7221132732733202E-01 
    6.6003876250150550E-01 
    6.4298253221303470E-01 
    6.2223723690239929E-01 
    5.9821787899389767E-01 
    5.6976730687539734E-01 
    5.3268532593438866E-01 
    4.5084346286640331E-01 
    1.8409233941851708E-01 
    1.8308109233763990E-03 
    1.1327251495660861E-06 
    1.0000000159955336E-06 
    6.0668196927672569E-01 
    6.1748087699380849E-01 
    6.2913224434842374E-01 
    6.3525090481845081E-01 
    6.3558051944492777E-01 
    6.3095771259690236E-01 
    6.2203546329873904E-01 
    6.0911813920863800E-01 
    5.9208800867850864E-01 
    5.7020582862202185E-01 
    5.4054459859702852E-01 
    4.8152146305158183E-01 
    2.9333594828978499E-01 
    1.9956235233373570E-02 
    2.8487365102124325E-05 
    1.0000436403756518E-06 
    5.5916254685471400E-01 
    5.7099160897293555E-01 
    5.8357496009311016E-01 
    5.9259997630366712E-01 
    5.9819535052470230E-01 
    5.9988081818746775E-01 
    5.9781455686921547E-01 
    5.9182307023395486E-01 
    5.8149547689745729E-01 
    5.6636633534138980E-01 
    5.4495928692069906E-01 
    5.0363983826687853E-01 
    3.9169390621731925E-01 
    9.1518467512135160E-02 
    3.4900494502543424E-04 
    1.0291904748191097E-06 
    4.8777564905293869E-01 
    5.0976015930282614E-01 
    5.3159012829005803E-01 
    5.4600904076140522E-01 
    5.5783528104243485E-01 
    5.6553835875765746E-01 
    5.6947511425225972E-01 
    5.6976625544459281E-01 
    5.6601514298580635E-01 
    5.5772816583436036E-01 
    5.4434344114025368E-01 
    5.1685119493666831E-01 
    4.4158525051304176E-01 
    1.8598140444729128E-01 
    3.5034977795709698E-03 
    1.4464613755620032E-06 
    2.1852636044874374E-01 
    3.3201183953044350E-01 
    4.2160558944628601E-01 
    4.6826552868282595E-01 
    4.9949924608196339E-01 
    5.1875780337270327E-01 
    5.3255047297563707E-01 
    5.4027347158951000E-01 
    5.4436027989527780E-01 
    5.4390362169178685E-01 
    5.3811362089184067E-01 
    5.2335300299482923E-01 
    4.7574137161761459E-01 
    3.0563048104674573E-01 
    3.8014734328194168E-02 
    1.2329653001168778E-04 
    7.3462557241025278E-05 
    1.3735390822247456E-02 
    9.7509958105906222E-02 
    2.0655339642791770E-01 
    3.2187290038943017E-01 
    4.0789591146614501E-01 
    4.5058169869929660E-01 
    4.8188427924671279E-01 
    5.0340743262702825E-01 
    5.1639882443835472E-01 
    5.2303436967342631E-01 
    5.2150885744088304E-01 
    4.9805297275507004E-01 
    4.0262825196751362E-01 
    1.2094437569109857E-01 
    6.4142625374625324E-04 
    1.0000002243952094E-06 
    4.8958009257728986E-06 
    2.2234722823354081E-04 
    1.4813910966160560E-03 
    2.2977822551231909E-02 
    9.3309454375176903E-02 
    1.8449902207177532E-01 
    2.9519223968774089E-01 
    3.9204085099873331E-01 
    4.4114512935740496E-01 
    4.7537006028098949E-01 
    4.9784186549521275E-01 
    5.0103531927420364E-01 
    4.5653844499200386E-01 
    2.5385537845476858E-01 
    3.4618052781318992E-02 
    1.0000000000000129E-06 
    1.0000012163628498E-06 
    1.0089283687771125E-06 
    1.0880983030486820E-06 
    3.2953120328996646E-05 
    2.2613412600774456E-04 
    1.9783126179835852E-03 
    2.0039847051968981E-02 
    9.1140118847597415E-02 
    1.8714710128984408E-01 
    3.0995200891107100E-01 
    4.0365298721207582E-01 
    4.5671168390239936E-01 
    4.6911784397867939E-01 
    3.8295626483361900E-01 
    1.8024598278518386E-01 
    9.9999999999999995E-07 
    9.9999999999999995E-07 
    9.9999999999999995E-07 
    1.0000000131469798E-06 
    1.0000731984265545E-06 
    1.0131760729413292E-06 
    1.1546223114649157E-06 
    2.9045345366002978E-05 
    3.2993551824709195E-04 
    3.8147570993692279E-03 
    4.0087371807077665E-02 
    1.1943133945460846E-01 
    2.5267161537034216E-01 
    3.8256286151219393E-01 
    3.9607498884020731E-01 
    2.7649755192066161E-01 
    9.9999999999999995E-07 
    9.9999999999999995E-07 
    9.9999999999999995E-07 
    9.9999999999999995E-07 
    9.9999999999999995E-07 
    9.9999999999999995E-07 
    1.0000000186304748E-06 
    1.0000465032049754E-06 
    1.0258877665660485E-06 
    1.5512977201576678E-06 
    1.3120111739985975E-04 
    5.6407068826101205E-04 
    3.5048348062883941E-02 
    1.7831739188704379E-01 
    2.7631666849466541E-01 
    2.7683729769206927E-01 
