# vtk DataFile Version 2.0
Pressure Field Data 
ASCII 
DATASET UNSTRUCTURED_GRID 

POINTS 289 double 

    0.0000000000000000E+00     0.0000000000000000E+00     0.0000000000000000E+00 
    1.0000000000000000E+00     0.0000000000000000E+00     0.0000000000000000E+00 
    1.0000000000000000E+00     1.0000000000000000E+00     0.0000000000000000E+00 
    0.0000000000000000E+00     1.0000000000000000E+00     0.0000000000000000E+00 
    6.2499999999872928E-02     0.0000000000000000E+00     0.0000000000000000E+00 
    1.2499999999977310E-01     0.0000000000000000E+00     0.0000000000000000E+00 
    1.8749999999959341E-01     0.0000000000000000E+00     0.0000000000000000E+00 
    2.4999999999941089E-01     0.0000000000000000E+00     0.0000000000000000E+00 
    3.1249999999922851E-01     0.0000000000000000E+00     0.0000000000000000E+00 
    3.7499999999904610E-01     0.0000000000000000E+00     0.0000000000000000E+00 
    4.3749999999886358E-01     0.0000000000000000E+00     0.0000000000000000E+00 
    4.9999999999869210E-01     0.0000000000000000E+00     0.0000000000000000E+00 
    5.6249999999884603E-01     0.0000000000000000E+00     0.0000000000000000E+00 
    6.2499999999901090E-01     0.0000000000000000E+00     0.0000000000000000E+00 
    6.8749999999917577E-01     0.0000000000000000E+00     0.0000000000000000E+00 
    7.4999999999934064E-01     0.0000000000000000E+00     0.0000000000000000E+00 
    8.1249999999950551E-01     0.0000000000000000E+00     0.0000000000000000E+00 
    8.7499999999967026E-01     0.0000000000000000E+00     0.0000000000000000E+00 
    9.3749999999983513E-01     0.0000000000000000E+00     0.0000000000000000E+00 
    1.0000000000000000E+00     6.2499999999872928E-02     0.0000000000000000E+00 
    1.0000000000000000E+00     1.2499999999977310E-01     0.0000000000000000E+00 
    1.0000000000000000E+00     1.8749999999959341E-01     0.0000000000000000E+00 
    1.0000000000000000E+00     2.4999999999941089E-01     0.0000000000000000E+00 
    1.0000000000000000E+00     3.1249999999922851E-01     0.0000000000000000E+00 
    1.0000000000000000E+00     3.7499999999904610E-01     0.0000000000000000E+00 
    1.0000000000000000E+00     4.3749999999886358E-01     0.0000000000000000E+00 
    1.0000000000000000E+00     4.9999999999869210E-01     0.0000000000000000E+00 
    1.0000000000000000E+00     5.6249999999884603E-01     0.0000000000000000E+00 
    1.0000000000000000E+00     6.2499999999901090E-01     0.0000000000000000E+00 
    1.0000000000000000E+00     6.8749999999917577E-01     0.0000000000000000E+00 
    1.0000000000000000E+00     7.4999999999934064E-01     0.0000000000000000E+00 
    1.0000000000000000E+00     8.1249999999950551E-01     0.0000000000000000E+00 
    1.0000000000000000E+00     8.7499999999967026E-01     0.0000000000000000E+00 
    1.0000000000000000E+00     9.3749999999983513E-01     0.0000000000000000E+00 
    9.3749999999973976E-01     1.0000000000000000E+00     0.0000000000000000E+00 
    8.7499999999950118E-01     1.0000000000000000E+00     0.0000000000000000E+00 
    8.1249999999991318E-01     1.0000000000000000E+00     0.0000000000000000E+00 
    7.5000000000034706E-01     1.0000000000000000E+00     0.0000000000000000E+00 
    6.8750000000078049E-01     1.0000000000000000E+00     0.0000000000000000E+00 
    6.2500000000121403E-01     1.0000000000000000E+00     0.0000000000000000E+00 
    5.6250000000164757E-01     1.0000000000000000E+00     0.0000000000000000E+00 
    5.0000000000205946E-01     1.0000000000000000E+00     0.0000000000000000E+00 
    4.3750000000182099E-01     1.0000000000000000E+00     0.0000000000000000E+00 
    3.7500000000156092E-01     1.0000000000000000E+00     0.0000000000000000E+00 
    3.1250000000130068E-01     1.0000000000000000E+00     0.0000000000000000E+00 
    2.5000000000104050E-01     1.0000000000000000E+00     0.0000000000000000E+00 
    1.8750000000078040E-01     1.0000000000000000E+00     0.0000000000000000E+00 
    1.2500000000052031E-01     1.0000000000000000E+00     0.0000000000000000E+00 
    6.2500000000260125E-02     1.0000000000000000E+00     0.0000000000000000E+00 
    0.0000000000000000E+00     9.3749999999973976E-01     0.0000000000000000E+00 
    0.0000000000000000E+00     8.7499999999950118E-01     0.0000000000000000E+00 
    0.0000000000000000E+00     8.1249999999991318E-01     0.0000000000000000E+00 
    0.0000000000000000E+00     7.5000000000034706E-01     0.0000000000000000E+00 
    0.0000000000000000E+00     6.8750000000078049E-01     0.0000000000000000E+00 
    0.0000000000000000E+00     6.2500000000121403E-01     0.0000000000000000E+00 
    0.0000000000000000E+00     5.6250000000164757E-01     0.0000000000000000E+00 
    0.0000000000000000E+00     5.0000000000205946E-01     0.0000000000000000E+00 
    0.0000000000000000E+00     4.3750000000182099E-01     0.0000000000000000E+00 
    0.0000000000000000E+00     3.7500000000156092E-01     0.0000000000000000E+00 
    0.0000000000000000E+00     3.1250000000130068E-01     0.0000000000000000E+00 
    0.0000000000000000E+00     2.5000000000104050E-01     0.0000000000000000E+00 
    0.0000000000000000E+00     1.8750000000078040E-01     0.0000000000000000E+00 
    0.0000000000000000E+00     1.2500000000052031E-01     0.0000000000000000E+00 
    0.0000000000000000E+00     6.2500000000260125E-02     0.0000000000000000E+00 
    6.2499999999897131E-02     6.2500000000235922E-02     0.0000000000000000E+00 
    6.2499999999921327E-02     1.2500000000047351E-01     0.0000000000000000E+00 
    6.2499999999945530E-02     1.8750000000070621E-01     0.0000000000000000E+00 
    6.2499999999969733E-02     2.5000000000093858E-01     0.0000000000000000E+00 
    6.2499999999993928E-02     3.1250000000117117E-01     0.0000000000000000E+00 
    6.2500000000018124E-02     3.7500000000140382E-01     0.0000000000000000E+00 
    6.2500000000042327E-02     4.3750000000163619E-01     0.0000000000000000E+00 
    6.2500000000066530E-02     5.0000000000184897E-01     0.0000000000000000E+00 
    6.2500000000090733E-02     5.6250000000147260E-01     0.0000000000000000E+00 
    6.2500000000114922E-02     6.2500000000107636E-01     0.0000000000000000E+00 
    6.2500000000139125E-02     6.8750000000068034E-01     0.0000000000000000E+00 
    6.2500000000163328E-02     7.5000000000028411E-01     0.0000000000000000E+00 
    6.2500000000187531E-02     8.1249999999988787E-01     0.0000000000000000E+00 
    6.2500000000211720E-02     8.7499999999951172E-01     0.0000000000000000E+00 
    6.2500000000235922E-02     9.3749999999974565E-01     0.0000000000000000E+00 
    1.2499999999981980E-01     6.2500000000211733E-02     0.0000000000000000E+00 
    1.2499999999986650E-01     1.2500000000042691E-01     0.0000000000000000E+00 
    1.2499999999991319E-01     1.8750000000063199E-01     0.0000000000000000E+00 
    1.2499999999995989E-01     2.5000000000083678E-01     0.0000000000000000E+00 
    1.2500000000000661E-01     3.1250000000104172E-01     0.0000000000000000E+00 
    1.2500000000005329E-01     3.7500000000124661E-01     0.0000000000000000E+00 
    1.2500000000010000E-01     4.3750000000145117E-01     0.0000000000000000E+00 
    1.2500000000014669E-01     5.0000000000163858E-01     0.0000000000000000E+00 
    1.2500000000019340E-01     5.6250000000129741E-01     0.0000000000000000E+00 
    1.2500000000024011E-01     6.2500000000093847E-01     0.0000000000000000E+00 
    1.2500000000028680E-01     6.8750000000057998E-01     0.0000000000000000E+00 
    1.2500000000033351E-01     7.5000000000022127E-01     0.0000000000000000E+00 
    1.2500000000038020E-01     8.1249999999986211E-01     0.0000000000000000E+00 
    1.2500000000042691E-01     8.7499999999952238E-01     0.0000000000000000E+00 
    1.2500000000047359E-01     9.3749999999975164E-01     0.0000000000000000E+00 
    1.8749999999966760E-01     6.2500000000187531E-02     0.0000000000000000E+00 
    1.8749999999974179E-01     1.2500000000038020E-01     0.0000000000000000E+00 
    1.8749999999981601E-01     1.8750000000055780E-01     0.0000000000000000E+00 
    1.8749999999989009E-01     2.5000000000073502E-01     0.0000000000000000E+00 
    1.8749999999996431E-01     3.1250000000091221E-01     0.0000000000000000E+00 
    1.8750000000003850E-01     3.7500000000108941E-01     0.0000000000000000E+00 
    1.8750000000011269E-01     4.3750000000126649E-01     0.0000000000000000E+00 
    1.8750000000018691E-01     5.0000000000142808E-01     0.0000000000000000E+00 
    1.8750000000026110E-01     5.6250000000112244E-01     0.0000000000000000E+00 
    1.8750000000033529E-01     6.2500000000080080E-01     0.0000000000000000E+00 
    1.8750000000040951E-01     6.8750000000047962E-01     0.0000000000000000E+00 
    1.8750000000048361E-01     7.5000000000015843E-01     0.0000000000000000E+00 
    1.8750000000055780E-01     8.1249999999983680E-01     0.0000000000000000E+00 
    1.8750000000063199E-01     8.7499999999953304E-01     0.0000000000000000E+00 
    1.8750000000070621E-01     9.3749999999975764E-01     0.0000000000000000E+00 
    2.4999999999951281E-01     6.2500000000163314E-02     0.0000000000000000E+00 
    2.4999999999961461E-01     1.2500000000033351E-01     0.0000000000000000E+00 
    2.4999999999971650E-01     1.8750000000048361E-01     0.0000000000000000E+00 
    2.4999999999981831E-01     2.5000000000063310E-01     0.0000000000000000E+00 
    2.4999999999992020E-01     3.1250000000078260E-01     0.0000000000000000E+00 
    2.5000000000002198E-01     3.7500000000093209E-01     0.0000000000000000E+00 
    2.5000000000012390E-01     4.3750000000108180E-01     0.0000000000000000E+00 
    2.5000000000022571E-01     5.0000000000121769E-01     0.0000000000000000E+00 
    2.5000000000032763E-01     5.6250000000094724E-01     0.0000000000000000E+00 
    2.5000000000042938E-01     6.2500000000066314E-01     0.0000000000000000E+00 
    2.5000000000053119E-01     6.8750000000037925E-01     0.0000000000000000E+00 
[...]
CELL_DATA 256 
SCALARS Pressure double 1 
LOOKUP_TABLE default 

    6.6805477124618129E-01 
    6.1836959070823028E-01 
    5.8745428985288672E-01 
    5.6538421623801371E-01 
    5.4799478852813643E-01 
    5.3355022372586580E-01 
    5.2135854064618947E-01 
    5.1111386957051608E-01 
    5.0265212851600571E-01 
    4.9587496043639534E-01 
    4.9070398350492317E-01 
    4.8690057632206818E-01 
    4.8371553619986946E-01 
    4.8144370329213754E-01 
    4.8042703598672137E-01 
    4.8015435161416092E-01 
    6.1837391629979832E-01 
    6.0813969402157586E-01 
    5.8809765152423565E-01 
    5.6880826006356500E-01 
    5.5187605894189928E-01 
    5.3717255485071513E-01 
    5.2446862925398463E-01 
    5.1361808017996691E-01 
    5.0452892920281156E-01 
    4.9714443176327910E-01 
    4.9142937715418422E-01 
    4.8724388334518959E-01 
    4.8395703432909509E-01 
    4.8137267752238533E-01 
    4.8014940975971798E-01 
    4.7988026687431290E-01 
    5.8746019584709486E-01 
    5.8810079531977366E-01 
    5.7883508003335105E-01 
    5.6532381624014516E-01 
    5.5100449573860566E-01 
    5.3730691443819434E-01 
    5.2481398573697968E-01 
    5.1378277959636032E-01 
    5.0433512693266724E-01 
    4.9653643274808928E-01 
    4.9042879448295873E-01 
    4.8597932272040129E-01 
    4.8275763650610759E-01 
    4.8017083003784611E-01 
    4.7892259006773502E-01 
    4.7886876729475353E-01 
    5.6538745683304548E-01 
    5.6881084720153174E-01 
    5.6532482459727529E-01 
    5.5684336834875336E-01 
    5.4578487956782473E-01 
    5.3388497977630056E-01 
    5.2221242219853536E-01 
    5.1140741202425044E-01 
    5.0185913357351286E-01 
    4.9381554694657592E-01 
    4.8744019182927401E-01 
    4.8281226717235626E-01 
    4.7971487149382636E-01 
    4.7740195656500978E-01 
    4.7632014886008606E-01 
    4.7670148587797084E-01 
    5.4799295778537038E-01 
    5.5187485319517937E-01 
    5.5100381718713909E-01 
    5.4578471602251810E-01 
    5.3748291947839144E-01 
    5.2746905485933804E-01 
    5.1686849947303004E-01 
    5.0651911639237124E-01 
    4.9702681768516760E-01 
    4.8883160615487736E-01 
    4.8224913028550837E-01 
    4.7748137563470633E-01 
    4.7449393160056835E-01 
    4.7264743949383647E-01 
    4.7196403140629561E-01 
    4.7297781191330990E-01 
    5.3354384314871917E-01 
    5.3716655013596293E-01 
    5.3730219995949380E-01 
    5.3388245043836513E-01 
    5.2746772893632288E-01 
    5.1896271116073611E-01 
    5.0932323232336341E-01 
    4.9941175064195725E-01 
    4.8996019607024816E-01 
    4.8157269667652192E-01 
    4.7473000653557196E-01 
    4.6978387782592362E-01 
    4.6688324782489959E-01 
    4.6557853705044266E-01 
    4.6547759432427249E-01 
    4.6728026000425882E-01 
    5.2134659211913070E-01 
    5.2445732708022108E-01 
    5.2480391521946290E-01 
    5.2220517250400633E-01 
    5.1686349460153735E-01 
    5.0932000682836731E-01 
    5.0030226889244522E-01 
    4.9059784872412004E-01 
    4.8098430570790784E-01 
    4.7219046069649590E-01 
    4.6486445612170929E-01 
    4.5953463635978287E-01 
    4.5655490625737666E-01 
    4.5573798510165542E-01 
    4.5636127273823984E-01 
    4.5911191659383704E-01 
    5.1109345820719942E-01 
    5.1359960231890112E-01 
    5.1376648202128516E-01 
    5.1139425521257642E-01 
    5.0650842434815879E-01 
    4.9940300134047394E-01 
    4.9059250705594576E-01 
    4.8074350875831889E-01 
    4.7061932887619840E-01 
    4.6103437144511955E-01 
    4.5280451022033852E-01 
    4.4667423838288434E-01 
    4.4323509876102496E-01 
    4.4259654573121915E-01 
    4.4398604207933945E-01 
    4.4793702235626065E-01 
    5.0262199404986174E-01 
    5.0450147060444805E-01 
    5.0431120802780793E-01 
    5.0183934642562467E-01 
    4.9700926719252303E-01 
    4.8994391050680275E-01 
    4.8097127065190531E-01 
    4.7061211898907784E-01 
    4.5956342027564356E-01 
    4.4867823751688279E-01 
    4.3892974979335192E-01 
    4.3133148555784234E-01 
    4.2680941768448549E-01 
    4.2587327256105162E-01 
    4.2792585534497901E-01 
    4.3323034396364207E-01 
    4.9583485784656900E-01 
    4.9710661276942619E-01 
    4.9650244558636791E-01 
    4.9378710134453940E-01 
    4.8880583900821484E-01 
    4.8154740884743968E-01 
    4.7216773360083897E-01 
    4.6101784817898128E-01 
    4.4866937652748029E-01 
    4.3593974499508170E-01 
    4.2390751722098841E-01 
    4.1387848311516218E-01 
    4.0724714171949694E-01 
    4.0514264714617226E-01 
    4.0742193831791845E-01 
    4.1409140471789402E-01 
    4.9065295896788402E-01 
    4.9137926273395977E-01 
    4.9038171169390404E-01 
    4.8739961041966229E-01 
    4.8221223175684802E-01 
    4.7469338386150828E-01 
    4.6482996803285020E-01 
    4.5277632817000241E-01 
    4.3890965157795919E-01 
    4.2389664845209940E-01 
    4.0879073243324621E-01 
    3.9511309659314431E-01 
    3.8481717446008601E-01 
    3.7995442203466473E-01 
    3.8134137335624119E-01 
    3.8888785555818262E-01 
    4.8684044719578884E-01 
    4.8718335544100094E-01 
    4.8592025292540464E-01 
    4.8275952402329669E-01 
    4.7743197663458642E-01 
    4.6973309681263692E-01 
    4.5948586383384427E-01 
    4.4663183736543038E-01 
    4.3129692603633962E-01 
    4.1385358869849126E-01 
    3.9510238354285232E-01 
    3.7651683436527966E-01 
    3.6047312792843311E-01 
    3.5020496561257802E-01 
    3.4844960863847313E-01 
    3.5585288211771177E-01 
    4.8365217354876416E-01 
    4.8389533033093013E-01 
    4.8269750034507053E-01 
    4.7965870280475437E-01 
    4.7443876404912744E-01 
    4.6682127221838732E-01 
    4.5649209230434623E-01 
    4.4317706244831778E-01 
    4.2675798533325704E-01 
    4.0720417275799881E-01 
    3.8479691132506622E-01 
    3.6047404883131817E-01 
    3.3644375212679323E-01 
    3.1680959356706567E-01 
    3.0740409726822693E-01 
    3.1206676414977830E-01 
    4.8138122414219270E-01 
    4.8131121598974835E-01 
    4.8011181649717483E-01 
    4.7734708778605456E-01 
    4.7259393021267615E-01 
    4.6551905806002786E-01 
    4.5567296974908794E-01 
    4.4253248931569239E-01 
    4.2581087307242793E-01 
    4.0508745855531675E-01 
    3.7993779021897739E-01 
    3.5023373118193202E-01 
    3.1684264792469641E-01 
    2.8307583263542735E-01 
    2.5737678468029335E-01 
    2.5184200855981020E-01 
    4.8036506876619145E-01 
    4.8008777117106011E-01 
    4.7886175622755789E-01 
    4.7626055725861050E-01 
    4.7190677499515415E-01 
    4.6541842792545923E-01 
    4.5629685925042551E-01 
    4.4392469720388378E-01 
    4.2785730760533802E-01 
    4.0737299220066459E-01 
    3.8134309663696736E-01 
    3.4851870399016449E-01 
    3.0748920456196460E-01 
    2.5740819571530238E-01 
    2.0165811535486100E-01 
    1.6224208544493290E-01 
    4.8009255424731595E-01 
    4.7981867288497182E-01 
    4.7880772613830963E-01 
    4.7664137610609636E-01 
    4.7291894270656620E-01 
    4.6721978216298121E-01 
    4.5904754091815803E-01 
    4.4787376050766914E-01 
    4.3315596461052008E-01 
    4.1402878965849649E-01 
    3.8889640690085736E-01 
    3.5592473776585881E-01 
    3.1217935282819814E-01 
    2.5189762622514034E-01 
    1.6221419354469771E-01 
    0.0000000000000000E+00 

SCALARS Saturarion double 1 
LOOKUP_TABLE default 

    1.0000000000000000E+00 
    9.8818444940470140E-01 
    9.6623126339068777E-01 
    9.2734216137085879E-01 
    8.7550833820231755E-01 
    8.2171719210074645E-01 
    7.6964968621143437E-01 
    7.1847424483883049E-01 
    6.6744849234751935E-01 
    6.1736514404131981E-01 
    5.6929832151934467E-01 
    4.9837049117875332E-01 
    2.1541001986134264E-01 
    2.2783396448388392E-05 
    1.0000000629559787E-06 
    1.0000000000000004E-06 
    9.8814667408325663E-01 
    9.7776276850982013E-01 
    9.5771994834980734E-01 
    9.2505939540336790E-01 
    8.7979782121263805E-01 
    8.3000868420295970E-01 
    7.7996213500074052E-01 
    7.3017505187998433E-01 
    6.8018081023804911E-01 
    6.3033701987755397E-01 
    5.8215952894100176E-01 
    5.2106343068129091E-01 
    3.3782368717837113E-01 
    1.4252900140956608E-02 
    4.8056521852241106E-06 
    1.0000005696890848E-06 
    9.6610310983738346E-01 
    9.5764052846975722E-01 
    9.3844940352964845E-01 
    9.1186502114489221E-01 
    8.7589750400784139E-01 
    8.3407257472267227E-01 
    7.8969983109306363E-01 
    7.4382582676205078E-01 
    6.9644555035412770E-01 
    6.4797945998731932E-01 
    5.9986017091789379E-01 
    5.4652910610901073E-01 
    4.3035843822725489E-01 
    9.3894081189156348E-02 
    1.8994786852392085E-04 
    1.0038913107879067E-06 
    9.2704279567759595E-01 
    9.2486830617120563E-01 
    9.1178132906474851E-01 
    8.9035624320014306E-01 
    8.6253979160532734E-01 
    8.2939760612693447E-01 
    7.9247492230357708E-01 
    7.5241105114722706E-01 
    7.0938948966246351E-01 
    6.6384500197970686E-01 
    6.1671912868253720E-01 
    5.6773605423674445E-01 
    4.8080094660808637E-01 
    1.9419870606483428E-01 
    1.3735378458812181E-03 
    1.0494258968253089E-06 
    8.7515292545506862E-01 
    8.7955395819320015E-01 
    8.7576006292507202E-01 
    8.6245532699325211E-01 
    8.4262880212057145E-01 
    8.1784074340014357E-01 
    7.8864748694355591E-01 
    7.5530665484025605E-01 
    7.1796643803078664E-01 
    6.7694145887991275E-01 
    6.3246871386895909E-01 
    5.8513994297489980E-01 
    5.1872999690324939E-01 
    3.1593214094565397E-01 
    1.9544126181445506E-02 
    1.8072361065686114E-05 
    8.2136617165831283E-01 
    8.2979368951775778E-01 
    8.3391838042528665E-01 
    8.2920216949414627E-01 
    8.1770068508238380E-01 
    8.0083366879280071E-01 
    7.7912389416745231E-01 
    7.5283212703679403E-01 
    7.2192715315821654E-01 
    6.8635407969394835E-01 
    6.4593965035702194E-01 
    6.0118282475125695E-01 
    5.4618558283274354E-01 
    4.1035302908996846E-01 
    7.4819596280735215E-02 
    1.0732286860782878E-04 
    7.6903104076274675E-01 
    7.7970989536207136E-01 
    7.8962455715250435E-01 
    7.9229838936593289E-01 
    7.8838848296047304E-01 
    7.7897903697437010E-01 
    7.6459291373555516E-01 
    7.4546971283302288E-01 
    7.2144611348893162E-01 
    6.9200181304175878E-01 
    6.5658543774395239E-01 
    6.1509310454059152E-01 
    5.6494883586612721E-01 
    4.5589208853855190E-01 
    1.2939821314682698E-01 
    1.6590996057190552E-04 
    7.1762177224653212E-01 
    7.2981487507847442E-01 
    7.4378046521645502E-01 
    7.5234307964542801E-01 
    7.5504853313312026E-01 
    7.5254727612075412E-01 
    7.4532795323092049E-01 
    7.3347893638281969E-01 
    7.1665404377495179E-01 
    6.9408012613080705E-01 
    6.6471950724654616E-01 
    6.2760022728491294E-01 
    5.8300328763720155E-01 
    4.9774165617036931E-01 
    2.1928254972120065E-01 
    3.9978042441821257E-03 
    6.6656898064339032E-01 
    6.7967117941102484E-01 
    6.9632882664164042E-01 
    7.0931855164280078E-01 
    7.1781379084734298E-01 
    7.2165036423807927E-01 
    7.2119210325714156E-01 
    7.1650254875190933E-01 
    7.0716881152696021E-01 
    6.9217034328498428E-01 
    6.7009103639070211E-01 
    6.3904280734837438E-01 
    5.9900748421641481E-01 
    5.3238850390042103E-01 
    3.2784298617192087E-01 
    1.6457711016257558E-02 
    6.1636742838858305E-01 
    6.2966988718014738E-01 
    6.4778570372522515E-01 
    6.6358996223457556E-01 
    6.7669517918111488E-01 
    6.8615517813711024E-01 
    6.9180472397637371E-01 
    6.9385280367989466E-01 
    6.9200091661374941E-01 
    6.8515790552325384E-01 
    6.7147836822831608E-01 
    6.4844971018654496E-01 
    6.1396541629826784E-01 
    5.5987261560334123E-01 
    4.0068597389372024E-01 
    8.2606447268517999E-02 
    5.6786950770650158E-01 
    5.8122834645548405E-01 
    5.9956702915346438E-01 
    6.1636473215274334E-01 
    6.3194578771171750E-01 
    6.4557754249146559E-01 
    6.5646404847140449E-01 
    6.6458094976437754E-01 
    6.6981623342013619E-01 
    6.7128277435662354E-01 
    6.6697217297785949E-01 
    6.5387730181786963E-01 
    6.2788426814405718E-01 
    5.8360624967744135E-01 
    4.5733256852917037E-01 
    1.5486709545805011E-01 
    4.9646544077823579E-01 
    5.2047645059457315E-01 
    5.4672691927100314E-01 
    5.6780540069966512E-01 
    5.8470055607240234E-01 
    6.0055889016108754E-01 
    6.1477592778481049E-01 
    6.2754430649968584E-01 
    6.3888224431292895E-01 
    6.4816460839895373E-01 
    6.5366020572338679E-01 
    6.5224443829265377E-01 
    6.3856236181259363E-01 
    6.0481536778837997E-01 
    5.0626435831709671E-01 
    2.3907063735259859E-01 
    2.1299480529480502E-01 
    3.3797215686445214E-01 
    4.3238105112196434E-01 
    4.8245386690971376E-01 
    5.1900185369421081E-01 
    5.4608480057759101E-01 
    5.6489814369231672E-01 
    5.8276404043542607E-01 
    5.9888440474439020E-01 
    6.1391486196751921E-01 
    6.2779519209751611E-01 
    6.3840014543311130E-01 
    6.3980885550340061E-01 
    6.2259731161624632E-01 
    5.5363777858602448E-01 
    3.1635484315168971E-01 
    1.9801813513962116E-05 
    1.4749134831374824E-02 
    9.9267221984613199E-02 
    1.9596978159160355E-01 
    3.1707470465486060E-01 
    4.1100020908399354E-01 
    4.5799861606601849E-01 
    4.9860578635628461E-01 
    5.3298113917039402E-01 
    5.6018304717134138E-01 
    5.8483257859663762E-01 
    6.0548167402274922E-01 
    6.2265587541938594E-01 
    6.2364635727102413E-01 
    5.9238990906815969E-01 
    3.9687601038740283E-01 
    1.0000000614499774E-06 
    5.2051900103324254E-06 
    2.1147832368576187E-04 
    1.3440276409866420E-03 
    2.0695837638192851E-02 
    7.5334802111087368E-02 
    1.3769365207448736E-01 
    2.2115827290216536E-01 
    3.3002610352543371E-01 
    4.0196482163736574E-01 
    4.6076458084140165E-01 
    5.0785386764302975E-01 
    5.5360730029190652E-01 
    5.9196944221750403E-01 
    6.0134420689774282E-01 
    4.7277637080721319E-01 
    1.0000000000000004E-06 
    1.0000006719389821E-06 
    1.0050528985018500E-06 
    1.0460242858556440E-06 
    2.1122688442724163E-05 
    1.1768682698487011E-04 
    2.4423724829697506E-04 
    2.7720296596361175E-03 
    1.9851634975366877E-02 
    7.5494023109784675E-02 
    1.6708855965078470E-01 
    2.3971465529395186E-01 
    3.1703616489918734E-01 
    3.9567187131824022E-01 
    4.7268499182293966E-01 
    4.7277874826200011E-01 
