# vtk DataFile Version 2.0
Pressure Field Data 
ASCII 
DATASET UNSTRUCTURED_GRID 

POINTS 289 double 

    0.0000000000000000E+00     0.0000000000000000E+00     0.0000000000000000E+00 
    1.0000000000000000E+00     0.0000000000000000E+00     0.0000000000000000E+00 
    1.0000000000000000E+00     1.0000000000000000E+00     0.0000000000000000E+00 
    0.0000000000000000E+00     1.0000000000000000E+00     0.0000000000000000E+00 
    6.2499999999872928E-02     0.0000000000000000E+00     0.0000000000000000E+00 
    1.2499999999977310E-01     0.0000000000000000E+00     0.0000000000000000E+00 
    1.8749999999959341E-01     0.0000000000000000E+00     0.0000000000000000E+00 
    2.4999999999941089E-01     0.0000000000000000E+00     0.0000000000000000E+00 
    3.1249999999922851E-01     0.0000000000000000E+00     0.0000000000000000E+00 
    3.7499999999904610E-01     0.0000000000000000E+00     0.0000000000000000E+00 
    4.3749999999886358E-01     0.0000000000000000E+00     0.0000000000000000E+00 
    4.9999999999869210E-01     0.0000000000000000E+00     0.0000000000000000E+00 
    5.6249999999884603E-01     0.0000000000000000E+00     0.0000000000000000E+00 
    6.2499999999901090E-01     0.0000000000000000E+00     0.0000000000000000E+00 
    6.8749999999917577E-01     0.0000000000000000E+00     0.0000000000000000E+00 
    7.4999999999934064E-01     0.0000000000000000E+00     0.0000000000000000E+00 
    8.1249999999950551E-01     0.0000000000000000E+00     0.0000000000000000E+00 
    8.7499999999967026E-01     0.0000000000000000E+00     0.0000000000000000E+00 
    9.3749999999983513E-01     0.0000000000000000E+00     0.0000000000000000E+00 
    1.0000000000000000E+00     6.2499999999872928E-02     0.0000000000000000E+00 
    1.0000000000000000E+00     1.2499999999977310E-01     0.0000000000000000E+00 
    1.0000000000000000E+00     1.8749999999959341E-01     0.0000000000000000E+00 
    1.0000000000000000E+00     2.4999999999941089E-01     0.0000000000000000E+00 
    1.0000000000000000E+00     3.1249999999922851E-01     0.0000000000000000E+00 
    1.0000000000000000E+00     3.7499999999904610E-01     0.0000000000000000E+00 
    1.0000000000000000E+00     4.3749999999886358E-01     0.0000000000000000E+00 
    1.0000000000000000E+00     4.9999999999869210E-01     0.0000000000000000E+00 
    1.0000000000000000E+00     5.6249999999884603E-01     0.0000000000000000E+00 
    1.0000000000000000E+00     6.2499999999901090E-01     0.0000000000000000E+00 
    1.0000000000000000E+00     6.8749999999917577E-01     0.0000000000000000E+00 
    1.0000000000000000E+00     7.4999999999934064E-01     0.0000000000000000E+00 
    1.0000000000000000E+00     8.1249999999950551E-01     0.0000000000000000E+00 
    1.0000000000000000E+00     8.7499999999967026E-01     0.0000000000000000E+00 
    1.0000000000000000E+00     9.3749999999983513E-01     0.0000000000000000E+00 
    9.3749999999973976E-01     1.0000000000000000E+00     0.0000000000000000E+00 
    8.7499999999950118E-01     1.0000000000000000E+00     0.0000000000000000E+00 
    8.1249999999991318E-01     1.0000000000000000E+00     0.0000000000000000E+00 
    7.5000000000034706E-01     1.0000000000000000E+00     0.0000000000000000E+00 
    6.8750000000078049E-01     1.0000000000000000E+00     0.0000000000000000E+00 
    6.2500000000121403E-01     1.0000000000000000E+00     0.0000000000000000E+00 
    5.6250000000164757E-01     1.0000000000000000E+00     0.0000000000000000E+00 
    5.0000000000205946E-01     1.0000000000000000E+00     0.0000000000000000E+00 
    4.3750000000182099E-01     1.0000000000000000E+00     0.0000000000000000E+00 
    3.7500000000156092E-01     1.0000000000000000E+00     0.0000000000000000E+00 
    3.1250000000130068E-01     1.0000000000000000E+00     0.0000000000000000E+00 
    2.5000000000104050E-01     1.0000000000000000E+00     0.0000000000000000E+00 
    1.8750000000078040E-01     1.0000000000000000E+00     0.0000000000000000E+00 
    1.2500000000052031E-01     1.0000000000000000E+00     0.0000000000000000E+00 
    6.2500000000260125E-02     1.0000000000000000E+00     0.0000000000000000E+00 
    0.0000000000000000E+00     9.3749999999973976E-01     0.0000000000000000E+00 
    0.0000000000000000E+00     8.7499999999950118E-01     0.0000000000000000E+00 
    0.0000000000000000E+00     8.1249999999991318E-01     0.0000000000000000E+00 
    0.0000000000000000E+00     7.5000000000034706E-01     0.0000000000000000E+00 
    0.0000000000000000E+00     6.8750000000078049E-01     0.0000000000000000E+00 
    0.0000000000000000E+00     6.2500000000121403E-01     0.0000000000000000E+00 
    0.0000000000000000E+00     5.6250000000164757E-01     0.0000000000000000E+00 
    0.0000000000000000E+00     5.0000000000205946E-01     0.0000000000000000E+00 
    0.0000000000000000E+00     4.3750000000182099E-01     0.0000000000000000E+00 
    0.0000000000000000E+00     3.7500000000156092E-01     0.0000000000000000E+00 
    0.0000000000000000E+00     3.1250000000130068E-01     0.0000000000000000E+00 
    0.0000000000000000E+00     2.5000000000104050E-01     0.0000000000000000E+00 
    0.0000000000000000E+00     1.8750000000078040E-01     0.0000000000000000E+00 
    0.0000000000000000E+00     1.2500000000052031E-01     0.0000000000000000E+00 
    0.0000000000000000E+00     6.2500000000260125E-02     0.0000000000000000E+00 
    6.2499999999897131E-02     6.2500000000235922E-02     0.0000000000000000E+00 
    6.2499999999921327E-02     1.2500000000047351E-01     0.0000000000000000E+00 
    6.2499999999945530E-02     1.8750000000070621E-01     0.0000000000000000E+00 
    6.2499999999969733E-02     2.5000000000093858E-01     0.0000000000000000E+00 
    6.2499999999993928E-02     3.1250000000117117E-01     0.0000000000000000E+00 
    6.2500000000018124E-02     3.7500000000140382E-01     0.0000000000000000E+00 
    6.2500000000042327E-02     4.3750000000163619E-01     0.0000000000000000E+00 
    6.2500000000066530E-02     5.0000000000184897E-01     0.0000000000000000E+00 
    6.2500000000090733E-02     5.6250000000147260E-01     0.0000000000000000E+00 
    6.2500000000114922E-02     6.2500000000107636E-01     0.0000000000000000E+00 
    6.2500000000139125E-02     6.8750000000068034E-01     0.0000000000000000E+00 
    6.2500000000163328E-02     7.5000000000028411E-01     0.0000000000000000E+00 
    6.2500000000187531E-02     8.1249999999988787E-01     0.0000000000000000E+00 
    6.2500000000211720E-02     8.7499999999951172E-01     0.0000000000000000E+00 
    6.2500000000235922E-02     9.3749999999974565E-01     0.0000000000000000E+00 
    1.2499999999981980E-01     6.2500000000211733E-02     0.0000000000000000E+00 
    1.2499999999986650E-01     1.2500000000042691E-01     0.0000000000000000E+00 
    1.2499999999991319E-01     1.8750000000063199E-01     0.0000000000000000E+00 
    1.2499999999995989E-01     2.5000000000083678E-01     0.0000000000000000E+00 
    1.2500000000000661E-01     3.1250000000104172E-01     0.0000000000000000E+00 
    1.2500000000005329E-01     3.7500000000124661E-01     0.0000000000000000E+00 
    1.2500000000010000E-01     4.3750000000145117E-01     0.0000000000000000E+00 
    1.2500000000014669E-01     5.0000000000163858E-01     0.0000000000000000E+00 
    1.2500000000019340E-01     5.6250000000129741E-01     0.0000000000000000E+00 
    1.2500000000024011E-01     6.2500000000093847E-01     0.0000000000000000E+00 
    1.2500000000028680E-01     6.8750000000057998E-01     0.0000000000000000E+00 
    1.2500000000033351E-01     7.5000000000022127E-01     0.0000000000000000E+00 
    1.2500000000038020E-01     8.1249999999986211E-01     0.0000000000000000E+00 
    1.2500000000042691E-01     8.7499999999952238E-01     0.0000000000000000E+00 
    1.2500000000047359E-01     9.3749999999975164E-01     0.0000000000000000E+00 
    1.8749999999966760E-01     6.2500000000187531E-02     0.0000000000000000E+00 
    1.8749999999974179E-01     1.2500000000038020E-01     0.0000000000000000E+00 
    1.8749999999981601E-01     1.8750000000055780E-01     0.0000000000000000E+00 
    1.8749999999989009E-01     2.5000000000073502E-01     0.0000000000000000E+00 
    1.8749999999996431E-01     3.1250000000091221E-01     0.0000000000000000E+00 
    1.8750000000003850E-01     3.7500000000108941E-01     0.0000000000000000E+00 
    1.8750000000011269E-01     4.3750000000126649E-01     0.0000000000000000E+00 
    1.8750000000018691E-01     5.0000000000142808E-01     0.0000000000000000E+00 
    1.8750000000026110E-01     5.6250000000112244E-01     0.0000000000000000E+00 
    1.8750000000033529E-01     6.2500000000080080E-01     0.0000000000000000E+00 
    1.8750000000040951E-01     6.8750000000047962E-01     0.0000000000000000E+00 
    1.8750000000048361E-01     7.5000000000015843E-01     0.0000000000000000E+00 
    1.8750000000055780E-01     8.1249999999983680E-01     0.0000000000000000E+00 
    1.8750000000063199E-01     8.7499999999953304E-01     0.0000000000000000E+00 
    1.8750000000070621E-01     9.3749999999975764E-01     0.0000000000000000E+00 
    2.4999999999951281E-01     6.2500000000163314E-02     0.0000000000000000E+00 
    2.4999999999961461E-01     1.2500000000033351E-01     0.0000000000000000E+00 
    2.4999999999971650E-01     1.8750000000048361E-01     0.0000000000000000E+00 
    2.4999999999981831E-01     2.5000000000063310E-01     0.0000000000000000E+00 
    2.4999999999992020E-01     3.1250000000078260E-01     0.0000000000000000E+00 
    2.5000000000002198E-01     3.7500000000093209E-01     0.0000000000000000E+00 
    2.5000000000012390E-01     4.3750000000108180E-01     0.0000000000000000E+00 
    2.5000000000022571E-01     5.0000000000121769E-01     0.0000000000000000E+00 
    2.5000000000032763E-01     5.6250000000094724E-01     0.0000000000000000E+00 
    2.5000000000042938E-01     6.2500000000066314E-01     0.0000000000000000E+00 
    2.5000000000053119E-01     6.8750000000037925E-01     0.0000000000000000E+00 
[...]
CELL_DATA 256 
SCALARS Pressure double 1 
LOOKUP_TABLE default 

    8.5540708869156346E-01 
    8.0507748518216526E-01 
    7.7297238325779793E-01 
    7.4908344726148968E-01 
    7.2931670281139427E-01 
    7.1226064597584315E-01 
    6.9749742499694511E-01 
    6.8489036217207666E-01 
    6.7441455115557525E-01 
    6.6595198002896006E-01 
    6.5881400109821631E-01 
    6.5205304197010050E-01 
    6.4716472076749643E-01 
    6.4446751787287326E-01 
    6.4321379840607829E-01 
    6.4287596719436835E-01 
    8.0508720468341055E-01 
    7.9467043594331899E-01 
    7.7372494003871561E-01 
    7.5286946666831578E-01 
    7.3376004262418471E-01 
    7.1654449229663397E-01 
    7.0127262724929162E-01 
    6.8798964827888187E-01 
    6.7678159006664917E-01 
    6.6766914882614525E-01 
    6.6022913711481102E-01 
    6.5321898127245281E-01 
    6.4758831029043618E-01 
    6.4438304845835592E-01 
    6.4287370457533932E-01 
    6.4253732411342235E-01 
    7.7298648316622853E-01 
    7.7373233193053814E-01 
    7.6382984454406755E-01 
    7.4898427488363761E-01 
    7.3271387785150588E-01 
    7.1666817028273744E-01 
    7.0167812903736748E-01 
    6.8820158676894294E-01 
    6.7656232773729263E-01 
    6.6696368704562892E-01 
    6.5926064644582882E-01 
    6.5239451169770102E-01 
    6.4634199259804204E-01 
    6.4286189613172307E-01 
    6.4135704757879819E-01 
    6.4128306334693785E-01 
    7.4909461191813309E-01 
    7.5287805084529080E-01 
    7.4898821136599414E-01 
    7.3939622864993015E-01 
    7.2662287117845392E-01 
    7.1257145952635004E-01 
    6.9851114106080192E-01 
    6.8528342427995315E-01 
    6.7349365339181944E-01 
    6.6356741055039370E-01 
    6.5564789163211312E-01 
    6.4910983394873456E-01 
    6.4307152317799865E-01 
    6.3942306914168368E-01 
    6.3815469757428589E-01 
    6.3859577112903942E-01 
    7.2932001216589892E-01 
    7.3376372434664316E-01 
    7.3271693107225511E-01 
    7.2662455836491469E-01 
    7.1683976793509263E-01 
    7.0486432471138483E-01 
    6.9198780168919261E-01 
    6.7924581001171247E-01 
    6.6746787172092359E-01 
    6.5730118635288903E-01 
    6.4915872065284452E-01 
    6.4286687991669411E-01 
    6.3723943769134983E-01 
    6.3354914990712496E-01 
    6.3274703596830106E-01 
    6.3395307984446647E-01 
    7.1225634327109633E-01 
    7.1654073377007721E-01 
    7.1666537100408445E-01 
    7.1257011505152057E-01 
    7.0486306357508466E-01 
    6.9454401886891559E-01 
    6.8270958465895215E-01 
    6.7041070348853959E-01 
    6.5860642959771165E-01 
    6.4813457961574372E-01 
    6.3965343414509634E-01 
    6.3335190552667464E-01 
    6.2829867735876654E-01 
    6.2480359488995552E-01 
    6.2461353089950788E-01 
    6.2682037647789568E-01 
    6.9748285735370541E-01 
    7.0125990954079809E-01 
    7.0166693348073672E-01 
    6.9850277335788236E-01 
    6.9198132444274318E-01 
    6.8270517226282634E-01 
    6.7151652266551631E-01 
    6.5937425046509246E-01 
    6.4728208137353338E-01 
    6.3622765147538418E-01 
    6.2710242386392812E-01 
    6.2046979223144882E-01 
    6.1587418721273646E-01 
    6.1273706495591262E-01 
    6.1316972568076089E-01 
    6.1661610131233913E-01 
    6.8485871626698935E-01 
    6.8796265036572257E-01 
    6.8817896899740094E-01 
    6.8526564867361162E-01 
    6.7923124019351588E-01 
    6.7039894610886874E-01 
    6.5936752976504698E-01 
    6.4695136247326579E-01 
    6.3413072765818213E-01 
    6.2199455037617146E-01 
    6.1165676486490139E-01 
    6.0407366031523713E-01 
    5.9940944634912485E-01 
    5.9665054611158441E-01 
    5.9768354576564475E-01 
    6.0265531316904652E-01 
    6.7436247991697995E-01 
    6.7673502472988167E-01 
    6.7652409473853536E-01 
    6.7346481108772782E-01 
    6.6744382756030796E-01 
    6.5858484168384435E-01 
    6.4726583790106385E-01 
    6.3412253777174410E-01 
    6.2004756808230976E-01 
    6.0616900803739926E-01 
    5.9379917526637105E-01 
    5.8429622945204585E-01 
    5.7847266267404784E-01 
    5.7572191100534609E-01 
    5.7731984569180705E-01 
    5.8411223711024662E-01 
    6.6588536857679115E-01 
    6.6760478969076187E-01 
    6.6690970060214627E-01 
    6.6352879793391417E-01 
    6.5726933813073574E-01 
    6.4810254207982321E-01 
    6.3619894596274373E-01 
    6.2197517344794917E-01 
    6.0615882649010444E-01 
    5.8982312807704962E-01 
    5.7440748677435050E-01 
    5.6169427410667783E-01 
    5.5331344577391517E-01 
    5.4955567263503180E-01 
    5.5109329361098491E-01 
    5.5985630703315503E-01 
    6.5874832771563752E-01 
    6.6016055451068179E-01 
    6.5919935884044523E-01 
    6.5560526381891293E-01 
    6.4912463360824901E-01 
    6.3961452118964901E-01 
    6.2706156805164648E-01 
    6.1162469339809977E-01 
    5.9377547599993385E-01 
    5.7439059959108774E-01 
    5.5485120746159922E-01 
    5.3723716236697039E-01 
    5.2412073893553179E-01 
    5.1734344667003040E-01 
    5.1763591224186101E-01 
    5.2819001501355267E-01 
    6.5199665584949207E-01 
    6.5316568468897840E-01 
    6.5234829468132915E-01 
    6.4907539280272675E-01 
    6.4283806924126707E-01 
    6.3331053602248077E-01 
    6.2041846359419051E-01 
    6.0402970383779597E-01 
    5.8425828319370909E-01 
    5.6165184167036331E-01 
    5.3720602004415485E-01 
    5.1289884979153511E-01 
    4.9199022340876120E-01 
    4.7813993698627982E-01 
    4.7430401647721648E-01 
    4.8592575549172978E-01 
    6.4711104911673101E-01 
    6.4753708204462335E-01 
    6.4629826821435798E-01 
    6.4303837302424904E-01 
    6.3720721110449829E-01 
    6.2825278397715012E-01 
    6.1581218767269652E-01 
    5.9935267772327805E-01 
    5.7841842282052269E-01 
    5.5323784118261188E-01 
    5.2404925900324728E-01 
    4.9195538772882663E-01 
    4.6017423209205105E-01 
    4.3377747062484007E-01 
    4.1933695378583463E-01 
    4.2729134103292304E-01 
    6.4441439839297643E-01 
    6.4433075051635047E-01 
    6.4281200896818391E-01 
    6.3937584321250673E-01 
    6.3350337738815188E-01 
    6.2475248820026286E-01 
    6.1267108432430795E-01 
    5.9658447834681794E-01 
    5.7565397029520471E-01 
    5.4946585198421261E-01 
    5.1724941229898291E-01 
    4.7810153581798293E-01 
    4.3379029272474645E-01 
    3.8863983426027043E-01 
    3.5230171378133707E-01 
    3.4516704785733004E-01 
    6.4316077373638159E-01 
    6.4282110708065665E-01 
    6.4130578372089064E-01 
    6.3810494361821168E-01 
    6.3269770049612306E-01 
    6.2456141567032397E-01 
    6.1311003117966323E-01 
    5.9761624954149239E-01 
    5.7724403843032346E-01 
    5.5099412190556751E-01 
    5.1752018912058628E-01 
    4.7427853999320307E-01 
    4.1940924359055820E-01 
    3.5235203300512669E-01 
    2.7593327818653079E-01 
    2.2220645478328765E-01 
    6.4282285105283521E-01 
    6.4248441845585946E-01 
    6.4123115607494019E-01 
    6.3854513196967333E-01 
    6.3390276647518595E-01 
    6.2676805590172313E-01 
    6.1655857048355878E-01 
    6.0259071133672226E-01 
    5.8403809411066954E-01 
    5.5975977405528976E-01 
    5.2806272892768280E-01 
    4.8586136445643030E-01 
    4.2739989897336150E-01 
    3.4525295401901157E-01 
    2.2219979319380720E-01 
    0.0000000000000000E+00 

SCALARS Saturarion double 1 
LOOKUP_TABLE default 

    1.0000000000000000E+00 
    9.8013166035974209E-01 
    9.4486305158573847E-01 
    8.8212805470870703E-01 
    8.1002522413916866E-01 
    7.4586662573238816E-01 
    6.8821314065842920E-01 
    6.3595896728976120E-01 
    5.8871417438126761E-01 
    5.3813083239681858E-01 
    4.2709206398427829E-01 
    6.6872905755264236E-02 
    1.0023724950882496E-06 
    1.0000000008761179E-06 
    9.9999999999999995E-07 
    9.9999999999999995E-07 
    9.8004935049200625E-01 
    9.6276380208305068E-01 
    9.3102471310786261E-01 
    8.7862613755616548E-01 
    8.1517215135203636E-01 
    7.5507624889166314E-01 
    6.9884636698577141E-01 
    6.4703082829075664E-01 
    5.9994893285515061E-01 
    5.5223078833677686E-01 
    4.6624055342322451E-01 
    1.7066578821188394E-01 
    1.5664351291914285E-04 
    1.0085581932567584E-06 
    1.0000000000110965E-06 
    9.9999999999999995E-07 
    9.4459988666785799E-01 
    9.3086780948489078E-01 
    9.0103974664333653E-01 
    8.6001599274785456E-01 
    8.1070745901319963E-01 
    7.5986948719136604E-01 
    7.0888388275526171E-01 
    6.5983290072001133E-01 
    6.1365112804293509E-01 
    5.6748662416948559E-01 
    5.0242334794725652E-01 
    3.0440315690632708E-01 
    1.2463066170306365E-02 
    7.1907083675623519E-06 
    1.0000023754359056E-06 
    9.9999999999999995E-07 
    8.8156812657192885E-01 
    8.7831516664764375E-01 
    8.5990216189017110E-01 
    8.3062707327699536E-01 
    7.9493075653211098E-01 
    7.5444744971677247E-01 
    7.1128658201013317E-01 
    6.6754009878344434E-01 
    6.2417335338453550E-01 
    5.8031823082964484E-01 
    5.2659708797656679E-01 
    4.0986345872302737E-01 
    8.2779166931153572E-02 
    2.4157880073265300E-04 
    1.0097626229954130E-06 
    9.9999999999999995E-07 
    8.0939566594480317E-01 
    8.1473604472158001E-01 
    8.1044566950797614E-01 
    7.9476762236131193E-01 
    7.7080657807633723E-01 
    7.4059665342644410E-01 
    7.0622786958401718E-01 
    6.6931527730737006E-01 
    6.3078577798278224E-01 
    5.9079000919722502E-01 
    5.4619649617739552E-01 
    4.6176461621747089E-01 
    1.8639832220980199E-01 
    1.5336207983407807E-03 
    1.0883140718097264E-06 
    1.0000000087899781E-06 
    7.4525153113751097E-01 
    7.5464737986174579E-01 
    7.5954070493337100E-01 
    7.5410698022521783E-01 
    7.4038744299410286E-01 
    7.2016328803936758E-01 
    6.9475329460758184E-01 
    6.6545563247378736E-01 
    6.3313888650758954E-01 
    5.9809580444898613E-01 
    5.5908012011696484E-01 
    4.9786762930474315E-01 
    3.0429796700588274E-01 
    2.0202607251659937E-02 
    2.5503189530099307E-05 
    1.0000308203511118E-06 
    6.8723042406465606E-01 
    6.9832281122109585E-01 
    7.0861808722871567E-01 
    7.1095152749516244E-01 
    7.0586403586571655E-01 
    6.9457358234671351E-01 
    6.7786632770086075E-01 
    6.5657746022123986E-01 
    6.3135135185867419E-01 
    6.0218214031221007E-01 
    5.6848143380371063E-01 
    5.1890656546069369E-01 
    3.9639551539085865E-01 
    7.7383611159106677E-02 
    1.8016370181935985E-04 
    1.0051750845727082E-06 
    6.3465741836596878E-01 
    6.4626853812526097E-01 
    6.5949084188085216E-01 
    6.6727085994178281E-01 
    6.6893418309483288E-01 
    6.6511175218753804E-01 
    6.5641251328727301E-01 
    6.4318631671334070E-01 
    6.2556177199764107E-01 
    6.0319932993576808E-01 
    5.7507941942468432E-01 
    5.3594746074522859E-01 
    4.4391726847099655E-01 
    1.4978215556568880E-01 
    6.8810638492195972E-04 
    1.0311747391010289E-06 
    5.8732359531128175E-01 
    5.9896882199614376E-01 
    6.1320815144829954E-01 
    6.2389930366837565E-01 
    6.3051675048500844E-01 
    6.3279091497827800E-01 
    6.3103919438902911E-01 
    6.2536528274345748E-01 
    6.1547316056065371E-01 
    6.0055749826652260E-01 
    5.7941666029492511E-01 
    5.4924601608101420E-01 
    4.8303472932631608E-01 
    2.5715390660086895E-01 
    1.5692068251456186E-02 
    1.4583747497962639E-05 
    5.3706169236370715E-01 
    5.5156991494604890E-01 
    5.6743080703061033E-01 
    5.8008484394713433E-01 
    5.9048131121251912E-01 
    5.9784427391026529E-01 
    6.0191412993326465E-01 
    6.0287146592371532E-01 
    6.0029830809171392E-01 
    5.9308117704221031E-01 
    5.7975947453707721E-01 
    5.5813950044520488E-01 
    5.1250064290560426E-01 
    3.7645355847849737E-01 
    6.8915601904572105E-02 
    2.3936900600731746E-04 
    4.2672429426050057E-01 
    4.6687627545715377E-01 
    5.0361909744256461E-01 
    5.2672913027028834E-01 
    5.4566767394557214E-01 
    5.5876153694637087E-01 
    5.6848776879842089E-01 
    5.7498760563877338E-01 
    5.7901972520393707E-01 
    5.7942041285257495E-01 
    5.7438002774574026E-01 
    5.6204171990874685E-01 
    5.3140366074898504E-01 
    4.3461603843870517E-01 
    1.3799577448838793E-01 
    6.9975983178087757E-04 
    6.7513973321141299E-02 
    1.7358345177363083E-01 
    3.1018873556545123E-01 
    4.1224581221649337E-01 
    4.6133223883543356E-01 
    4.9700595320152247E-01 
    5.1866032321801492E-01 
    5.3618767777760157E-01 
    5.4902474391763023E-01 
    5.5762849254438063E-01 
    5.6163014019654467E-01 
    5.5923631110096461E-01 
    5.4388546312303587E-01 
    4.8102090673889664E-01 
    2.5219933917369225E-01 
    3.2013527242565114E-02 
    1.0026337163843563E-06 
    1.6839280838992391E-04 
    1.4409230414171800E-02 
    8.4538888553052277E-02 
    1.8455606036180033E-01 
    3.0084157435943931E-01 
    3.9564418108901533E-01 
    4.4409690735606427E-01 
    4.8283988989202686E-01 
    5.1188184594988795E-01 
    5.3112649800584266E-01 
    5.4368909484448791E-01 
    5.4528348478959265E-01 
    5.1590746425024681E-01 
    3.9205254779328375E-01 
    1.5337689762250592E-01 
    1.0000000009902425E-06 
    1.0096044900790072E-06 
    9.3964848139664362E-06 
    2.1144722389327203E-04 
    1.3974578428859214E-03 
    1.9689486793138165E-02 
    7.8529404944192263E-02 
    1.4865946346431597E-01 
    2.5589186005582071E-01 
    3.7607539506928500E-01 
    4.3627670831864279E-01 
    4.8181335560147909E-01 
    5.1622195451889530E-01 
    5.1971917354105135E-01 
    4.6042770229703034E-01 
    2.6091595359190517E-01 
    9.9999999999999995E-07 
    1.0000000000192492E-06 
    1.0000040898884652E-06 
    1.0077188026392368E-06 
    1.0788185433502449E-06 
    2.4974669551101332E-05 
    2.0158493879014671E-04 
    6.1097054564233672E-04 
    1.6689170369189221E-02 
    6.9389009672936347E-02 
    1.4487768509114368E-01 
    2.5550019113886890E-01 
    3.9347049479663831E-01 
    4.6020538438411002E-01 
    4.7099486062876350E-01 
    3.4724539927311715E-01 
    9.9999999999999995E-07 
    9.9999999999999995E-07 
    9.9999999999999995E-07 
    9.9999999999999995E-07 
    1.0000000077477025E-06 
    1.0000293871261704E-06 
    1.0064789107096420E-06 
    1.0280876531734316E-06 
    1.7140709770256327E-05 
    2.6850646367203491E-04 
    9.8018193439682825E-04 
    2.7736189926416421E-02 
    1.5385309193587235E-01 
    2.5953616479672037E-01 
    3.4724612337851762E-01 
    3.4728048960330699E-01 
