# vtk DataFile Version 2.0
Pressure Field Data 
ASCII 
DATASET UNSTRUCTURED_GRID 

POINTS 289 double 

    0.0000000000000000E+00     0.0000000000000000E+00     0.0000000000000000E+00 
    1.0000000000000000E+00     0.0000000000000000E+00     0.0000000000000000E+00 
    1.0000000000000000E+00     1.0000000000000000E+00     0.0000000000000000E+00 
    0.0000000000000000E+00     1.0000000000000000E+00     0.0000000000000000E+00 
    6.2499999999872928E-02     0.0000000000000000E+00     0.0000000000000000E+00 
    1.2499999999977310E-01     0.0000000000000000E+00     0.0000000000000000E+00 
    1.8749999999959341E-01     0.0000000000000000E+00     0.0000000000000000E+00 
    2.4999999999941089E-01     0.0000000000000000E+00     0.0000000000000000E+00 
    3.1249999999922851E-01     0.0000000000000000E+00     0.0000000000000000E+00 
    3.7499999999904610E-01     0.0000000000000000E+00     0.0000000000000000E+00 
    4.3749999999886358E-01     0.0000000000000000E+00     0.0000000000000000E+00 
    4.9999999999869210E-01     0.0000000000000000E+00     0.0000000000000000E+00 
    5.6249999999884603E-01     0.0000000000000000E+00     0.0000000000000000E+00 
    6.2499999999901090E-01     0.0000000000000000E+00     0.0000000000000000E+00 
    6.8749999999917577E-01     0.0000000000000000E+00     0.0000000000000000E+00 
    7.4999999999934064E-01     0.0000000000000000E+00     0.0000000000000000E+00 
    8.1249999999950551E-01     0.0000000000000000E+00     0.0000000000000000E+00 
    8.7499999999967026E-01     0.0000000000000000E+00     0.0000000000000000E+00 
    9.3749999999983513E-01     0.0000000000000000E+00     0.0000000000000000E+00 
    1.0000000000000000E+00     6.2499999999872928E-02     0.0000000000000000E+00 
    1.0000000000000000E+00     1.2499999999977310E-01     0.0000000000000000E+00 
    1.0000000000000000E+00     1.8749999999959341E-01     0.0000000000000000E+00 
    1.0000000000000000E+00     2.4999999999941089E-01     0.0000000000000000E+00 
    1.0000000000000000E+00     3.1249999999922851E-01     0.0000000000000000E+00 
    1.0000000000000000E+00     3.7499999999904610E-01     0.0000000000000000E+00 
    1.0000000000000000E+00     4.3749999999886358E-01     0.0000000000000000E+00 
    1.0000000000000000E+00     4.9999999999869210E-01     0.0000000000000000E+00 
    1.0000000000000000E+00     5.6249999999884603E-01     0.0000000000000000E+00 
    1.0000000000000000E+00     6.2499999999901090E-01     0.0000000000000000E+00 
    1.0000000000000000E+00     6.8749999999917577E-01     0.0000000000000000E+00 
    1.0000000000000000E+00     7.4999999999934064E-01     0.0000000000000000E+00 
    1.0000000000000000E+00     8.1249999999950551E-01     0.0000000000000000E+00 
    1.0000000000000000E+00     8.7499999999967026E-01     0.0000000000000000E+00 
    1.0000000000000000E+00     9.3749999999983513E-01     0.0000000000000000E+00 
    9.3749999999973976E-01     1.0000000000000000E+00     0.0000000000000000E+00 
    8.7499999999950118E-01     1.0000000000000000E+00     0.0000000000000000E+00 
    8.1249999999991318E-01     1.0000000000000000E+00     0.0000000000000000E+00 
    7.5000000000034706E-01     1.0000000000000000E+00     0.0000000000000000E+00 
    6.8750000000078049E-01     1.0000000000000000E+00     0.0000000000000000E+00 
    6.2500000000121403E-01     1.0000000000000000E+00     0.0000000000000000E+00 
    5.6250000000164757E-01     1.0000000000000000E+00     0.0000000000000000E+00 
    5.0000000000205946E-01     1.0000000000000000E+00     0.0000000000000000E+00 
    4.3750000000182099E-01     1.0000000000000000E+00     0.0000000000000000E+00 
    3.7500000000156092E-01     1.0000000000000000E+00     0.0000000000000000E+00 
    3.1250000000130068E-01     1.0000000000000000E+00     0.0000000000000000E+00 
    2.5000000000104050E-01     1.0000000000000000E+00     0.0000000000000000E+00 
    1.8750000000078040E-01     1.0000000000000000E+00     0.0000000000000000E+00 
    1.2500000000052031E-01     1.0000000000000000E+00     0.0000000000000000E+00 
    6.2500000000260125E-02     1.0000000000000000E+00     0.0000000000000000E+00 
    0.0000000000000000E+00     9.3749999999973976E-01     0.0000000000000000E+00 
    0.0000000000000000E+00     8.7499999999950118E-01     0.0000000000000000E+00 
    0.0000000000000000E+00     8.1249999999991318E-01     0.0000000000000000E+00 
    0.0000000000000000E+00     7.5000000000034706E-01     0.0000000000000000E+00 
    0.0000000000000000E+00     6.8750000000078049E-01     0.0000000000000000E+00 
    0.0000000000000000E+00     6.2500000000121403E-01     0.0000000000000000E+00 
    0.0000000000000000E+00     5.6250000000164757E-01     0.0000000000000000E+00 
    0.0000000000000000E+00     5.0000000000205946E-01     0.0000000000000000E+00 
    0.0000000000000000E+00     4.3750000000182099E-01     0.0000000000000000E+00 
    0.0000000000000000E+00     3.7500000000156092E-01     0.0000000000000000E+00 
    0.0000000000000000E+00     3.1250000000130068E-01     0.0000000000000000E+00 
    0.0000000000000000E+00     2.5000000000104050E-01     0.0000000000000000E+00 
    0.0000000000000000E+00     1.8750000000078040E-01     0.0000000000000000E+00 
    0.0000000000000000E+00     1.2500000000052031E-01     0.0000000000000000E+00 
    0.0000000000000000E+00     6.2500000000260125E-02     0.0000000000000000E+00 
    6.2499999999897131E-02     6.2500000000235922E-02     0.0000000000000000E+00 
    6.2499999999921327E-02     1.2500000000047351E-01     0.0000000000000000E+00 
    6.2499999999945530E-02     1.8750000000070621E-01     0.0000000000000000E+00 
    6.2499999999969733E-02     2.5000000000093858E-01     0.0000000000000000E+00 
    6.2499999999993928E-02     3.1250000000117117E-01     0.0000000000000000E+00 
    6.2500000000018124E-02     3.7500000000140382E-01     0.0000000000000000E+00 
    6.2500000000042327E-02     4.3750000000163619E-01     0.0000000000000000E+00 
    6.2500000000066530E-02     5.0000000000184897E-01     0.0000000000000000E+00 
    6.2500000000090733E-02     5.6250000000147260E-01     0.0000000000000000E+00 
    6.2500000000114922E-02     6.2500000000107636E-01     0.0000000000000000E+00 
    6.2500000000139125E-02     6.8750000000068034E-01     0.0000000000000000E+00 
    6.2500000000163328E-02     7.5000000000028411E-01     0.0000000000000000E+00 
    6.2500000000187531E-02     8.1249999999988787E-01     0.0000000000000000E+00 
    6.2500000000211720E-02     8.7499999999951172E-01     0.0000000000000000E+00 
    6.2500000000235922E-02     9.3749999999974565E-01     0.0000000000000000E+00 
    1.2499999999981980E-01     6.2500000000211733E-02     0.0000000000000000E+00 
    1.2499999999986650E-01     1.2500000000042691E-01     0.0000000000000000E+00 
    1.2499999999991319E-01     1.8750000000063199E-01     0.0000000000000000E+00 
    1.2499999999995989E-01     2.5000000000083678E-01     0.0000000000000000E+00 
    1.2500000000000661E-01     3.1250000000104172E-01     0.0000000000000000E+00 
    1.2500000000005329E-01     3.7500000000124661E-01     0.0000000000000000E+00 
    1.2500000000010000E-01     4.3750000000145117E-01     0.0000000000000000E+00 
    1.2500000000014669E-01     5.0000000000163858E-01     0.0000000000000000E+00 
    1.2500000000019340E-01     5.6250000000129741E-01     0.0000000000000000E+00 
    1.2500000000024011E-01     6.2500000000093847E-01     0.0000000000000000E+00 
    1.2500000000028680E-01     6.8750000000057998E-01     0.0000000000000000E+00 
    1.2500000000033351E-01     7.5000000000022127E-01     0.0000000000000000E+00 
    1.2500000000038020E-01     8.1249999999986211E-01     0.0000000000000000E+00 
    1.2500000000042691E-01     8.7499999999952238E-01     0.0000000000000000E+00 
    1.2500000000047359E-01     9.3749999999975164E-01     0.0000000000000000E+00 
    1.8749999999966760E-01     6.2500000000187531E-02     0.0000000000000000E+00 
    1.8749999999974179E-01     1.2500000000038020E-01     0.0000000000000000E+00 
    1.8749999999981601E-01     1.8750000000055780E-01     0.0000000000000000E+00 
    1.8749999999989009E-01     2.5000000000073502E-01     0.0000000000000000E+00 
    1.8749999999996431E-01     3.1250000000091221E-01     0.0000000000000000E+00 
    1.8750000000003850E-01     3.7500000000108941E-01     0.0000000000000000E+00 
    1.8750000000011269E-01     4.3750000000126649E-01     0.0000000000000000E+00 
    1.8750000000018691E-01     5.0000000000142808E-01     0.0000000000000000E+00 
    1.8750000000026110E-01     5.6250000000112244E-01     0.0000000000000000E+00 
    1.8750000000033529E-01     6.2500000000080080E-01     0.0000000000000000E+00 
    1.8750000000040951E-01     6.8750000000047962E-01     0.0000000000000000E+00 
    1.8750000000048361E-01     7.5000000000015843E-01     0.0000000000000000E+00 
    1.8750000000055780E-01     8.1249999999983680E-01     0.0000000000000000E+00 
    1.8750000000063199E-01     8.7499999999953304E-01     0.0000000000000000E+00 
    1.8750000000070621E-01     9.3749999999975764E-01     0.0000000000000000E+00 
    2.4999999999951281E-01     6.2500000000163314E-02     0.0000000000000000E+00 
    2.4999999999961461E-01     1.2500000000033351E-01     0.0000000000000000E+00 
    2.4999999999971650E-01     1.8750000000048361E-01     0.0000000000000000E+00 
    2.4999999999981831E-01     2.5000000000063310E-01     0.0000000000000000E+00 
    2.4999999999992020E-01     3.1250000000078260E-01     0.0000000000000000E+00 
    2.5000000000002198E-01     3.7500000000093209E-01     0.0000000000000000E+00 
    2.5000000000012390E-01     4.3750000000108180E-01     0.0000000000000000E+00 
    2.5000000000022571E-01     5.0000000000121769E-01     0.0000000000000000E+00 
    2.5000000000032763E-01     5.6250000000094724E-01     0.0000000000000000E+00 
    2.5000000000042938E-01     6.2500000000066314E-01     0.0000000000000000E+00 
    2.5000000000053119E-01     6.8750000000037925E-01     0.0000000000000000E+00 
[...]
CELL_DATA 256 
SCALARS Pressure double 1 
LOOKUP_TABLE default 

    1.1985014610063198E+00 
    1.1404403905196006E+00 
    1.0918497250910619E+00 
    1.0444162184943875E+00 
    9.9173753560860534E-01 
    9.3645210187512284E-01 
    8.9285941154322812E-01 
    8.5910625257005946E-01 
    8.3285803965214222E-01 
    8.1283237884978066E-01 
    7.9804846408730301E-01 
    7.8766416044726628E-01 
    7.8089266264337820E-01 
    7.7696987723824085E-01 
    7.7513778581701576E-01 
    7.7463987766547249E-01 
    1.1404773550106071E+00 
    1.1278199597750040E+00 
    1.0946799797224145E+00 
    1.0538278512951429E+00 
    1.0052576116307748E+00 
    9.5062108184872585E-01 
    9.0496589514721648E-01 
    8.6875226271681016E-01 
    8.4011582769005244E-01 
    8.1794477376004227E-01 
    8.0132602330773373E-01 
    7.8944948181910746E-01 
    7.8154778978997996E-01 
    7.7686729293850609E-01 
    7.7465365755092697E-01 
    7.7415185086225380E-01 
    1.0918449680250686E+00 
    1.0946669571096912E+00 
    1.0772328756587990E+00 
    1.0466073402441567E+00 
    1.0040854352722046E+00 
    9.5333155938502046E-01 
    9.0898827370626822E-01 
    8.7240447469208959E-01 
    8.4265437849927349E-01 
    8.1915346206308115E-01 
    8.0127216280324298E-01 
    7.8835789146579782E-01 
    7.7973067890804526E-01 
    7.7468088757281972E-01 
    7.7247136950275563E-01 
    7.7235143098625259E-01 
    1.0442981993809943E+00 
    1.0537254194738226E+00 
    1.0465434743135882E+00 
    1.0242960486048907E+00 
    9.8854979114940678E-01 
    9.4413425667120310E-01 
    9.0412341151891340E-01 
    8.6913768472777486E-01 
    8.3961030554678329E-01 
    8.1566503322289841E-01 
    7.9713029397713542E-01 
    7.8364059187185520E-01 
    7.7468612162998740E-01 
    7.6964623123922704E-01 
    7.6782054946241773E-01 
    7.6846594315885153E-01 
    9.9155338279601968E-01 
    1.0051044082643861E+00 
    1.0039817347212396E+00 
    9.8850956430023706E-01 
    9.6019872721843202E-01 
    9.2475129719842453E-01 
    8.9079938451645724E-01 
    8.5886851214748594E-01 
    8.3063876705677964E-01 
    8.0699671100883330E-01 
    7.8832675256471541E-01 
    7.7465190628633218E-01 
    7.6571178620071234E-01 
    7.6102210626183353E-01 
    7.5993717830348728E-01 
    7.6171965709848299E-01 
    9.3629938823797920E-01 
    9.5048669725545065E-01 
    9.5324677843036032E-01 
    9.4409783137442416E-01 
    9.2473667080032673E-01 
    8.9919218463301565E-01 
    8.7091591623390729E-01 
    8.4248525728746604E-01 
    8.1605608882781566E-01 
    7.9310754641672310E-01 
    7.7457016724262795E-01 
    7.6091194784998406E-01 
    7.5219022985813566E-01 
    7.4810406770910365E-01 
    7.4807426106638264E-01 
    7.5135309699222552E-01 
    8.9274881623144520E-01 
    9.0485528906554324E-01 
    9.0889574425361641E-01 
    9.0406003777180743E-01 
    8.9076422105060127E-01 
    8.7090048374135764E-01 
    8.4703863658930501E-01 
    8.2161642873666563E-01 
    7.9681611412921460E-01 
    7.7445342093756908E-01 
    7.5592202486756155E-01 
    7.4215962433406357E-01 
    7.3361156913054515E-01 
    7.3021921182857519E-01 
    7.3148131595009980E-01 
    7.3660268928234907E-01 
    8.5902079587392177E-01 
    8.6866321756458587E-01 
    8.7232191894540656E-01 
    8.6907145602193248E-01 
    8.5882254148720771E-01 
    8.4245734923337900E-01 
    8.2160353081311022E-01 
    7.9822235352105853E-01 
    7.7435599347864226E-01 
    7.5197352130477091E-01 
    7.3284582033294587E-01 
    7.1840886475526744E-01 
    7.0960013826436874E-01 
    7.0671189390836142E-01 
    7.0935966136478357E-01 
    7.1664197223441095E-01 
    8.3279055222329823E-01 
    8.4004388055583146E-01 
    8.4258279720245655E-01 
    8.3954667465126187E-01 
    8.3058847116490542E-01 
    8.1602003465655371E-01 
    7.9679313231893478E-01 
    7.7434509485886560E-01 
    7.5044202405230698E-01 
    7.2705928565024969E-01 
    7.0626236597992664E-01 
    6.9002795163989827E-01 
    6.7995885354259256E-01 
    6.7692535368722107E-01 
    6.8079948135999291E-01 
    6.9052030943773612E-01 
    8.1277861528419948E-01 
    8.1788609548995450E-01 
    8.1909089435799076E-01 
    8.1560516188204069E-01 
    8.0694544549605640E-01 
    7.9306693380545823E-01 
    7.7442333601645674E-01 
    7.5195414712766429E-01 
    7.2705025682198232E-01 
    7.0153478135561553E-01 
    6.7763770885439656E-01 
    6.5788497323708073E-01 
    6.4477904978529310E-01 
    6.4019776034110387E-01 
    6.4466730386271553E-01 
    6.5702223270723492E-01 
    7.9800569307071878E-01 
    8.0127680354285347E-01 
    8.0121616552610730E-01 
    7.9707400814420570E-01 
    7.8827622718064350E-01 
    7.7452744946356555E-01 
    7.5588745400297574E-01 
    7.3282040655018010E-01 
    7.0624629207099854E-01 
    6.7763023415807011E-01 
    6.4911407726441361E-01 
    6.2361872665544049E-01 
    6.0471592531213414E-01 
    5.9594898290935072E-01 
    5.9943598218094063E-01 
    6.1439869214573184E-01 
    7.8763106885830947E-01 
    7.8940870241831484E-01 
    7.8830817926624419E-01 
    7.8358826980083818E-01 
    7.7460313181081086E-01 
    7.6086875445335700E-01 
    7.4212272232669818E-01 
    7.1837932417521722E-01 
    6.9000639445695622E-01 
    6.5787127741306739E-01 
    6.2361222946292982E-01 
    5.9005021521151280E-01 
    5.6159064054818786E-01 
    5.4406717471797683E-01 
    5.4299571184284134E-01 
    5.5982707761272432E-01 
    7.8087059509007939E-01 
    7.8151724506905751E-01 
    7.7968865797856024E-01 
    7.7463824864206821E-01 
    7.6566490809044285E-01 
    7.5214720405060165E-01 
    7.3357327648611870E-01 
    7.0956744762925228E-01 
    6.7993281521244142E-01 
    6.4476020386104649E-01 
    6.0470400450607487E-01 
    5.6158506414108900E-01 
    5.1948213691734269E-01 
    4.8610419472666216E-01 
    4.7271977596420339E-01 
    4.8828621343449524E-01 
    7.7695973680887020E-01 
    7.7684866625666282E-01 
    7.7464749982170189E-01 
    7.6960231375718180E-01 
    7.6097613196013392E-01 
    7.4806073833603837E-01 
    7.3017946450519911E-01 
    7.0667640392844067E-01 
    6.7689559142208477E-01 
    6.4017482272663484E-01 
    5.9593268484495610E-01 
    5.4405687942275982E-01 
    4.8609926852397412E-01 
    4.2827143531929823E-01 
    3.8700875823069486E-01 
    3.8996660217724233E-01 
    7.7513857137033737E-01 
    7.7464783575491869E-01 
    7.7244779752194948E-01 
    7.6778036452815035E-01 
    7.5989107682904833E-01 
    7.4802998603290105E-01 
    7.3143981341112285E-01 
    7.0932154409102843E-01 
    6.8076659013009966E-01 
    6.4464115110630016E-01 
    5.9941617341188924E-01 
    5.4298147362642302E-01 
    4.7271061769626316E-01 
    3.8700446715101566E-01 
    2.9342369056265094E-01 
    2.4379912846360674E-01 
    7.7464749782730191E-01 
    7.7415661137958158E-01 
    7.7233647795177052E-01 
    7.6842825618366117E-01 
    7.6167225343010847E-01 
    7.5130731279684249E-01 
    7.3655889759265891E-01 
    7.1660112360971395E-01 
    6.9048445765222499E-01 
    6.5699330475984064E-01 
    6.1437585006481688E-01 
    5.5980948635418437E-01 
    4.8827352330195301E-01 
    3.8995885712180123E-01 
    2.4379590363636733E-01 
    0.0000000000000000E+00 

SCALARS Saturarion double 1 
LOOKUP_TABLE default 

    9.9992732118521310E-01 
    8.9230574141437757E-01 
    7.1979683358947988E-01 
    5.9508750319208914E-01 
    4.0458734749395164E-01 
    2.4312474789653465E-02 
    1.0000006477274279E-06 
    1.0000000000002344E-06 
    9.9999999999999995E-07 
    9.9999999999999995E-07 
    9.9999999999999995E-07 
    9.9999999999999995E-07 
    9.9999999999999995E-07 
    9.9999999999999995E-07 
    9.9999999999999995E-07 
    9.9999999999999995E-07 
    8.9171308458891863E-01 
    8.0909277854924921E-01 
    6.8193880853488242E-01 
    5.8627535921218266E-01 
    4.2350579027798885E-01 
    4.3116343122212970E-02 
    3.0624599615460337E-06 
    1.0000009038051670E-06 
    9.9999999999999995E-07 
    9.9999999999999995E-07 
    9.9999999999999995E-07 
    9.9999999999999995E-07 
    9.9999999999999995E-07 
    9.9999999999999995E-07 
    9.9999999999999995E-07 
    9.9999999999999995E-07 
    7.1777389743403086E-01 
    6.8119555628930928E-01 
    6.1648556710705649E-01 
    5.5787400767134820E-01 
    4.0332107248082361E-01 
    3.3610051775543513E-02 
    1.1895853255524806E-05 
    1.0000047545819180E-06 
    1.0000000000002805E-06 
    9.9999999999999995E-07 
    9.9999999999999995E-07 
    9.9999999999999995E-07 
    9.9999999999999995E-07 
    9.9999999999999995E-07 
    9.9999999999999995E-07 
    9.9999999999999995E-07 
    5.9310633730321372E-01 
    5.8521763805972049E-01 
    5.5756355155035575E-01 
    4.9583283493174474E-01 
    2.8690178543496825E-01 
    5.6835904624775394E-03 
    2.1257176554160829E-06 
    1.0000002765021812E-06 
    1.0000000000000008E-06 
    9.9999999999999995E-07 
    9.9999999999999995E-07 
    9.9999999999999995E-07 
    9.9999999999999995E-07 
    9.9999999999999995E-07 
    9.9999999999999995E-07 
    9.9999999999999995E-07 
    4.0326480256435515E-01 
    4.2343915399867710E-01 
    4.0441049044321586E-01 
    2.8809514733839919E-01 
    7.2776698039865542E-02 
    2.0135463154085788E-04 
    1.0041889134278497E-06 
    1.0000000000000688E-06 
    9.9999999999999995E-07 
    9.9999999999999995E-07 
    9.9999999999999995E-07 
    9.9999999999999995E-07 
    9.9999999999999995E-07 
    9.9999999999999995E-07 
    9.9999999999999995E-07 
    9.9999999999999995E-07 
    2.4048182850493618E-02 
    4.3427242963973767E-02 
    3.4690776058381695E-02 
    5.9385530710789249E-03 
    2.0158180842900410E-04 
    1.0078098521197172E-06 
    1.0000000011878895E-06 
    1.0000000000000002E-06 
    9.9999999999999995E-07 
    9.9999999999999995E-07 
    9.9999999999999995E-07 
    9.9999999999999995E-07 
    9.9999999999999995E-07 
    9.9999999999999995E-07 
    9.9999999999999995E-07 
    9.9999999999999995E-07 
    1.0000005532029937E-06 
    3.3605038027713123E-06 
    1.2076953860633491E-05 
    2.2396893152777402E-06 
    1.0041969574170696E-06 
    1.0000000011895205E-06 
    1.0000000000000002E-06 
    9.9999999999999995E-07 
    9.9999999999999995E-07 
    9.9999999999999995E-07 
    9.9999999999999995E-07 
    9.9999999999999995E-07 
    9.9999999999999995E-07 
    9.9999999999999995E-07 
    9.9999999999999995E-07 
    9.9999999999999995E-07 
    1.0000000000002020E-06 
    1.0000011117911687E-06 
    1.0000050677989234E-06 
    1.0000003111560388E-06 
    1.0000000000000764E-06 
    1.0000000000000002E-06 
    9.9999999999999995E-07 
    9.9999999999999995E-07 
    9.9999999999999995E-07 
    9.9999999999999995E-07 
    9.9999999999999995E-07 
    9.9999999999999995E-07 
    9.9999999999999995E-07 
    9.9999999999999995E-07 
    9.9999999999999995E-07 
    9.9999999999999995E-07 
    9.9999999999999995E-07 
    9.9999999999999995E-07 
    1.0000000000003057E-06 
    1.0000000000000010E-06 
    9.9999999999999995E-07 
    9.9999999999999995E-07 
    9.9999999999999995E-07 
    9.9999999999999995E-07 
    9.9999999999999995E-07 
    9.9999999999999995E-07 
    9.9999999999999995E-07 
    9.9999999999999995E-07 
    9.9999999999999995E-07 
    9.9999999999999995E-07 
    9.9999999999999995E-07 
    9.9999999999999995E-07 
    9.9999999999999995E-07 
    9.9999999999999995E-07 
    9.9999999999999995E-07 
    9.9999999999999995E-07 
    9.9999999999999995E-07 
    9.9999999999999995E-07 
    9.9999999999999995E-07 
    9.9999999999999995E-07 
    9.9999999999999995E-07 
    9.9999999999999995E-07 
    9.9999999999999995E-07 
    9.9999999999999995E-07 
    9.9999999999999995E-07 
    9.9999999999999995E-07 
    9.9999999999999995E-07 
    9.9999999999999995E-07 
    9.9999999999999995E-07 
    9.9999999999999995E-07 
    9.9999999999999995E-07 
    9.9999999999999995E-07 
    9.9999999999999995E-07 
    9.9999999999999995E-07 
    9.9999999999999995E-07 
    9.9999999999999995E-07 
    9.9999999999999995E-07 
    9.9999999999999995E-07 
    9.9999999999999995E-07 
    9.9999999999999995E-07 
    9.9999999999999995E-07 
    9.9999999999999995E-07 
    9.9999999999999995E-07 
    9.9999999999999995E-07 
    9.9999999999999995E-07 
    9.9999999999999995E-07 
    9.9999999999999995E-07 
    9.9999999999999995E-07 
    9.9999999999999995E-07 
    9.9999999999999995E-07 
    9.9999999999999995E-07 
    9.9999999999999995E-07 
    9.9999999999999995E-07 
    9.9999999999999995E-07 
    9.9999999999999995E-07 
    9.9999999999999995E-07 
    9.9999999999999995E-07 
    9.9999999999999995E-07 
    9.9999999999999995E-07 
    9.9999999999999995E-07 
    9.9999999999999995E-07 
    9.9999999999999995E-07 
    9.9999999999999995E-07 
    9.9999999999999995E-07 
    9.9999999999999995E-07 
    9.9999999999999995E-07 
    9.9999999999999995E-07 
    9.9999999999999995E-07 
    9.9999999999999995E-07 
    9.9999999999999995E-07 
    9.9999999999999995E-07 
    9.9999999999999995E-07 
    9.9999999999999995E-07 
    9.9999999999999995E-07 
    9.9999999999999995E-07 
    9.9999999999999995E-07 
    9.9999999999999995E-07 
    9.9999999999999995E-07 
    9.9999999999999995E-07 
    9.9999999999999995E-07 
    9.9999999999999995E-07 
    9.9999999999999995E-07 
    9.9999999999999995E-07 
    9.9999999999999995E-07 
    9.9999999999999995E-07 
    9.9999999999999995E-07 
    9.9999999999999995E-07 
    9.9999999999999995E-07 
    9.9999999999999995E-07 
    9.9999999999999995E-07 
    9.9999999999999995E-07 
    9.9999999999999995E-07 
    9.9999999999999995E-07 
    9.9999999999999995E-07 
    9.9999999999999995E-07 
    9.9999999999999995E-07 
    9.9999999999999995E-07 
    9.9999999999999995E-07 
    9.9999999999999995E-07 
    9.9999999999999995E-07 
    9.9999999999999995E-07 
    9.9999999999999995E-07 
    9.9999999999999995E-07 
    9.9999999999999995E-07 
    9.9999999999999995E-07 
    9.9999999999999995E-07 
    9.9999999999999995E-07 
    9.9999999999999995E-07 
    9.9999999999999995E-07 
    9.9999999999999995E-07 
    9.9999999999999995E-07 
    9.9999999999999995E-07 
    9.9999999999999995E-07 
    9.9999999999999995E-07 
    9.9999999999999995E-07 
    9.9999999999999995E-07 
    9.9999999999999995E-07 
    9.9999999999999995E-07 
    9.9999999999999995E-07 
    9.9999999999999995E-07 
    9.9999999999999995E-07 
    9.9999999999999995E-07 
    9.9999999999999995E-07 
    1.0000000657092383E-06 
