# vtk DataFile Version 2.0
Pressure Field Data 
ASCII 
DATASET UNSTRUCTURED_GRID 

POINTS 289 double 

    0.0000000000000000E+00     0.0000000000000000E+00     0.0000000000000000E+00 
    1.0000000000000000E+00     0.0000000000000000E+00     0.0000000000000000E+00 
    1.0000000000000000E+00     1.0000000000000000E+00     0.0000000000000000E+00 
    0.0000000000000000E+00     1.0000000000000000E+00     0.0000000000000000E+00 
    6.2499999999872928E-02     0.0000000000000000E+00     0.0000000000000000E+00 
    1.2499999999977310E-01     0.0000000000000000E+00     0.0000000000000000E+00 
    1.8749999999959341E-01     0.0000000000000000E+00     0.0000000000000000E+00 
    2.4999999999941089E-01     0.0000000000000000E+00     0.0000000000000000E+00 
    3.1249999999922851E-01     0.0000000000000000E+00     0.0000000000000000E+00 
    3.7499999999904610E-01     0.0000000000000000E+00     0.0000000000000000E+00 
    4.3749999999886358E-01     0.0000000000000000E+00     0.0000000000000000E+00 
    4.9999999999869210E-01     0.0000000000000000E+00     0.0000000000000000E+00 
    5.6249999999884603E-01     0.0000000000000000E+00     0.0000000000000000E+00 
    6.2499999999901090E-01     0.0000000000000000E+00     0.0000000000000000E+00 
    6.8749999999917577E-01     0.0000000000000000E+00     0.0000000000000000E+00 
    7.4999999999934064E-01     0.0000000000000000E+00     0.0000000000000000E+00 
    8.1249999999950551E-01     0.0000000000000000E+00     0.0000000000000000E+00 
    8.7499999999967026E-01     0.0000000000000000E+00     0.0000000000000000E+00 
    9.3749999999983513E-01     0.0000000000000000E+00     0.0000000000000000E+00 
    1.0000000000000000E+00     6.2499999999872928E-02     0.0000000000000000E+00 
    1.0000000000000000E+00     1.2499999999977310E-01     0.0000000000000000E+00 
    1.0000000000000000E+00     1.8749999999959341E-01     0.0000000000000000E+00 
    1.0000000000000000E+00     2.4999999999941089E-01     0.0000000000000000E+00 
    1.0000000000000000E+00     3.1249999999922851E-01     0.0000000000000000E+00 
    1.0000000000000000E+00     3.7499999999904610E-01     0.0000000000000000E+00 
    1.0000000000000000E+00     4.3749999999886358E-01     0.0000000000000000E+00 
    1.0000000000000000E+00     4.9999999999869210E-01     0.0000000000000000E+00 
    1.0000000000000000E+00     5.6249999999884603E-01     0.0000000000000000E+00 
    1.0000000000000000E+00     6.2499999999901090E-01     0.0000000000000000E+00 
    1.0000000000000000E+00     6.8749999999917577E-01     0.0000000000000000E+00 
    1.0000000000000000E+00     7.4999999999934064E-01     0.0000000000000000E+00 
    1.0000000000000000E+00     8.1249999999950551E-01     0.0000000000000000E+00 
    1.0000000000000000E+00     8.7499999999967026E-01     0.0000000000000000E+00 
    1.0000000000000000E+00     9.3749999999983513E-01     0.0000000000000000E+00 
    9.3749999999973976E-01     1.0000000000000000E+00     0.0000000000000000E+00 
    8.7499999999950118E-01     1.0000000000000000E+00     0.0000000000000000E+00 
    8.1249999999991318E-01     1.0000000000000000E+00     0.0000000000000000E+00 
    7.5000000000034706E-01     1.0000000000000000E+00     0.0000000000000000E+00 
    6.8750000000078049E-01     1.0000000000000000E+00     0.0000000000000000E+00 
    6.2500000000121403E-01     1.0000000000000000E+00     0.0000000000000000E+00 
    5.6250000000164757E-01     1.0000000000000000E+00     0.0000000000000000E+00 
    5.0000000000205946E-01     1.0000000000000000E+00     0.0000000000000000E+00 
    4.3750000000182099E-01     1.0000000000000000E+00     0.0000000000000000E+00 
    3.7500000000156092E-01     1.0000000000000000E+00     0.0000000000000000E+00 
    3.1250000000130068E-01     1.0000000000000000E+00     0.0000000000000000E+00 
    2.5000000000104050E-01     1.0000000000000000E+00     0.0000000000000000E+00 
    1.8750000000078040E-01     1.0000000000000000E+00     0.0000000000000000E+00 
    1.2500000000052031E-01     1.0000000000000000E+00     0.0000000000000000E+00 
    6.2500000000260125E-02     1.0000000000000000E+00     0.0000000000000000E+00 
    0.0000000000000000E+00     9.3749999999973976E-01     0.0000000000000000E+00 
    0.0000000000000000E+00     8.7499999999950118E-01     0.0000000000000000E+00 
    0.0000000000000000E+00     8.1249999999991318E-01     0.0000000000000000E+00 
    0.0000000000000000E+00     7.5000000000034706E-01     0.0000000000000000E+00 
    0.0000000000000000E+00     6.8750000000078049E-01     0.0000000000000000E+00 
    0.0000000000000000E+00     6.2500000000121403E-01     0.0000000000000000E+00 
    0.0000000000000000E+00     5.6250000000164757E-01     0.0000000000000000E+00 
    0.0000000000000000E+00     5.0000000000205946E-01     0.0000000000000000E+00 
    0.0000000000000000E+00     4.3750000000182099E-01     0.0000000000000000E+00 
    0.0000000000000000E+00     3.7500000000156092E-01     0.0000000000000000E+00 
    0.0000000000000000E+00     3.1250000000130068E-01     0.0000000000000000E+00 
    0.0000000000000000E+00     2.5000000000104050E-01     0.0000000000000000E+00 
    0.0000000000000000E+00     1.8750000000078040E-01     0.0000000000000000E+00 
    0.0000000000000000E+00     1.2500000000052031E-01     0.0000000000000000E+00 
    0.0000000000000000E+00     6.2500000000260125E-02     0.0000000000000000E+00 
    6.2499999999897131E-02     6.2500000000235922E-02     0.0000000000000000E+00 
    6.2499999999921327E-02     1.2500000000047351E-01     0.0000000000000000E+00 
    6.2499999999945530E-02     1.8750000000070621E-01     0.0000000000000000E+00 
    6.2499999999969733E-02     2.5000000000093858E-01     0.0000000000000000E+00 
    6.2499999999993928E-02     3.1250000000117117E-01     0.0000000000000000E+00 
    6.2500000000018124E-02     3.7500000000140382E-01     0.0000000000000000E+00 
    6.2500000000042327E-02     4.3750000000163619E-01     0.0000000000000000E+00 
    6.2500000000066530E-02     5.0000000000184897E-01     0.0000000000000000E+00 
    6.2500000000090733E-02     5.6250000000147260E-01     0.0000000000000000E+00 
    6.2500000000114922E-02     6.2500000000107636E-01     0.0000000000000000E+00 
    6.2500000000139125E-02     6.8750000000068034E-01     0.0000000000000000E+00 
    6.2500000000163328E-02     7.5000000000028411E-01     0.0000000000000000E+00 
    6.2500000000187531E-02     8.1249999999988787E-01     0.0000000000000000E+00 
    6.2500000000211720E-02     8.7499999999951172E-01     0.0000000000000000E+00 
    6.2500000000235922E-02     9.3749999999974565E-01     0.0000000000000000E+00 
    1.2499999999981980E-01     6.2500000000211733E-02     0.0000000000000000E+00 
    1.2499999999986650E-01     1.2500000000042691E-01     0.0000000000000000E+00 
    1.2499999999991319E-01     1.8750000000063199E-01     0.0000000000000000E+00 
    1.2499999999995989E-01     2.5000000000083678E-01     0.0000000000000000E+00 
    1.2500000000000661E-01     3.1250000000104172E-01     0.0000000000000000E+00 
    1.2500000000005329E-01     3.7500000000124661E-01     0.0000000000000000E+00 
    1.2500000000010000E-01     4.3750000000145117E-01     0.0000000000000000E+00 
    1.2500000000014669E-01     5.0000000000163858E-01     0.0000000000000000E+00 
    1.2500000000019340E-01     5.6250000000129741E-01     0.0000000000000000E+00 
    1.2500000000024011E-01     6.2500000000093847E-01     0.0000000000000000E+00 
    1.2500000000028680E-01     6.8750000000057998E-01     0.0000000000000000E+00 
    1.2500000000033351E-01     7.5000000000022127E-01     0.0000000000000000E+00 
    1.2500000000038020E-01     8.1249999999986211E-01     0.0000000000000000E+00 
    1.2500000000042691E-01     8.7499999999952238E-01     0.0000000000000000E+00 
    1.2500000000047359E-01     9.3749999999975164E-01     0.0000000000000000E+00 
    1.8749999999966760E-01     6.2500000000187531E-02     0.0000000000000000E+00 
    1.8749999999974179E-01     1.2500000000038020E-01     0.0000000000000000E+00 
    1.8749999999981601E-01     1.8750000000055780E-01     0.0000000000000000E+00 
    1.8749999999989009E-01     2.5000000000073502E-01     0.0000000000000000E+00 
    1.8749999999996431E-01     3.1250000000091221E-01     0.0000000000000000E+00 
    1.8750000000003850E-01     3.7500000000108941E-01     0.0000000000000000E+00 
    1.8750000000011269E-01     4.3750000000126649E-01     0.0000000000000000E+00 
    1.8750000000018691E-01     5.0000000000142808E-01     0.0000000000000000E+00 
    1.8750000000026110E-01     5.6250000000112244E-01     0.0000000000000000E+00 
    1.8750000000033529E-01     6.2500000000080080E-01     0.0000000000000000E+00 
    1.8750000000040951E-01     6.8750000000047962E-01     0.0000000000000000E+00 
    1.8750000000048361E-01     7.5000000000015843E-01     0.0000000000000000E+00 
    1.8750000000055780E-01     8.1249999999983680E-01     0.0000000000000000E+00 
    1.8750000000063199E-01     8.7499999999953304E-01     0.0000000000000000E+00 
    1.8750000000070621E-01     9.3749999999975764E-01     0.0000000000000000E+00 
    2.4999999999951281E-01     6.2500000000163314E-02     0.0000000000000000E+00 
    2.4999999999961461E-01     1.2500000000033351E-01     0.0000000000000000E+00 
    2.4999999999971650E-01     1.8750000000048361E-01     0.0000000000000000E+00 
    2.4999999999981831E-01     2.5000000000063310E-01     0.0000000000000000E+00 
    2.4999999999992020E-01     3.1250000000078260E-01     0.0000000000000000E+00 
    2.5000000000002198E-01     3.7500000000093209E-01     0.0000000000000000E+00 
    2.5000000000012390E-01     4.3750000000108180E-01     0.0000000000000000E+00 
    2.5000000000022571E-01     5.0000000000121769E-01     0.0000000000000000E+00 
    2.5000000000032763E-01     5.6250000000094724E-01     0.0000000000000000E+00 
    2.5000000000042938E-01     6.2500000000066314E-01     0.0000000000000000E+00 
    2.5000000000053119E-01     6.8750000000037925E-01     0.0000000000000000E+00 
[...]
CELL_DATA 256 
SCALARS Pressure double 1 
LOOKUP_TABLE default 

    1.0357498024390011E+00 
    9.8405597816257306E-01 
    9.4926845183034314E-01 
    9.2115494830172895E-01 
    8.9608642705649999E-01 
    8.7360508696016159E-01 
    8.5371348166919403E-01 
    8.3607186307714176E-01 
    8.1892650510961695E-01 
    8.0106733794421414E-01 
    7.8695342779675792E-01 
    7.7737761146035100E-01 
    7.7112790173358703E-01 
    7.6750619668498044E-01 
    7.6581688038281825E-01 
    7.6536000562109985E-01 
    9.8407544126596747E-01 
    9.7329486225051076E-01 
    9.5034228095691775E-01 
    9.2591425555458950E-01 
    9.0196541486841431E-01 
    8.7952733869559752E-01 
    8.5919866985848725E-01 
    8.4108535379018878E-01 
    8.2408205479237195E-01 
    8.0574893753861143E-01 
    7.8992818902495721E-01 
    7.7901722439313281E-01 
    7.7173147415769405E-01 
    7.6740798260563847E-01 
    7.6536530688076254E-01 
    7.6490665552999959E-01 
    9.4929581567264842E-01 
    9.5035651298738610E-01 
    9.3913116287582665E-01 
    9.2139858210402592E-01 
    9.0094382349491731E-01 
    8.8008257985233851E-01 
    8.6022972170626177E-01 
    8.4207911348479347E-01 
    8.2525336059566390E-01 
    8.0714275689627912E-01 
    7.8995029009216633E-01 
    7.7804646649875342E-01 
    7.7007096736103609E-01 
    7.6538691554709226E-01 
    7.6333743991223857E-01 
    7.6322874548850006E-01 
    9.2116993365909683E-01 
    9.2592623735523050E-01 
    9.2140259589823825E-01 
    9.0966045663288830E-01 
    8.9344982498778303E-01 
    8.7512829496390032E-01 
    8.5652135978117105E-01 
    8.3880896915431069E-01 
    8.2223361068547618E-01 
    8.0485215214128636E-01 
    7.8681649623736050E-01 
    7.7393224065118416E-01 
    7.6550888006566709E-01 
    7.6075905258000731E-01 
    7.5903042015356803E-01 
    7.5961869055276376E-01 
    8.9607329159619609E-01 
    9.0195699562876586E-01 
    9.0093740177545600E-01 
    8.9344625068306471E-01 
    8.8096857608826840E-01 
    8.6534457977812240E-01 
    8.4834481026587638E-01 
    8.3137546483325453E-01 
    8.1514047547497714E-01 
    7.9857132120265761E-01 
    7.8020289209614269E-01 
    7.6614650143121577E-01 
    7.5743148541111960E-01 
    7.5284866533226025E-01 
    7.5173737212224701E-01 
    7.5336081314855652E-01 
    8.7356096464771738E-01 
    8.7948952663514757E-01 
    8.8005367964534786E-01 
    8.7511205805207870E-01 
    8.6533795104807054E-01 
    8.5197621610453733E-01 
    8.3647895840973741E-01 
    8.2022383208506788E-01 
    8.0421788884039369E-01 
    7.8813199674549528E-01 
    7.6954409207581853E-01 
    7.5414229071632999E-01 
    7.4522214388439323E-01 
    7.4096865627114361E-01 
    7.4073372862390363E-01 
    7.4372495509716419E-01 
    8.5363766128586016E-01 
    8.5912822330339944E-01 
    8.6017208233651088E-01 
    8.5648440834064210E-01 
    8.4832534451904118E-01 
    8.3646977841435599E-01 
    8.2199440175438676E-01 
    8.0610090862812178E-01 
    7.8992586416230537E-01 
    7.7367505815741577E-01 
    7.5451942712497477E-01 
    7.3762122535579244E-01 
    7.2832458018065127E-01 
    7.2441526950533075E-01 
    7.2525083838496296E-01 
    7.2993968060825076E-01 
    8.3596981845267326E-01 
    8.4098756474390390E-01 
    8.4199726160414934E-01 
    8.3875230408434875E-01 
    8.3134030036895168E-01 
    8.2020194162863325E-01 
    8.0609074110802148E-01 
    7.8999433130316288E-01 
    7.7303529983605279E-01 
    7.5575049448683529E-01 
    7.3526282203651194E-01 
    7.1645439058037652E-01 
    7.0624794161633342E-01 
    7.0244936767248167E-01 
    7.0443128148138034E-01 
    7.1114020457175386E-01 
    8.1881777010492995E-01 
    8.2397827705600668E-01 
    8.2516589677240926E-01 
    8.2217001710009219E-01 
    8.1509411501270101E-01 
    8.0418265481698881E-01 
    7.8990402840778184E-01 
    7.7302736447960485E-01 
    7.5452742845943011E-01 
    7.3508522551246547E-01 
    7.1208621646150205E-01 
    6.9058579562076494E-01 
    6.7854747968627616E-01 
    6.7425719929783501E-01 
    6.7725618574748403E-01 
    6.8629423406133316E-01 
    8.0097077007371131E-01 
    8.0565987683965767E-01 
    8.0706993994084186E-01 
    8.0479584916538738E-01 
    7.9852153639185786E-01 
    7.8808577340389940E-01 
    7.7364155014594149E-01 
    7.5573070962655209E-01 
    7.3506818075835689E-01 
    7.1181352174759682E-01 
    6.8505731594525676E-01 
    6.6003147235613857E-01 
    6.4489613206097685E-01 
    6.3893698533445420E-01 
    6.4243270070804526E-01 
    6.5406272530572307E-01 
    7.8687261518750773E-01 
    7.8984803003365722E-01 
    7.8987854923911893E-01 
    7.8675902283367161E-01 
    7.8014896524290711E-01 
    7.6948850920787004E-01 
    7.5446705959786287E-01 
    7.3521187730183168E-01 
    7.1202934248768612E-01 
    6.8501325054923978E-01 
    6.5468748933987231E-01 
    6.2572122904178640E-01 
    6.0555348065424941E-01 
    5.9566194861213728E-01 
    5.9826133072408305E-01 
    6.1255328294689726E-01 
    7.7730584769727828E-01 
    7.7894360058492673E-01 
    7.7797441355079566E-01 
    7.7386655149102856E-01 
    7.6608642339812671E-01 
    7.5408304398469683E-01 
    7.3756397333470991E-01 
    7.1639417856536780E-01 
    6.9051443905050736E-01 
    6.5996503460992084E-01 
    6.2568805575275077E-01 
    5.9142493934872820E-01 
    5.6247984435682574E-01 
    5.4426601134845909E-01 
    5.4253656481213219E-01 
    5.5883601953087891E-01 
    7.7106294824178156E-01 
    7.7166387202914344E-01 
    7.7000168218678755E-01 
    7.6544155826228888E-01 
    7.5736825078862846E-01 
    7.4516187755380370E-01 
    7.2826664709550293E-01 
    7.0619114051495091E-01 
    6.7849033204287768E-01 
    6.4484294615532178E-01 
    6.0551527395997529E-01 
    5.6246231831193594E-01 
    5.2016927072252228E-01 
    4.8644210582900016E-01 
    4.7265183958647272E-01 
    4.8785807905941753E-01 
    7.6744692317700447E-01 
    7.6734598419559041E-01 
    7.6532113610925645E-01 
    7.6069197649186004E-01 
    7.5278365197896657E-01 
    7.4090677584967513E-01 
    7.2435619090054337E-01 
    7.0239269616472810E-01 
    6.7420297715971655E-01 
    6.3888738285991409E-01 
    5.9562189011157196E-01 
    5.4423973231686507E-01 
    4.8643010388686370E-01 
    4.2853169420894477E-01 
    3.8708501347143409E-01 
    3.8984344209530630E-01 
    7.6576211300507313E-01 
    7.6530851780708520E-01 
    7.6327547117348882E-01 
    7.5896419111045366E-01 
    7.5167108773877633E-01 
    7.4067021699222746E-01 
    7.2519022976303749E-01 
    7.0437354864280011E-01 
    6.7720193389160999E-01 
    6.4238349851205812E-01 
    5.9821963269812406E-01 
    5.4250507548258819E-01 
    4.7263189310648385E-01 
    3.8707605109563498E-01 
    2.9348810239511813E-01 
    2.4379130815608555E-01 
    7.6530780997991110E-01 
    7.6485375717426229E-01 
    7.6316985674219739E-01 
    7.5955294597819778E-01 
    7.5329315707796274E-01 
    7.4365985812280566E-01 
    7.2987727963018301E-01 
    7.1108074135509702E-01 
    6.8623847402923477E-01 
    6.5401207285763785E-01 
    6.1250911590081769E-01 
    5.5880030076291243E-01 
    4.8783236217524417E-01 
    3.8982805386139169E-01 
    2.4378498070307567E-01 
    0.0000000000000000E+00 

SCALARS Saturarion double 1 
LOOKUP_TABLE default 

    1.0000000000000002E+00 
    9.6372307128243939E-01 
    9.0154926917187128E-01 
    7.9700231260129495E-01 
    7.1229908757468663E-01 
    6.4697251288343183E-01 
    5.9463702053866829E-01 
    5.3697501280544258E-01 
    4.0712827087695908E-01 
    4.4151644542124557E-02 
    1.0012159828190266E-06 
    1.0000000003857123E-06 
    9.9999999999999995E-07 
    9.9999999999999995E-07 
    9.9999999999999995E-07 
    9.9999999999999995E-07 
    9.6353848600793501E-01 
    9.3261876090175211E-01 
    8.7726222514504193E-01 
    7.9343816403998113E-01 
    7.1745268164806109E-01 
    6.5456856820403841E-01 
    6.0237175973562396E-01 
    5.4731956347953203E-01 
    4.4804238419878101E-01 
    1.2745019011038480E-01 
    1.0359540999752793E-04 
    1.0030142823509572E-06 
    9.9999999999999995E-07 
    9.9999999999999995E-07 
    9.9999999999999995E-07 
    9.9999999999999995E-07 
    9.0100211558410948E-01 
    8.7700751205957184E-01 
    8.2921496404036232E-01 
    7.7102207151560842E-01 
    7.1084537936767411E-01 
    6.5580580743906081E-01 
    6.0672555349167967E-01 
    5.5629212853134657E-01 
    4.8122757752005063E-01 
    2.3593372957034178E-01 
    1.5262067089858230E-03 
    1.0752336846569542E-06 
    1.0000000128314706E-06 
    9.9999999999999995E-07 
    9.9999999999999995E-07 
    9.9999999999999995E-07 
    7.9586599589320339E-01 
    7.9276093067014652E-01 
    7.7074470679542229E-01 
    7.3441016928814107E-01 
    6.9051769290242537E-01 
    6.4624325558331042E-01 
    6.0481295141357772E-01 
    5.6180108856023458E-01 
    5.0241515137684289E-01 
    3.4057967082852048E-01 
    2.2286807489332563E-02 
    1.7247369952013169E-05 
    1.0000232888373348E-06 
    9.9999999999999995E-07 
    9.9999999999999995E-07 
    9.9999999999999995E-07 
    7.1109805070525911E-01 
    7.1657094267321042E-01 
    7.1035579077920019E-01 
    6.9030122676954586E-01 
    6.6156676693407712E-01 
    6.2951540630384151E-01 
    5.9753657577496277E-01 
    5.6245940335853428E-01 
    5.1419974034136973E-01 
    4.0576410218745279E-01 
    8.3250283249708165E-02 
    1.0867541554100869E-04 
    1.0008808642175171E-06 
    1.0000000000781654E-06 
    9.9999999999999995E-07 
    9.9999999999999995E-07 
    6.4567705858502433E-01 
    6.5360642812928360E-01 
    6.5519894908172660E-01 
    6.4579632059384462E-01 
    6.2925672528384080E-01 
    6.0866699851537576E-01 
    5.8498997063343228E-01 
    5.5727745826228381E-01 
    5.1929499106740262E-01 
    4.3810493080209251E-01 
    1.5027517289483655E-01 
    9.2978424339851441E-05 
    1.0010521516195146E-06 
    1.0000000000469762E-06 
    9.9999999999999995E-07 
    9.9999999999999995E-07 
    5.9302889029466987E-01 
    6.0151701839315252E-01 
    6.0634065492142175E-01 
    6.0437975492040796E-01 
    5.9702564742745023E-01 
    5.8467031594617902E-01 
    5.6710221497616808E-01 
    5.4554921783584420E-01 
    5.1757242584625396E-01 
    4.5567643283165005E-01 
    2.1692039854862805E-01 
    6.7862895420161390E-04 
    1.0100633662636085E-06 
    1.0000000010566761E-06 
    9.9999999999999995E-07 
    9.9999999999999995E-07 
    5.3521051078080661E-01 
    5.4688760470253772E-01 
    5.5637255273466613E-01 
    5.6165176134448824E-01 
    5.6198464420663108E-01 
    5.5667836349844602E-01 
    5.4527848450091909E-01 
    5.2950791838919653E-01 
    5.0861825956236950E-01 
    4.6257972198013020E-01 
    2.7205777523303198E-01 
    3.1675410499058124E-03 
    1.0895023555551362E-06 
    1.0000000120551853E-06 
    9.9999999999999995E-07 
    9.9999999999999995E-07 
    4.0587144540547243E-01 
    4.4862398372468537E-01 
    4.8225273859530898E-01 
    5.0276222874867071E-01 
    5.1405657846141972E-01 
    5.1866391293339575E-01 
    5.1709699220104755E-01 
    5.0822519725366710E-01 
    4.9271570051846086E-01 
    4.5581410224015717E-01 
    2.9804654185168877E-01 
    6.1275051734888822E-03 
    1.0829695989751694E-06 
    1.0000000112314044E-06 
    1.0000000000000010E-06 
    9.9999999999999995E-07 
    4.4101481512196429E-02 
    1.2937080708280876E-01 
    2.4067563681341350E-01 
    3.4128125074699034E-01 
    4.0555962588633204E-01 
    4.3785475480905106E-01 
    4.5535855743025888E-01 
    4.6195927455046187E-01 
    4.5518197937745630E-01 
    4.2615461352721085E-01 
    2.6282126913000486E-01 
    4.0277310751932905E-03 
    1.3675269249521710E-06 
    1.0000000277561098E-06 
    1.0000000000000012E-06 
    9.9999999999999995E-07 
    1.0014311892881365E-06 
    1.0675250207770382E-04 
    1.8489696605162201E-03 
    2.1971410861284173E-02 
    8.3825650767625895E-02 
    1.5008917477824971E-01 
    2.1743615652041751E-01 
    2.6901123157503776E-01 
    2.9500029111078085E-01 
    2.6072589765690968E-01 
    9.4653420529239821E-02 
    3.2029657773918448E-04 
    1.0182517964843909E-06 
    1.0000000000000124E-06 
    9.9999999999999995E-07 
    9.9999999999999995E-07 
    1.0000000004531238E-06 
    1.0033065811455567E-06 
    1.1062112181215595E-06 
    1.6457702137472399E-05 
    1.0983653280369522E-04 
    8.8869257720513095E-05 
    6.8861107960627849E-04 
    2.7539955879320771E-03 
    5.6874630356976725E-03 
    3.7568557432896645E-03 
    3.1899891398200355E-04 
    1.0444076732293275E-06 
    1.0000000140225821E-06 
    1.0000000000000010E-06 
    9.9999999999999995E-07 
    9.9999999999999995E-07 
    9.9999999999999995E-07 
    9.9999999999999995E-07 
    1.0000000177604443E-06 
    1.0000215633880871E-06 
    1.0008672776794204E-06 
    1.0009615149805147E-06 
    1.0102628970314828E-06 
    1.0584508683190042E-06 
    1.0562653387693918E-06 
    1.3237751999317234E-06 
    1.0182013068875778E-06 
    1.0000000140312456E-06 
    1.0000000000000029E-06 
    9.9999999999999995E-07 
    9.9999999999999995E-07 
    9.9999999999999995E-07 
    9.9999999999999995E-07 
    9.9999999999999995E-07 
    1.0000000000000002E-06 
    9.9999999999999995E-07 
    1.0000000000767206E-06 
    1.0000000000412577E-06 
    1.0000000010642155E-06 
    1.0000000078521792E-06 
    1.0000000073453138E-06 
    1.0000000239503692E-06 
    1.0000000000000108E-06 
    1.0000000000000010E-06 
    9.9999999999999995E-07 
    9.9999999999999995E-07 
    9.9999999999999995E-07 
    9.9999999999999995E-07 
    9.9999999999999995E-07 
    9.9999999999999995E-07 
    9.9999999999999995E-07 
    9.9999999999999995E-07 
    9.9999999999999995E-07 
    9.9999999999999995E-07 
    9.9999999999999995E-07 
    9.9999999999999995E-07 
    1.0000000000000008E-06 
    1.0000000000000010E-06 
    9.9999999999999995E-07 
    9.9999999999999995E-07 
    9.9999999999999995E-07 
    9.9999999999999995E-07 
    9.9999999999999995E-07 
    9.9999999999999995E-07 
    9.9999999999999995E-07 
    9.9999999999999995E-07 
    9.9999999999999995E-07 
    9.9999999999999995E-07 
    9.9999999999999995E-07 
    9.9999999999999995E-07 
    9.9999999999999995E-07 
    9.9999999999999995E-07 
    9.9999999999999995E-07 
    9.9999999999999995E-07 
    9.9999999999999995E-07 
    9.9999999999999995E-07 
    9.9999999999999995E-07 
    9.9999999999999995E-07 
    9.9999999999999995E-07 
    1.0000002910900545E-06 
