# vtk DataFile Version 2.0
Pressure Field Data 
ASCII 
DATASET UNSTRUCTURED_GRID 

POINTS 289 double 

    0.0000000000000000E+00     0.0000000000000000E+00     0.0000000000000000E+00 
    1.0000000000000000E+00     0.0000000000000000E+00     0.0000000000000000E+00 
    1.0000000000000000E+00     1.0000000000000000E+00     0.0000000000000000E+00 
    0.0000000000000000E+00     1.0000000000000000E+00     0.0000000000000000E+00 
    6.2499999999872928E-02     0.0000000000000000E+00     0.0000000000000000E+00 
    1.2499999999977310E-01     0.0000000000000000E+00     0.0000000000000000E+00 
    1.8749999999959341E-01     0.0000000000000000E+00     0.0000000000000000E+00 
    2.4999999999941089E-01     0.0000000000000000E+00     0.0000000000000000E+00 
    3.1249999999922851E-01     0.0000000000000000E+00     0.0000000000000000E+00 
    3.7499999999904610E-01     0.0000000000000000E+00     0.0000000000000000E+00 
    4.3749999999886358E-01     0.0000000000000000E+00     0.0000000000000000E+00 
    4.9999999999869210E-01     0.0000000000000000E+00     0.0000000000000000E+00 
    5.6249999999884603E-01     0.0000000000000000E+00     0.0000000000000000E+00 
    6.2499999999901090E-01     0.0000000000000000E+00     0.0000000000000000E+00 
    6.8749999999917577E-01     0.0000000000000000E+00     0.0000000000000000E+00 
    7.4999999999934064E-01     0.0000000000000000E+00     0.0000000000000000E+00 
    8.1249999999950551E-01     0.0000000000000000E+00     0.0000000000000000E+00 
    8.7499999999967026E-01     0.0000000000000000E+00     0.0000000000000000E+00 
    9.3749999999983513E-01     0.0000000000000000E+00     0.0000000000000000E+00 
    1.0000000000000000E+00     6.2499999999872928E-02     0.0000000000000000E+00 
    1.0000000000000000E+00     1.2499999999977310E-01     0.0000000000000000E+00 
    1.0000000000000000E+00     1.8749999999959341E-01     0.0000000000000000E+00 
    1.0000000000000000E+00     2.4999999999941089E-01     0.0000000000000000E+00 
    1.0000000000000000E+00     3.1249999999922851E-01     0.0000000000000000E+00 
    1.0000000000000000E+00     3.7499999999904610E-01     0.0000000000000000E+00 
    1.0000000000000000E+00     4.3749999999886358E-01     0.0000000000000000E+00 
    1.0000000000000000E+00     4.9999999999869210E-01     0.0000000000000000E+00 
    1.0000000000000000E+00     5.6249999999884603E-01     0.0000000000000000E+00 
    1.0000000000000000E+00     6.2499999999901090E-01     0.0000000000000000E+00 
    1.0000000000000000E+00     6.8749999999917577E-01     0.0000000000000000E+00 
    1.0000000000000000E+00     7.4999999999934064E-01     0.0000000000000000E+00 
    1.0000000000000000E+00     8.1249999999950551E-01     0.0000000000000000E+00 
    1.0000000000000000E+00     8.7499999999967026E-01     0.0000000000000000E+00 
    1.0000000000000000E+00     9.3749999999983513E-01     0.0000000000000000E+00 
    9.3749999999973976E-01     1.0000000000000000E+00     0.0000000000000000E+00 
    8.7499999999950118E-01     1.0000000000000000E+00     0.0000000000000000E+00 
    8.1249999999991318E-01     1.0000000000000000E+00     0.0000000000000000E+00 
    7.5000000000034706E-01     1.0000000000000000E+00     0.0000000000000000E+00 
    6.8750000000078049E-01     1.0000000000000000E+00     0.0000000000000000E+00 
    6.2500000000121403E-01     1.0000000000000000E+00     0.0000000000000000E+00 
    5.6250000000164757E-01     1.0000000000000000E+00     0.0000000000000000E+00 
    5.0000000000205946E-01     1.0000000000000000E+00     0.0000000000000000E+00 
    4.3750000000182099E-01     1.0000000000000000E+00     0.0000000000000000E+00 
    3.7500000000156092E-01     1.0000000000000000E+00     0.0000000000000000E+00 
    3.1250000000130068E-01     1.0000000000000000E+00     0.0000000000000000E+00 
    2.5000000000104050E-01     1.0000000000000000E+00     0.0000000000000000E+00 
    1.8750000000078040E-01     1.0000000000000000E+00     0.0000000000000000E+00 
    1.2500000000052031E-01     1.0000000000000000E+00     0.0000000000000000E+00 
    6.2500000000260125E-02     1.0000000000000000E+00     0.0000000000000000E+00 
    0.0000000000000000E+00     9.3749999999973976E-01     0.0000000000000000E+00 
    0.0000000000000000E+00     8.7499999999950118E-01     0.0000000000000000E+00 
    0.0000000000000000E+00     8.1249999999991318E-01     0.0000000000000000E+00 
    0.0000000000000000E+00     7.5000000000034706E-01     0.0000000000000000E+00 
    0.0000000000000000E+00     6.8750000000078049E-01     0.0000000000000000E+00 
    0.0000000000000000E+00     6.2500000000121403E-01     0.0000000000000000E+00 
    0.0000000000000000E+00     5.6250000000164757E-01     0.0000000000000000E+00 
    0.0000000000000000E+00     5.0000000000205946E-01     0.0000000000000000E+00 
    0.0000000000000000E+00     4.3750000000182099E-01     0.0000000000000000E+00 
    0.0000000000000000E+00     3.7500000000156092E-01     0.0000000000000000E+00 
    0.0000000000000000E+00     3.1250000000130068E-01     0.0000000000000000E+00 
    0.0000000000000000E+00     2.5000000000104050E-01     0.0000000000000000E+00 
    0.0000000000000000E+00     1.8750000000078040E-01     0.0000000000000000E+00 
    0.0000000000000000E+00     1.2500000000052031E-01     0.0000000000000000E+00 
    0.0000000000000000E+00     6.2500000000260125E-02     0.0000000000000000E+00 
    6.2499999999897131E-02     6.2500000000235922E-02     0.0000000000000000E+00 
    6.2499999999921327E-02     1.2500000000047351E-01     0.0000000000000000E+00 
    6.2499999999945530E-02     1.8750000000070621E-01     0.0000000000000000E+00 
    6.2499999999969733E-02     2.5000000000093858E-01     0.0000000000000000E+00 
    6.2499999999993928E-02     3.1250000000117117E-01     0.0000000000000000E+00 
    6.2500000000018124E-02     3.7500000000140382E-01     0.0000000000000000E+00 
    6.2500000000042327E-02     4.3750000000163619E-01     0.0000000000000000E+00 
    6.2500000000066530E-02     5.0000000000184897E-01     0.0000000000000000E+00 
    6.2500000000090733E-02     5.6250000000147260E-01     0.0000000000000000E+00 
    6.2500000000114922E-02     6.2500000000107636E-01     0.0000000000000000E+00 
    6.2500000000139125E-02     6.8750000000068034E-01     0.0000000000000000E+00 
    6.2500000000163328E-02     7.5000000000028411E-01     0.0000000000000000E+00 
    6.2500000000187531E-02     8.1249999999988787E-01     0.0000000000000000E+00 
    6.2500000000211720E-02     8.7499999999951172E-01     0.0000000000000000E+00 
    6.2500000000235922E-02     9.3749999999974565E-01     0.0000000000000000E+00 
    1.2499999999981980E-01     6.2500000000211733E-02     0.0000000000000000E+00 
    1.2499999999986650E-01     1.2500000000042691E-01     0.0000000000000000E+00 
    1.2499999999991319E-01     1.8750000000063199E-01     0.0000000000000000E+00 
    1.2499999999995989E-01     2.5000000000083678E-01     0.0000000000000000E+00 
    1.2500000000000661E-01     3.1250000000104172E-01     0.0000000000000000E+00 
    1.2500000000005329E-01     3.7500000000124661E-01     0.0000000000000000E+00 
    1.2500000000010000E-01     4.3750000000145117E-01     0.0000000000000000E+00 
    1.2500000000014669E-01     5.0000000000163858E-01     0.0000000000000000E+00 
    1.2500000000019340E-01     5.6250000000129741E-01     0.0000000000000000E+00 
    1.2500000000024011E-01     6.2500000000093847E-01     0.0000000000000000E+00 
    1.2500000000028680E-01     6.8750000000057998E-01     0.0000000000000000E+00 
    1.2500000000033351E-01     7.5000000000022127E-01     0.0000000000000000E+00 
    1.2500000000038020E-01     8.1249999999986211E-01     0.0000000000000000E+00 
    1.2500000000042691E-01     8.7499999999952238E-01     0.0000000000000000E+00 
    1.2500000000047359E-01     9.3749999999975164E-01     0.0000000000000000E+00 
    1.8749999999966760E-01     6.2500000000187531E-02     0.0000000000000000E+00 
    1.8749999999974179E-01     1.2500000000038020E-01     0.0000000000000000E+00 
    1.8749999999981601E-01     1.8750000000055780E-01     0.0000000000000000E+00 
    1.8749999999989009E-01     2.5000000000073502E-01     0.0000000000000000E+00 
    1.8749999999996431E-01     3.1250000000091221E-01     0.0000000000000000E+00 
    1.8750000000003850E-01     3.7500000000108941E-01     0.0000000000000000E+00 
    1.8750000000011269E-01     4.3750000000126649E-01     0.0000000000000000E+00 
    1.8750000000018691E-01     5.0000000000142808E-01     0.0000000000000000E+00 
    1.8750000000026110E-01     5.6250000000112244E-01     0.0000000000000000E+00 
    1.8750000000033529E-01     6.2500000000080080E-01     0.0000000000000000E+00 
    1.8750000000040951E-01     6.8750000000047962E-01     0.0000000000000000E+00 
    1.8750000000048361E-01     7.5000000000015843E-01     0.0000000000000000E+00 
    1.8750000000055780E-01     8.1249999999983680E-01     0.0000000000000000E+00 
    1.8750000000063199E-01     8.7499999999953304E-01     0.0000000000000000E+00 
    1.8750000000070621E-01     9.3749999999975764E-01     0.0000000000000000E+00 
    2.4999999999951281E-01     6.2500000000163314E-02     0.0000000000000000E+00 
    2.4999999999961461E-01     1.2500000000033351E-01     0.0000000000000000E+00 
    2.4999999999971650E-01     1.8750000000048361E-01     0.0000000000000000E+00 
    2.4999999999981831E-01     2.5000000000063310E-01     0.0000000000000000E+00 
    2.4999999999992020E-01     3.1250000000078260E-01     0.0000000000000000E+00 
    2.5000000000002198E-01     3.7500000000093209E-01     0.0000000000000000E+00 
    2.5000000000012390E-01     4.3750000000108180E-01     0.0000000000000000E+00 
    2.5000000000022571E-01     5.0000000000121769E-01     0.0000000000000000E+00 
    2.5000000000032763E-01     5.6250000000094724E-01     0.0000000000000000E+00 
    2.5000000000042938E-01     6.2500000000066314E-01     0.0000000000000000E+00 
    2.5000000000053119E-01     6.8750000000037925E-01     0.0000000000000000E+00 
[...]
CELL_DATA 256 
SCALARS Pressure double 1 
LOOKUP_TABLE default 

    1.0024457578429469E+00 
    9.5144426530522341E-01 
    9.1805805010554919E-01 
    8.9213608900132157E-01 
    8.6978199056254124E-01 
    8.5001468360934218E-01 
    8.3268075318266654E-01 
    8.1777148914280551E-01 
    8.0504263798988018E-01 
    7.9323390222237178E-01 
    7.8150008301850604E-01 
    7.7269132276706654E-01 
    7.6713392237962263E-01 
    7.6391732831219161E-01 
    7.6241826688392778E-01 
    7.6201371591956890E-01 
    9.5145914554461664E-01 
    9.4086374202237377E-01 
    9.1895245804014547E-01 
    8.9637172459537628E-01 
    8.7489792080136164E-01 
    8.5507010258302429E-01 
    8.3722678381508564E-01 
    8.2161912045937879E-01 
    8.0826379800245629E-01 
    7.9635911146234861E-01 
    7.8416781769067512E-01 
    7.7412281436148622E-01 
    7.6766016605548992E-01 
    7.6382617514199846E-01 
    7.6201510721773891E-01 
    7.6161029502306932E-01 
    9.1807949108637976E-01 
    9.1896371986483005E-01 
    9.0840363048716988E-01 
    8.9214213300058476E-01 
    8.7380793618664465E-01 
    8.5534607642379001E-01 
    8.3786270265359131E-01 
    8.2206401588759437E-01 
    8.0831457214679714E-01 
    7.9631795572107678E-01 
    7.8427108636174914E-01 
    7.7326855517404680E-01 
    7.6617603585090244E-01 
    7.6202579780469870E-01 
    7.6020889623177712E-01 
    7.6011513117987217E-01 
    8.9215171422445416E-01 
    8.9638387895298033E-01 
    8.9214728168814805E-01 
    8.8146471194187737E-01 
    8.6696662939631375E-01 
    8.5074925717995098E-01 
    8.3433002333770689E-01 
    8.1881566203492262E-01 
    8.0493340210398356E-01 
    7.9284717277793859E-01 
    7.8132846746795692E-01 
    7.6984865787783685E-01 
    7.6216338873760525E-01 
    7.5792602257352226E-01 
    7.5638137660401950E-01 
    7.5690234063566386E-01 
    8.6978242268114514E-01 
    8.7490004725232629E-01 
    8.7380945692432987E-01 
    8.6696706479131769E-01 
    8.5578806654421402E-01 
    8.4190953462862272E-01 
    8.2684188642138789E-01 
    8.1188138684216227E-01 
    7.9803675969077303E-01 
    7.8587388568585337E-01 
    7.7486736056443239E-01 
    7.6343973698736534E-01 
    7.5508112319502974E-01 
    7.5093455491103878E-01 
    7.4990853426979798E-01 
    7.5134007209796894E-01 
    8.4999836460366385E-01 
    8.5505663363478523E-01 
    8.5533553308483590E-01 
    8.5074310969145284E-01 
    8.4190655587875607E-01 
    8.2992395351856951E-01 
    8.1607267736669797E-01 
    8.0163856238217202E-01 
    7.8778144123817884E-01 
    7.7537363866813980E-01 
    7.6449212097034702E-01 
    7.5341743133904526E-01 
    7.4441968282097815E-01 
    7.4044647754419346E-01 
    7.4014037552974521E-01 
    7.4277308503511030E-01 
    8.3264251991821381E-01 
    8.3719309625118599E-01 
    8.3783472316757579E-01 
    8.3431130457264424E-01 
    8.2683151365476182E-01 
    8.1606816979213037E-01 
    8.0300718152450579E-01 
    7.8879692009205027E-01 
    7.7462471976464975E-01 
    7.6158295882421079E-01 
    7.5023165199082387E-01 
    7.3946576202481273E-01 
    7.2988964605859374E-01 
    7.2586419722929940E-01 
    7.2637808180259145E-01 
    7.3049183509751214E-01 
    8.1770569711859342E-01 
    8.2155965554013244E-01 
    8.2201556805103115E-01 
    8.1878173401297105E-01 
    8.1185985954050799E-01 
    8.0162652696539394E-01 
    7.8879208004171408E-01 
    7.7431058118408380E-01 
    7.5930965510443504E-01 
    7.4502823072341307E-01 
    7.3248690688854501E-01 
    7.2144386825791995E-01 
    7.1111794720402688E-01 
    7.0645789921643265E-01 
    7.0779438067225908E-01 
    7.1367008799906761E-01 
    8.0495776168583844E-01 
    8.0818311510506369E-01 
    8.0824921174443753E-01 
    8.0488742943998914E-01 
    7.9800387344719903E-01 
    7.8775865741090623E-01 
    7.7461234697220072E-01 
    7.5930619507213903E-01 
    7.4284567497311338E-01 
    7.2652717904830300E-01 
    7.1175176643187565E-01 
    6.9913753279650903E-01 
    6.8752450619193017E-01 
    6.8135181728725369E-01 
    6.8334643904155679E-01 
    6.9126836433524119E-01 
    7.9315469718425935E-01 
    7.9627832233863538E-01 
    7.9624894771697396E-01 
    7.9280052962555436E-01 
    7.8583768643649332E-01 
    7.7534148621349108E-01 
    7.6156023807963258E-01 
    7.4502051893309362E-01 
    7.2652659101443073E-01 
    7.0731082210397023E-01 
    6.8900861445974848E-01 
    6.7297719295161496E-01 
    6.5893594465017580E-01 
    6.4989180066292573E-01 
    6.5172718155706166E-01 
    6.6190094028594459E-01 
    7.8143483802021618E-01 
    7.8410531238334191E-01 
    7.8421470534137871E-01 
    7.8128368768768364E-01 
    7.7482706653374256E-01 
    7.6444740603633310E-01 
    7.5019344622326889E-01 
    7.3247206808805676E-01 
    7.1175146567732250E-01 
    6.8900670532213659E-01 
    6.6589295142861993E-01 
    6.4437765878298126E-01 
    6.2564428355976098E-01 
    6.1139071020782554E-01 
    6.1098259734552729E-01 
    6.2348469915104110E-01 
    7.7263375085435637E-01 
    7.7406584290710845E-01 
    7.7321753365539692E-01 
    7.6981010807060568E-01 
    7.6340163314135034E-01 
    7.5337328682427751E-01 
    7.3942724120769587E-01 
    7.2142788848919270E-01 
    6.9914232191205461E-01 
    6.7297168336942215E-01 
    6.4436582776182116E-01 
    6.1524169865060507E-01 
    5.8811405926156057E-01 
    5.6515845117157215E-01 
    5.5822868679066351E-01 
    5.7262713373597807E-01 
    7.6708123510937642E-01 
    7.6760723405443243E-01 
    7.6612553051893539E-01 
    7.6211971118886246E-01 
    7.5504455782033009E-01 
    7.4438277471618242E-01 
    7.2985283049295469E-01 
    7.1109255971015595E-01 
    6.8750956571710775E-01 
    6.5890433368995460E-01 
    6.2559645245225892E-01 
    5.8808502529808626E-01 
    5.4880624831676061E-01 
    5.1157699304713344E-01 
    4.9000014978859280E-01 
    5.0337016036863547E-01 
    7.6386760463931891E-01 
    7.6377597453898671E-01 
    7.6197609506557840E-01 
    7.5787938711808356E-01 
    7.5089213318443870E-01 
    7.4040575505222539E-01 
    7.2582253860419443E-01 
    7.0641423681961202E-01 
    6.8131100992536064E-01 
    6.4984565865133903E-01 
    6.1131925595505898E-01 
    5.6507862183094992E-01 
    5.1151275243154692E-01 
    4.5293002006508254E-01 
    4.0296251505223285E-01 
    4.0369435749062121E-01 
    7.6237030550488760E-01 
    7.6196671941464322E-01 
    7.6015989914901638E-01 
    7.5633348737552542E-01 
    7.4986326729493558E-01 
    7.4009708154567055E-01 
    7.2633503379044351E-01 
    7.0775022523688857E-01 
    6.8330181781499610E-01 
    6.5168059265164346E-01 
    6.1092955753740952E-01 
    5.5816788314150678E-01 
    4.8994648279293346E-01 
    4.0292796293909677E-01 
    3.0230164974085916E-01 
    2.5040806088705247E-01 
    7.6196658339905865E-01 
    7.6156294144075654E-01 
    7.6006644975988980E-01 
    7.5685364623329465E-01 
    7.5129329680043999E-01 
    7.4272823430481139E-01 
    7.3044782559974053E-01 
    7.1362575647670157E-01 
    6.9122333451805107E-01 
    6.6185410255750476E-01 
    6.2343321140061136E-01 
    5.7256991732999185E-01 
    5.0332268080335152E-01 
    4.0368555005317186E-01 
    2.5041181903715037E-01 
    0.0000000000000000E+00 

SCALARS Saturarion double 1 
LOOKUP_TABLE default 

    1.0000000000000000E+00 
    9.7192858223620526E-01 
    9.2346429936513708E-01 
    8.3780776285189340E-01 
    7.5603927984913188E-01 
    6.8901466806331557E-01 
    6.3334633796751760E-01 
    5.8498016192203162E-01 
    5.2954541177256753E-01 
    3.9534909359822101E-01 
    3.5018123627290565E-02 
    1.0013720352993132E-06 
    1.0000000003354483E-06 
    9.9999999999999995E-07 
    9.9999999999999995E-07 
    9.9999999999999995E-07 
    9.7179572405899195E-01 
    9.4762230987814833E-01 
    9.0441444791752257E-01 
    8.3358332353893705E-01 
    7.6169063661303915E-01 
    6.9780114710459962E-01 
    6.4268159108856004E-01 
    5.9451377890730439E-01 
    5.4260434278878311E-01 
    4.4331596729177708E-01 
    1.1984068594212817E-01 
    1.1538430979658577E-04 
    1.0031009332957224E-06 
    9.9999999999999995E-07 
    9.9999999999999995E-07 
    9.9999999999999995E-07 
    9.2305893995007737E-01 
    9.0419618540304580E-01 
    8.6411755501652476E-01 
    8.1256428116240953E-01 
    7.5668004000804101E-01 
    7.0145417808999688E-01 
    6.5044235365517267E-01 
    6.0365778521644298E-01 
    5.5518975975797447E-01 
    4.8211523378934967E-01 
    2.4212814858822093E-01 
    2.3673985789000678E-03 
    1.1851837428623058E-06 
    1.0000000291211985E-06 
    9.9999999999999995E-07 
    9.9999999999999995E-07 
    8.3696857609573905E-01 
    8.3311996296454383E-01 
    8.1236697348317077E-01 
    7.7945498396841639E-01 
    7.3849404561827514E-01 
    6.9422000498634107E-01 
    6.5038613888553487E-01 
    6.0813305558028818E-01 
    5.6481456149097220E-01 
    5.0774731479736512E-01 
    3.5789608945845675E-01 
    3.7015016768120981E-02 
    6.3074370173424560E-05 
    1.0003627585118095E-06 
    9.9999999999999995E-07 
    9.9999999999999995E-07 
    7.5512572840728576E-01 
    7.6102849148402751E-01 
    7.5628570977875387E-01 
    7.3828777968906900E-01 
    7.1113852446952874E-01 
    6.7827561000880754E-01 
    6.4320865303789676E-01 
    6.0791061973859772E-01 
    5.7068964109317111E-01 
    5.2405065319731992E-01 
    4.2739776799177764E-01 
    1.1869728655308090E-01 
    1.8811021526103007E-04 
    1.0143626839830834E-06 
    1.0000000000000112E-06 
    9.9999999999999995E-07 
    6.8806719200871225E-01 
    6.9709449175431104E-01 
    7.0095164429401946E-01 
    6.9380503939184779E-01 
    6.7805016575502475E-01 
    6.5613118727381681E-01 
    6.3056242297141041E-01 
    6.0314034162599650E-01 
    5.7266772418885814E-01 
    5.3469026825219212E-01 
    4.6201397395965332E-01 
    2.1465454453506497E-01 
    2.7040443905703027E-03 
    1.2693006458313516E-06 
    1.0000000406444717E-06 
    9.9999999999999995E-07 
    6.3196779271831982E-01 
    6.4181758225055607E-01 
    6.4999276819205665E-01 
    6.4998759947761253E-01 
    6.4281884359404617E-01 
    6.3034839840673085E-01 
    6.1382047624919511E-01 
    5.9390229401781092E-01 
    5.7010609862038952E-01 
    5.3966942188436740E-01 
    4.8561463959605061E-01 
    3.2238927840540482E-01 
    2.5407374612131502E-02 
    3.6605777130040345E-05 
    1.0001060565044788E-06 
    9.9999999999999995E-07 
    5.8332317584869797E-01 
    5.9358269316793633E-01 
    6.0334087771714850E-01 
    6.0788479221638092E-01 
    6.0749308996787255E-01 
    6.0268722447947687E-01 
    5.9364076751660466E-01 
    5.8023475912168132E-01 
    5.6263459500065260E-01 
    5.4010953697811193E-01 
    5.0080656059883655E-01 
    3.9832930222190277E-01 
    9.4236289557662431E-02 
    1.8478352077294356E-04 
    1.0091776923778836E-06 
    9.9999999999999995E-07 
    5.2822112778941210E-01 
    5.4217472855072724E-01 
    5.5532560632432015E-01 
    5.6469486906187494E-01 
    5.7048244260862802E-01 
    5.7224036941592460E-01 
    5.6961955453828872E-01 
    5.6232136603627791E-01 
    5.5076620885629057E-01 
    5.3536543809765591E-01 
    5.0948224164192413E-01 
    4.3857924786562236E-01 
    1.8577792273052543E-01 
    2.1535635298972344E-03 
    1.1525980994909420E-06 
    1.0000000145285323E-06 
    3.9504623074089240E-01 
    4.4428774533307813E-01 
    4.8325648150240691E-01 
    5.0773699872974920E-01 
    5.2410777201499448E-01 
    5.3456273075400684E-01 
    5.3930364803197373E-01 
    5.3959090972658308E-01 
    5.3496331179739287E-01 
    5.2606731223985037E-01 
    5.1034002616674856E-01 
    4.6448471255751450E-01 
    3.0040326923507782E-01 
    2.4807925831206307E-02 
    3.7295829248715411E-05 
    1.0000758581367232E-06 
    3.5108401349784608E-02 
    1.2369782822729056E-01 
    2.4833487303817756E-01 
    3.5871851778008740E-01 
    4.2613040175288031E-01 
    4.6133698650176402E-01 
    4.8553387078108656E-01 
    5.0057861635170320E-01 
    5.0876725995722993E-01 
    5.0988730349515932E-01 
    5.0346810355361149E-01 
    4.7718428667892776E-01 
    3.8597454745182724E-01 
    9.8796317412574844E-02 
    1.8467827954207658E-04 
    1.0083036228153274E-06 
    1.0015483361000527E-06 
    1.2803767447988723E-04 
    2.9186102045950855E-03 
    3.5414173187816381E-02 
    1.1684694630259353E-01 
    2.1397562994391550E-01 
    3.2413128923650131E-01 
    3.9956853416500654E-01 
    4.3829242028903354E-01 
    4.6362166354930873E-01 
    4.7661742262182355E-01 
    4.7328704370992952E-01 
    4.2269451449646167E-01 
    2.0287280226748219E-01 
    4.8647304798936130E-03 
    1.7638494661894834E-06 
    1.0000000003809636E-06 
    1.0039967415204973E-06 
    1.2808981028988491E-06 
    5.4347520752122813E-05 
    2.0423048557055687E-04 
    2.7039930507084062E-03 
    2.6819483676698744E-02 
    9.5629085937889366E-02 
    1.8509622359138855E-01 
    2.9748287639583554E-01 
    3.8468961573988009E-01 
    4.2189645803792691E-01 
    4.2557653449220656E-01 
    3.2214262385679904E-01 
    5.8807016311629989E-02 
    1.1458422561276015E-04 
    9.9999999999999995E-07 
    9.9999999999999995E-07 
    1.0000000448663236E-06 
    1.0002702372248624E-06 
    1.0166579884417768E-06 
    1.2683038348123549E-06 
    4.1245126628416719E-05 
    1.6362311980972012E-04 
    1.9723045634497411E-03 
    2.3792547142968558E-02 
    9.7919241132175733E-02 
    2.0054047290370738E-01 
    3.2023105640784716E-01 
    3.4089773533818074E-01 
    1.4080799436043578E-01 
    4.8070990583419374E-04 
    9.9999999999999995E-07 
    9.9999999999999995E-07 
    9.9999999999999995E-07 
    9.9999999999999995E-07 
    1.0000000000000008E-06 
    1.0000000399259881E-06 
    1.0001363314609851E-06 
    1.0072556826486466E-06 
    1.1268232828194109E-06 
    3.6001585118290194E-05 
    1.8951997764698718E-04 
    4.4508172692327335E-03 
    5.6970406600136005E-02 
    1.3962565392189813E-01 
    1.5028263928317004E-01 
    3.0248235911643218E-03 
    9.9999999999999995E-07 
    9.9999999999999995E-07 
    9.9999999999999995E-07 
    9.9999999999999995E-07 
    9.9999999999999995E-07 
    9.9999999999999995E-07 
    9.9999999999999995E-07 
    9.9999999999999995E-07 
    1.0000000119142356E-06 
    1.0000695339971849E-06 
    1.0082329946110165E-06 
    1.6399290948942976E-06 
    1.1054352815728984E-04 
    4.6509863337918227E-04 
    2.9717487516569851E-03 
    6.5534130095639883E-06 
