# vtk DataFile Version 2.0
Pressure Field Data 
ASCII 
DATASET UNSTRUCTURED_GRID 

POINTS 289 double 

    0.0000000000000000E+00     0.0000000000000000E+00     0.0000000000000000E+00 
    1.0000000000000000E+00     0.0000000000000000E+00     0.0000000000000000E+00 
    1.0000000000000000E+00     1.0000000000000000E+00     0.0000000000000000E+00 
    0.0000000000000000E+00     1.0000000000000000E+00     0.0000000000000000E+00 
    6.2499999999872928E-02     0.0000000000000000E+00     0.0000000000000000E+00 
    1.2499999999977310E-01     0.0000000000000000E+00     0.0000000000000000E+00 
    1.8749999999959341E-01     0.0000000000000000E+00     0.0000000000000000E+00 
    2.4999999999941089E-01     0.0000000000000000E+00     0.0000000000000000E+00 
    3.1249999999922851E-01     0.0000000000000000E+00     0.0000000000000000E+00 
    3.7499999999904610E-01     0.0000000000000000E+00     0.0000000000000000E+00 
    4.3749999999886358E-01     0.0000000000000000E+00     0.0000000000000000E+00 
    4.9999999999869210E-01     0.0000000000000000E+00     0.0000000000000000E+00 
    5.6249999999884603E-01     0.0000000000000000E+00     0.0000000000000000E+00 
    6.2499999999901090E-01     0.0000000000000000E+00     0.0000000000000000E+00 
    6.8749999999917577E-01     0.0000000000000000E+00     0.0000000000000000E+00 
    7.4999999999934064E-01     0.0000000000000000E+00     0.0000000000000000E+00 
    8.1249999999950551E-01     0.0000000000000000E+00     0.0000000000000000E+00 
    8.7499999999967026E-01     0.0000000000000000E+00     0.0000000000000000E+00 
    9.3749999999983513E-01     0.0000000000000000E+00     0.0000000000000000E+00 
    1.0000000000000000E+00     6.2499999999872928E-02     0.0000000000000000E+00 
    1.0000000000000000E+00     1.2499999999977310E-01     0.0000000000000000E+00 
    1.0000000000000000E+00     1.8749999999959341E-01     0.0000000000000000E+00 
    1.0000000000000000E+00     2.4999999999941089E-01     0.0000000000000000E+00 
    1.0000000000000000E+00     3.1249999999922851E-01     0.0000000000000000E+00 
    1.0000000000000000E+00     3.7499999999904610E-01     0.0000000000000000E+00 
    1.0000000000000000E+00     4.3749999999886358E-01     0.0000000000000000E+00 
    1.0000000000000000E+00     4.9999999999869210E-01     0.0000000000000000E+00 
    1.0000000000000000E+00     5.6249999999884603E-01     0.0000000000000000E+00 
    1.0000000000000000E+00     6.2499999999901090E-01     0.0000000000000000E+00 
    1.0000000000000000E+00     6.8749999999917577E-01     0.0000000000000000E+00 
    1.0000000000000000E+00     7.4999999999934064E-01     0.0000000000000000E+00 
    1.0000000000000000E+00     8.1249999999950551E-01     0.0000000000000000E+00 
    1.0000000000000000E+00     8.7499999999967026E-01     0.0000000000000000E+00 
    1.0000000000000000E+00     9.3749999999983513E-01     0.0000000000000000E+00 
    9.3749999999973976E-01     1.0000000000000000E+00     0.0000000000000000E+00 
    8.7499999999950118E-01     1.0000000000000000E+00     0.0000000000000000E+00 
    8.1249999999991318E-01     1.0000000000000000E+00     0.0000000000000000E+00 
    7.5000000000034706E-01     1.0000000000000000E+00     0.0000000000000000E+00 
    6.8750000000078049E-01     1.0000000000000000E+00     0.0000000000000000E+00 
    6.2500000000121403E-01     1.0000000000000000E+00     0.0000000000000000E+00 
    5.6250000000164757E-01     1.0000000000000000E+00     0.0000000000000000E+00 
    5.0000000000205946E-01     1.0000000000000000E+00     0.0000000000000000E+00 
    4.3750000000182099E-01     1.0000000000000000E+00     0.0000000000000000E+00 
    3.7500000000156092E-01     1.0000000000000000E+00     0.0000000000000000E+00 
    3.1250000000130068E-01     1.0000000000000000E+00     0.0000000000000000E+00 
    2.5000000000104050E-01     1.0000000000000000E+00     0.0000000000000000E+00 
    1.8750000000078040E-01     1.0000000000000000E+00     0.0000000000000000E+00 
    1.2500000000052031E-01     1.0000000000000000E+00     0.0000000000000000E+00 
    6.2500000000260125E-02     1.0000000000000000E+00     0.0000000000000000E+00 
    0.0000000000000000E+00     9.3749999999973976E-01     0.0000000000000000E+00 
    0.0000000000000000E+00     8.7499999999950118E-01     0.0000000000000000E+00 
    0.0000000000000000E+00     8.1249999999991318E-01     0.0000000000000000E+00 
    0.0000000000000000E+00     7.5000000000034706E-01     0.0000000000000000E+00 
    0.0000000000000000E+00     6.8750000000078049E-01     0.0000000000000000E+00 
    0.0000000000000000E+00     6.2500000000121403E-01     0.0000000000000000E+00 
    0.0000000000000000E+00     5.6250000000164757E-01     0.0000000000000000E+00 
    0.0000000000000000E+00     5.0000000000205946E-01     0.0000000000000000E+00 
    0.0000000000000000E+00     4.3750000000182099E-01     0.0000000000000000E+00 
    0.0000000000000000E+00     3.7500000000156092E-01     0.0000000000000000E+00 
    0.0000000000000000E+00     3.1250000000130068E-01     0.0000000000000000E+00 
    0.0000000000000000E+00     2.5000000000104050E-01     0.0000000000000000E+00 
    0.0000000000000000E+00     1.8750000000078040E-01     0.0000000000000000E+00 
    0.0000000000000000E+00     1.2500000000052031E-01     0.0000000000000000E+00 
    0.0000000000000000E+00     6.2500000000260125E-02     0.0000000000000000E+00 
    6.2499999999897131E-02     6.2500000000235922E-02     0.0000000000000000E+00 
    6.2499999999921327E-02     1.2500000000047351E-01     0.0000000000000000E+00 
    6.2499999999945530E-02     1.8750000000070621E-01     0.0000000000000000E+00 
    6.2499999999969733E-02     2.5000000000093858E-01     0.0000000000000000E+00 
    6.2499999999993928E-02     3.1250000000117117E-01     0.0000000000000000E+00 
    6.2500000000018124E-02     3.7500000000140382E-01     0.0000000000000000E+00 
    6.2500000000042327E-02     4.3750000000163619E-01     0.0000000000000000E+00 
    6.2500000000066530E-02     5.0000000000184897E-01     0.0000000000000000E+00 
    6.2500000000090733E-02     5.6250000000147260E-01     0.0000000000000000E+00 
    6.2500000000114922E-02     6.2500000000107636E-01     0.0000000000000000E+00 
    6.2500000000139125E-02     6.8750000000068034E-01     0.0000000000000000E+00 
    6.2500000000163328E-02     7.5000000000028411E-01     0.0000000000000000E+00 
    6.2500000000187531E-02     8.1249999999988787E-01     0.0000000000000000E+00 
    6.2500000000211720E-02     8.7499999999951172E-01     0.0000000000000000E+00 
    6.2500000000235922E-02     9.3749999999974565E-01     0.0000000000000000E+00 
    1.2499999999981980E-01     6.2500000000211733E-02     0.0000000000000000E+00 
    1.2499999999986650E-01     1.2500000000042691E-01     0.0000000000000000E+00 
    1.2499999999991319E-01     1.8750000000063199E-01     0.0000000000000000E+00 
    1.2499999999995989E-01     2.5000000000083678E-01     0.0000000000000000E+00 
    1.2500000000000661E-01     3.1250000000104172E-01     0.0000000000000000E+00 
    1.2500000000005329E-01     3.7500000000124661E-01     0.0000000000000000E+00 
    1.2500000000010000E-01     4.3750000000145117E-01     0.0000000000000000E+00 
    1.2500000000014669E-01     5.0000000000163858E-01     0.0000000000000000E+00 
    1.2500000000019340E-01     5.6250000000129741E-01     0.0000000000000000E+00 
    1.2500000000024011E-01     6.2500000000093847E-01     0.0000000000000000E+00 
    1.2500000000028680E-01     6.8750000000057998E-01     0.0000000000000000E+00 
    1.2500000000033351E-01     7.5000000000022127E-01     0.0000000000000000E+00 
    1.2500000000038020E-01     8.1249999999986211E-01     0.0000000000000000E+00 
    1.2500000000042691E-01     8.7499999999952238E-01     0.0000000000000000E+00 
    1.2500000000047359E-01     9.3749999999975164E-01     0.0000000000000000E+00 
    1.8749999999966760E-01     6.2500000000187531E-02     0.0000000000000000E+00 
    1.8749999999974179E-01     1.2500000000038020E-01     0.0000000000000000E+00 
    1.8749999999981601E-01     1.8750000000055780E-01     0.0000000000000000E+00 
    1.8749999999989009E-01     2.5000000000073502E-01     0.0000000000000000E+00 
    1.8749999999996431E-01     3.1250000000091221E-01     0.0000000000000000E+00 
    1.8750000000003850E-01     3.7500000000108941E-01     0.0000000000000000E+00 
    1.8750000000011269E-01     4.3750000000126649E-01     0.0000000000000000E+00 
    1.8750000000018691E-01     5.0000000000142808E-01     0.0000000000000000E+00 
    1.8750000000026110E-01     5.6250000000112244E-01     0.0000000000000000E+00 
    1.8750000000033529E-01     6.2500000000080080E-01     0.0000000000000000E+00 
    1.8750000000040951E-01     6.8750000000047962E-01     0.0000000000000000E+00 
    1.8750000000048361E-01     7.5000000000015843E-01     0.0000000000000000E+00 
    1.8750000000055780E-01     8.1249999999983680E-01     0.0000000000000000E+00 
    1.8750000000063199E-01     8.7499999999953304E-01     0.0000000000000000E+00 
    1.8750000000070621E-01     9.3749999999975764E-01     0.0000000000000000E+00 
    2.4999999999951281E-01     6.2500000000163314E-02     0.0000000000000000E+00 
    2.4999999999961461E-01     1.2500000000033351E-01     0.0000000000000000E+00 
    2.4999999999971650E-01     1.8750000000048361E-01     0.0000000000000000E+00 
    2.4999999999981831E-01     2.5000000000063310E-01     0.0000000000000000E+00 
    2.4999999999992020E-01     3.1250000000078260E-01     0.0000000000000000E+00 
    2.5000000000002198E-01     3.7500000000093209E-01     0.0000000000000000E+00 
    2.5000000000012390E-01     4.3750000000108180E-01     0.0000000000000000E+00 
    2.5000000000022571E-01     5.0000000000121769E-01     0.0000000000000000E+00 
    2.5000000000032763E-01     5.6250000000094724E-01     0.0000000000000000E+00 
    2.5000000000042938E-01     6.2500000000066314E-01     0.0000000000000000E+00 
    2.5000000000053119E-01     6.8750000000037925E-01     0.0000000000000000E+00 
[...]
CELL_DATA 256 
SCALARS Pressure double 1 
LOOKUP_TABLE default 

    7.1043198758203341E-01 
    6.6060948534883046E-01 
    6.2944207414607345E-01 
    6.0699490349712615E-01 
    5.8910949301199267E-01 
    5.7410691425391869E-01 
    5.6135624369399406E-01 
    5.5058595546728994E-01 
    5.4166067281467212E-01 
    5.3451149094454753E-01 
    5.2904533285513833E-01 
    5.2482647380405578E-01 
    5.2113827310965588E-01 
    5.1871663656333178E-01 
    5.1764617715700634E-01 
    5.1735807901782116E-01 
    6.6061558165717083E-01 
    6.5034131407936868E-01 
    6.3010707864920168E-01 
    6.1049150402339580E-01 
    5.9310504067382341E-01 
    5.7786585610577790E-01 
    5.6460578051229482E-01 
    5.5321755754083002E-01 
    5.4364096112978200E-01 
    5.3585631165530478E-01 
    5.2984182604874785E-01 
    5.2532215400518401E-01 
    5.2145969707776929E-01 
    5.1863246822829046E-01 
    5.1735260850286036E-01 
    5.1706837998103361E-01 
    6.2945132087528122E-01 
    6.3011202271428124E-01 
    6.2071032377916435E-01 
    6.0691826727385012E-01 
    5.9218755424165026E-01 
    5.7798661816474317E-01 
    5.6495280794517844E-01 
    5.5338313484128721E-01 
    5.4343420899699613E-01 
    5.3521244359791820E-01 
    5.2878971107283756E-01 
    5.2404891855727598E-01 
    5.2029114157009082E-01 
    5.1733254098866932E-01 
    5.1605694733217000E-01 
    5.1599969292469683E-01 
    6.0700270206628437E-01 
    6.1049742592867084E-01 
    6.0692104224912924E-01 
    5.9819953648955260E-01 
    5.8677146531916391E-01 
    5.7440539321414019E-01 
    5.6221408130312134E-01 
    5.5087609323150410E-01 
    5.4081843399310225E-01 
    5.3233279809408585E-01 
    5.2562168302603152E-01 
    5.2073689791806599E-01 
    5.1723329378073346E-01 
    5.1445259000381560E-01 
    5.1333258165725293E-01 
    5.1371705720415672E-01 
    5.8911336048274798E-01 
    5.9310853386792295E-01 
    5.9219035743260928E-01 
    5.8677322786926134E-01 
    5.7814243214576810E-01 
    5.6769793981973815E-01 
    5.5659991977408396E-01 
    5.4572281642695741E-01 
    5.3571334205267929E-01 
    5.2705730141426888E-01 
    5.2011384466644606E-01 
    5.1509970274507666E-01 
    5.1183976186812163E-01 
    5.0950478465695481E-01 
    5.0872073743766322E-01 
    5.0977733392032665E-01 
    5.7410763131011899E-01 
    5.7786592960667815E-01 
    5.7798689181086571E-01 
    5.7440653205551329E-01 
    5.6769850807073019E-01 
    5.5879007933784008E-01 
    5.4866606569271270E-01 
    5.3822493552732886E-01 
    5.2824189636874708E-01 
    5.1936907366392426E-01 
    5.1213343284068880E-01 
    5.0691537957767763E-01 
    5.0378141081669747E-01 
    5.0203174704689513E-01 
    5.0181107900610045E-01 
    5.0374541060967792E-01 
    5.6135280694449641E-01 
    5.6460206648358469E-01 
    5.6494927206831858E-01 
    5.6221215876853770E-01 
    5.5659862679596195E-01 
    5.4866471719815590E-01 
    5.3916215099513964E-01 
    5.2891292058744899E-01 
    5.1873882222389622E-01 
    5.0942024685250276E-01 
    5.0165948698319129E-01 
    4.9603463337245085E-01 
    4.9287181896190851E-01 
    4.9171212384050805E-01 
    4.9218959164176662E-01 
    4.9515176165290581E-01 
    5.5057498733620058E-01 
    5.5320796909922032E-01 
    5.5337500926513605E-01 
    5.5087011226071136E-01 
    5.4571781165347266E-01 
    5.3822008804616117E-01 
    5.2890966719465515E-01 
    5.1848313046760319E-01 
    5.0774683337492621E-01 
    4.9757041776208749E-01 
    4.8883446568425598E-01 
    4.8235659759624583E-01 
    4.7877190599769648E-01 
    4.7798998811961102E-01 
    4.7923120440716593E-01 
    4.8338288991273815E-01 
    5.4164019641310368E-01 
    5.4362292985172445E-01 
    5.4341954269546933E-01 
    5.4080747411251584E-01 
    5.3570349492340874E-01 
    5.2823170772042527E-01 
    5.1873029679918481E-01 
    5.0774228925995446E-01 
    4.9600380913403219E-01 
    4.8442510813057765E-01 
    4.7405273406338477E-01 
    4.6598794068033628E-01 
    4.6124178906441565E-01 
    4.6020601835842684E-01 
    4.6210619277520970E-01 
    4.6771546853708279E-01 
    5.3448076983355064E-01 
    5.3582752874335859E-01 
    5.3518783960418104E-01 
    5.3231434216225115E-01 
    5.2704122723039160E-01 
    5.1935227791226146E-01 
    5.0940488857865318E-01 
    4.9755998115259720E-01 
    4.8441984928479642E-01 
    4.7085786870909846E-01 
    4.5803171763281991E-01 
    4.4734891791120979E-01 
    4.4032464486196216E-01 
    4.3806082796681467E-01 
    4.4020236429344578E-01 
    4.4733835305760677E-01 
    5.2900475198667274E-01 
    5.2980118086309769E-01 
    5.2875288640554652E-01 
    5.2559318061478588E-01 
    5.2008969100222380E-01 
    5.1210834748767364E-01 
    5.0163576344746519E-01 
    4.8881682181705394E-01 
    4.7404099991288123E-01 
    4.5802484007169475E-01 
    4.4190060335523673E-01 
    4.2730244178795512E-01 
    4.1633629517899728E-01 
    4.1114225326858900E-01 
    4.1242789481607722E-01 
    4.2077620394755483E-01 
    5.2477995593241844E-01 
    5.2527458328462207E-01 
    5.2400435161017134E-01 
    5.2070121292117133E-01 
    5.1506891967208279E-01 
    5.0687996897911380E-01 
    4.9599931335957553E-01 
    4.8233002284820309E-01 
    4.6596883998514377E-01 
    4.4733299930979886E-01 
    4.2729309155833212E-01 
    4.0743463736951402E-01 
    3.9030969123652171E-01 
    3.7935954073820383E-01 
    3.7730007225178191E-01 
    3.8548487353163413E-01 
    5.2109511525259211E-01 
    5.2141799261305255E-01 
    5.2025369966674273E-01 
    5.1720195601670516E-01 
    5.1180940291763277E-01 
    5.0373816455051224E-01 
    4.9282410834342577E-01 
    4.7873828885890546E-01 
    4.6122120876781181E-01 
    4.4030313586410358E-01 
    4.1631868506026537E-01 
    3.9030410891331718E-01 
    3.6460116010738430E-01 
    3.4360099843155056E-01 
    3.3332445461339105E-01 
    3.3840296916885571E-01 
    5.1867883779723589E-01 
    5.1859577925548273E-01 
    5.1729980610827608E-01 
    5.1442643041872271E-01 
    5.0948179566090068E-01 
    5.0200184405583381E-01 
    4.9167319189329894E-01 
    4.7796779330405897E-01 
    4.6020170427884327E-01 
    4.3804863899063073E-01 
    4.1112598196063782E-01 
    3.7936110153938690E-01 
    3.4361705773575335E-01 
    3.0736239882125416E-01 
    2.7946728987584063E-01 
    2.7334285746406284E-01 
    5.1760975078167204E-01 
    5.1731681541050734E-01 
    5.1602328777461326E-01 
    5.1330208010880962E-01 
    5.0869498815374459E-01 
    5.0178732239134805E-01 
    4.9216179312974023E-01 
    4.7921693012336858E-01 
    4.6211313307741808E-01 
    4.4022488818079381E-01 
    4.1242470269217912E-01 
    3.7731610418432465E-01 
    3.3338070229605343E-01 
    2.7949563820559831E-01 
    2.1914668336950080E-01 
    1.7624256576361519E-01 
    5.1732201909777875E-01 
    5.1703280007947461E-01 
    5.1596571778015698E-01 
    5.1368575803061534E-01 
    5.0974994901224491E-01 
    5.0372151861639203E-01 
    4.9512743568742762E-01 
    4.8336157178325789E-01 
    4.6771113696222394E-01 
    4.4737409903269088E-01 
    4.2079507353350259E-01 
    3.8546533760965657E-01 
    3.3846416948336455E-01 
    2.7338657170156988E-01 
    1.7620067900469699E-01 
    0.0000000000000000E+00 

SCALARS Saturarion double 1 
LOOKUP_TABLE default 

    1.0000000000000000E+00 
    9.8646399314910893E-01 
    9.6159707600666677E-01 
    9.1755426688529207E-01 
    8.6043572862962991E-01 
    8.0333772364567713E-01 
    7.4932048264676698E-01 
    6.9688722336525244E-01 
    6.4586028155445252E-01 
    5.9734297334453401E-01 
    5.4827758686767591E-01 
    4.4632644469119670E-01 
    8.8515932389702526E-02 
    1.0028342006297611E-06 
    1.0000000010722342E-06 
    9.9999999999999995E-07 
    9.8641741921292425E-01 
    9.7454704889954613E-01 
    9.5191746299155955E-01 
    9.1500488531807822E-01 
    8.6497247271388422E-01 
    8.1193764320768169E-01 
    7.5986794258027146E-01 
    7.0869964867703139E-01 
    6.5839033703284244E-01 
    6.0979620798705092E-01 
    5.6233967618630942E-01 
    4.8131951972536641E-01 
    2.0093119105373297E-01 
    3.1530756101405376E-04 
    1.0105435043319896E-06 
    1.0000000001487423E-06 
    9.6144115345635850E-01 
    9.5182129687928663E-01 
    9.3025855474192920E-01 
    9.0047397760874426E-01 
    8.6081923674473104E-01 
    8.1626112270264362E-01 
    7.6993515718701266E-01 
    7.2252134824561853E-01 
    6.7445355967542620E-01 
    6.2670061245689457E-01 
    5.7986851302889686E-01 
    5.1778331492399521E-01 
    3.3187216481312010E-01 
    2.0374477754107223E-02 
    1.8071171138334542E-05 
    1.0000110978473329E-06 
    9.1719905780214772E-01 
    9.1478572696543559E-01 
    9.0038389634350091E-01 
    8.7679297399862599E-01 
    8.4664116088711494E-01 
    8.1153080720076354E-01 
    7.7284551483792163E-01 
    7.3122127598289199E-01 
    6.8730693554091848E-01 
    6.4196230496508666E-01 
    5.9590706068835753E-01 
    5.4181053760921127E-01 
    4.2846646508284014E-01 
    9.6669300599182342E-02 
    2.0532113711014334E-04 
    1.0064623829133628E-06 
    8.6002342229670381E-01 
    8.6469294692643006E-01 
    8.6066355442084808E-01 
    8.4654160270940015E-01 
    8.2565106510710984E-01 
    7.9954611345521354E-01 
    7.6883932247647424E-01 
    7.3409830892104166E-01 
    6.9583508980907771E-01 
    6.5464651594507495E-01 
    6.1086744000654725E-01 
    5.6352849569193486E-01 
    4.7528305458508641E-01 
    1.9432543983460152E-01 
    2.2335901077448102E-03 
    1.1445832002453076E-06 
    8.0292970286623833E-01 
    8.1168025966276691E-01 
    8.1607080738282800E-01 
    8.1129760907039727E-01 
    7.9938487005081893E-01 
    7.8166884599094577E-01 
    7.5883983338779393E-01 
    7.3145684512938702E-01 
    6.9970430013053453E-01 
    6.6373706839249946E-01 
    6.2358773043441795E-01 
    5.7940327135166780E-01 
    5.1227813208822182E-01 
    3.1132930332485498E-01 
    1.8083724903385830E-02 
    1.5057094618808944E-05 
    7.4862606395941256E-01 
    7.5956866388587752E-01 
    7.6982802449646615E-01 
    7.7263300197657858E-01 
    7.6854854946011564E-01 
    7.5868180455901824E-01 
    7.4364571854252370E-01 
    7.2378501408123963E-01 
    6.9904987534295793E-01 
    6.6910353316568161E-01 
    6.3362477721388566E-01 
    5.9286116966348235E-01 
    5.4027772271570440E-01 
    4.0255006296321100E-01 
    6.6301020843273564E-02 
    8.6690245501275882E-05 
    6.9594011108112719E-01 
    7.0827079184045294E-01 
    7.2242994040917108E-01 
    7.3111369289478512E-01 
    7.3380133460631558E-01 
    7.3114703445922558E-01 
    7.2363465103096447E-01 
    7.1135027535077577E-01 
    6.9399886155474977E-01 
    6.7094987139244067E-01 
    6.4137998285381603E-01 
    6.0496403182984881E-01 
    5.5892946310024916E-01 
    4.4921488823718342E-01 
    1.2814930498287935E-01 
    2.8005067673310630E-04 
    6.4485530231739552E-01 
    6.5776508467193107E-01 
    6.7424288200048266E-01 
    6.8716450772951221E-01 
    6.9562989602142622E-01 
    6.9939514536795866E-01 
    6.9878183359763635E-01 
    6.9384229868763381E-01 
    6.8417941190219733E-01 
    6.6883282935935762E-01 
    6.4653218274993896E-01 
    6.1583503868802991E-01 
    5.7597117098057549E-01 
    4.9144922756002463E-01 
    2.1460420269071223E-01 
    3.2553769674778209E-03 
    5.9618985414437631E-01 
    6.0897969333361213E-01 
    6.2638247888014509E-01 
    6.4161619391191749E-01 
    6.5433378572748979E-01 
    6.6349957272133142E-01 
    6.6889228210090979E-01 
    6.7071619627594192E-01 
    6.6865908739952662E-01 
    6.6161554361790864E-01 
    6.4778457428814917E-01 
    6.2484053677327200E-01 
    5.9114990570517667E-01 
    5.2766944785729308E-01 
    3.2949342578061108E-01 
    2.3064007088361687E-02 
    5.4681459834743040E-01 
    5.6143521391097995E-01 
    5.7965662149508512E-01 
    5.9558812079720624E-01 
    6.1032356931523668E-01 
    6.2320187380119219E-01 
    6.3349909519694581E-01 
    6.4123871623155382E-01 
    6.4624874528528031E-01 
    6.4757892046325061E-01 
    6.4318606254765598E-01 
    6.3009953270901908E-01 
    6.0482275010359299E-01 
    5.5640197906383693E-01 
    4.0411286522933926E-01 
    9.4369528372798411E-02 
    4.4428208500141941E-01 
    4.8131020599880653E-01 
    5.1854414674110783E-01 
    5.4218902440757499E-01 
    5.6315042424976403E-01 
    5.7874265193181584E-01 
    5.9249299695268298E-01 
    6.0487671769964890E-01 
    6.1566363446663608E-01 
    6.2453866967203031E-01 
    6.2986340948061925E-01 
    6.2842119768821103E-01 
    6.1509430259057118E-01 
    5.8105305299139520E-01 
    4.6982132218497424E-01 
    1.9467429748679610E-01 
    8.6949591881816196E-02 
    2.0261925245318940E-01 
    3.3600237664553956E-01 
    4.3062341152642009E-01 
    4.7581219535397901E-01 
    5.1148961902390677E-01 
    5.4023280464919465E-01 
    5.5899099857862866E-01 
    5.7606203907137332E-01 
    5.9118472101128583E-01 
    6.0474747502494441E-01 
    6.1492436859715727E-01 
    6.1621816315171796E-01 
    5.9826066176258841E-01 
    5.1999462238485195E-01 
    2.7772710194977512E-01 
    1.0033317935417138E-06 
    3.3713629231742811E-04 
    2.2632570053099904E-02 
    9.8604951307177668E-02 
    1.9505481210980036E-01 
    3.1196311320248926E-01 
    4.0615466148354040E-01 
    4.5176114895081143E-01 
    4.9266804987016205E-01 
    5.2781924268494795E-01 
    5.5708641862906949E-01 
    5.8140688847055277E-01 
    5.9822924614321837E-01 
    5.9904291175065383E-01 
    5.6123952480714978E-01 
    3.6337361692437703E-01 
    1.0000000012646940E-06 
    1.0110867078463707E-06 
    2.2320122532352157E-05 
    1.8898183728185974E-04 
    2.3453008252317330E-03 
    1.9158584443213073E-02 
    7.2337229787529558E-02 
    1.2822555676902780E-01 
    2.1521578474571632E-01 
    3.2840219981077906E-01 
    4.0608847514036223E-01 
    4.7087397772382666E-01 
    5.2073661016637751E-01 
    5.6101799023718257E-01 
    5.7015751156200378E-01 
    4.4094172190487202E-01 
    9.9999999999999995E-07 
    1.0000000001698642E-06 
    1.0000170874584149E-06 
    1.0057496741295280E-06 
    1.1510147889125809E-06 
    1.8197766733626936E-05 
    1.0531663328332627E-04 
    2.0220989450097079E-04 
    4.2603799625263927E-03 
    2.0100374587369720E-02 
    1.0990861474809609E-01 
    1.9409512466688075E-01 
    2.7802304017397650E-01 
    3.6162853554747171E-01 
    4.4078211359345371E-01 
    4.4106378862415596E-01 
