# vtk DataFile Version 2.0
Pressure Field Data 
ASCII 
DATASET UNSTRUCTURED_GRID 

POINTS 289 double 

    0.0000000000000000E+00     0.0000000000000000E+00     0.0000000000000000E+00 
    1.0000000000000000E+00     0.0000000000000000E+00     0.0000000000000000E+00 
    1.0000000000000000E+00     1.0000000000000000E+00     0.0000000000000000E+00 
    0.0000000000000000E+00     1.0000000000000000E+00     0.0000000000000000E+00 
    6.2499999999872928E-02     0.0000000000000000E+00     0.0000000000000000E+00 
    1.2499999999977310E-01     0.0000000000000000E+00     0.0000000000000000E+00 
    1.8749999999959341E-01     0.0000000000000000E+00     0.0000000000000000E+00 
    2.4999999999941089E-01     0.0000000000000000E+00     0.0000000000000000E+00 
    3.1249999999922851E-01     0.0000000000000000E+00     0.0000000000000000E+00 
    3.7499999999904610E-01     0.0000000000000000E+00     0.0000000000000000E+00 
    4.3749999999886358E-01     0.0000000000000000E+00     0.0000000000000000E+00 
    4.9999999999869210E-01     0.0000000000000000E+00     0.0000000000000000E+00 
    5.6249999999884603E-01     0.0000000000000000E+00     0.0000000000000000E+00 
    6.2499999999901090E-01     0.0000000000000000E+00     0.0000000000000000E+00 
    6.8749999999917577E-01     0.0000000000000000E+00     0.0000000000000000E+00 
    7.4999999999934064E-01     0.0000000000000000E+00     0.0000000000000000E+00 
    8.1249999999950551E-01     0.0000000000000000E+00     0.0000000000000000E+00 
    8.7499999999967026E-01     0.0000000000000000E+00     0.0000000000000000E+00 
    9.3749999999983513E-01     0.0000000000000000E+00     0.0000000000000000E+00 
    1.0000000000000000E+00     6.2499999999872928E-02     0.0000000000000000E+00 
    1.0000000000000000E+00     1.2499999999977310E-01     0.0000000000000000E+00 
    1.0000000000000000E+00     1.8749999999959341E-01     0.0000000000000000E+00 
    1.0000000000000000E+00     2.4999999999941089E-01     0.0000000000000000E+00 
    1.0000000000000000E+00     3.1249999999922851E-01     0.0000000000000000E+00 
    1.0000000000000000E+00     3.7499999999904610E-01     0.0000000000000000E+00 
    1.0000000000000000E+00     4.3749999999886358E-01     0.0000000000000000E+00 
    1.0000000000000000E+00     4.9999999999869210E-01     0.0000000000000000E+00 
    1.0000000000000000E+00     5.6249999999884603E-01     0.0000000000000000E+00 
    1.0000000000000000E+00     6.2499999999901090E-01     0.0000000000000000E+00 
    1.0000000000000000E+00     6.8749999999917577E-01     0.0000000000000000E+00 
    1.0000000000000000E+00     7.4999999999934064E-01     0.0000000000000000E+00 
    1.0000000000000000E+00     8.1249999999950551E-01     0.0000000000000000E+00 
    1.0000000000000000E+00     8.7499999999967026E-01     0.0000000000000000E+00 
    1.0000000000000000E+00     9.3749999999983513E-01     0.0000000000000000E+00 
    9.3749999999973976E-01     1.0000000000000000E+00     0.0000000000000000E+00 
    8.7499999999950118E-01     1.0000000000000000E+00     0.0000000000000000E+00 
    8.1249999999991318E-01     1.0000000000000000E+00     0.0000000000000000E+00 
    7.5000000000034706E-01     1.0000000000000000E+00     0.0000000000000000E+00 
    6.8750000000078049E-01     1.0000000000000000E+00     0.0000000000000000E+00 
    6.2500000000121403E-01     1.0000000000000000E+00     0.0000000000000000E+00 
    5.6250000000164757E-01     1.0000000000000000E+00     0.0000000000000000E+00 
    5.0000000000205946E-01     1.0000000000000000E+00     0.0000000000000000E+00 
    4.3750000000182099E-01     1.0000000000000000E+00     0.0000000000000000E+00 
    3.7500000000156092E-01     1.0000000000000000E+00     0.0000000000000000E+00 
    3.1250000000130068E-01     1.0000000000000000E+00     0.0000000000000000E+00 
    2.5000000000104050E-01     1.0000000000000000E+00     0.0000000000000000E+00 
    1.8750000000078040E-01     1.0000000000000000E+00     0.0000000000000000E+00 
    1.2500000000052031E-01     1.0000000000000000E+00     0.0000000000000000E+00 
    6.2500000000260125E-02     1.0000000000000000E+00     0.0000000000000000E+00 
    0.0000000000000000E+00     9.3749999999973976E-01     0.0000000000000000E+00 
    0.0000000000000000E+00     8.7499999999950118E-01     0.0000000000000000E+00 
    0.0000000000000000E+00     8.1249999999991318E-01     0.0000000000000000E+00 
    0.0000000000000000E+00     7.5000000000034706E-01     0.0000000000000000E+00 
    0.0000000000000000E+00     6.8750000000078049E-01     0.0000000000000000E+00 
    0.0000000000000000E+00     6.2500000000121403E-01     0.0000000000000000E+00 
    0.0000000000000000E+00     5.6250000000164757E-01     0.0000000000000000E+00 
    0.0000000000000000E+00     5.0000000000205946E-01     0.0000000000000000E+00 
    0.0000000000000000E+00     4.3750000000182099E-01     0.0000000000000000E+00 
    0.0000000000000000E+00     3.7500000000156092E-01     0.0000000000000000E+00 
    0.0000000000000000E+00     3.1250000000130068E-01     0.0000000000000000E+00 
    0.0000000000000000E+00     2.5000000000104050E-01     0.0000000000000000E+00 
    0.0000000000000000E+00     1.8750000000078040E-01     0.0000000000000000E+00 
    0.0000000000000000E+00     1.2500000000052031E-01     0.0000000000000000E+00 
    0.0000000000000000E+00     6.2500000000260125E-02     0.0000000000000000E+00 
    6.2499999999897131E-02     6.2500000000235922E-02     0.0000000000000000E+00 
    6.2499999999921327E-02     1.2500000000047351E-01     0.0000000000000000E+00 
    6.2499999999945530E-02     1.8750000000070621E-01     0.0000000000000000E+00 
    6.2499999999969733E-02     2.5000000000093858E-01     0.0000000000000000E+00 
    6.2499999999993928E-02     3.1250000000117117E-01     0.0000000000000000E+00 
    6.2500000000018124E-02     3.7500000000140382E-01     0.0000000000000000E+00 
    6.2500000000042327E-02     4.3750000000163619E-01     0.0000000000000000E+00 
    6.2500000000066530E-02     5.0000000000184897E-01     0.0000000000000000E+00 
    6.2500000000090733E-02     5.6250000000147260E-01     0.0000000000000000E+00 
    6.2500000000114922E-02     6.2500000000107636E-01     0.0000000000000000E+00 
    6.2500000000139125E-02     6.8750000000068034E-01     0.0000000000000000E+00 
    6.2500000000163328E-02     7.5000000000028411E-01     0.0000000000000000E+00 
    6.2500000000187531E-02     8.1249999999988787E-01     0.0000000000000000E+00 
    6.2500000000211720E-02     8.7499999999951172E-01     0.0000000000000000E+00 
    6.2500000000235922E-02     9.3749999999974565E-01     0.0000000000000000E+00 
    1.2499999999981980E-01     6.2500000000211733E-02     0.0000000000000000E+00 
    1.2499999999986650E-01     1.2500000000042691E-01     0.0000000000000000E+00 
    1.2499999999991319E-01     1.8750000000063199E-01     0.0000000000000000E+00 
    1.2499999999995989E-01     2.5000000000083678E-01     0.0000000000000000E+00 
    1.2500000000000661E-01     3.1250000000104172E-01     0.0000000000000000E+00 
    1.2500000000005329E-01     3.7500000000124661E-01     0.0000000000000000E+00 
    1.2500000000010000E-01     4.3750000000145117E-01     0.0000000000000000E+00 
    1.2500000000014669E-01     5.0000000000163858E-01     0.0000000000000000E+00 
    1.2500000000019340E-01     5.6250000000129741E-01     0.0000000000000000E+00 
    1.2500000000024011E-01     6.2500000000093847E-01     0.0000000000000000E+00 
    1.2500000000028680E-01     6.8750000000057998E-01     0.0000000000000000E+00 
    1.2500000000033351E-01     7.5000000000022127E-01     0.0000000000000000E+00 
    1.2500000000038020E-01     8.1249999999986211E-01     0.0000000000000000E+00 
    1.2500000000042691E-01     8.7499999999952238E-01     0.0000000000000000E+00 
    1.2500000000047359E-01     9.3749999999975164E-01     0.0000000000000000E+00 
    1.8749999999966760E-01     6.2500000000187531E-02     0.0000000000000000E+00 
    1.8749999999974179E-01     1.2500000000038020E-01     0.0000000000000000E+00 
    1.8749999999981601E-01     1.8750000000055780E-01     0.0000000000000000E+00 
    1.8749999999989009E-01     2.5000000000073502E-01     0.0000000000000000E+00 
    1.8749999999996431E-01     3.1250000000091221E-01     0.0000000000000000E+00 
    1.8750000000003850E-01     3.7500000000108941E-01     0.0000000000000000E+00 
    1.8750000000011269E-01     4.3750000000126649E-01     0.0000000000000000E+00 
    1.8750000000018691E-01     5.0000000000142808E-01     0.0000000000000000E+00 
    1.8750000000026110E-01     5.6250000000112244E-01     0.0000000000000000E+00 
    1.8750000000033529E-01     6.2500000000080080E-01     0.0000000000000000E+00 
    1.8750000000040951E-01     6.8750000000047962E-01     0.0000000000000000E+00 
    1.8750000000048361E-01     7.5000000000015843E-01     0.0000000000000000E+00 
    1.8750000000055780E-01     8.1249999999983680E-01     0.0000000000000000E+00 
    1.8750000000063199E-01     8.7499999999953304E-01     0.0000000000000000E+00 
    1.8750000000070621E-01     9.3749999999975764E-01     0.0000000000000000E+00 
    2.4999999999951281E-01     6.2500000000163314E-02     0.0000000000000000E+00 
    2.4999999999961461E-01     1.2500000000033351E-01     0.0000000000000000E+00 
    2.4999999999971650E-01     1.8750000000048361E-01     0.0000000000000000E+00 
    2.4999999999981831E-01     2.5000000000063310E-01     0.0000000000000000E+00 
    2.4999999999992020E-01     3.1250000000078260E-01     0.0000000000000000E+00 
    2.5000000000002198E-01     3.7500000000093209E-01     0.0000000000000000E+00 
    2.5000000000012390E-01     4.3750000000108180E-01     0.0000000000000000E+00 
    2.5000000000022571E-01     5.0000000000121769E-01     0.0000000000000000E+00 
    2.5000000000032763E-01     5.6250000000094724E-01     0.0000000000000000E+00 
    2.5000000000042938E-01     6.2500000000066314E-01     0.0000000000000000E+00 
    2.5000000000053119E-01     6.8750000000037925E-01     0.0000000000000000E+00 
[...]
CELL_DATA 256 
SCALARS Pressure double 1 
LOOKUP_TABLE default 

    6.6544913779949344E-01 
    6.1577321611875990E-01 
    5.8487489384094304E-01 
    5.6283003723894820E-01 
    5.4547374475907517E-01 
    5.3106667535374363E-01 
    5.1891271679887996E-01 
    5.0870359315779312E-01 
    5.0027345378914678E-01 
    4.9352188814530745E-01 
    4.8837005853071841E-01 
    4.8458896216438985E-01 
    4.8144027529981781E-01 
    4.7918263412233425E-01 
    4.7816883156052542E-01 
    4.7789706373994667E-01 
    6.1577744338333418E-01 
    6.0554594416808927E-01 
    5.8551687655528006E-01 
    5.6624934715884290E-01 
    5.4934751468929321E-01 
    5.3468000581102371E-01 
    5.2201361324706741E-01 
    5.1119939676428261E-01 
    5.0214340855861495E-01 
    4.9478656228502083E-01 
    4.8909180897187149E-01 
    4.8492565185947606E-01 
    4.8167502787477168E-01 
    4.7911199369194668E-01 
    4.7789189587745062E-01 
    4.7762381445317498E-01 
    5.8488062601213808E-01 
    5.8551992737202285E-01 
    5.7626342610706982E-01 
    5.6277104972449110E-01 
    5.4847933914222191E-01 
    5.3481568114174161E-01 
    5.2235931284575865E-01 
    5.1136449170348341E-01 
    5.0195086314300197E-01 
    4.9418130210448319E-01 
    4.8809537047562762E-01 
    4.8366322124235278E-01 
    4.8047211126334977E-01 
    4.7791384774271062E-01 
    4.7666825625399606E-01 
    4.7661541070644792E-01 
    5.6283306300048941E-01 
    5.6625177678481464E-01 
    5.6277197674656199E-01 
    5.5430680643031283E-01 
    5.4327333261091648E-01 
    5.3140504075961370E-01 
    5.1976765276242765E-01 
    5.0899869702285738E-01 
    4.9948495744025745E-01 
    4.9147165026635070E-01 
    4.8511943671808933E-01 
    4.8050787504219999E-01 
    4.7743072390659724E-01 
    4.7514971531506578E-01 
    4.7407401097197432E-01 
    4.7445556210198131E-01 
    5.4547167066116486E-01 
    5.4934610631165837E-01 
    5.4847850949270138E-01 
    5.4327308414538611E-01 
    5.3499384737954947E-01 
    5.2500941758175634E-01 
    5.1444273007089114E-01 
    5.0412915214706511E-01 
    4.9467197015667963E-01 
    4.8650822306594516E-01 
    4.7995050392884886E-01 
    4.7519893508112898E-01 
    4.7222693959173956E-01 
    4.7041148718385339E-01 
    4.6973711713751676E-01 
    4.7074686196917798E-01 
    5.3106001298552741E-01 
    5.3467376022789626E-01 
    5.3481076730459931E-01 
    5.3140236106029404E-01 
    5.2500801563901367E-01 
    5.1653078902665306E-01 
    5.0692448418310077E-01 
    4.9704913449421406E-01 
    4.8763380902010955E-01 
    4.7927943464035433E-01 
    4.7246353946055575E-01 
    4.6753501141949982E-01 
    4.6464686242182668E-01 
    4.6336842828869063E-01 
    4.6327933720525649E-01 
    4.6507146725318144E-01 
    5.1890045561874054E-01 
    5.2200203335245088E-01 
    5.2234900417498775E-01 
    5.1976020650913413E-01 
    5.1443759180347737E-01 
    5.0692119677787839E-01 
    4.9793689961913473E-01 
    4.8826992186679374E-01 
    4.7869480558324284E-01 
    4.6993686744158664E-01 
    4.6264062307294723E-01 
    4.5733126908167077E-01 
    4.5436245376382006E-01 
    4.5356066658022148E-01 
    4.5419336954609324E-01 
    4.5693196953243687E-01 
    5.0868286881995672E-01 
    5.1118061850634045E-01 
    5.1134791621746434E-01 
    5.0898529586848185E-01 
    5.0411827375011398E-01 
    4.9704026814312130E-01 
    4.8826452033713924E-01 
    4.7845550982099050E-01 
    4.6837356746168607E-01 
    4.5882924443421963E-01 
    4.5063395976319859E-01 
    4.4452775878415224E-01 
    4.4109805746817082E-01 
    4.4045965386370967E-01 
    4.4185781514368527E-01 
    4.4579742246497800E-01 
    5.0024304806145703E-01 
    5.0211567098285803E-01 
    5.0192666235036443E-01 
    4.9946489864112281E-01 
    4.9465419204439237E-01 
    4.8761735928788558E-01 
    4.7868164999237511E-01 
    4.6836627040217088E-01 
    4.5736551077758347E-01 
    4.4652839455629489E-01 
    4.3682272136144651E-01 
    4.2925571939773366E-01 
    4.2474676330586997E-01 
    4.2380961038414172E-01 
    4.2586956194512465E-01 
    4.3115237131748935E-01 
    4.9348160401133234E-01 
    4.9474855661966727E-01 
    4.9414710601621320E-01 
    4.9144296253651520E-01 
    4.8648221850813567E-01 
    4.7925395292710943E-01 
    4.6991397076492181E-01 
    4.5881252345485929E-01 
    4.4651934501804680E-01 
    4.3384811882755020E-01 
    4.2187144649356118E-01 
    4.1188686843077593E-01 
    4.0527823531419310E-01 
    4.0317526556281896E-01 
    4.0546396988641836E-01 
    4.1210224406859064E-01 
    4.8831889983160803E-01 
    4.8904160367889737E-01 
    4.8804815612818103E-01 
    4.8507863658492795E-01 
    4.7991334987510820E-01 
    4.7242668494333701E-01 
    4.6260594431200092E-01 
    4.5060550358059337E-01 
    4.3680217160111684E-01 
    4.2186013055162880E-01 
    4.0682720349154822E-01 
    3.9321527265504930E-01 
    3.8296581469702312E-01 
    3.7812698270005241E-01 
    3.7952370349589748E-01 
    3.8701454380139566E-01 
    4.8452860731819197E-01 
    4.8486492436447759E-01 
    4.8360384665117073E-01 
    4.8045470316123257E-01 
    4.7514913659747599E-01 
    4.6748385344213633E-01 
    4.5728229773654733E-01 
    4.4448519570126588E-01 
    4.2922055485005778E-01 
    4.1186089836723794E-01 
    3.9320354733063984E-01 
    3.7471141846584322E-01 
    3.5874751415696349E-01 
    3.4853798506374362E-01 
    3.4681918548114993E-01 
    3.5418136517220244E-01 
    4.8137621931676516E-01 
    4.8161257628573095E-01 
    4.8041111780071549E-01 
    4.7737372283397062E-01 
    4.7217105716336416E-01 
    4.6458435195158565E-01 
    4.5429957512673907E-01 
    4.4104038315190852E-01 
    4.2469492277181609E-01 
    4.0523366812554901E-01 
    3.8294272396891188E-01 
    3.5874745703417882E-01 
    3.3483506421647807E-01 
    3.1529885363960602E-01 
    3.0595619668622731E-01 
    3.1059890974086107E-01 
    4.7911914491793667E-01 
    4.7904950962360843E-01 
    4.7785378920055727E-01 
    4.7509391925935568E-01 
    4.7035700453543355E-01 
    4.6330788596295142E-01 
    4.5349528368639697E-01 
    4.4039641704246291E-01 
    4.2374678970588864E-01 
    4.0311657366097470E-01 
    3.7810219148530871E-01 
    3.4856423441947632E-01 
    3.1533408015216224E-01 
    2.8171675755595565E-01 
    2.5614110346802987E-01 
    2.5063533772048502E-01 
    4.7810583432144937E-01 
    4.7782923909809599E-01 
    4.7660645594949819E-01 
    4.7401364108002841E-01 
    4.6967896631420214E-01 
    4.6321896947822894E-01 
    4.5412826341744422E-01 
    4.4179752510288522E-01 
    4.2580066723457438E-01 
    4.0540939352040095E-01 
    3.7951503792196156E-01 
    3.4688522213152789E-01 
    3.0604939488686633E-01 
    2.5617726907137994E-01 
    2.0067842839745095E-01 
    1.6144700433669146E-01 
    4.7783421976299295E-01 
    4.7756118105486872E-01 
    4.7655338754874610E-01 
    4.7439458149948360E-01 
    4.7068708954365912E-01 
    4.6500978147432992E-01 
    4.5686649815587088E-01 
    4.4573495087132059E-01 
    4.3107880265553972E-01 
    4.1203403367583785E-01 
    3.8701309049887750E-01 
    3.5424934222730881E-01 
    3.1072408151056197E-01 
    2.5069967552237277E-01 
    1.6142204719151318E-01 
    0.0000000000000000E+00 

SCALARS Saturarion double 1 
LOOKUP_TABLE default 

    1.0000000000000000E+00 
    9.8830074103236099E-01 
    9.6654629720122842E-01 
    9.2800715857382687E-01 
    8.7654854358574141E-01 
    8.2300957781601214E-01 
    7.7109473185663480E-01 
    7.2002523448260192E-01 
    6.6903159046340077E-01 
    6.1885778416899340E-01 
    5.7072635651392600E-01 
    5.0124247167326985E-01 
    2.2535391020946016E-01 
    4.8081050934493659E-05 
    1.0000001340957061E-06 
    1.0000000000000029E-06 
    9.8826354265537897E-01 
    9.7798035022119278E-01 
    9.5811462360982069E-01 
    9.2574254770618869E-01 
    8.8081895983263248E-01 
    8.3127691176721763E-01 
    7.8138800659100138E-01 
    7.3171298083112979E-01 
    6.8176972987615403E-01 
    6.3186599484782568E-01 
    5.8356312430509139E-01 
    5.2346568161721097E-01 
    3.4647790850164356E-01 
    1.7257449275669523E-02 
    6.4671388097113374E-06 
    1.0000010669608805E-06 
    9.6641998978603516E-01 
    9.5803632599788635E-01 
    9.3900880851938995E-01 
    9.1264181599438865E-01 
    8.7693778658397492E-01 
    8.3532243252870420E-01 
    7.9109863067987629E-01 
    7.4534404131265031E-01 
    6.9803728135418641E-01 
    6.4955231136085145E-01 
    6.0130509769969953E-01 
    5.4832715887190164E-01 
    4.3505836496968436E-01 
    1.0100998077031399E-01 
    1.9860662402104118E-04 
    1.0047997681867685E-06 
    9.2771159590137120E-01 
    9.2555345652372456E-01 
    9.1255864602534575E-01 
    8.9128657435992509E-01 
    8.6364492340809007E-01 
    8.3065312175497741E-01 
    7.9385958070545859E-01 
    7.5391447004519108E-01 
    7.1097775954032394E-01 
    6.6544664647861540E-01 
    6.1824193098134050E-01 
    5.6939180741538753E-01 
    4.8440527186976767E-01 
    2.0218644163448993E-01 
    1.7677452196534420E-03 
    1.0744219990954762E-06 
    8.7619698544092750E-01 
    8.8057746848960894E-01 
    8.7680145620075622E-01 
    8.6356138021294815E-01 
    8.4381847395482812E-01 
    8.1912552771256519E-01 
    7.9004012564982329E-01 
    7.5680710575986265E-01 
    7.1955009941971770E-01 
    6.7855733977109733E-01 
    6.3404861224432962E-01 
    5.8670364478162540E-01 
    5.2085864792586689E-01 
    3.2472641370283301E-01 
    2.1913522139147042E-02 
    2.2514917609910709E-05 
    8.2266249073452447E-01 
    8.3106470727128057E-01 
    8.3517053466006830E-01 
    8.3046027591082017E-01 
    8.1898704802399347E-01 
    8.0217739708475067E-01 
    7.8054904508624501E-01 
    7.5434291759454919E-01 
    7.2351052385279380E-01 
    6.8797997147930956E-01 
    6.4756021638977668E-01 
    6.0271173842167935E-01 
    5.4854154357853535E-01 
    4.1542992082676966E-01 
    7.9518539484999207E-02 
    1.1457187604977553E-04 
    7.7048148498518620E-01 
    7.8113898059925924E-01 
    7.9102550484211165E-01 
    7.9368567112907418E-01 
    7.8978356943713712E-01 
    7.8040524162658131E-01 
    7.6606823229871368E-01 
    7.4700241418955626E-01 
    7.2303636832296203E-01 
    6.9363836197334683E-01 
    6.5823988092310737E-01 
    6.1669730861947525E-01 
    5.6678800862128953E-01 
    4.5979458861945771E-01 
    1.3538796323979468E-01 
    1.9023334448951937E-04 
    7.1917930282833020E-01 
    7.3135716463881251E-01 
    7.4530135571909906E-01 
    7.5384893204037506E-01 
    7.5655173586435387E-01 
    7.5406004691934436E-01 
    7.4686142880523787E-01 
    7.3504389345790300E-01 
    7.1825950259439419E-01 
    6.9572737260072359E-01 
    6.6639570012907579E-01 
    6.2926584439369015E-01 
    5.8450439304171942E-01 
    5.0027371661646280E-01 
    2.2462001378231738E-01 
    4.6903103607169993E-03 
    6.6816053780954376E-01 
    6.8126756054863402E-01 
    6.9792637971966931E-01 
    7.1091136326624571E-01 
    7.1940114274676736E-01 
    7.2323641104877034E-01 
    7.2278374782164068E-01 
    7.1810857282478857E-01 
    7.0879846054600926E-01 
    6.9383024017538253E-01 
    6.7177910263690754E-01 
    6.4073603037841032E-01 
    6.0058018896693588E-01 
    5.3450735029491692E-01 
    3.3665241961399239E-01 
    1.8871402165909365E-02 
    6.1787243985242524E-01 
    6.3121026817538128E-01 
    6.4936808949362967E-01 
    6.6519880497976114E-01 
    6.7831654003513575E-01 
    6.8778467115722675E-01 
    6.9344289349661514E-01 
    6.9550085319457311E-01 
    6.9366124691094744E-01 
    6.8683469793750085E-01 
    6.7317445102541384E-01 
    6.5015511796936409E-01 
    6.1562180681248180E-01 
    5.6183659435892808E-01 
    4.0535759359871809E-01 
    8.7892845060297625E-02 
    5.6930510148190483E-01 
    5.8263821071294375E-01 
    6.0101516372525654E-01 
    6.1788937305325009E-01 
    6.3352946819291189E-01 
    6.4720176938687102E-01 
    6.5811976458060339E-01 
    6.6625767931725322E-01 
    6.7150499939838171E-01 
    6.7297948438799460E-01 
    6.6867761076259058E-01 
    6.5558995911146956E-01 
    6.2958006373193753E-01 
    5.8594359165339838E-01 
    4.6247078192991947E-01 
    1.5821928160841614E-01 
    4.9935091582281588E-01 
    5.2284494281477745E-01 
    5.4848907624776810E-01 
    5.6944046703848639E-01 
    5.8625823504449437E-01 
    6.0208948200237855E-01 
    6.1638201207914367E-01 
    6.2921118728082992E-01 
    6.4057722473156331E-01 
    6.4987201801807470E-01 
    6.5537431157488724E-01 
    6.5396294742073291E-01 
    6.4027650903834366E-01 
    6.0679950238572400E-01 
    5.0887863845026104E-01 
    2.4164968669197812E-01 
    2.2288993120855369E-01 
    3.4651373095554927E-01 
    4.3696170952387664E-01 
    4.8603854528210105E-01 
    5.2114100038391209E-01 
    5.4841771218537194E-01 
    5.6677682379287631E-01 
    5.8428310718641763E-01 
    6.0044925170374219E-01 
    6.1556690798911784E-01 
    6.2949264181806719E-01 
    6.4011599949523301E-01 
    6.4152505845910612E-01 
    6.2425504784878216E-01 
    5.5576261549012140E-01 
    3.1813337612843634E-01 
    4.2551023605905167E-05 
    1.7791899902359683E-02 
    1.0647778244652750E-01 
    2.0408219407865363E-01 
    3.2584051674064529E-01 
    4.1607898263005200E-01 
    4.6188177309326317E-01 
    5.0111066012886984E-01 
    5.3503280556162780E-01 
    5.6207251219696330E-01 
    5.8701064791211266E-01 
    6.0748186545357785E-01 
    6.2433700003548220E-01 
    6.2532819728960798E-01 
    5.9397206494773569E-01 
    3.9866166610544507E-01 
    1.0000001316123075E-06 
    7.0164916314234168E-06 
    2.1939043615728075E-04 
    1.7181760351122927E-03 
    2.3184208832540052E-02 
    7.9962129133038753E-02 
    1.4398050646458130E-01 
    2.2676247117606513E-01 
    3.3855076814366408E-01 
    4.0643835340336337E-01 
    4.6575786107810058E-01 
    5.1110296636143915E-01 
    5.5570390734229225E-01 
    5.9354985760293277E-01 
    6.0322479450119826E-01 
    4.7462091455152844E-01 
    1.0000000000000029E-06 
    1.0000012624593365E-06 
    1.0061648266494457E-06 
    1.0697013856200467E-06 
    2.6416894358122896E-05 
    1.2462533260610740E-04 
    2.9333745110206175E-04 
    3.2617996345602382E-03 
    2.2474822131798328E-02 
    8.0524097087742760E-02 
    1.7028930115894783E-01 
    2.4233617410380986E-01 
    3.1888851113588007E-01 
    3.9744454530954387E-01 
    4.7447169796083705E-01 
    4.7463025248014928E-01 
