# vtk DataFile Version 2.0
Pressure Field Data 
ASCII 
DATASET UNSTRUCTURED_GRID 

POINTS 289 double 

    0.0000000000000000E+00     0.0000000000000000E+00     0.0000000000000000E+00 
    1.0000000000000000E+00     0.0000000000000000E+00     0.0000000000000000E+00 
    1.0000000000000000E+00     1.0000000000000000E+00     0.0000000000000000E+00 
    0.0000000000000000E+00     1.0000000000000000E+00     0.0000000000000000E+00 
    6.2499999999872928E-02     0.0000000000000000E+00     0.0000000000000000E+00 
    1.2499999999977310E-01     0.0000000000000000E+00     0.0000000000000000E+00 
    1.8749999999959341E-01     0.0000000000000000E+00     0.0000000000000000E+00 
    2.4999999999941089E-01     0.0000000000000000E+00     0.0000000000000000E+00 
    3.1249999999922851E-01     0.0000000000000000E+00     0.0000000000000000E+00 
    3.7499999999904610E-01     0.0000000000000000E+00     0.0000000000000000E+00 
    4.3749999999886358E-01     0.0000000000000000E+00     0.0000000000000000E+00 
    4.9999999999869210E-01     0.0000000000000000E+00     0.0000000000000000E+00 
    5.6249999999884603E-01     0.0000000000000000E+00     0.0000000000000000E+00 
    6.2499999999901090E-01     0.0000000000000000E+00     0.0000000000000000E+00 
    6.8749999999917577E-01     0.0000000000000000E+00     0.0000000000000000E+00 
    7.4999999999934064E-01     0.0000000000000000E+00     0.0000000000000000E+00 
    8.1249999999950551E-01     0.0000000000000000E+00     0.0000000000000000E+00 
    8.7499999999967026E-01     0.0000000000000000E+00     0.0000000000000000E+00 
    9.3749999999983513E-01     0.0000000000000000E+00     0.0000000000000000E+00 
    1.0000000000000000E+00     6.2499999999872928E-02     0.0000000000000000E+00 
    1.0000000000000000E+00     1.2499999999977310E-01     0.0000000000000000E+00 
    1.0000000000000000E+00     1.8749999999959341E-01     0.0000000000000000E+00 
    1.0000000000000000E+00     2.4999999999941089E-01     0.0000000000000000E+00 
    1.0000000000000000E+00     3.1249999999922851E-01     0.0000000000000000E+00 
    1.0000000000000000E+00     3.7499999999904610E-01     0.0000000000000000E+00 
    1.0000000000000000E+00     4.3749999999886358E-01     0.0000000000000000E+00 
    1.0000000000000000E+00     4.9999999999869210E-01     0.0000000000000000E+00 
    1.0000000000000000E+00     5.6249999999884603E-01     0.0000000000000000E+00 
    1.0000000000000000E+00     6.2499999999901090E-01     0.0000000000000000E+00 
    1.0000000000000000E+00     6.8749999999917577E-01     0.0000000000000000E+00 
    1.0000000000000000E+00     7.4999999999934064E-01     0.0000000000000000E+00 
    1.0000000000000000E+00     8.1249999999950551E-01     0.0000000000000000E+00 
    1.0000000000000000E+00     8.7499999999967026E-01     0.0000000000000000E+00 
    1.0000000000000000E+00     9.3749999999983513E-01     0.0000000000000000E+00 
    9.3749999999973976E-01     1.0000000000000000E+00     0.0000000000000000E+00 
    8.7499999999950118E-01     1.0000000000000000E+00     0.0000000000000000E+00 
    8.1249999999991318E-01     1.0000000000000000E+00     0.0000000000000000E+00 
    7.5000000000034706E-01     1.0000000000000000E+00     0.0000000000000000E+00 
    6.8750000000078049E-01     1.0000000000000000E+00     0.0000000000000000E+00 
    6.2500000000121403E-01     1.0000000000000000E+00     0.0000000000000000E+00 
    5.6250000000164757E-01     1.0000000000000000E+00     0.0000000000000000E+00 
    5.0000000000205946E-01     1.0000000000000000E+00     0.0000000000000000E+00 
    4.3750000000182099E-01     1.0000000000000000E+00     0.0000000000000000E+00 
    3.7500000000156092E-01     1.0000000000000000E+00     0.0000000000000000E+00 
    3.1250000000130068E-01     1.0000000000000000E+00     0.0000000000000000E+00 
    2.5000000000104050E-01     1.0000000000000000E+00     0.0000000000000000E+00 
    1.8750000000078040E-01     1.0000000000000000E+00     0.0000000000000000E+00 
    1.2500000000052031E-01     1.0000000000000000E+00     0.0000000000000000E+00 
    6.2500000000260125E-02     1.0000000000000000E+00     0.0000000000000000E+00 
    0.0000000000000000E+00     9.3749999999973976E-01     0.0000000000000000E+00 
    0.0000000000000000E+00     8.7499999999950118E-01     0.0000000000000000E+00 
    0.0000000000000000E+00     8.1249999999991318E-01     0.0000000000000000E+00 
    0.0000000000000000E+00     7.5000000000034706E-01     0.0000000000000000E+00 
    0.0000000000000000E+00     6.8750000000078049E-01     0.0000000000000000E+00 
    0.0000000000000000E+00     6.2500000000121403E-01     0.0000000000000000E+00 
    0.0000000000000000E+00     5.6250000000164757E-01     0.0000000000000000E+00 
    0.0000000000000000E+00     5.0000000000205946E-01     0.0000000000000000E+00 
    0.0000000000000000E+00     4.3750000000182099E-01     0.0000000000000000E+00 
    0.0000000000000000E+00     3.7500000000156092E-01     0.0000000000000000E+00 
    0.0000000000000000E+00     3.1250000000130068E-01     0.0000000000000000E+00 
    0.0000000000000000E+00     2.5000000000104050E-01     0.0000000000000000E+00 
    0.0000000000000000E+00     1.8750000000078040E-01     0.0000000000000000E+00 
    0.0000000000000000E+00     1.2500000000052031E-01     0.0000000000000000E+00 
    0.0000000000000000E+00     6.2500000000260125E-02     0.0000000000000000E+00 
    6.2499999999897131E-02     6.2500000000235922E-02     0.0000000000000000E+00 
    6.2499999999921327E-02     1.2500000000047351E-01     0.0000000000000000E+00 
    6.2499999999945530E-02     1.8750000000070621E-01     0.0000000000000000E+00 
    6.2499999999969733E-02     2.5000000000093858E-01     0.0000000000000000E+00 
    6.2499999999993928E-02     3.1250000000117117E-01     0.0000000000000000E+00 
    6.2500000000018124E-02     3.7500000000140382E-01     0.0000000000000000E+00 
    6.2500000000042327E-02     4.3750000000163619E-01     0.0000000000000000E+00 
    6.2500000000066530E-02     5.0000000000184897E-01     0.0000000000000000E+00 
    6.2500000000090733E-02     5.6250000000147260E-01     0.0000000000000000E+00 
    6.2500000000114922E-02     6.2500000000107636E-01     0.0000000000000000E+00 
    6.2500000000139125E-02     6.8750000000068034E-01     0.0000000000000000E+00 
    6.2500000000163328E-02     7.5000000000028411E-01     0.0000000000000000E+00 
    6.2500000000187531E-02     8.1249999999988787E-01     0.0000000000000000E+00 
    6.2500000000211720E-02     8.7499999999951172E-01     0.0000000000000000E+00 
    6.2500000000235922E-02     9.3749999999974565E-01     0.0000000000000000E+00 
    1.2499999999981980E-01     6.2500000000211733E-02     0.0000000000000000E+00 
    1.2499999999986650E-01     1.2500000000042691E-01     0.0000000000000000E+00 
    1.2499999999991319E-01     1.8750000000063199E-01     0.0000000000000000E+00 
    1.2499999999995989E-01     2.5000000000083678E-01     0.0000000000000000E+00 
    1.2500000000000661E-01     3.1250000000104172E-01     0.0000000000000000E+00 
    1.2500000000005329E-01     3.7500000000124661E-01     0.0000000000000000E+00 
    1.2500000000010000E-01     4.3750000000145117E-01     0.0000000000000000E+00 
    1.2500000000014669E-01     5.0000000000163858E-01     0.0000000000000000E+00 
    1.2500000000019340E-01     5.6250000000129741E-01     0.0000000000000000E+00 
    1.2500000000024011E-01     6.2500000000093847E-01     0.0000000000000000E+00 
    1.2500000000028680E-01     6.8750000000057998E-01     0.0000000000000000E+00 
    1.2500000000033351E-01     7.5000000000022127E-01     0.0000000000000000E+00 
    1.2500000000038020E-01     8.1249999999986211E-01     0.0000000000000000E+00 
    1.2500000000042691E-01     8.7499999999952238E-01     0.0000000000000000E+00 
    1.2500000000047359E-01     9.3749999999975164E-01     0.0000000000000000E+00 
    1.8749999999966760E-01     6.2500000000187531E-02     0.0000000000000000E+00 
    1.8749999999974179E-01     1.2500000000038020E-01     0.0000000000000000E+00 
    1.8749999999981601E-01     1.8750000000055780E-01     0.0000000000000000E+00 
    1.8749999999989009E-01     2.5000000000073502E-01     0.0000000000000000E+00 
    1.8749999999996431E-01     3.1250000000091221E-01     0.0000000000000000E+00 
    1.8750000000003850E-01     3.7500000000108941E-01     0.0000000000000000E+00 
    1.8750000000011269E-01     4.3750000000126649E-01     0.0000000000000000E+00 
    1.8750000000018691E-01     5.0000000000142808E-01     0.0000000000000000E+00 
    1.8750000000026110E-01     5.6250000000112244E-01     0.0000000000000000E+00 
    1.8750000000033529E-01     6.2500000000080080E-01     0.0000000000000000E+00 
    1.8750000000040951E-01     6.8750000000047962E-01     0.0000000000000000E+00 
    1.8750000000048361E-01     7.5000000000015843E-01     0.0000000000000000E+00 
    1.8750000000055780E-01     8.1249999999983680E-01     0.0000000000000000E+00 
    1.8750000000063199E-01     8.7499999999953304E-01     0.0000000000000000E+00 
    1.8750000000070621E-01     9.3749999999975764E-01     0.0000000000000000E+00 
    2.4999999999951281E-01     6.2500000000163314E-02     0.0000000000000000E+00 
    2.4999999999961461E-01     1.2500000000033351E-01     0.0000000000000000E+00 
    2.4999999999971650E-01     1.8750000000048361E-01     0.0000000000000000E+00 
    2.4999999999981831E-01     2.5000000000063310E-01     0.0000000000000000E+00 
    2.4999999999992020E-01     3.1250000000078260E-01     0.0000000000000000E+00 
    2.5000000000002198E-01     3.7500000000093209E-01     0.0000000000000000E+00 
    2.5000000000012390E-01     4.3750000000108180E-01     0.0000000000000000E+00 
    2.5000000000022571E-01     5.0000000000121769E-01     0.0000000000000000E+00 
    2.5000000000032763E-01     5.6250000000094724E-01     0.0000000000000000E+00 
    2.5000000000042938E-01     6.2500000000066314E-01     0.0000000000000000E+00 
    2.5000000000053119E-01     6.8750000000037925E-01     0.0000000000000000E+00 
[...]
CELL_DATA 256 
SCALARS Pressure double 1 
LOOKUP_TABLE default 

    7.5460449886031344E-01 
    7.0462799821845301E-01 
    6.7317714030020337E-01 
    6.5030036991964513E-01 
    6.3185079759174279E-01 
    6.1622243886110240E-01 
    6.0285168311474957E-01 
    5.9150504859007313E-01 
    5.8208457947817049E-01 
    5.7454370300109714E-01 
    5.6871161721480945E-01 
    5.6379477899886288E-01 
    5.5962887744834433E-01 
    5.5714937755832539E-01 
    5.5601657581294017E-01 
    5.5571143665129552E-01 
    7.0463519256803986E-01 
    6.9431695835582774E-01 
    6.7386733731452442E-01 
    6.5388123063538095E-01 
    6.3597806574512949E-01 
    6.2013738895605874E-01 
    6.0625909579083614E-01 
    5.9427855991447631E-01 
    5.8417805598842165E-01 
    5.7597703918595033E-01 
    5.6961838415283428E-01 
    5.6454407746205237E-01 
    5.6001404743227723E-01 
    5.5706072733451084E-01 
    5.5570630610311067E-01 
    5.5540475481743756E-01 
    6.7318788444546152E-01 
    6.7387303487436390E-01 
    6.6431942390743692E-01 
    6.5021005403287990E-01 
    6.3501424352398150E-01 
    6.2025019178554597E-01 
    6.0661546517483189E-01 
    5.9445116410568544E-01 
    5.8396031487679578E-01 
    5.7529687171992194E-01 
    5.6853412094169287E-01 
    5.6338243584590142E-01 
    5.5888727094851742E-01 
    5.5566231168434133E-01 
    5.5433119591039770E-01 
    5.5427169083380656E-01 
    6.5030929434510709E-01 
    6.5388801916495876E-01 
    6.5021323090534555E-01 
    6.4122439223522576E-01 
    6.2938415131211289E-01 
    6.1650060252029570E-01 
    6.0373430563175279E-01 
    5.9180761180332475E-01 
    5.8119705889045958E-01 
    5.7224542110072196E-01 
    5.6517936883665398E-01 
    5.5994617651643075E-01 
    5.5578257909016349E-01 
    5.5257074800190176E-01 
    5.5144840895958469E-01 
    5.5185418804572961E-01 
    6.3185484801805580E-01 
    6.3598188091582863E-01 
    6.3501735549073035E-01 
    6.2938606398121244E-01 
    6.2039537337598749E-01 
    6.0947735082297916E-01 
    5.9783002983519784E-01 
    5.8637140712842106E-01 
    5.7579972593874018E-01 
    5.6665430037483588E-01 
    5.5933415554316257E-01 
    5.5402112279409010E-01 
    5.5027552264549306E-01 
    5.4738940236313183E-01 
    5.4660050120405634E-01 
    5.4769180259635530E-01 
    6.1622229060492850E-01 
    6.2013682487556132E-01 
    6.2025000041272016E-01 
    6.1650137730828014E-01 
    6.0947755762749278E-01 
    6.0012910218357651E-01 
    5.8947322149708103E-01 
    5.7845124471224973E-01 
    5.6789029827437176E-01 
    5.5849847633957050E-01 
    5.5085407208318304E-01 
    5.4536264596052053E-01 
    5.4192670177829050E-01 
    5.3959189661514417E-01 
    5.3927569351781246E-01 
    5.4129788382431243E-01 
    6.0284601469245602E-01 
    6.0625360037087339E-01 
    6.0661041412689176E-01 
    6.0373106847486735E-01 
    5.9782751964176783E-01 
    5.8947101450208439E-01 
    5.7944036442015434E-01 
    5.6859702351259833E-01 
    5.5781388036473412E-01 
    5.4793116311168777E-01 
    5.3971200143769049E-01 
    5.3377870704598629E-01 
    5.3034719311593914E-01 
    5.2864302157234677E-01 
    5.2901146203815141E-01 
    5.3217999860543252E-01 
    5.9148952271153543E-01 
    5.9426528576175297E-01 
    5.9444002021176290E-01 
    5.9179907037078394E-01 
    5.8636403104558499E-01 
    5.7844434210462170E-01 
    5.6859254806904869E-01 
    5.5753881229349522E-01 
    5.4613873274889624E-01 
    5.3532678815790291E-01 
    5.2605791960684545E-01 
    5.1921893265661889E-01 
    5.1539872059622416E-01 
    5.1416589848282745E-01 
    5.1526722978108463E-01 
    5.1975499366946587E-01 
    5.8205629549849991E-01 
    5.8415321371475570E-01 
    5.8394003801789951E-01 
    5.8118166971512741E-01 
    5.7578607739544641E-01 
    5.6787667181691703E-01 
    5.5780267893938273E-01 
    5.4613270673426839E-01 
    5.3364726039377319E-01 
    5.2132379775438609E-01 
    5.1029692043058428E-01 
    5.0177027334883917E-01 
    4.9681115115243796E-01 
    4.9556794621275091E-01 
    4.9729787159951311E-01 
    5.0321734997517908E-01 
    5.7450242545274177E-01 
    5.7593800430913766E-01 
    5.7526352561266358E-01 
    5.7222058189140046E-01 
    5.6663334931089671E-01 
    5.5847719869428769E-01 
    5.4791172274203470E-01 
    5.3531311387941727E-01 
    5.2131646790468844E-01 
    5.0685769113044510E-01 
    4.9318999568167809E-01 
    4.8184646848653245E-01 
    4.7446608040547195E-01 
    4.7201187245839343E-01 
    4.7394547603437492E-01 
    4.8154355984762481E-01 
    5.6866127284437995E-01 
    5.6956739704762493E-01 
    5.6848791363344187E-01 
    5.6514448637203873E-01 
    5.5930579972939853E-01 
    5.5082473812019572E-01 
    5.3968346696433267E-01 
    5.2603527401043115E-01 
    5.1028012203740436E-01 
    4.9317913342641034E-01 
    4.7595878313533480E-01 
    4.6039206633205770E-01 
    4.4876725705347670E-01 
    4.4321334340173590E-01 
    4.4424000829276816E-01 
    4.5332455487017281E-01 
    5.6374333091955064E-01 
    5.6449173620855742E-01 
    5.6333133061238572E-01 
    5.5990617716093249E-01 
    5.5398816294022712E-01 
    5.4532576948269795E-01 
    5.3374140062224174E-01 
    5.1918856593629270E-01 
    5.0174412522512291E-01 
    4.8182075508878647E-01 
    4.6037545006582220E-01 
    4.3912621185616402E-01 
    4.2083992071485865E-01 
    4.0910967651471658E-01 
    4.0658620623849279E-01 
    4.1584419146743573E-01 
    5.5958111080931849E-01 
    5.5996767851885321E-01 
    5.5884550372412456E-01 
    5.5574854222231918E-01 
    5.5024582338320238E-01 
    5.4188549205942205E-01 
    5.3030377420494912E-01 
    5.1536645846175877E-01 
    4.9678192405661442E-01 
    4.7442550853435894E-01 
    4.4873229872349124E-01 
    4.2082858735911671E-01 
    3.9326201689144719E-01 
    3.7068582381156545E-01 
    3.5924781815501639E-01 
    3.6490964287985617E-01 
    5.5710566352769186E-01 
    5.5701778385850520E-01 
    5.5562294789018629E-01 
    5.5253965608731670E-01 
    5.4736626228590246E-01 
    5.3956192861258712E-01 
    5.2860732200206395E-01 
    5.1414592759673738E-01 
    4.9554867482011117E-01 
    4.7195788348602213E-01 
    4.4315205787195550E-01 
    4.0909903857305530E-01 
    3.7071106052005609E-01 
    3.3175657762321437E-01 
    3.0141370584263222E-01 
    2.9473553111470158E-01 
    5.5597451444513635E-01 
    5.5566493238546977E-01 
    5.5429240122262857E-01 
    5.5141455115232274E-01 
    5.4657258576772050E-01 
    5.3925069579630158E-01 
    5.2898653335887202E-01 
    5.1526084166620345E-01 
    4.9730703085750666E-01 
    4.7394071476953781E-01 
    4.4418824396472434E-01 
    4.0660377587496366E-01 
    3.5934402677969790E-01 
    3.0145979025904607E-01 
    2.3639176492068037E-01 
    1.9008647489046751E-01 
    5.5566978016891322E-01 
    5.5536365797227416E-01 
    5.5423261318626094E-01 
    5.5181885386270868E-01 
    5.4766142672146412E-01 
    5.4127210395501624E-01 
    5.3215764627460083E-01 
    5.1974357005180849E-01 
    5.0323341367129648E-01 
    4.8158426877304567E-01 
    4.5329544158419866E-01 
    4.1579945868242235E-01 
    3.6502971299701747E-01 
    2.9480606469961018E-01 
    1.9003558596244266E-01 
    0.0000000000000000E+00 

SCALARS Saturarion double 1 
LOOKUP_TABLE default 

    1.0000000000000000E+00 
    9.8453460538451210E-01 
    9.5645232929898394E-01 
    9.0667060046971149E-01 
    8.4423307000182213E-01 
    7.8425713424975940E-01 
    7.2860895125035452E-01 
    6.7545606862212360E-01 
    6.2529022982255178E-01 
    5.7828226234828051E-01 
    5.2200178027982957E-01 
    3.4690242068521976E-01 
    7.9693192934426199E-03 
    1.0002851043820804E-06 
    1.0000000000211495E-06 
    9.9999999999999995E-07 
    9.8447764459546550E-01 
    9.7094809353120759E-01 
    9.4548387124424849E-01 
    9.0382479974572272E-01 
    8.4898731207615341E-01 
    7.9312036225052973E-01 
    7.3931678555235814E-01 
    6.8721213566157846E-01 
    6.3741570013763027E-01 
    5.9044037928150417E-01 
    5.3936292247640027E-01 
    4.2231765423945627E-01 
    8.0585631135109970E-02 
    9.9133894394231719E-05 
    1.0008418565292976E-06 
    9.9999999999999995E-07 
    9.5626445958510964E-01 
    9.4536883424470175E-01 
    9.2123410742326794E-01 
    8.8789822218746395E-01 
    8.4463563221485904E-01 
    7.9769837377216368E-01 
    7.4958073394311209E-01 
    7.0097145397664096E-01 
    6.5296549381102809E-01 
    6.0649924834751168E-01 
    5.5847408923647113E-01 
    4.7539630926873844E-01 
    2.0007673500992124E-01 
    9.3852209261586377E-04 
    1.0484550300633760E-06 
    1.0000000028699464E-06 
    9.0625350972067564E-01 
    9.0357691640300042E-01 
    8.8780266120440143E-01 
    8.6205887326448649E-01 
    8.2981953046753554E-01 
    7.9288728836713107E-01 
    7.5247467516933897E-01 
    7.0959951825788814E-01 
    6.6541887945568545E-01 
    6.2076422097504924E-01 
    5.7515862630292025E-01 
    5.1204248144867770E-01 
    3.2339198581134343E-01 
    2.1946099906864528E-02 
    2.7438618608155058E-05 
    1.0000315305605621E-06 
    8.4375663843617055E-01 
    8.4866524355654993E-01 
    8.4445406561952296E-01 
    8.2970049438428173E-01 
    8.0785182075136641E-01 
    7.8036195805070718E-01 
    7.4818318046253651E-01 
    7.1233556533203068E-01 
    6.7361095561058437E-01 
    6.3264441745579014E-01 
    5.8949018961857569E-01 
    5.3685400110711623E-01 
    4.2237506444222039E-01 
    1.0203117405069963E-01 
    2.8489953808462083E-04 
    1.0159112284940571E-06 
    7.8378753672523038E-01 
    7.9281362364706220E-01 
    7.9746531628283479E-01 
    7.9261582543729425E-01 
    7.8018212079229110E-01 
    7.6155479368287038E-01 
    7.3770925247731067E-01 
    7.0944608821572608E-01 
    6.7714189111180789E-01 
    6.4112260232874363E-01 
    6.0154646076495000E-01 
    5.5704004820616382E-01 
    4.6995102750789108E-01 
    1.8861410094148542E-01 
    1.6862618368709724E-03 
    1.0858563345575629E-06 
    7.2783356476541616E-01 
    7.3896230608927260E-01 
    7.4943586132833562E-01 
    7.5222580988760113E-01 
    7.4786408946576266E-01 
    7.3754078564303338E-01 
    7.2191538806989775E-01 
    7.0140786422283108E-01 
    6.7614434477004171E-01 
    6.4601595046518501E-01 
    6.1094230138067773E-01 
    5.7121690629949839E-01 
    5.0451139557875391E-01 
    2.9059437353368400E-01 
    1.3780992018950685E-02 
    9.4207081816028454E-06 
    6.7440346860221689E-01 
    6.8669321339355305E-01 
    7.0081163283126102E-01 
    7.0943917241536503E-01 
    7.1200077706186871E-01 
    7.0911870354114026E-01 
    7.0125338329774600E-01 
    6.8852923152137158E-01 
    6.7077120484133801E-01 
    6.4753989381635202E-01 
    6.1821011074427168E-01 
    5.8248315568723452E-01 
    5.3159058521707958E-01 
    3.9224877239106376E-01 
    6.5265224628414484E-02 
    1.2589067445023617E-04 
    6.2414729399872437E-01 
    6.3665793245927427E-01 
    6.5264720955232547E-01 
    6.6520169875245294E-01 
    6.7336268281647527E-01 
    6.7681465243117278E-01 
    6.7587069095601460E-01 
    6.7061141125857349E-01 
    6.6068213584037505E-01 
    6.4521996969609763E-01 
    6.2308912403207362E-01 
    5.9313287840605278E-01 
    5.5135407534303171E-01 
    4.4302811053904029E-01 
    1.2215797172302340E-01 
    2.8490797626327502E-04 
    5.7703253319111081E-01 
    5.8953711073667536E-01 
    6.0612189437555875E-01 
    6.2037699400012869E-01 
    6.3230348608883002E-01 
    6.4087436992381486E-01 
    6.4580224589392732E-01 
    6.4729855585397289E-01 
    6.4503592406293409E-01 
    6.3791517825882782E-01 
    6.2421251236480291E-01 
    6.0187333234578966E-01 
    5.6815368417128953E-01 
    4.8641486833978537E-01 
    2.1294776182701905E-01 
    4.8719827875483620E-03 
    5.2065556792298684E-01 
    5.3880541545985627E-01 
    5.5856812747265505E-01 
    5.7498036375404982E-01 
    5.8896973213977477E-01 
    6.0115437425339791E-01 
    6.1082290302686115E-01 
    6.1806609106951249E-01 
    6.2278320192204395E-01 
    6.2398026007263685E-01 
    6.1959479858927913E-01 
    6.0680814579226960E-01 
    5.8202720261142971E-01 
    5.2384061309992014E-01 
    3.3507445594366009E-01 
    3.0293695634990240E-02 
    3.4499177069404435E-01 
    4.2321954996788375E-01 
    4.7679666032151036E-01 
    5.1270953568818711E-01 
    5.3651761300861556E-01 
    5.5630644903879334E-01 
    5.7098211319231396E-01 
    5.8253768865244482E-01 
    5.9301977892275015E-01 
    6.0156396503961318E-01 
    6.0653988796573621E-01 
    6.0497634851373394E-01 
    5.9203908794988047E-01 
    5.5270743533210409E-01 
    4.1739286717511148E-01 
    1.4868455206933942E-01 
    7.7780639547775565E-03 
    8.2599632103674270E-02 
    2.0497232613708688E-01 
    3.2832079835480926E-01 
    4.2286055963918484E-01 
    4.6951970511141616E-01 
    5.0437049511234355E-01 
    5.3165637352616557E-01 
    5.5141816547015154E-01 
    5.6804046752266757E-01 
    5.8192892631562521E-01 
    5.9192605853614000E-01 
    5.9288942372995557E-01 
    5.7321307525006526E-01 
    4.8109682898011080E-01 
    2.3999069781556628E-01 
    1.0003238545223293E-06 
    1.0310345575571757E-04 
    1.1311110298300880E-03 
    2.2422902373515002E-02 
    1.0149475649669797E-01 
    1.8954891675227833E-01 
    2.9529398925388689E-01 
    3.9360981548114754E-01 
    4.4314416651160798E-01 
    4.8601943199192205E-01 
    5.2423420627450457E-01 
    5.5286891723027498E-01 
    5.7327244898384966E-01 
    5.7395285191541745E-01 
    5.3093473895604026E-01 
    3.3136744655423367E-01 
    1.0000000000238221E-06 
    1.0009354581364635E-06 
    1.0600336545330058E-06 
    2.7793976276011279E-05 
    2.6257165358949201E-04 
    1.8321327309720433E-03 
    1.5337566215227520E-02 
    6.2647088240161131E-02 
    1.2281862220417437E-01 
    2.1202793633045303E-01 
    3.4085369662304188E-01 
    4.2127566066006433E-01 
    4.8221003967047626E-01 
    5.3052717472625410E-01 
    5.4009702817942040E-01 
    4.1140288145219917E-01 
    9.9999999999999995E-07 
    9.9999999999999995E-07 
    1.0000000041930140E-06 
    1.0000329951582259E-06 
    1.0134494841235608E-06 
    1.1029088965703121E-06 
    1.1607208666971522E-05 
    9.4297610317682916E-05 
    3.6717804614794556E-04 
    4.6070076516022988E-03 
    4.1587261400721269E-02 
    1.4505803363304914E-01 
    2.3919525847209866E-01 
    3.2917129133808809E-01 
    4.1140379849126513E-01 
    4.1162562573200273E-01 
