# vtk DataFile Version 2.0
Pressure Field Data 
ASCII 
DATASET UNSTRUCTURED_GRID 

POINTS 289 double 

    0.0000000000000000E+00     0.0000000000000000E+00     0.0000000000000000E+00 
    1.0000000000000000E+00     0.0000000000000000E+00     0.0000000000000000E+00 
    1.0000000000000000E+00     1.0000000000000000E+00     0.0000000000000000E+00 
    0.0000000000000000E+00     1.0000000000000000E+00     0.0000000000000000E+00 
    6.2499999999872928E-02     0.0000000000000000E+00     0.0000000000000000E+00 
    1.2499999999977310E-01     0.0000000000000000E+00     0.0000000000000000E+00 
    1.8749999999959341E-01     0.0000000000000000E+00     0.0000000000000000E+00 
    2.4999999999941089E-01     0.0000000000000000E+00     0.0000000000000000E+00 
    3.1249999999922851E-01     0.0000000000000000E+00     0.0000000000000000E+00 
    3.7499999999904610E-01     0.0000000000000000E+00     0.0000000000000000E+00 
    4.3749999999886358E-01     0.0000000000000000E+00     0.0000000000000000E+00 
    4.9999999999869210E-01     0.0000000000000000E+00     0.0000000000000000E+00 
    5.6249999999884603E-01     0.0000000000000000E+00     0.0000000000000000E+00 
    6.2499999999901090E-01     0.0000000000000000E+00     0.0000000000000000E+00 
    6.8749999999917577E-01     0.0000000000000000E+00     0.0000000000000000E+00 
    7.4999999999934064E-01     0.0000000000000000E+00     0.0000000000000000E+00 
    8.1249999999950551E-01     0.0000000000000000E+00     0.0000000000000000E+00 
    8.7499999999967026E-01     0.0000000000000000E+00     0.0000000000000000E+00 
    9.3749999999983513E-01     0.0000000000000000E+00     0.0000000000000000E+00 
    1.0000000000000000E+00     6.2499999999872928E-02     0.0000000000000000E+00 
    1.0000000000000000E+00     1.2499999999977310E-01     0.0000000000000000E+00 
    1.0000000000000000E+00     1.8749999999959341E-01     0.0000000000000000E+00 
    1.0000000000000000E+00     2.4999999999941089E-01     0.0000000000000000E+00 
    1.0000000000000000E+00     3.1249999999922851E-01     0.0000000000000000E+00 
    1.0000000000000000E+00     3.7499999999904610E-01     0.0000000000000000E+00 
    1.0000000000000000E+00     4.3749999999886358E-01     0.0000000000000000E+00 
    1.0000000000000000E+00     4.9999999999869210E-01     0.0000000000000000E+00 
    1.0000000000000000E+00     5.6249999999884603E-01     0.0000000000000000E+00 
    1.0000000000000000E+00     6.2499999999901090E-01     0.0000000000000000E+00 
    1.0000000000000000E+00     6.8749999999917577E-01     0.0000000000000000E+00 
    1.0000000000000000E+00     7.4999999999934064E-01     0.0000000000000000E+00 
    1.0000000000000000E+00     8.1249999999950551E-01     0.0000000000000000E+00 
    1.0000000000000000E+00     8.7499999999967026E-01     0.0000000000000000E+00 
    1.0000000000000000E+00     9.3749999999983513E-01     0.0000000000000000E+00 
    9.3749999999973976E-01     1.0000000000000000E+00     0.0000000000000000E+00 
    8.7499999999950118E-01     1.0000000000000000E+00     0.0000000000000000E+00 
    8.1249999999991318E-01     1.0000000000000000E+00     0.0000000000000000E+00 
    7.5000000000034706E-01     1.0000000000000000E+00     0.0000000000000000E+00 
    6.8750000000078049E-01     1.0000000000000000E+00     0.0000000000000000E+00 
    6.2500000000121403E-01     1.0000000000000000E+00     0.0000000000000000E+00 
    5.6250000000164757E-01     1.0000000000000000E+00     0.0000000000000000E+00 
    5.0000000000205946E-01     1.0000000000000000E+00     0.0000000000000000E+00 
    4.3750000000182099E-01     1.0000000000000000E+00     0.0000000000000000E+00 
    3.7500000000156092E-01     1.0000000000000000E+00     0.0000000000000000E+00 
    3.1250000000130068E-01     1.0000000000000000E+00     0.0000000000000000E+00 
    2.5000000000104050E-01     1.0000000000000000E+00     0.0000000000000000E+00 
    1.8750000000078040E-01     1.0000000000000000E+00     0.0000000000000000E+00 
    1.2500000000052031E-01     1.0000000000000000E+00     0.0000000000000000E+00 
    6.2500000000260125E-02     1.0000000000000000E+00     0.0000000000000000E+00 
    0.0000000000000000E+00     9.3749999999973976E-01     0.0000000000000000E+00 
    0.0000000000000000E+00     8.7499999999950118E-01     0.0000000000000000E+00 
    0.0000000000000000E+00     8.1249999999991318E-01     0.0000000000000000E+00 
    0.0000000000000000E+00     7.5000000000034706E-01     0.0000000000000000E+00 
    0.0000000000000000E+00     6.8750000000078049E-01     0.0000000000000000E+00 
    0.0000000000000000E+00     6.2500000000121403E-01     0.0000000000000000E+00 
    0.0000000000000000E+00     5.6250000000164757E-01     0.0000000000000000E+00 
    0.0000000000000000E+00     5.0000000000205946E-01     0.0000000000000000E+00 
    0.0000000000000000E+00     4.3750000000182099E-01     0.0000000000000000E+00 
    0.0000000000000000E+00     3.7500000000156092E-01     0.0000000000000000E+00 
    0.0000000000000000E+00     3.1250000000130068E-01     0.0000000000000000E+00 
    0.0000000000000000E+00     2.5000000000104050E-01     0.0000000000000000E+00 
    0.0000000000000000E+00     1.8750000000078040E-01     0.0000000000000000E+00 
    0.0000000000000000E+00     1.2500000000052031E-01     0.0000000000000000E+00 
    0.0000000000000000E+00     6.2500000000260125E-02     0.0000000000000000E+00 
    6.2499999999897131E-02     6.2500000000235922E-02     0.0000000000000000E+00 
    6.2499999999921327E-02     1.2500000000047351E-01     0.0000000000000000E+00 
    6.2499999999945530E-02     1.8750000000070621E-01     0.0000000000000000E+00 
    6.2499999999969733E-02     2.5000000000093858E-01     0.0000000000000000E+00 
    6.2499999999993928E-02     3.1250000000117117E-01     0.0000000000000000E+00 
    6.2500000000018124E-02     3.7500000000140382E-01     0.0000000000000000E+00 
    6.2500000000042327E-02     4.3750000000163619E-01     0.0000000000000000E+00 
    6.2500000000066530E-02     5.0000000000184897E-01     0.0000000000000000E+00 
    6.2500000000090733E-02     5.6250000000147260E-01     0.0000000000000000E+00 
    6.2500000000114922E-02     6.2500000000107636E-01     0.0000000000000000E+00 
    6.2500000000139125E-02     6.8750000000068034E-01     0.0000000000000000E+00 
    6.2500000000163328E-02     7.5000000000028411E-01     0.0000000000000000E+00 
    6.2500000000187531E-02     8.1249999999988787E-01     0.0000000000000000E+00 
    6.2500000000211720E-02     8.7499999999951172E-01     0.0000000000000000E+00 
    6.2500000000235922E-02     9.3749999999974565E-01     0.0000000000000000E+00 
    1.2499999999981980E-01     6.2500000000211733E-02     0.0000000000000000E+00 
    1.2499999999986650E-01     1.2500000000042691E-01     0.0000000000000000E+00 
    1.2499999999991319E-01     1.8750000000063199E-01     0.0000000000000000E+00 
    1.2499999999995989E-01     2.5000000000083678E-01     0.0000000000000000E+00 
    1.2500000000000661E-01     3.1250000000104172E-01     0.0000000000000000E+00 
    1.2500000000005329E-01     3.7500000000124661E-01     0.0000000000000000E+00 
    1.2500000000010000E-01     4.3750000000145117E-01     0.0000000000000000E+00 
    1.2500000000014669E-01     5.0000000000163858E-01     0.0000000000000000E+00 
    1.2500000000019340E-01     5.6250000000129741E-01     0.0000000000000000E+00 
    1.2500000000024011E-01     6.2500000000093847E-01     0.0000000000000000E+00 
    1.2500000000028680E-01     6.8750000000057998E-01     0.0000000000000000E+00 
    1.2500000000033351E-01     7.5000000000022127E-01     0.0000000000000000E+00 
    1.2500000000038020E-01     8.1249999999986211E-01     0.0000000000000000E+00 
    1.2500000000042691E-01     8.7499999999952238E-01     0.0000000000000000E+00 
    1.2500000000047359E-01     9.3749999999975164E-01     0.0000000000000000E+00 
    1.8749999999966760E-01     6.2500000000187531E-02     0.0000000000000000E+00 
    1.8749999999974179E-01     1.2500000000038020E-01     0.0000000000000000E+00 
    1.8749999999981601E-01     1.8750000000055780E-01     0.0000000000000000E+00 
    1.8749999999989009E-01     2.5000000000073502E-01     0.0000000000000000E+00 
    1.8749999999996431E-01     3.1250000000091221E-01     0.0000000000000000E+00 
    1.8750000000003850E-01     3.7500000000108941E-01     0.0000000000000000E+00 
    1.8750000000011269E-01     4.3750000000126649E-01     0.0000000000000000E+00 
    1.8750000000018691E-01     5.0000000000142808E-01     0.0000000000000000E+00 
    1.8750000000026110E-01     5.6250000000112244E-01     0.0000000000000000E+00 
    1.8750000000033529E-01     6.2500000000080080E-01     0.0000000000000000E+00 
    1.8750000000040951E-01     6.8750000000047962E-01     0.0000000000000000E+00 
    1.8750000000048361E-01     7.5000000000015843E-01     0.0000000000000000E+00 
    1.8750000000055780E-01     8.1249999999983680E-01     0.0000000000000000E+00 
    1.8750000000063199E-01     8.7499999999953304E-01     0.0000000000000000E+00 
    1.8750000000070621E-01     9.3749999999975764E-01     0.0000000000000000E+00 
    2.4999999999951281E-01     6.2500000000163314E-02     0.0000000000000000E+00 
    2.4999999999961461E-01     1.2500000000033351E-01     0.0000000000000000E+00 
    2.4999999999971650E-01     1.8750000000048361E-01     0.0000000000000000E+00 
    2.4999999999981831E-01     2.5000000000063310E-01     0.0000000000000000E+00 
    2.4999999999992020E-01     3.1250000000078260E-01     0.0000000000000000E+00 
    2.5000000000002198E-01     3.7500000000093209E-01     0.0000000000000000E+00 
    2.5000000000012390E-01     4.3750000000108180E-01     0.0000000000000000E+00 
    2.5000000000022571E-01     5.0000000000121769E-01     0.0000000000000000E+00 
    2.5000000000032763E-01     5.6250000000094724E-01     0.0000000000000000E+00 
    2.5000000000042938E-01     6.2500000000066314E-01     0.0000000000000000E+00 
    2.5000000000053119E-01     6.8750000000037925E-01     0.0000000000000000E+00 
[...]
CELL_DATA 256 
SCALARS Pressure double 1 
LOOKUP_TABLE default 

    8.4847988490990589E-01 
    7.9817636525967683E-01 
    7.6611988769569861E-01 
    7.4230705530342056E-01 
    7.2263862823375813E-01 
    7.0568780547274224E-01 
    6.9102630361917106E-01 
    6.7850994429519496E-01 
    6.6811089907882004E-01 
    6.5972521662730177E-01 
    6.5272423219033693E-01 
    6.4607832847705260E-01 
    6.4121098912202701E-01 
    6.3853580881263927E-01 
    6.3729250952746752E-01 
    6.3695747631193256E-01 
    7.9818584131642334E-01 
    7.8777625565838860E-01 
    7.6686757314485021E-01 
    7.4607726189863366E-01 
    7.2705783058159834E-01 
    7.0994367993860019E-01 
    6.9477374030011896E-01 
    6.8158432248947820E-01 
    6.7045494690206675E-01 
    6.6141295115260523E-01 
    6.5408002393242937E-01 
    6.4722462203425790E-01 
    6.4163502941992479E-01 
    6.3845274415145981E-01 
    6.3695541427204605E-01 
    6.3662168365063077E-01 
    7.6613359882091892E-01 
    7.6687475883314427E-01 
    7.5699807124909491E-01 
    7.4220718869490110E-01 
    7.2601643392412696E-01 
    7.1006501867892968E-01 
    6.9517408382942947E-01 
    6.8179181961312163E-01 
    6.7023363104259570E-01 
    6.6070379960401926E-01 
    6.5308549939245042E-01 
    6.4638200781309985E-01 
    6.4041148728152608E-01 
    6.3694610891516323E-01 
    6.3545177175738354E-01 
    6.3537788923920446E-01 
    7.4231781684349318E-01 
    7.4608553712025383E-01 
    7.4221097360499233E-01 
    7.3266294731146786E-01 
    7.1995791248240393E-01 
    7.0599201590924343E-01 
    6.9202614622757452E-01 
    6.7889195470784747E-01 
    6.6718545549019481E-01 
    6.5732901379779496E-01 
    6.4948154570580352E-01 
    6.4308159506544027E-01 
    6.3717221945087421E-01 
    6.3353301008973240E-01 
    6.3227490836197620E-01 
    6.3271223778750729E-01 
    7.2264165493110655E-01 
    7.2706124438103892E-01 
    7.2601928930144100E-01 
    7.1995950484048887E-01 
    7.1023196765522745E-01 
    6.9833342493290562E-01 
    6.8554622112327213E-01 
    6.7289644806938564E-01 
    6.6120369156148273E-01 
    6.5110849532557524E-01 
    6.4302881623515373E-01 
    6.3683148439151338E-01 
    6.3136186447043863E-01 
    6.2770200391286568E-01 
    6.2690914091929195E-01 
    6.2810616462155422E-01 
    7.0568336333365855E-01 
    7.0993976174098061E-01 
    7.1006207796786591E-01 
    7.0599056758345524E-01 
    6.9833210928425971E-01 
    6.8808295290219090E-01 
    6.7633353964309095E-01 
    6.6412617187105427E-01 
    6.5240959736040149E-01 
    6.4201249101509450E-01 
    6.3358980276065768E-01 
    6.2736176196037119E-01 
    6.2247076288795411E-01 
    6.1903937621964322E-01 
    6.1884149841961622E-01 
    6.2103049618268868E-01 
    6.9101186331399134E-01 
    6.9476106489464295E-01 
    6.9516287662506426E-01 
    6.9201771650044763E-01 
    6.8553964964411807E-01 
    6.7632903582436621E-01 
    6.6522321951086993E-01 
    6.5317338632091182E-01 
    6.4117305698377736E-01 
    6.3019961020978021E-01 
    6.2113855161649933E-01 
    6.1457218106076283E-01 
    6.1012267903298123E-01 
    6.0708327759292158E-01 
    6.0748574597189242E-01 
    6.1090679387936331E-01 
    6.7847885544286834E-01 
    6.8155775296909182E-01 
    6.8176944451686039E-01 
    6.7887420080365268E-01 
    6.7288173560813203E-01 
    6.6411417993914201E-01 
    6.5316645830869069E-01 
    6.4084621937603359E-01 
    6.2812432354646797E-01 
    6.1607894443506439E-01 
    6.0581497190310829E-01 
    5.9829720489436933E-01 
    5.9374095383494307E-01 
    5.9110094570608507E-01 
    5.9211353138353762E-01 
    5.9705496793482804E-01 
    6.6805972704026662E-01 
    6.7040921416720756E-01 
    6.7019588346885950E-01 
    6.6715661046541441E-01 
    6.6117937315022168E-01 
    6.5238762066147460E-01 
    6.4115636721681279E-01 
    6.2811580452424098E-01 
    6.1415089726850025E-01 
    6.0037930314839572E-01 
    5.8809991071403489E-01 
    5.7866362897623325E-01 
    5.7291346881719973E-01 
    5.7030177993133546E-01 
    5.7190433069335178E-01 
    5.7865676616034090E-01 
    6.5965915490010940E-01 
    6.6134933997388956E-01 
    6.6065019846981921E-01 
    6.5728999351397277E-01 
    6.5107595627824832E-01 
    6.4197986808453644E-01 
    6.3017025576464381E-01 
    6.1605887114380542E-01 
    6.0036877970903157E-01 
    5.8416543056427406E-01 
    5.6887258443101507E-01 
    5.5625312202346722E-01 
    5.4795239764523396E-01 
    5.4434142822650133E-01 
    5.4590037798651880E-01 
    5.5458842348631210E-01 
    6.5265763337528726E-01 
    6.5401106424421496E-01 
    6.5302418222859315E-01 
    6.4943755626665245E-01 
    6.4299291258050573E-01 
    6.3354966332409168E-01 
    6.2109661200536759E-01 
    6.0578153823114844E-01 
    5.8807547997341891E-01 
    5.6885582289244696E-01 
    5.4948723898534513E-01 
    5.3202306747449846E-01 
    5.1902843164891488E-01 
    5.1239819527949948E-01 
    5.1274384666133910E-01 
    5.2317916589007940E-01 
    6.4602059771050779E-01 
    6.4717023317591127E-01 
    6.4633471727411262E-01 
    6.4304536165497783E-01 
    6.3680100603043321E-01 
    6.2731937067292209E-01 
    6.1451990279113111E-01 
    5.9825158111279841E-01 
    5.7862450179785407E-01 
    5.5621143579072196E-01 
    5.3199298569992770E-01 
    5.0791214223378456E-01 
    4.8720225687835328E-01 
    4.7352959986713955E-01 
    4.6977346462054670E-01 
    4.8121206022696450E-01 
    6.4115594108135121E-01 
    6.4158255106237982E-01 
    6.4036639699463749E-01 
    6.3713651786186620E-01 
    6.3132698249486119E-01 
    6.2242377628710832E-01 
    6.1005998696434138E-01 
    5.9368311300063570E-01 
    5.7285754631079844E-01 
    5.4787776283384038E-01 
    5.1895964959031726E-01 
    4.8717070210501306E-01 
    4.5569147070658950E-01 
    4.2957919528910976E-01 
    4.1534790130763471E-01 
    4.2307806040397278E-01 
    6.3848101615854813E-01 
    6.3839874554003273E-01 
    6.3689423535628542E-01 
    6.3348295742223137E-01 
    6.2765335826739688E-01 
    6.1898574428554309E-01 
    6.0701491099413429E-01 
    5.9103326295645342E-01 
    5.7022967869025032E-01 
    5.4424687595148036E-01 
    5.1230229056629950E-01 
    4.7349755763125556E-01 
    4.2959185627726032E-01 
    3.8486616246714073E-01 
    3.4894624985385164E-01 
    3.4180137046404607E-01 
    6.3723771069073243E-01 
    6.3690101100932361E-01 
    6.3539853536887014E-01 
    6.3222277110580716E-01 
    6.2685719763950665E-01 
    6.1878690671222192E-01 
    6.0742370547629820E-01 
    5.9204381867143696E-01 
    5.7182360589253955E-01 
    5.4579353612837522E-01 
    5.1262267931907168E-01 
    4.6975729425005153E-01 
    4.1542575431019557E-01 
    3.4899417984618497E-01 
    2.7332981409556123E-01 
    2.2004519125201527E-01 
    6.3690256108439858E-01 
    6.3656695695814014E-01 
    6.3532405427834637E-01 
    6.3265939618527367E-01 
    6.2805339326646126E-01 
    6.2097565615927852E-01 
    6.1084670785122164E-01 
    5.9698761577513804E-01 
    5.7857854797639341E-01 
    5.5448494368080270E-01 
    5.2304349799612382E-01 
    4.8115349335589697E-01 
    4.2320713737766164E-01 
    3.4188428017954764E-01 
    2.2004742327241336E-01 
    0.0000000000000000E+00 

SCALARS Saturarion double 1 
LOOKUP_TABLE default 

    1.0000000000000000E+00 
    9.8045552063955377E-01 
    9.4571026643351708E-01 
    8.8391956133869809E-01 
    8.1241112345100019E-01 
    7.4847528129647534E-01 
    6.9089145020147602E-01 
    6.3847591201943077E-01 
    5.9106922368383308E-01 
    5.4128554830230258E-01 
    4.3711371174171620E-01 
    8.2139936025242097E-02 
    1.0023944842663010E-06 
    1.0000000011445208E-06 
    9.9999999999999995E-07 
    9.9999999999999995E-07 
    9.8037513553033040E-01 
    9.6336444295738966E-01 
    9.3208024649109600E-01 
    8.8046352482541468E-01 
    8.1753072210422617E-01 
    7.5767228317388080E-01 
    7.0155053499652298E-01 
    6.4961362068332462E-01 
    6.0234438039989402E-01 
    5.5507613719194004E-01 
    4.7299954557335488E-01 
    1.8923726051115242E-01 
    2.0919979940053381E-04 
    1.0096002549299570E-06 
    1.0000000001042697E-06 
    9.9999999999999995E-07 
    9.4545269992269754E-01 
    9.3192629036626495E-01 
    9.0251328440224288E-01 
    8.6202085992132449E-01 
    8.1306441639026539E-01 
    7.6247335080842471E-01 
    7.1163179727463466E-01 
    6.6251895457765231E-01 
    6.1620128530138540E-01 
    5.7025709553690418E-01 
    5.0752336180542734E-01 
    3.2270458736620355E-01 
    1.7844005111312223E-02 
    1.4192544132490011E-05 
    1.0000098554462458E-06 
    9.9999999999999995E-07 
    8.8337024444259094E-01 
    8.8015731080489179E-01 
    8.6190896291371821E-01 
    8.3282998041141654E-01 
    7.9735968663375201E-01 
    7.5711361884746997E-01 
    7.1408707963819174E-01 
    6.7033221995749603E-01 
    6.2689305785514426E-01 
    5.8304988560509996E-01 
    5.3031459659940217E-01 
    4.2044544461754541E-01 
    9.7439950519738430E-02 
    2.6791312232982823E-04 
    1.0155672923961537E-06 
    9.9999999999999995E-07 
    8.1179295312345279E-01 
    8.1710358842120012E-01 
    8.1280896665544489E-01 
    7.9719934567973916E-01 
    7.7339645444012339E-01 
    7.4335256454330823E-01 
    7.0909527385692184E-01 
    6.7220882959061168E-01 
    6.3362643495530180E-01 
    5.9356925155883511E-01 
    5.4947162720160281E-01 
    4.6862820455773802E-01 
    2.0328510462030527E-01 
    2.7322082079005508E-03 
    1.2472311600124457E-06 
    1.0000000252458165E-06 
    7.4787129516106154E-01 
    7.5725272405066157E-01 
    7.6215128877530491E-01 
    7.5677748905589626E-01 
    7.4314497466930773E-01 
    7.2301894737323669E-01 
    6.9769797624313235E-01 
    6.6843005215848383E-01 
    6.3605396030625905E-01 
    6.0091257487437222E-01 
    5.6198380595383124E-01 
    5.0248943157352599E-01 
    3.2357077641619192E-01 
    2.6306537039477260E-02 
    4.3881693343113177E-05 
    1.0001042774658718E-06 
    6.8992506306359691E-01 
    7.0104144869170426E-01 
    7.1137630898782434E-01 
    7.1375792239153590E-01 
    7.0873342012945317E-01 
    6.9751862212875715E-01 
    6.8087517066729897E-01 
    6.5959917931678080E-01 
    6.3430577976412794E-01 
    6.0502898135576733E-01 
    5.7129347789834173E-01 
    5.2382869633073426E-01 
    4.0785933899833093E-01 
    8.8595843410386746E-02 
    1.9602597784029740E-04 
    1.0078033418235992E-06 
    6.3719199756222089E-01 
    6.4886843608448419E-01 
    6.6218791639967090E-01 
    6.7006791871344362E-01 
    6.7182896277052784E-01 
    6.6808719843942521E-01 
    6.5943572999476818E-01 
    6.4620980123450666E-01 
    6.2852670754658080E-01 
    6.0607769195570904E-01 
    5.7792862799613764E-01 
    5.3932699418829211E-01 
    4.5175134239205239E-01 
    1.6592127794357661E-01 
    1.1493084257798447E-03 
    1.0540050480795907E-06 
    5.8969041220169238E-01 
    6.0137266881825302E-01 
    6.1575722155879642E-01 
    6.2661615401608262E-01 
    6.3335604266027246E-01 
    6.3570839563399140E-01 
    6.3399897943188754E-01 
    6.2833475837391273E-01 
    6.1842570292227883E-01 
    6.0347836823515155E-01 
    5.8228315228867245E-01 
    5.5244462377565318E-01 
    4.8816345781658127E-01 
    2.7148008575343963E-01 
    1.9658355865791826E-02 
    2.5086376568665139E-05 
    5.4018279866829821E-01 
    5.5437807747452472E-01 
    5.7015936555355684E-01 
    5.8280056636412614E-01 
    5.9325829205073777E-01 
    6.0066116512962686E-01 
    6.0476551141889678E-01 
    6.0575778370165412E-01 
    6.0322605040974731E-01 
    5.9605674522443253E-01 
    5.8273511971525549E-01 
    5.6122230444877619E-01 
    5.1729063303505429E-01 
    3.8899827514678115E-01 
    7.6777202884975415E-02 
    2.6243408671843601E-04 
    4.3662428678052606E-01 
    4.7355952012182556E-01 
    5.0860437242930623E-01 
    5.3043552427508212E-01 
    5.4892119361781233E-01 
    5.6165485464725085E-01 
    5.7127822611722490E-01 
    5.7783287524035465E-01 
    5.8189837150200319E-01 
    5.8240601241383927E-01 
    5.7746159367062577E-01 
    5.6512218574338646E-01 
    5.3566673099598061E-01 
    4.4325932662933215E-01 
    1.5157510835656141E-01 
    9.7398949916279625E-04 
    8.2726535897030357E-02 
    1.9221520238290762E-01 
    3.2797432692902179E-01 
    4.2245451034901405E-01 
    4.6842686251541360E-01 
    5.0177783032354373E-01 
    5.2358885159481661E-01 
    5.3957206743553099E-01 
    5.5227491250176186E-01 
    5.6072792192799759E-01 
    5.6471744108924993E-01 
    5.6235436537079997E-01 
    5.4726237248529541E-01 
    4.8690821552790997E-01 
    2.6472591052235617E-01 
    3.6934187627978489E-02 
    1.0026591476479994E-06 
    2.3273298521981652E-04 
    2.0283004004059520E-02 
    9.9646198749000894E-02 
    2.0187227711893391E-01 
    3.2009070275984275E-01 
    4.0718598943641371E-01 
    4.5191688243636308E-01 
    4.8801739857735804E-01 
    5.1672264447332450E-01 
    5.3536737504260334E-01 
    5.4708994530680666E-01 
    5.4855628887801922E-01 
    5.1983290896821377E-01 
    3.9978992828430510E-01 
    1.5771096598045875E-01 
    1.0000000012884419E-06 
    1.0107571783428419E-06 
    1.8212028784707099E-05 
    2.3210230150894250E-04 
    2.5057173642756177E-03 
    2.5575458330435539E-02 
    8.9748050840098362E-02 
    1.6492698283893054E-01 
    2.7009726199664658E-01 
    3.8861124510901168E-01 
    4.4472021210731527E-01 
    4.8761319265736131E-01 
    5.2010189875062218E-01 
    5.2334963297848358E-01 
    4.6479568709321933E-01 
    2.6494210626385506E-01 
    9.9999999999999995E-07 
    1.0000000001428652E-06 
    1.0000165986185175E-06 
    1.0121409984344706E-06 
    1.2123671319156728E-06 
    4.3560475822634708E-05 
    2.1823463464879748E-04 
    1.0042022931133088E-03 
    2.0856191365212173E-02 
    7.7092009190054558E-02 
    1.5873389693969631E-01 
    2.6886834375057900E-01 
    4.0046429543034728E-01 
    4.6491781537905053E-01 
    4.7564084996508099E-01 
    3.5130639154923038E-01 
    9.9999999999999995E-07 
    9.9999999999999995E-07 
    9.9999999999999995E-07 
    9.9999999999999995E-07 
    1.0000000218764916E-06 
    1.0001017662784541E-06 
    1.0097039653164519E-06 
    1.0458543932694222E-06 
    2.9741927643846441E-05 
    2.9072654464340329E-04 
    1.4259580928117279E-03 
    3.1993196595524180E-02 
    1.5843948346048911E-01 
    2.6343223797628335E-01 
    3.5127574482491852E-01 
    3.5167823903691936E-01 
