# vtk DataFile Version 2.0
Pressure Field Data 
ASCII 
DATASET UNSTRUCTURED_GRID 

POINTS 289 double 

    0.0000000000000000E+00     0.0000000000000000E+00     0.0000000000000000E+00 
    1.0000000000000000E+00     0.0000000000000000E+00     0.0000000000000000E+00 
    1.0000000000000000E+00     1.0000000000000000E+00     0.0000000000000000E+00 
    0.0000000000000000E+00     1.0000000000000000E+00     0.0000000000000000E+00 
    6.2499999999872928E-02     0.0000000000000000E+00     0.0000000000000000E+00 
    1.2499999999977310E-01     0.0000000000000000E+00     0.0000000000000000E+00 
    1.8749999999959341E-01     0.0000000000000000E+00     0.0000000000000000E+00 
    2.4999999999941089E-01     0.0000000000000000E+00     0.0000000000000000E+00 
    3.1249999999922851E-01     0.0000000000000000E+00     0.0000000000000000E+00 
    3.7499999999904610E-01     0.0000000000000000E+00     0.0000000000000000E+00 
    4.3749999999886358E-01     0.0000000000000000E+00     0.0000000000000000E+00 
    4.9999999999869210E-01     0.0000000000000000E+00     0.0000000000000000E+00 
    5.6249999999884603E-01     0.0000000000000000E+00     0.0000000000000000E+00 
    6.2499999999901090E-01     0.0000000000000000E+00     0.0000000000000000E+00 
    6.8749999999917577E-01     0.0000000000000000E+00     0.0000000000000000E+00 
    7.4999999999934064E-01     0.0000000000000000E+00     0.0000000000000000E+00 
    8.1249999999950551E-01     0.0000000000000000E+00     0.0000000000000000E+00 
    8.7499999999967026E-01     0.0000000000000000E+00     0.0000000000000000E+00 
    9.3749999999983513E-01     0.0000000000000000E+00     0.0000000000000000E+00 
    1.0000000000000000E+00     6.2499999999872928E-02     0.0000000000000000E+00 
    1.0000000000000000E+00     1.2499999999977310E-01     0.0000000000000000E+00 
    1.0000000000000000E+00     1.8749999999959341E-01     0.0000000000000000E+00 
    1.0000000000000000E+00     2.4999999999941089E-01     0.0000000000000000E+00 
    1.0000000000000000E+00     3.1249999999922851E-01     0.0000000000000000E+00 
    1.0000000000000000E+00     3.7499999999904610E-01     0.0000000000000000E+00 
    1.0000000000000000E+00     4.3749999999886358E-01     0.0000000000000000E+00 
    1.0000000000000000E+00     4.9999999999869210E-01     0.0000000000000000E+00 
    1.0000000000000000E+00     5.6249999999884603E-01     0.0000000000000000E+00 
    1.0000000000000000E+00     6.2499999999901090E-01     0.0000000000000000E+00 
    1.0000000000000000E+00     6.8749999999917577E-01     0.0000000000000000E+00 
    1.0000000000000000E+00     7.4999999999934064E-01     0.0000000000000000E+00 
    1.0000000000000000E+00     8.1249999999950551E-01     0.0000000000000000E+00 
    1.0000000000000000E+00     8.7499999999967026E-01     0.0000000000000000E+00 
    1.0000000000000000E+00     9.3749999999983513E-01     0.0000000000000000E+00 
    9.3749999999973976E-01     1.0000000000000000E+00     0.0000000000000000E+00 
    8.7499999999950118E-01     1.0000000000000000E+00     0.0000000000000000E+00 
    8.1249999999991318E-01     1.0000000000000000E+00     0.0000000000000000E+00 
    7.5000000000034706E-01     1.0000000000000000E+00     0.0000000000000000E+00 
    6.8750000000078049E-01     1.0000000000000000E+00     0.0000000000000000E+00 
    6.2500000000121403E-01     1.0000000000000000E+00     0.0000000000000000E+00 
    5.6250000000164757E-01     1.0000000000000000E+00     0.0000000000000000E+00 
    5.0000000000205946E-01     1.0000000000000000E+00     0.0000000000000000E+00 
    4.3750000000182099E-01     1.0000000000000000E+00     0.0000000000000000E+00 
    3.7500000000156092E-01     1.0000000000000000E+00     0.0000000000000000E+00 
    3.1250000000130068E-01     1.0000000000000000E+00     0.0000000000000000E+00 
    2.5000000000104050E-01     1.0000000000000000E+00     0.0000000000000000E+00 
    1.8750000000078040E-01     1.0000000000000000E+00     0.0000000000000000E+00 
    1.2500000000052031E-01     1.0000000000000000E+00     0.0000000000000000E+00 
    6.2500000000260125E-02     1.0000000000000000E+00     0.0000000000000000E+00 
    0.0000000000000000E+00     9.3749999999973976E-01     0.0000000000000000E+00 
    0.0000000000000000E+00     8.7499999999950118E-01     0.0000000000000000E+00 
    0.0000000000000000E+00     8.1249999999991318E-01     0.0000000000000000E+00 
    0.0000000000000000E+00     7.5000000000034706E-01     0.0000000000000000E+00 
    0.0000000000000000E+00     6.8750000000078049E-01     0.0000000000000000E+00 
    0.0000000000000000E+00     6.2500000000121403E-01     0.0000000000000000E+00 
    0.0000000000000000E+00     5.6250000000164757E-01     0.0000000000000000E+00 
    0.0000000000000000E+00     5.0000000000205946E-01     0.0000000000000000E+00 
    0.0000000000000000E+00     4.3750000000182099E-01     0.0000000000000000E+00 
    0.0000000000000000E+00     3.7500000000156092E-01     0.0000000000000000E+00 
    0.0000000000000000E+00     3.1250000000130068E-01     0.0000000000000000E+00 
    0.0000000000000000E+00     2.5000000000104050E-01     0.0000000000000000E+00 
    0.0000000000000000E+00     1.8750000000078040E-01     0.0000000000000000E+00 
    0.0000000000000000E+00     1.2500000000052031E-01     0.0000000000000000E+00 
    0.0000000000000000E+00     6.2500000000260125E-02     0.0000000000000000E+00 
    6.2499999999897131E-02     6.2500000000235922E-02     0.0000000000000000E+00 
    6.2499999999921327E-02     1.2500000000047351E-01     0.0000000000000000E+00 
    6.2499999999945530E-02     1.8750000000070621E-01     0.0000000000000000E+00 
    6.2499999999969733E-02     2.5000000000093858E-01     0.0000000000000000E+00 
    6.2499999999993928E-02     3.1250000000117117E-01     0.0000000000000000E+00 
    6.2500000000018124E-02     3.7500000000140382E-01     0.0000000000000000E+00 
    6.2500000000042327E-02     4.3750000000163619E-01     0.0000000000000000E+00 
    6.2500000000066530E-02     5.0000000000184897E-01     0.0000000000000000E+00 
    6.2500000000090733E-02     5.6250000000147260E-01     0.0000000000000000E+00 
    6.2500000000114922E-02     6.2500000000107636E-01     0.0000000000000000E+00 
    6.2500000000139125E-02     6.8750000000068034E-01     0.0000000000000000E+00 
    6.2500000000163328E-02     7.5000000000028411E-01     0.0000000000000000E+00 
    6.2500000000187531E-02     8.1249999999988787E-01     0.0000000000000000E+00 
    6.2500000000211720E-02     8.7499999999951172E-01     0.0000000000000000E+00 
    6.2500000000235922E-02     9.3749999999974565E-01     0.0000000000000000E+00 
    1.2499999999981980E-01     6.2500000000211733E-02     0.0000000000000000E+00 
    1.2499999999986650E-01     1.2500000000042691E-01     0.0000000000000000E+00 
    1.2499999999991319E-01     1.8750000000063199E-01     0.0000000000000000E+00 
    1.2499999999995989E-01     2.5000000000083678E-01     0.0000000000000000E+00 
    1.2500000000000661E-01     3.1250000000104172E-01     0.0000000000000000E+00 
    1.2500000000005329E-01     3.7500000000124661E-01     0.0000000000000000E+00 
    1.2500000000010000E-01     4.3750000000145117E-01     0.0000000000000000E+00 
    1.2500000000014669E-01     5.0000000000163858E-01     0.0000000000000000E+00 
    1.2500000000019340E-01     5.6250000000129741E-01     0.0000000000000000E+00 
    1.2500000000024011E-01     6.2500000000093847E-01     0.0000000000000000E+00 
    1.2500000000028680E-01     6.8750000000057998E-01     0.0000000000000000E+00 
    1.2500000000033351E-01     7.5000000000022127E-01     0.0000000000000000E+00 
    1.2500000000038020E-01     8.1249999999986211E-01     0.0000000000000000E+00 
    1.2500000000042691E-01     8.7499999999952238E-01     0.0000000000000000E+00 
    1.2500000000047359E-01     9.3749999999975164E-01     0.0000000000000000E+00 
    1.8749999999966760E-01     6.2500000000187531E-02     0.0000000000000000E+00 
    1.8749999999974179E-01     1.2500000000038020E-01     0.0000000000000000E+00 
    1.8749999999981601E-01     1.8750000000055780E-01     0.0000000000000000E+00 
    1.8749999999989009E-01     2.5000000000073502E-01     0.0000000000000000E+00 
    1.8749999999996431E-01     3.1250000000091221E-01     0.0000000000000000E+00 
    1.8750000000003850E-01     3.7500000000108941E-01     0.0000000000000000E+00 
    1.8750000000011269E-01     4.3750000000126649E-01     0.0000000000000000E+00 
    1.8750000000018691E-01     5.0000000000142808E-01     0.0000000000000000E+00 
    1.8750000000026110E-01     5.6250000000112244E-01     0.0000000000000000E+00 
    1.8750000000033529E-01     6.2500000000080080E-01     0.0000000000000000E+00 
    1.8750000000040951E-01     6.8750000000047962E-01     0.0000000000000000E+00 
    1.8750000000048361E-01     7.5000000000015843E-01     0.0000000000000000E+00 
    1.8750000000055780E-01     8.1249999999983680E-01     0.0000000000000000E+00 
    1.8750000000063199E-01     8.7499999999953304E-01     0.0000000000000000E+00 
    1.8750000000070621E-01     9.3749999999975764E-01     0.0000000000000000E+00 
    2.4999999999951281E-01     6.2500000000163314E-02     0.0000000000000000E+00 
    2.4999999999961461E-01     1.2500000000033351E-01     0.0000000000000000E+00 
    2.4999999999971650E-01     1.8750000000048361E-01     0.0000000000000000E+00 
    2.4999999999981831E-01     2.5000000000063310E-01     0.0000000000000000E+00 
    2.4999999999992020E-01     3.1250000000078260E-01     0.0000000000000000E+00 
    2.5000000000002198E-01     3.7500000000093209E-01     0.0000000000000000E+00 
    2.5000000000012390E-01     4.3750000000108180E-01     0.0000000000000000E+00 
    2.5000000000022571E-01     5.0000000000121769E-01     0.0000000000000000E+00 
    2.5000000000032763E-01     5.6250000000094724E-01     0.0000000000000000E+00 
    2.5000000000042938E-01     6.2500000000066314E-01     0.0000000000000000E+00 
    2.5000000000053119E-01     6.8750000000037925E-01     0.0000000000000000E+00 
[...]
CELL_DATA 256 
SCALARS Pressure double 1 
LOOKUP_TABLE default 

    1.0858564294002697E+00 
    1.0329910479487294E+00 
    9.9568954401284016E-01 
    9.6383671800599657E-01 
    9.3451510800090243E-01 
    9.0795900463769907E-01 
    8.8336280607595907E-01 
    8.5661914913812365E-01 
    8.2995955961770906E-01 
    8.1012640290165516E-01 
    7.9560733560306962E-01 
    7.8540691540328433E-01 
    7.7875345247285410E-01 
    7.7489842741728487E-01 
    7.7309811661779093E-01 
    7.7260915923440887E-01 
    1.0330174338481408E+00 
    1.0218917796564126E+00 
    9.9708957310281376E-01 
    9.6946051372224407E-01 
    9.4158697034596328E-01 
    9.1529679519942797E-01 
    8.9077666952910450E-01 
    8.6502669405524513E-01 
    8.3713420988822829E-01 
    8.1509147163673090E-01 
    7.9881489101442538E-01 
    7.8715966995207753E-01 
    7.7939734598576726E-01 
    7.7479720982648481E-01 
    7.7262149326732066E-01 
    7.7212877631069543E-01 
    9.9572001242385577E-01 
    9.9710505453644083E-01 
    9.8472597067972312E-01 
    9.6445989832056156E-01 
    9.4061824367729152E-01 
    9.1624937704582876E-01 
    8.9263114393676568E-01 
    8.6813563851000586E-01 
    8.4012437061229295E-01 
    8.1624260144679983E-01 
    7.9876294704477013E-01 
    7.8609447576919500E-01 
    7.7761598160245060E-01 
    7.7264886780731812E-01 
    7.7047477266983910E-01 
    7.7035643121624275E-01 
    9.6383556084656541E-01 
    9.6946194155249221E-01 
    9.6445698781300127E-01 
    9.5093455966799545E-01 
    9.3203784268549872E-01 
    9.1070089490626205E-01 
    8.8876998811088559E-01 
    8.6573286491502699E-01 
    8.3824762096265282E-01 
    8.1297450008693739E-01 
    7.9478220211220652E-01 
    7.8150587644132019E-01 
    7.7267932251181470E-01 
    7.6770698811035842E-01 
    7.6590337169334577E-01 
    7.6653541480421084E-01 
    9.3445453111280774E-01 
    9.4154314258510696E-01 
    9.4058940347893993E-01 
    9.3202349658548311E-01 
    9.1759531921240400E-01 
    8.9950776641080521E-01 
    8.7956057124781728E-01 
    8.5782574415127377E-01 
    8.3103648996156920E-01 
    8.0499535002001432E-01 
    7.8639488618968989E-01 
    7.7279677882695075E-01 
    7.6391111215900898E-01 
    7.5924630259254444E-01 
    7.5815548882097894E-01 
    7.5990198493646166E-01 
    9.0784885794094106E-01 
    9.1520084606987862E-01 
    9.1617889885357162E-01 
    9.1065872764577482E-01 
    8.9948738427992569E-01 
    8.8408447180828165E-01 
    8.6584300800589986E-01 
    8.4469882259207008E-01 
    8.1839026967548401E-01 
    7.9218841714202848E-01 
    7.7330922733236795E-01 
    7.5949968575049576E-01 
    7.5070456043527611E-01 
    7.4656975015809379E-01 
    7.4648964989898137E-01 
    7.4970213007306785E-01 
    8.8323057837090979E-01 
    8.9064924538713031E-01 
    8.9252726902101487E-01 
    8.8869849324081207E-01 
    8.7951515072490671E-01 
    8.6581834061977736E-01 
    8.4854577437030965E-01 
    8.2680119088057369E-01 
    8.0050524673773649E-01 
    7.7469113819411328E-01 
    7.5545295464579920E-01 
    7.4129920480700162E-01 
    7.3252722197176967E-01 
    7.2899424497470322E-01 
    7.3015053262651519E-01 
    7.3517131596296703E-01 
    8.5651589986678778E-01 
    8.6492573272333240E-01 
    8.6804378816621741E-01 
    8.6565137907328249E-01 
    8.5775305939830204E-01 
    8.4463644019926931E-01 
    8.2676270398573393E-01 
    8.0413846942659717E-01 
    7.7800092067920523E-01 
    7.5310152140135567E-01 
    7.3309090405870025E-01 
    7.1810164034551127E-01 
    7.0894619221238730E-01 
    7.0583271720006835E-01 
    7.0832092715257144E-01 
    7.1547142442618594E-01 
    8.2988191652977839E-01 
    8.3706241169440798E-01 
    8.4006323324309629E-01 
    8.3818344491939922E-01 
    8.3096148834523842E-01 
    8.1831022242802365E-01 
    8.0044131779053151E-01 
    7.7797082478842494E-01 
    7.5273119425012081E-01 
    7.2850192005594627E-01 
    7.0694844946322299E-01 
    6.9015324615935902E-01 
    6.7968973972531477E-01 
    6.7638223060439517E-01 
    6.8006064995410287E-01 
    6.8962954839449619E-01 
    8.1005753732094332E-01 
    8.1501877620604535E-01 
    8.1616677239217672E-01 
    8.1290067056829030E-01 
    8.0492766212681111E-01 
    7.9212647289370486E-01 
    7.7464119313075352E-01 
    7.5307046730117622E-01 
    7.2848776968161710E-01 
    7.0274439099781805E-01 
    6.7842234095783371E-01 
    6.5824553289845256E-01 
    6.4478717628489923E-01 
    6.3993480781292122E-01 
    6.4420140563786332E-01 
    6.5640146508322894E-01 
    7.9554980671466036E-01 
    7.9875161061182065E-01 
    7.9869341417937922E-01 
    7.9471194879612939E-01 
    7.8632938312315703E-01 
    7.7325004085920102E-01 
    7.5540229832879213E-01 
    7.3305284547112637E-01 
    7.0692427829327598E-01 
    6.7841118087173613E-01 
    6.4976018737440511E-01 
    6.2402665765407073E-01 
    6.0487170247277955E-01 
    5.9588161783083604E-01 
    5.9918807563019216E-01 
    6.1401110443200857E-01 
    7.8535862518667610E-01 
    7.8710433295837701E-01 
    7.8603080804039527E-01 
    7.8143954594883858E-01 
    7.7273378130819714E-01 
    7.5944209696303511E-01 
    7.4124823082438829E-01 
    7.1805978132481119E-01 
    6.9012230208810488E-01 
    6.5822589145614241E-01 
    6.2401747622326231E-01 
    5.9037903296227268E-01 
    5.6178158786834953E-01 
    5.4410656379413602E-01 
    5.4289751717405410E-01 
    5.5961803042154945E-01 
    7.7871535548862958E-01 
    7.7935148318711356E-01 
    7.7755963678542395E-01 
    7.7261750757568326E-01 
    7.6385044480807296E-01 
    7.5064796225922648E-01 
    7.3247584680129296E-01 
    7.0890168522236885E-01 
    6.7965391323349944E-01 
    6.4476112446373746E-01 
    6.0485526283543423E-01 
    5.6177395418919562E-01 
    5.1963225448764538E-01 
    4.8617661091947317E-01 
    4.7270524316421386E-01 
    4.8819574746698613E-01 
    7.7487135533503682E-01 
    7.7476248648203372E-01 
    7.7260091063044445E-01 
    7.6764925669527651E-01 
    7.5918674909070205E-01 
    7.4651313407841424E-01 
    7.2894185958317648E-01 
    7.0578575376802544E-01 
    6.7634253363041230E-01 
    6.3990387345669519E-01 
    5.9585950859539782E-01 
    5.4409266728639949E-01 
    4.8617006393524120E-01 
    4.2832742090440667E-01 
    3.8702526174867691E-01 
    3.8994077890567930E-01 
    7.7308114031678343E-01 
    7.7259875032388092E-01 
    7.7043635754773421E-01 
    7.6584947496233446E-01 
    7.5809585260896850E-01 
    7.4643212330959563E-01 
    7.3009652646384515E-01 
    7.0827142363653861E-01 
    6.8001760723597715E-01 
    6.4416660799044301E-01 
    5.9916146504036227E-01 
    5.4287849980347491E-01 
    4.7269321479324738E-01 
    3.8701970822251064E-01 
    2.9343754196796906E-01 
    2.4379768218432307E-01 
    7.7259843586788191E-01 
    7.7211584678178957E-01 
    7.7032638433154776E-01 
    7.6648411820452012E-01 
    7.5984097888856772E-01 
    7.4964310020323177E-01 
    7.3511500318955902E-01 
    7.1541903170819188E-01 
    6.8958316473928127E-01 
    6.5636324364110521E-01 
    6.1398060914595332E-01 
    5.5959469491593439E-01 
    4.8817919420872918E-01 
    3.8993080089382598E-01 
    2.4379352717261982E-01 
    0.0000000000000000E+00 

SCALARS Saturarion double 1 
LOOKUP_TABLE default 

    9.9999999999982214E-01 
    9.5003207624284736E-01 
    8.6253110767503549E-01 
    7.4033711518625789E-01 
    6.5682364721320008E-01 
    5.9583272881914462E-01 
    5.2332342387452346E-01 
    3.0710261693755098E-01 
    3.6927939967887229E-03 
    1.0000100565837506E-06 
    1.0000000000014562E-06 
    9.9999999999999995E-07 
    9.9999999999999995E-07 
    9.9999999999999995E-07 
    9.9999999999999995E-07 
    9.9999999999999995E-07 
    9.4976264482543804E-01 
    9.0788369920497147E-01 
    8.3314295195541943E-01 
    7.3644371277647336E-01 
    6.6042995257122372E-01 
    6.0097697679229500E-01 
    5.3274343143769864E-01 
    3.7915097689463650E-01 
    3.2170905064919833E-02 
    1.2082018766854612E-05 
    1.0000124066978913E-06 
    9.9999999999999995E-07 
    9.9999999999999995E-07 
    9.9999999999999995E-07 
    9.9999999999999995E-07 
    9.9999999999999995E-07 
    8.6169526381881612E-01 
    8.3272114809500908E-01 
    7.7637993088236468E-01 
    7.1071341269631272E-01 
    6.5023969696815220E-01 
    5.9882093590380081E-01 
    5.4112953989948498E-01 
    4.3044942605750647E-01 
    9.5970982216754833E-02 
    6.8236646249733620E-05 
    1.0003253072474141E-06 
    1.0000000000323329E-06 
    9.9999999999999995E-07 
    9.9999999999999995E-07 
    9.9999999999999995E-07 
    9.9999999999999995E-07 
    7.3877511982175292E-01 
    7.3549452481095234E-01 
    7.1037014172719715E-01 
    6.7075946806964981E-01 
    6.2837594766281557E-01 
    5.8955602919473393E-01 
    5.4292842446159284E-01 
    4.5621514339280878E-01 
    1.5556369062513264E-01 
    3.4192672955930111E-05 
    1.0000649643952592E-06 
    1.0000000000365799E-06 
    9.9999999999999995E-07 
    9.9999999999999995E-07 
    9.9999999999999995E-07 
    9.9999999999999995E-07 
    6.5521222817764746E-01 
    6.5923797777855531E-01 
    6.4961512461173199E-01 
    6.2811746685157188E-01 
    6.0240503414571434E-01 
    5.7319176915450742E-01 
    5.3577258553511653E-01 
    4.6467371914321209E-01 
    1.9287423400641443E-01 
    8.3492462776987690E-05 
    1.0001206951892350E-06 
    1.0000000000049212E-06 
    9.9999999999999995E-07 
    9.9999999999999995E-07 
    9.9999999999999995E-07 
    9.9999999999999995E-07 
    5.9456353181020150E-01 
    6.0014320000449362E-01 
    5.9811896062163339E-01 
    5.8891995216424653E-01 
    5.7282758408313605E-01 
    5.4926744427550678E-01 
    5.1868777549705036E-01 
    4.5637511074490367E-01 
    1.8827613581378785E-01 
    9.6198379996746935E-05 
    1.0005534331095505E-06 
    1.0000000003928432E-06 
    9.9999999999999995E-07 
    9.9999999999999995E-07 
    9.9999999999999995E-07 
    9.9999999999999995E-07 
    5.2216360981282728E-01 
    5.3275236972398687E-01 
    5.4103044047890292E-01 
    5.4242336582160844E-01 
    5.3522934636957575E-01 
    5.1839515621540377E-01 
    4.9116955860923345E-01 
    4.2163209443512051E-01 
    1.2984897801026027E-01 
    1.2343954577616106E-04 
    1.0022261888723008E-06 
    1.0000000003579449E-06 
    9.9999999999999995E-07 
    9.9999999999999995E-07 
    9.9999999999999995E-07 
    9.9999999999999995E-07 
    3.0693908404305992E-01 
    3.8114364783696847E-01 
    4.3182112394513594E-01 
    4.5638284276988395E-01 
    4.6389685499677519E-01 
    4.5542002919986652E-01 
    4.2108379043044974E-01 
    2.9235800838052872E-01 
    2.8496383652111126E-02 
    3.3932090576212851E-05 
    1.0000754281116582E-06 
    1.0000000000000021E-06 
    9.9999999999999995E-07 
    9.9999999999999995E-07 
    9.9999999999999995E-07 
    9.9999999999999995E-07 
    3.7589913327495715E-03 
    3.4015221854352448E-02 
    9.8355012215906507E-02 
    1.5623979379173822E-01 
    1.9105070101196572E-01 
    1.8571556301976203E-01 
    1.2840706150411985E-01 
    2.8165463399088108E-02 
    1.1106902196891306E-04 
    1.0007703482778006E-06 
    1.0000000000400487E-06 
    9.9999999999999995E-07 
    9.9999999999999995E-07 
    9.9999999999999995E-07 
    9.9999999999999995E-07 
    9.9999999999999995E-07 
    1.0000130140115228E-06 
    1.3696213811693637E-05 
    6.7765798303388874E-05 
    2.9718310450647116E-05 
    7.2209019275769822E-05 
    8.5282840992051444E-05 
    1.2110830830854800E-04 
    3.3165206669829367E-05 
    1.0007450896424453E-06 
    1.0000000001319531E-06 
    9.9999999999999995E-07 
    9.9999999999999995E-07 
    9.9999999999999995E-07 
    9.9999999999999995E-07 
    9.9999999999999995E-07 
    9.9999999999999995E-07 
    1.0000000000018639E-06 
    1.0000162414249824E-06 
    1.0003249462384746E-06 
    1.0000439519995408E-06 
    1.0000967942920804E-06 
    1.0004863358679302E-06 
    1.0020972089222113E-06 
    1.0000720308197010E-06 
    1.0000000000385927E-06 
    9.9999999999999995E-07 
    9.9999999999999995E-07 
    9.9999999999999995E-07 
    9.9999999999999995E-07 
    9.9999999999999995E-07 
    9.9999999999999995E-07 
    9.9999999999999995E-07 
    9.9999999999999995E-07 
    9.9999999999999995E-07 
    1.0000000000324496E-06 
    1.0000000000227055E-06 
    1.0000000000053625E-06 
    1.0000000003509755E-06 
    1.0000000003426133E-06 
    1.0000000000000021E-06 
    9.9999999999999995E-07 
    9.9999999999999995E-07 
    9.9999999999999995E-07 
    9.9999999999999995E-07 
    9.9999999999999995E-07 
    9.9999999999999995E-07 
    9.9999999999999995E-07 
    9.9999999999999995E-07 
    9.9999999999999995E-07 
    9.9999999999999995E-07 
    9.9999999999999995E-07 
    9.9999999999999995E-07 
    9.9999999999999995E-07 
    9.9999999999999974E-07 
    9.9999999999999995E-07 
    9.9999999999999995E-07 
    9.9999999999999995E-07 
    9.9999999999999995E-07 
    9.9999999999999995E-07 
    9.9999999999999995E-07 
    9.9999999999999995E-07 
    9.9999999999999995E-07 
    9.9999999999999995E-07 
    9.9999999999999995E-07 
    9.9999999999999995E-07 
    9.9999999999999995E-07 
    9.9999999999999995E-07 
    9.9999999999999995E-07 
    9.9999999999999995E-07 
    9.9999999999999995E-07 
    9.9999999999999995E-07 
    9.9999999999999995E-07 
    9.9999999999999995E-07 
    9.9999999999999995E-07 
    9.9999999999999995E-07 
    9.9999999999999995E-07 
    9.9999999999999995E-07 
    9.9999999999999995E-07 
    9.9999999999999995E-07 
    9.9999999999999995E-07 
    9.9999999999999995E-07 
    9.9999999999999995E-07 
    9.9999999999999995E-07 
    9.9999999999999995E-07 
    9.9999999999999995E-07 
    9.9999999999999995E-07 
    9.9999999999999995E-07 
    9.9999999999999995E-07 
    9.9999999999999995E-07 
    9.9999999999999995E-07 
    9.9999999999999995E-07 
    9.9999999999999995E-07 
    9.9999999999999995E-07 
    9.9999999999999995E-07 
    9.9999999999999995E-07 
    9.9999999999999995E-07 
    9.9999999999999995E-07 
    9.9999999999999995E-07 
    9.9999999999999995E-07 
    9.9999999999999995E-07 
    9.9999999999999995E-07 
    9.9999999999999995E-07 
    9.9999999999999995E-07 
    9.9999999999999995E-07 
    9.9999999999999995E-07 
    9.9999999999999995E-07 
    9.9999999999999995E-07 
    9.9999999999999995E-07 
    9.9999999999999995E-07 
    9.9999999999999995E-07 
    9.9999999999999995E-07 
    1.0000001907673449E-06 
