# vtk DataFile Version 2.0
Pressure Field Data 
ASCII 
DATASET UNSTRUCTURED_GRID 

POINTS 289 double 

    0.0000000000000000E+00     0.0000000000000000E+00     0.0000000000000000E+00 
    1.0000000000000000E+00     0.0000000000000000E+00     0.0000000000000000E+00 
    1.0000000000000000E+00     1.0000000000000000E+00     0.0000000000000000E+00 
    0.0000000000000000E+00     1.0000000000000000E+00     0.0000000000000000E+00 
    6.2499999999872928E-02     0.0000000000000000E+00     0.0000000000000000E+00 
    1.2499999999977310E-01     0.0000000000000000E+00     0.0000000000000000E+00 
    1.8749999999959341E-01     0.0000000000000000E+00     0.0000000000000000E+00 
    2.4999999999941089E-01     0.0000000000000000E+00     0.0000000000000000E+00 
    3.1249999999922851E-01     0.0000000000000000E+00     0.0000000000000000E+00 
    3.7499999999904610E-01     0.0000000000000000E+00     0.0000000000000000E+00 
    4.3749999999886358E-01     0.0000000000000000E+00     0.0000000000000000E+00 
    4.9999999999869210E-01     0.0000000000000000E+00     0.0000000000000000E+00 
    5.6249999999884603E-01     0.0000000000000000E+00     0.0000000000000000E+00 
    6.2499999999901090E-01     0.0000000000000000E+00     0.0000000000000000E+00 
    6.8749999999917577E-01     0.0000000000000000E+00     0.0000000000000000E+00 
    7.4999999999934064E-01     0.0000000000000000E+00     0.0000000000000000E+00 
    8.1249999999950551E-01     0.0000000000000000E+00     0.0000000000000000E+00 
    8.7499999999967026E-01     0.0000000000000000E+00     0.0000000000000000E+00 
    9.3749999999983513E-01     0.0000000000000000E+00     0.0000000000000000E+00 
    1.0000000000000000E+00     6.2499999999872928E-02     0.0000000000000000E+00 
    1.0000000000000000E+00     1.2499999999977310E-01     0.0000000000000000E+00 
    1.0000000000000000E+00     1.8749999999959341E-01     0.0000000000000000E+00 
    1.0000000000000000E+00     2.4999999999941089E-01     0.0000000000000000E+00 
    1.0000000000000000E+00     3.1249999999922851E-01     0.0000000000000000E+00 
    1.0000000000000000E+00     3.7499999999904610E-01     0.0000000000000000E+00 
    1.0000000000000000E+00     4.3749999999886358E-01     0.0000000000000000E+00 
    1.0000000000000000E+00     4.9999999999869210E-01     0.0000000000000000E+00 
    1.0000000000000000E+00     5.6249999999884603E-01     0.0000000000000000E+00 
    1.0000000000000000E+00     6.2499999999901090E-01     0.0000000000000000E+00 
    1.0000000000000000E+00     6.8749999999917577E-01     0.0000000000000000E+00 
    1.0000000000000000E+00     7.4999999999934064E-01     0.0000000000000000E+00 
    1.0000000000000000E+00     8.1249999999950551E-01     0.0000000000000000E+00 
    1.0000000000000000E+00     8.7499999999967026E-01     0.0000000000000000E+00 
    1.0000000000000000E+00     9.3749999999983513E-01     0.0000000000000000E+00 
    9.3749999999973976E-01     1.0000000000000000E+00     0.0000000000000000E+00 
    8.7499999999950118E-01     1.0000000000000000E+00     0.0000000000000000E+00 
    8.1249999999991318E-01     1.0000000000000000E+00     0.0000000000000000E+00 
    7.5000000000034706E-01     1.0000000000000000E+00     0.0000000000000000E+00 
    6.8750000000078049E-01     1.0000000000000000E+00     0.0000000000000000E+00 
    6.2500000000121403E-01     1.0000000000000000E+00     0.0000000000000000E+00 
    5.6250000000164757E-01     1.0000000000000000E+00     0.0000000000000000E+00 
    5.0000000000205946E-01     1.0000000000000000E+00     0.0000000000000000E+00 
    4.3750000000182099E-01     1.0000000000000000E+00     0.0000000000000000E+00 
    3.7500000000156092E-01     1.0000000000000000E+00     0.0000000000000000E+00 
    3.1250000000130068E-01     1.0000000000000000E+00     0.0000000000000000E+00 
    2.5000000000104050E-01     1.0000000000000000E+00     0.0000000000000000E+00 
    1.8750000000078040E-01     1.0000000000000000E+00     0.0000000000000000E+00 
    1.2500000000052031E-01     1.0000000000000000E+00     0.0000000000000000E+00 
    6.2500000000260125E-02     1.0000000000000000E+00     0.0000000000000000E+00 
    0.0000000000000000E+00     9.3749999999973976E-01     0.0000000000000000E+00 
    0.0000000000000000E+00     8.7499999999950118E-01     0.0000000000000000E+00 
    0.0000000000000000E+00     8.1249999999991318E-01     0.0000000000000000E+00 
    0.0000000000000000E+00     7.5000000000034706E-01     0.0000000000000000E+00 
    0.0000000000000000E+00     6.8750000000078049E-01     0.0000000000000000E+00 
    0.0000000000000000E+00     6.2500000000121403E-01     0.0000000000000000E+00 
    0.0000000000000000E+00     5.6250000000164757E-01     0.0000000000000000E+00 
    0.0000000000000000E+00     5.0000000000205946E-01     0.0000000000000000E+00 
    0.0000000000000000E+00     4.3750000000182099E-01     0.0000000000000000E+00 
    0.0000000000000000E+00     3.7500000000156092E-01     0.0000000000000000E+00 
    0.0000000000000000E+00     3.1250000000130068E-01     0.0000000000000000E+00 
    0.0000000000000000E+00     2.5000000000104050E-01     0.0000000000000000E+00 
    0.0000000000000000E+00     1.8750000000078040E-01     0.0000000000000000E+00 
    0.0000000000000000E+00     1.2500000000052031E-01     0.0000000000000000E+00 
    0.0000000000000000E+00     6.2500000000260125E-02     0.0000000000000000E+00 
    6.2499999999897131E-02     6.2500000000235922E-02     0.0000000000000000E+00 
    6.2499999999921327E-02     1.2500000000047351E-01     0.0000000000000000E+00 
    6.2499999999945530E-02     1.8750000000070621E-01     0.0000000000000000E+00 
    6.2499999999969733E-02     2.5000000000093858E-01     0.0000000000000000E+00 
    6.2499999999993928E-02     3.1250000000117117E-01     0.0000000000000000E+00 
    6.2500000000018124E-02     3.7500000000140382E-01     0.0000000000000000E+00 
    6.2500000000042327E-02     4.3750000000163619E-01     0.0000000000000000E+00 
    6.2500000000066530E-02     5.0000000000184897E-01     0.0000000000000000E+00 
    6.2500000000090733E-02     5.6250000000147260E-01     0.0000000000000000E+00 
    6.2500000000114922E-02     6.2500000000107636E-01     0.0000000000000000E+00 
    6.2500000000139125E-02     6.8750000000068034E-01     0.0000000000000000E+00 
    6.2500000000163328E-02     7.5000000000028411E-01     0.0000000000000000E+00 
    6.2500000000187531E-02     8.1249999999988787E-01     0.0000000000000000E+00 
    6.2500000000211720E-02     8.7499999999951172E-01     0.0000000000000000E+00 
    6.2500000000235922E-02     9.3749999999974565E-01     0.0000000000000000E+00 
    1.2499999999981980E-01     6.2500000000211733E-02     0.0000000000000000E+00 
    1.2499999999986650E-01     1.2500000000042691E-01     0.0000000000000000E+00 
    1.2499999999991319E-01     1.8750000000063199E-01     0.0000000000000000E+00 
    1.2499999999995989E-01     2.5000000000083678E-01     0.0000000000000000E+00 
    1.2500000000000661E-01     3.1250000000104172E-01     0.0000000000000000E+00 
    1.2500000000005329E-01     3.7500000000124661E-01     0.0000000000000000E+00 
    1.2500000000010000E-01     4.3750000000145117E-01     0.0000000000000000E+00 
    1.2500000000014669E-01     5.0000000000163858E-01     0.0000000000000000E+00 
    1.2500000000019340E-01     5.6250000000129741E-01     0.0000000000000000E+00 
    1.2500000000024011E-01     6.2500000000093847E-01     0.0000000000000000E+00 
    1.2500000000028680E-01     6.8750000000057998E-01     0.0000000000000000E+00 
    1.2500000000033351E-01     7.5000000000022127E-01     0.0000000000000000E+00 
    1.2500000000038020E-01     8.1249999999986211E-01     0.0000000000000000E+00 
    1.2500000000042691E-01     8.7499999999952238E-01     0.0000000000000000E+00 
    1.2500000000047359E-01     9.3749999999975164E-01     0.0000000000000000E+00 
    1.8749999999966760E-01     6.2500000000187531E-02     0.0000000000000000E+00 
    1.8749999999974179E-01     1.2500000000038020E-01     0.0000000000000000E+00 
    1.8749999999981601E-01     1.8750000000055780E-01     0.0000000000000000E+00 
    1.8749999999989009E-01     2.5000000000073502E-01     0.0000000000000000E+00 
    1.8749999999996431E-01     3.1250000000091221E-01     0.0000000000000000E+00 
    1.8750000000003850E-01     3.7500000000108941E-01     0.0000000000000000E+00 
    1.8750000000011269E-01     4.3750000000126649E-01     0.0000000000000000E+00 
    1.8750000000018691E-01     5.0000000000142808E-01     0.0000000000000000E+00 
    1.8750000000026110E-01     5.6250000000112244E-01     0.0000000000000000E+00 
    1.8750000000033529E-01     6.2500000000080080E-01     0.0000000000000000E+00 
    1.8750000000040951E-01     6.8750000000047962E-01     0.0000000000000000E+00 
    1.8750000000048361E-01     7.5000000000015843E-01     0.0000000000000000E+00 
    1.8750000000055780E-01     8.1249999999983680E-01     0.0000000000000000E+00 
    1.8750000000063199E-01     8.7499999999953304E-01     0.0000000000000000E+00 
    1.8750000000070621E-01     9.3749999999975764E-01     0.0000000000000000E+00 
    2.4999999999951281E-01     6.2500000000163314E-02     0.0000000000000000E+00 
    2.4999999999961461E-01     1.2500000000033351E-01     0.0000000000000000E+00 
    2.4999999999971650E-01     1.8750000000048361E-01     0.0000000000000000E+00 
    2.4999999999981831E-01     2.5000000000063310E-01     0.0000000000000000E+00 
    2.4999999999992020E-01     3.1250000000078260E-01     0.0000000000000000E+00 
    2.5000000000002198E-01     3.7500000000093209E-01     0.0000000000000000E+00 
    2.5000000000012390E-01     4.3750000000108180E-01     0.0000000000000000E+00 
    2.5000000000022571E-01     5.0000000000121769E-01     0.0000000000000000E+00 
    2.5000000000032763E-01     5.6250000000094724E-01     0.0000000000000000E+00 
    2.5000000000042938E-01     6.2500000000066314E-01     0.0000000000000000E+00 
    2.5000000000053119E-01     6.8750000000037925E-01     0.0000000000000000E+00 
[...]
CELL_DATA 256 
SCALARS Pressure double 1 
LOOKUP_TABLE default 

    7.2058556049954081E-01 
    6.7072524437485792E-01 
    6.3948832361362584E-01 
    6.1693636868373758E-01 
    5.9891322798297819E-01 
    5.8375705199317629E-01 
    5.7085361920877786E-01 
    5.5994061411560914E-01 
    5.5089131395972057E-01 
    5.4364363354984502E-01 
    5.3809158119001788E-01 
    5.3372616779078885E-01 
    5.2991935200245732E-01 
    5.2747812584438913E-01 
    5.2639129957973263E-01 
    5.2609871333418823E-01 
    6.7073162979039780E-01 
    6.6044648608203427E-01 
    6.4015936162117215E-01 
    6.2045329750018985E-01 
    6.0294067325399658E-01 
    5.8755391335803975E-01 
    5.7414168871553506E-01 
    5.6260716205958916E-01 
    5.5289981921924114E-01 
    5.4501023165117468E-01 
    5.3891367794808376E-01 
    5.3427996980679893E-01 
    5.3025702810692177E-01 
    5.2739051433022788E-01 
    5.2609283341633784E-01 
    5.2580439948765401E-01 
    6.3949799041606614E-01 
    6.4016451978735212E-01 
    6.3072545951578673E-01 
    6.1685570703625303E-01 
    6.0201111587066303E-01 
    5.8767180888119541E-01 
    5.7449010600618178E-01 
    5.6277377816678464E-01 
    5.5269005047377007E-01 
    5.4435721092353817E-01 
    5.3785127512818642E-01 
    5.3302059316406070E-01 
    5.2909393248194891E-01 
    5.2605903982943480E-01 
    5.2477531084615270E-01 
    5.2471861908666173E-01 
    6.1694454041275648E-01 
    6.2045949848185811E-01 
    6.1685861619942539E-01 
    6.0807119087364359E-01 
    5.9654159553643116E-01 
    5.8404796108639967E-01 
    5.7171500365702554E-01 
    5.6023187346608760E-01 
    5.5003705705727002E-01 
    5.4143483931203928E-01 
    5.3463573343892556E-01 
    5.2967420555624201E-01 
    5.2602717251944175E-01 
    5.2313138680923976E-01 
    5.2201335779345859E-01 
    5.2240256834607401E-01 
    5.9891730752848760E-01 
    6.0294437161055914E-01 
    6.0201408374808951E-01 
    5.9654344503033241E-01 
    5.8782325999239515E-01 
    5.7726154767488269E-01 
    5.6602791076883319E-01 
    5.5500724636471566E-01 
    5.4485851379054695E-01 
    5.3608077836476309E-01 
    5.2904408862396934E-01 
    5.2395984411841590E-01 
    5.2060528997638034E-01 
    5.1813743167155413E-01 
    5.1734380817410630E-01 
    5.1840789600503301E-01 
    5.8375781494918333E-01 
    5.8755403608494994E-01 
    5.8767212742662089E-01 
    5.8404912355024341E-01 
    5.7726208530630863E-01 
    5.6824422976132083E-01 
    5.5798837885639940E-01 
    5.4740339134805871E-01 
    5.3727709242016919E-01 
    5.2827547839562317E-01 
    5.2093883606128755E-01 
    5.1565638548041237E-01 
    5.1245898122939193E-01 
    5.1057084423747323E-01 
    5.1032448669260644E-01 
    5.1228509002346634E-01 
    5.7085001121844192E-01 
    5.7413784411774604E-01 
    5.7448644147691497E-01 
    5.7171294175277854E-01 
    5.6602643691603338E-01 
    5.5798687119267820E-01 
    5.4835271892616200E-01 
    5.3795573073457070E-01 
    5.2763023045608703E-01 
    5.1817122392328052E-01 
    5.1029611719477364E-01 
    5.0459784189891144E-01 
    5.0138447567878552E-01 
    5.0010775758401982E-01 
    5.0054877348526905E-01 
    5.0356665917691890E-01 
    5.5992906480007965E-01 
    5.6259712638973325E-01 
    5.6276528624265842E-01 
    5.6022554966783944E-01 
    5.5500185017588244E-01 
    5.4739813753307065E-01 
    5.3795220403495148E-01 
    5.2736905368567799E-01 
    5.1646714133320215E-01 
    5.0613190162864097E-01 
    4.9726204225255483E-01 
    4.9069284525276613E-01 
    4.8705557980461983E-01 
    4.8619748467162044E-01 
    4.8741570063287876E-01 
    4.9164591801212087E-01 
    5.5086963415064272E-01 
    5.5288075407651927E-01 
    5.5267454706072483E-01 
    5.5002541937888727E-01 
    5.4484799893294333E-01 
    5.3726620114507884E-01 
    5.2762108590589607E-01 
    5.1646220597545689E-01 
    5.0453659890952218E-01 
    4.9277103212624174E-01 
    4.8223408212838920E-01 
    4.7405185288429347E-01 
    4.6925372354584610E-01 
    4.6821105477397201E-01 
    4.7007949154621143E-01 
    4.7576453044443578E-01 
    5.4361112278805723E-01 
    5.4497966815374788E-01 
    5.4433109977277527E-01 
    5.4141530057389720E-01 
    5.3606378992493098E-01 
    5.2825774852740903E-01 
    5.1815494392913830E-01 
    5.0612060761531319E-01 
    4.9276514298223828E-01 
    4.7897698871514799E-01 
    4.6593828657592717E-01 
    4.5508938680315741E-01 
    4.4798245874455167E-01 
    4.4569402034381456E-01 
    4.4779112969931661E-01 
    4.5505504190496227E-01 
    5.3804937730033009E-01 
    5.3887113694028177E-01 
    5.3781275440682885E-01 
    5.3460624292121706E-01 
    5.2901918286146543E-01 
    5.2091285904392526E-01 
    5.1027145065146606E-01 
    4.9724317016899977E-01 
    4.8222083258535631E-01 
    4.6593012574886200E-01 
    4.4952650016825058E-01 
    4.3468289454196757E-01 
    4.2356717037732039E-01 
    4.1831842990498197E-01 
    4.1951928779102859E-01 
    4.2801779271659646E-01 
    5.3367905884064759E-01 
    5.3423162871534946E-01 
    5.3297487100723240E-01 
    5.2963848380896739E-01 
    5.2392904126589213E-01 
    5.1562005347967599E-01 
    5.0456213069588429E-01 
    4.9066545861728855E-01 
    4.7403058611462073E-01 
    4.5507026362080766E-01 
    4.3467104691233466E-01 
    4.1444821243909669E-01 
    3.9702826988521889E-01 
    3.8589352792881931E-01 
    3.8370931602028768E-01 
    3.9214792370013529E-01 
    5.2987644186824112E-01 
    5.3021540911089315E-01 
    5.2905703537456727E-01 
    5.2599721470200089E-01 
    5.2057627123730787E-01 
    5.1241556548339406E-01 
    5.0133810199568474E-01 
    4.8702417515888308E-01 
    4.6923220714543706E-01 
    4.4795536930858482E-01 
    4.2354313982088632E-01 
    3.9701845990886681E-01 
    3.7081445213887104E-01 
    3.4939836769596683E-01 
    3.3878595667608652E-01 
    3.4397446116298142E-01 
    5.2744093605866993E-01 
    5.2735436663050639E-01 
    5.2602708842963286E-01 
    5.2310704825216703E-01 
    5.1811696931476714E-01 
    5.1054267571856093E-01 
    5.0007182451702725E-01 
    4.8618052718101029E-01 
    4.6820751084091922E-01 
    4.4567065648984161E-01 
    4.1828319534901010E-01 
    3.8588312942866781E-01 
    3.4940793474741794E-01 
    3.1249672845357424E-01 
    2.8401430522242666E-01 
    2.7774686272048604E-01 
    5.2635569120211401E-01 
    5.2605791334158158E-01 
    5.2474285025161949E-01 
    5.2198487366636359E-01 
    5.1732019006841512E-01 
    5.1030355184511511E-01 
    5.0052490462496946E-01 
    4.8740736560032855E-01 
    4.7009396833712014E-01 
    4.4780986100191694E-01 
    4.1949348921074675E-01 
    3.8371241145694640E-01 
    3.3883713470260496E-01 
    2.8403352019679451E-01 
    2.2267355751403434E-01 
    1.7907221344335780E-01 
    5.2606351693812647E-01 
    5.2576974068929538E-01 
    5.2468581289208327E-01 
    5.2237296627285745E-01 
    5.1838261938979369E-01 
    5.1226405891247362E-01 
    5.0354635385174140E-01 
    4.9162992131741934E-01 
    4.7577232445319145E-01 
    4.5510121798289821E-01 
    4.2801746144287545E-01 
    3.9210151863887577E-01 
    3.4403266339966038E-01 
    2.7777374707951913E-01 
    1.7902672163029518E-01 
    0.0000000000000000E+00 

SCALARS Saturarion double 1 
LOOKUP_TABLE default 

    1.0000000000000000E+00 
    9.8598990703096256E-01 
    9.6032818105936257E-01 
    9.1487171843903969E-01 
    8.5638585211642437E-01 
    7.9850570496173090E-01 
    7.4403922514226684E-01 
    6.9136085550193105E-01 
    6.4047410102012226E-01 
    5.9239474211098297E-01 
    5.4224165631675825E-01 
    4.2760057954149511E-01 
    6.0557971041214499E-02 
    1.0026630446477741E-06 
    1.0000000006535541E-06 
    9.9999999999999995E-07 
    9.8594083053558734E-01 
    9.7366200841926065E-01 
    9.5032985299312067E-01 
    9.1224933353584980E-01 
    8.6098091168490898E-01 
    8.0717727942796147E-01 
    7.5463632085121179E-01 
    7.0317699654037835E-01 
    6.5291719412830795E-01 
    6.0473465460039422E-01 
    5.5692628431053848E-01 
    4.6877518994185208E-01 
    1.6768301022514748E-01 
    1.6811585156466951E-04 
    1.0082186049426567E-06 
    1.0000000000043359E-06 
    9.6016449291715289E-01 
    9.5022905618745623E-01 
    9.2802699292669089E-01 
    8.9736539611723676E-01 
    8.5676975500657437E-01 
    8.1156801673454526E-01 
    7.6476961458718029E-01 
    7.1700718849906342E-01 
    6.6887860651561581E-01 
    6.2142441313932972E-01 
    5.7460423710571229E-01 
    5.0840610470254377E-01 
    2.9872953975915406E-01 
    1.1428925554914787E-02 
    5.8621325742892338E-06 
    1.0000010354169530E-06 
    9.1450130729618007E-01 
    9.1202293093808784E-01 
    8.9727390856864142E-01 
    8.7312370209239210E-01 
    8.4240996790411671E-01 
    8.0682423081577082E-01 
    7.6769177503329655E-01 
    7.2570772910067116E-01 
    6.8166258744562880E-01 
    6.3646706380539209E-01 
    5.9062758721695630E-01 
    5.3460036434909941E-01 
    4.0914158768986275E-01 
    7.1932324450373536E-02 
    1.6755775463541853E-04 
    1.0028594704498610E-06 
    8.5595798698317849E-01 
    8.6069135319491663E-01 
    8.5660837624552699E-01 
    8.4230585903512645E-01 
    8.2116549264604144E-01 
    7.9471478412423557E-01 
    7.6362061137088677E-01 
    7.2856216357318171E-01 
    6.9013697031100041E-01 
    6.4897723463052104E-01 
    6.0539661042975379E-01 
    5.5751719401097322E-01 
    4.6172497478632823E-01 
    1.6755699629433327E-01 
    9.4356511580302976E-04 
    1.0478863699007490E-06 
    7.9808258102403973E-01 
    8.0690810405897395E-01 
    8.1136742660824723E-01 
    8.0658121829750751E-01 
    7.9454854921056350E-01 
    7.7660101131552084E-01 
    7.5349758290536584E-01 
    7.2586842515729777E-01 
    6.9394636295098922E-01 
    6.5793278256923282E-01 
    6.1789560672735855E-01 
    5.7352333645668352E-01 
    5.0440867703121661E-01 
    2.8068700936814694E-01 
    1.1353022028473776E-02 
    6.0273128942119779E-06 
    7.4332512650082272E-01 
    7.5432422877802230E-01 
    7.6465381492427442E-01 
    7.6747031993677428E-01 
    7.6332245924871300E-01 
    7.5333669365214417E-01 
    7.3814512951820699E-01 
    7.1811080677511607E-01 
    6.9322000012725860E-01 
    6.6319142734279901E-01 
    6.2776547470018773E-01 
    5.8738593125942373E-01 
    5.3119397774604371E-01 
    3.8046695248515994E-01 
    4.8805187607935889E-02 
    5.9653492723473025E-05 
    6.9038833741980010E-01 
    7.0272779112088224E-01 
    7.1690098381849621E-01 
    7.2558819887117354E-01 
    7.2825544361699368E-01 
    7.2555346945553612E-01 
    7.1795911492701536E-01 
    7.0556148990081791E-01 
    6.8808968814376348E-01 
    6.6495881396141743E-01 
    6.3540613542541646E-01 
    5.9929361191416142E-01 
    5.5220373251839017E-01 
    4.3391568214940945E-01 
    1.0839459424005077E-01 
    1.9033420534996987E-04 
    6.3943518043995318E-01 
    6.5225952674927556E-01 
    6.6864123989316193E-01 
    6.8150080303768934E-01 
    6.8991951490955539E-01 
    6.9363140098552878E-01 
    6.9295028123601754E-01 
    6.8793261021926033E-01 
    6.7819085030666282E-01 
    6.6278587862413341E-01 
    6.4048708280664923E-01 
    6.0991100081275951E-01 
    5.7007281116776209E-01 
    4.8214620526168911E-01 
    1.9656298878969219E-01 
    1.6721173777340022E-03 
    5.9121005750399702E-01 
    6.0388734749091066E-01 
    6.2108235419462354E-01 
    6.3610413678959998E-01 
    6.4865328647582321E-01 
    6.5769028454338407E-01 
    6.6297950516074966E-01 
    6.6472469400874634E-01 
    6.6261100978779697E-01 
    6.5553259192061619E-01 
    6.4170485724233328E-01 
    6.1883432518106074E-01 
    5.8544530500795888E-01 
    5.2000142662815463E-01 
    2.9222957000948357E-01 
    1.5714738463343238E-02 
    5.4079388076064383E-01 
    5.5607528070836798E-01 
    5.7445410777417261E-01 
    5.9033563898622610E-01 
    6.0485829166542826E-01 
    6.1750981003220873E-01 
    6.2764128813802211E-01 
    6.3526557263105443E-01 
    6.4020086301718149E-01 
    6.4149497903484931E-01 
    6.3709898450299929E-01 
    6.2406523750886678E-01 
    5.9909440102246247E-01 
    5.4867079519713058E-01 
    3.9013715692796297E-01 
    7.6524390987011873E-02 
    4.2554236323085592E-01 
    4.6897123851957861E-01 
    5.0932701178133932E-01 
    5.3505040060443121E-01 
    5.5715448753784380E-01 
    5.7284160624274694E-01 
    5.8700493458951775E-01 
    5.9922231514021496E-01 
    6.0975362041736192E-01 
    6.1853196090572871E-01 
    6.2382291222604336E-01 
    6.2237801087167954E-01 
    6.0917541536252451E-01 
    5.7278956866709407E-01 
    4.5231113507924581E-01 
    1.8441448766796212E-01 
    5.9314349549294820E-02 
    1.6951925186027295E-01 
    3.0331265023091181E-01 
    4.1203770228267528E-01 
    4.6203227127793578E-01 
    5.0365873870652422E-01 
    5.3137861732623293E-01 
    5.5225760719465988E-01 
    5.7023091115377500E-01 
    5.8549284769813070E-01 
    5.9900637235050314E-01 
    6.0899540177298461E-01 
    6.1022645291273048E-01 
    5.9164520209021887E-01 
    5.0919637183943689E-01 
    2.7001133009545925E-01 
    1.0031553214543796E-06 
    1.7287541550769020E-04 
    1.2878200228937075E-02 
    7.3870453663911415E-02 
    1.6783885585182920E-01 
    2.8160623190410627E-01 
    3.8449550893580309E-01 
    4.3640787403262743E-01 
    4.8307616668282061E-01 
    5.1988784034841462E-01 
    5.4925166490455413E-01 
    5.7291858603241042E-01 
    5.9164704575351323E-01 
    5.9293022058257783E-01 
    5.5452941787481058E-01 
    3.5692458102956770E-01 
    1.0000000007638835E-06 
    1.0085768796816771E-06 
    7.3296806062664338E-06 
    1.5764633459880841E-04 
    9.6934154056514958E-04 
    1.2232671339483279E-02 
    5.4172577812890844E-02 
    1.0756443098877023E-01 
    1.9656409982105183E-01 
    2.9053225526686605E-01 
    3.9288792058051747E-01 
    4.5453202638389389E-01 
    5.0998803681954263E-01 
    5.5437408750372186E-01 
    5.6316549207461519E-01 
    4.3483308528166514E-01 
    9.9999999999999995E-07 
    1.0000000000060958E-06 
    1.0000016050992911E-06 
    1.0026311043744012E-06 
    1.0436157144989645E-06 
    7.2655735497889130E-06 
    7.3557666074387771E-05 
    1.4482573088781811E-04 
    2.2659011317273845E-03 
    1.3765772935760453E-02 
    9.2171766731434041E-02 
    1.8284087631445675E-01 
    2.6981993015036992E-01 
    3.5516754014683471E-01 
    4.3495687413926970E-01 
    4.3513431182174184E-01 
