# vtk DataFile Version 2.0
Pressure Field Data 
ASCII 
DATASET UNSTRUCTURED_GRID 

POINTS 289 double 

    0.0000000000000000E+00     0.0000000000000000E+00     0.0000000000000000E+00 
    1.0000000000000000E+00     0.0000000000000000E+00     0.0000000000000000E+00 
    1.0000000000000000E+00     1.0000000000000000E+00     0.0000000000000000E+00 
    0.0000000000000000E+00     1.0000000000000000E+00     0.0000000000000000E+00 
    6.2499999999872928E-02     0.0000000000000000E+00     0.0000000000000000E+00 
    1.2499999999977310E-01     0.0000000000000000E+00     0.0000000000000000E+00 
    1.8749999999959341E-01     0.0000000000000000E+00     0.0000000000000000E+00 
    2.4999999999941089E-01     0.0000000000000000E+00     0.0000000000000000E+00 
    3.1249999999922851E-01     0.0000000000000000E+00     0.0000000000000000E+00 
    3.7499999999904610E-01     0.0000000000000000E+00     0.0000000000000000E+00 
    4.3749999999886358E-01     0.0000000000000000E+00     0.0000000000000000E+00 
    4.9999999999869210E-01     0.0000000000000000E+00     0.0000000000000000E+00 
    5.6249999999884603E-01     0.0000000000000000E+00     0.0000000000000000E+00 
    6.2499999999901090E-01     0.0000000000000000E+00     0.0000000000000000E+00 
    6.8749999999917577E-01     0.0000000000000000E+00     0.0000000000000000E+00 
    7.4999999999934064E-01     0.0000000000000000E+00     0.0000000000000000E+00 
    8.1249999999950551E-01     0.0000000000000000E+00     0.0000000000000000E+00 
    8.7499999999967026E-01     0.0000000000000000E+00     0.0000000000000000E+00 
    9.3749999999983513E-01     0.0000000000000000E+00     0.0000000000000000E+00 
    1.0000000000000000E+00     6.2499999999872928E-02     0.0000000000000000E+00 
    1.0000000000000000E+00     1.2499999999977310E-01     0.0000000000000000E+00 
    1.0000000000000000E+00     1.8749999999959341E-01     0.0000000000000000E+00 
    1.0000000000000000E+00     2.4999999999941089E-01     0.0000000000000000E+00 
    1.0000000000000000E+00     3.1249999999922851E-01     0.0000000000000000E+00 
    1.0000000000000000E+00     3.7499999999904610E-01     0.0000000000000000E+00 
    1.0000000000000000E+00     4.3749999999886358E-01     0.0000000000000000E+00 
    1.0000000000000000E+00     4.9999999999869210E-01     0.0000000000000000E+00 
    1.0000000000000000E+00     5.6249999999884603E-01     0.0000000000000000E+00 
    1.0000000000000000E+00     6.2499999999901090E-01     0.0000000000000000E+00 
    1.0000000000000000E+00     6.8749999999917577E-01     0.0000000000000000E+00 
    1.0000000000000000E+00     7.4999999999934064E-01     0.0000000000000000E+00 
    1.0000000000000000E+00     8.1249999999950551E-01     0.0000000000000000E+00 
    1.0000000000000000E+00     8.7499999999967026E-01     0.0000000000000000E+00 
    1.0000000000000000E+00     9.3749999999983513E-01     0.0000000000000000E+00 
    9.3749999999973976E-01     1.0000000000000000E+00     0.0000000000000000E+00 
    8.7499999999950118E-01     1.0000000000000000E+00     0.0000000000000000E+00 
    8.1249999999991318E-01     1.0000000000000000E+00     0.0000000000000000E+00 
    7.5000000000034706E-01     1.0000000000000000E+00     0.0000000000000000E+00 
    6.8750000000078049E-01     1.0000000000000000E+00     0.0000000000000000E+00 
    6.2500000000121403E-01     1.0000000000000000E+00     0.0000000000000000E+00 
    5.6250000000164757E-01     1.0000000000000000E+00     0.0000000000000000E+00 
    5.0000000000205946E-01     1.0000000000000000E+00     0.0000000000000000E+00 
    4.3750000000182099E-01     1.0000000000000000E+00     0.0000000000000000E+00 
    3.7500000000156092E-01     1.0000000000000000E+00     0.0000000000000000E+00 
    3.1250000000130068E-01     1.0000000000000000E+00     0.0000000000000000E+00 
    2.5000000000104050E-01     1.0000000000000000E+00     0.0000000000000000E+00 
    1.8750000000078040E-01     1.0000000000000000E+00     0.0000000000000000E+00 
    1.2500000000052031E-01     1.0000000000000000E+00     0.0000000000000000E+00 
    6.2500000000260125E-02     1.0000000000000000E+00     0.0000000000000000E+00 
    0.0000000000000000E+00     9.3749999999973976E-01     0.0000000000000000E+00 
    0.0000000000000000E+00     8.7499999999950118E-01     0.0000000000000000E+00 
    0.0000000000000000E+00     8.1249999999991318E-01     0.0000000000000000E+00 
    0.0000000000000000E+00     7.5000000000034706E-01     0.0000000000000000E+00 
    0.0000000000000000E+00     6.8750000000078049E-01     0.0000000000000000E+00 
    0.0000000000000000E+00     6.2500000000121403E-01     0.0000000000000000E+00 
    0.0000000000000000E+00     5.6250000000164757E-01     0.0000000000000000E+00 
    0.0000000000000000E+00     5.0000000000205946E-01     0.0000000000000000E+00 
    0.0000000000000000E+00     4.3750000000182099E-01     0.0000000000000000E+00 
    0.0000000000000000E+00     3.7500000000156092E-01     0.0000000000000000E+00 
    0.0000000000000000E+00     3.1250000000130068E-01     0.0000000000000000E+00 
    0.0000000000000000E+00     2.5000000000104050E-01     0.0000000000000000E+00 
    0.0000000000000000E+00     1.8750000000078040E-01     0.0000000000000000E+00 
    0.0000000000000000E+00     1.2500000000052031E-01     0.0000000000000000E+00 
    0.0000000000000000E+00     6.2500000000260125E-02     0.0000000000000000E+00 
    6.2499999999897131E-02     6.2500000000235922E-02     0.0000000000000000E+00 
    6.2499999999921327E-02     1.2500000000047351E-01     0.0000000000000000E+00 
    6.2499999999945530E-02     1.8750000000070621E-01     0.0000000000000000E+00 
    6.2499999999969733E-02     2.5000000000093858E-01     0.0000000000000000E+00 
    6.2499999999993928E-02     3.1250000000117117E-01     0.0000000000000000E+00 
    6.2500000000018124E-02     3.7500000000140382E-01     0.0000000000000000E+00 
    6.2500000000042327E-02     4.3750000000163619E-01     0.0000000000000000E+00 
    6.2500000000066530E-02     5.0000000000184897E-01     0.0000000000000000E+00 
    6.2500000000090733E-02     5.6250000000147260E-01     0.0000000000000000E+00 
    6.2500000000114922E-02     6.2500000000107636E-01     0.0000000000000000E+00 
    6.2500000000139125E-02     6.8750000000068034E-01     0.0000000000000000E+00 
    6.2500000000163328E-02     7.5000000000028411E-01     0.0000000000000000E+00 
    6.2500000000187531E-02     8.1249999999988787E-01     0.0000000000000000E+00 
    6.2500000000211720E-02     8.7499999999951172E-01     0.0000000000000000E+00 
    6.2500000000235922E-02     9.3749999999974565E-01     0.0000000000000000E+00 
    1.2499999999981980E-01     6.2500000000211733E-02     0.0000000000000000E+00 
    1.2499999999986650E-01     1.2500000000042691E-01     0.0000000000000000E+00 
    1.2499999999991319E-01     1.8750000000063199E-01     0.0000000000000000E+00 
    1.2499999999995989E-01     2.5000000000083678E-01     0.0000000000000000E+00 
    1.2500000000000661E-01     3.1250000000104172E-01     0.0000000000000000E+00 
    1.2500000000005329E-01     3.7500000000124661E-01     0.0000000000000000E+00 
    1.2500000000010000E-01     4.3750000000145117E-01     0.0000000000000000E+00 
    1.2500000000014669E-01     5.0000000000163858E-01     0.0000000000000000E+00 
    1.2500000000019340E-01     5.6250000000129741E-01     0.0000000000000000E+00 
    1.2500000000024011E-01     6.2500000000093847E-01     0.0000000000000000E+00 
    1.2500000000028680E-01     6.8750000000057998E-01     0.0000000000000000E+00 
    1.2500000000033351E-01     7.5000000000022127E-01     0.0000000000000000E+00 
    1.2500000000038020E-01     8.1249999999986211E-01     0.0000000000000000E+00 
    1.2500000000042691E-01     8.7499999999952238E-01     0.0000000000000000E+00 
    1.2500000000047359E-01     9.3749999999975164E-01     0.0000000000000000E+00 
    1.8749999999966760E-01     6.2500000000187531E-02     0.0000000000000000E+00 
    1.8749999999974179E-01     1.2500000000038020E-01     0.0000000000000000E+00 
    1.8749999999981601E-01     1.8750000000055780E-01     0.0000000000000000E+00 
    1.8749999999989009E-01     2.5000000000073502E-01     0.0000000000000000E+00 
    1.8749999999996431E-01     3.1250000000091221E-01     0.0000000000000000E+00 
    1.8750000000003850E-01     3.7500000000108941E-01     0.0000000000000000E+00 
    1.8750000000011269E-01     4.3750000000126649E-01     0.0000000000000000E+00 
    1.8750000000018691E-01     5.0000000000142808E-01     0.0000000000000000E+00 
    1.8750000000026110E-01     5.6250000000112244E-01     0.0000000000000000E+00 
    1.8750000000033529E-01     6.2500000000080080E-01     0.0000000000000000E+00 
    1.8750000000040951E-01     6.8750000000047962E-01     0.0000000000000000E+00 
    1.8750000000048361E-01     7.5000000000015843E-01     0.0000000000000000E+00 
    1.8750000000055780E-01     8.1249999999983680E-01     0.0000000000000000E+00 
    1.8750000000063199E-01     8.7499999999953304E-01     0.0000000000000000E+00 
    1.8750000000070621E-01     9.3749999999975764E-01     0.0000000000000000E+00 
    2.4999999999951281E-01     6.2500000000163314E-02     0.0000000000000000E+00 
    2.4999999999961461E-01     1.2500000000033351E-01     0.0000000000000000E+00 
    2.4999999999971650E-01     1.8750000000048361E-01     0.0000000000000000E+00 
    2.4999999999981831E-01     2.5000000000063310E-01     0.0000000000000000E+00 
    2.4999999999992020E-01     3.1250000000078260E-01     0.0000000000000000E+00 
    2.5000000000002198E-01     3.7500000000093209E-01     0.0000000000000000E+00 
    2.5000000000012390E-01     4.3750000000108180E-01     0.0000000000000000E+00 
    2.5000000000022571E-01     5.0000000000121769E-01     0.0000000000000000E+00 
    2.5000000000032763E-01     5.6250000000094724E-01     0.0000000000000000E+00 
    2.5000000000042938E-01     6.2500000000066314E-01     0.0000000000000000E+00 
    2.5000000000053119E-01     6.8750000000037925E-01     0.0000000000000000E+00 
[...]
CELL_DATA 256 
SCALARS Pressure double 1 
LOOKUP_TABLE default 

    1.0028158339825923E+00 
    9.5162318903079046E-01 
    9.1785945117413037E-01 
    8.9133795720307274E-01 
    8.6823216189570196E-01 
    8.4769829119760076E-01 
    8.2964913473235569E-01 
    8.1405560778700470E-01 
    8.0046366064034058E-01 
    7.8683117803380942E-01 
    7.7395452234529727E-01 
    7.6500627379445418E-01 
    7.5922354120899171E-01 
    7.5587243437092144E-01 
    7.5430993549041825E-01 
    7.5388799591104250E-01 
    9.5163939218813820E-01 
    9.4099423370554480E-01 
    9.1880070021370330E-01 
    8.9571549539466477E-01 
    8.7355613528658038E-01 
    8.5299002323928519E-01 
    8.3443758193736439E-01 
    8.1816547180600196E-01 
    8.0403884301239914E-01 
    7.9059239483907706E-01 
    7.7682314204900227E-01 
    7.6651901146574097E-01 
    7.5978088924800469E-01 
    7.5578049318096341E-01 
    7.5389088288062400E-01 
    7.5346793428393677E-01 
    9.1788269535404110E-01 
    9.1881289171397451E-01 
    9.0806926583024439E-01 
    8.9140337309244710E-01 
    8.7248006311024873E-01 
    8.5333904403156180E-01 
    8.3517307397788365E-01 
    8.1872885955049124E-01 
    8.0428140910025647E-01 
    7.9108052374951865E-01 
    7.7715555123094415E-01 
    7.6563848108615706E-01 
    7.5824981941323943E-01 
    7.5391027372019725E-01 
    7.5201107889490115E-01 
    7.5191132731958354E-01 
    8.9135389132886556E-01 
    8.9572792517781208E-01 
    8.9140837340385537E-01 
    8.8042989189681442E-01 
    8.6545362508826107E-01 
    8.4863686849789344E-01 
    8.3158079675736229E-01 
    8.1544742306882612E-01 
    8.0092106726396128E-01 
    7.8788026423305990E-01 
    7.7437495939511281E-01 
    7.6191944496837349E-01 
    7.5405638575052747E-01 
    7.4963552458258098E-01 
    7.4802201750910779E-01 
    7.4856382516610909E-01 
    8.6822995688588722E-01 
    8.7355618615142760E-01 
    8.7247981124519114E-01 
    8.6545300679883308E-01 
    8.5390537149884460E-01 
    8.3952050887097107E-01 
    8.2388186516694584E-01 
    8.0834387425241416E-01 
    7.9389944825294345E-01 
    7.8090746112601950E-01 
    7.6807371797441792E-01 
    7.5512043733540379E-01 
    7.4668759853538069E-01 
    7.4234684582535637E-01 
    7.4127259475115848E-01 
    7.4276448940434547E-01 
    8.4767573313677069E-01 
    8.5297108910743635E-01 
    8.5332408454219055E-01 
    8.4862800390719806E-01 
    8.3951646756037035E-01 
    8.2712260101553026E-01 
    8.1277977583237815E-01 
    7.9782029951325062E-01 
    7.8340625394559105E-01 
    7.7028598909810952E-01 
    7.5793909957171424E-01 
    7.4483305967935309E-01 
    7.3557267865698250E-01 
    7.3140537184601939E-01 
    7.3108271804086744E-01 
    7.3382854477755322E-01 
    8.2960152189702774E-01 
    8.3439485450947071E-01 
    8.3513751656415636E-01 
    8.3155705195732532E-01 
    8.2386889828394816E-01 
    8.1277411328738181E-01 
    7.9929395351771271E-01 
    7.8460237613948502E-01 
    7.6989675590068307E-01 
    7.5621252817155082E-01 
    7.4370692276815087E-01 
    7.3048230929434899E-01 
    7.2015961089166303E-01 
    7.1612837672007668E-01 
    7.1670800186496630E-01 
    7.2101210355852530E-01 
    8.1397948848101931E-01 
    8.1809558823376438E-01 
    8.1867141992781678E-01 
    8.1540669651235131E-01 
    8.0831771451985279E-01 
    7.9780523023054306E-01 
    7.8459593628764146E-01 
    7.6965618106939304E-01 
    7.5412790608397795E-01 
    7.3922553027621773E-01 
    7.2562970335381227E-01 
    7.1196049015823970E-01 
    7.0020052680197209E-01 
    6.9583107177586467E-01 
    6.9730651722851411E-01 
    7.0346395401118234E-01 
    8.0037236968932801E-01 
    8.0395193184611058E-01 
    8.0420985827197067E-01 
    8.0086916594235480E-01 
    7.9386102024834171E-01 
    7.8337851674739312E-01 
    7.6988139353960205E-01 
    7.5412359595094447E-01 
    7.3713942170275437E-01 
    7.2021773693112578E-01 
    7.0449870644548740E-01 
    6.8949927606504324E-01 
    6.7546885709553528E-01 
    6.6967225343643633E-01 
    6.7182923132539751E-01 
    6.8012985259469017E-01 
    7.8675257281791411E-01 
    7.9051848998278307E-01 
    7.9101727364207308E-01 
    7.8783160113774142E-01 
    7.8086319842207941E-01 
    7.7024548310738483E-01 
    7.5618603656984518E-01 
    7.3921817198385720E-01 
    7.2021713080302519E-01 
    7.0039174217882949E-01 
    6.8119018391041086E-01 
    6.6317385220708025E-01 
    6.4543537120530703E-01 
    6.3649543622425120E-01 
    6.3884520141244483E-01 
    6.4957864251492559E-01 
    7.7388360464418160E-01 
    7.7675709411886218E-01 
    7.7709921057421716E-01 
    7.7432706073949353E-01 
    7.6802509266117203E-01 
    7.5788793680769573E-01 
    7.4366724707222476E-01 
    7.2562099903545230E-01 
    7.0449741884554196E-01 
    6.8118493380575962E-01 
    6.5710222896638737E-01 
    6.3364066142865738E-01 
    6.0987904567458440E-01 
    5.9529048314260369E-01 
    5.9646893787437394E-01 
    6.0976295341072539E-01 
    7.6493792051247989E-01 
    7.6644955378458324E-01 
    7.6556967765138528E-01 
    7.6185665514533107E-01 
    7.5506135419333764E-01 
    7.4477299119482820E-01 
    7.3043050785482777E-01 
    7.1192576061940660E-01 
    6.8947009856075281E-01 
    6.6313836360338818E-01 
    6.3361881291259148E-01 
    6.0266334059454219E-01 
    5.6986773613814667E-01 
    5.4570513739512005E-01 
    5.4224761101530805E-01 
    5.5754118038592926E-01 
    7.5915936919522442E-01 
    7.5971546660995404E-01 
    7.5818398711035540E-01 
    7.5399317377985475E-01 
    7.4662792813814383E-01 
    7.3551416742426678E-01 
    7.2010515449467882E-01 
    7.0015592386792536E-01 
    6.7543148955558507E-01 
    6.4537707020065016E-01 
    6.0981371972465126E-01 
    5.6981224489519156E-01 
    5.2603220217863333E-01 
    4.8804108816011704E-01 
    4.7298943001468097E-01 
    4.8751777629575793E-01 
    7.5581140534751634E-01 
    7.5571825169398354E-01 
    7.5384667655052207E-01 
    7.4957257354519236E-01 
    7.4228643005741501E-01 
    7.3134764247507533E-01 
    7.1607417293098308E-01 
    6.9578320544294026E-01 
    6.6963589824867242E-01 
    6.3646387426721684E-01 
    5.9524643856339987E-01 
    5.4564868194843363E-01 
    4.8799931148081477E-01 
    4.2851604602880061E-01 
    3.8713664489689259E-01 
    3.8978053803132306E-01 
    7.5425116479327126E-01 
    7.5383119717470948E-01 
    7.5194927825173430E-01 
    7.4795937748509500E-01 
    7.4121150528127366E-01 
    7.3102445783443237E-01 
    7.1665316986058802E-01 
    6.9725645810820447E-01 
    6.7178611197496363E-01 
    6.3880732005647334E-01 
    5.9642998308989847E-01 
    5.4220836729469613E-01 
    4.7296302041823712E-01 
    3.8712721348997403E-01 
    2.9351800458954747E-01 
    2.4378729624256251E-01 
    7.5383044115543330E-01 
    7.5340998237004142E-01 
    7.5185067504819370E-01 
    7.4850107736365756E-01 
    7.4270247216490748E-01 
    7.3376912132422456E-01 
    7.2095582965470240E-01 
    7.0341180835353356E-01 
    6.8008324313866575E-01 
    6.4953730430252721E-01 
    6.0972388901829211E-01 
    5.5750379517807491E-01 
    4.8748788672412458E-01 
    3.8976289001774206E-01 
    2.4378016868153032E-01 
    0.0000000000000000E+00 

SCALARS Saturarion double 1 
LOOKUP_TABLE default 

    1.0000000000000000E+00 
    9.6963697030923768E-01 
    9.1743809163744872E-01 
    8.2595155535411913E-01 
    7.4293022666164066E-01 
    6.7592598221688072E-01 
    6.2153517452994067E-01 
    5.7265208205966145E-01 
    5.0728371031355035E-01 
    2.9233945937893868E-01 
    2.4347227824156581E-03 
    1.0000199600982651E-06 
    1.0000000000020718E-06 
    9.9999999999999995E-07 
    9.9999999999999995E-07 
    9.9999999999999995E-07 
    9.6948967423787236E-01 
    9.4341778250449326E-01 
    8.9693271640530026E-01 
    8.2177280567689448E-01 
    7.4855132767489152E-01 
    6.8442470159368884E-01 
    6.3041005216424428E-01 
    5.8199408170484002E-01 
    5.2299502056550684E-01 
    3.8088628442022326E-01 
    3.9216518525443417E-02 
    2.3826797354391733E-05 
    1.0000452413044637E-06 
    9.9999999999999995E-07 
    9.9999999999999995E-07 
    9.9999999999999995E-07 
    9.1699314355803319E-01 
    8.9670309119559888E-01 
    8.5405574378361293E-01 
    8.0047687025354253E-01 
    7.4311983565022000E-01 
    6.8754342032903326E-01 
    6.3719031362200007E-01 
    5.9026485535176665E-01 
    5.3845220485940504E-01 
    4.4376585277455988E-01 
    1.3515988298801576E-01 
    1.8068075237512052E-04 
    1.0129571504711994E-06 
    1.0000000000000004E-06 
    9.9999999999999995E-07 
    9.9999999999999995E-07 
    8.2503022066123299E-01 
    8.2125226187345668E-01 
    8.0025236436383040E-01 
    7.6633333545112092E-01 
    7.2429725607515738E-01 
    6.7966397662873967E-01 
    6.3630417104113157E-01 
    5.9446806520041995E-01 
    5.4922223944910509E-01 
    4.7941104353486985E-01 
    2.4899202033982964E-01 
    4.0681872326697724E-03 
    1.6027419775531795E-06 
    1.0000001093888479E-06 
    9.9999999999999995E-07 
    9.9999999999999995E-07 
    7.4193809298197178E-01 
    7.4783019402772444E-01 
    7.4269761772681475E-01 
    7.2408557345074742E-01 
    6.9631180750847177E-01 
    6.6324108557396222E-01 
    6.2881338344438009E-01 
    5.9429257287283355E-01 
    5.5611677273820659E-01 
    5.0179390504926924E-01 
    3.5431288255726923E-01 
    3.5561924949834574E-02 
    5.6308005629946891E-05 
    1.0003073302230023E-06 
    9.9999999999999995E-07 
    9.9999999999999995E-07 
    6.7487167527327374E-01 
    6.8363064621500436E-01 
    6.8699932008014786E-01 
    6.7924076619576845E-01 
    6.6301230785888676E-01 
    6.4116206441363832E-01 
    6.1632315304524732E-01 
    5.8949376924613306E-01 
    5.5833114372704107E-01 
    5.1462112138394722E-01 
    4.1624400508375869E-01 
    1.0769643662616334E-01 
    1.3737500738387348E-04 
    1.0065263801590105E-06 
    9.9999999999999995E-07 
    9.9999999999999995E-07 
    6.2007314985710227E-01 
    6.2950604141998889E-01 
    6.3674164709670045E-01 
    6.3590231533040387E-01 
    6.2840223551782748E-01 
    6.1608167935302938E-01 
    5.9979581506400648E-01 
    5.7973594007386553E-01 
    5.5545854750782220E-01 
    5.2200663474172149E-01 
    4.4933634549536366E-01 
    1.9385469468626368E-01 
    1.3192909749356564E-03 
    1.0572076146637334E-06 
    1.0000000076185008E-06 
    9.9999999999999995E-07 
    5.7093386602024143E-01 
    5.8113113615569834E-01 
    5.9003908906122071E-01 
    5.9424115444324155E-01 
    5.9385030275474737E-01 
    5.8898817600255682E-01 
    5.7945176725149039E-01 
    5.6527679514769658E-01 
    5.4730404104992603E-01 
    5.2323296726040791E-01 
    4.7177450151735290E-01 
    2.9762024084108923E-01 
    1.5032676426552927E-02 
    1.1636724044941712E-05 
    1.0000088217928208E-06 
    9.9999999999999995E-07 
    5.0605698216700779E-01 
    5.2295952968556114E-01 
    5.3878938091594331E-01 
    5.4916335779993419E-01 
    5.5596520694026352E-01 
    5.5788110584464756E-01 
    5.5494460278405100E-01 
    5.4698949178211942E-01 
    5.3504908937380613E-01 
    5.1884341830162173E-01 
    4.8422162726549683E-01 
    3.7603390023819661E-01 
    6.6171753334619554E-02 
    7.5039007155202521E-05 
    1.0007117427116115E-06 
    9.9999999999999995E-07 
    2.9231625958271651E-01 
    3.8251171007144202E-01 
    4.4528401518604538E-01 
    4.7971403474932800E-01 
    5.0171083315242149E-01 
    5.1435142703180847E-01 
    5.2168382197725638E-01 
    5.2272700242246395E-01 
    5.1844409189080765E-01 
    5.0883165244715090E-01 
    4.8676825801266260E-01 
    4.1199601062794933E-01 
    1.3836276267034345E-01 
    1.6679070071859924E-04 
    1.0022925094316433E-06 
    1.0000000000662498E-06 
    2.4018337223995915E-03 
    4.1690824285158752E-02 
    1.4016343100883932E-01 
    2.4854680178849156E-01 
    3.5290661499227299E-01 
    4.1624937302537457E-01 
    4.4970097868754844E-01 
    4.7152288102344730E-01 
    4.8345613722989378E-01 
    4.8621655904405819E-01 
    4.7679317890112966E-01 
    4.3321878498004607E-01 
    2.3139573740766781E-01 
    3.4208822512235186E-03 
    1.3853063574459404E-06 
    1.0000000369430099E-06 
    1.0000226565302324E-06 
    2.8362342276100204E-05 
    1.9449985183193219E-04 
    3.7537366111107416E-03 
    3.5738235589458031E-02 
    1.0789707906351816E-01 
    1.9682002526466108E-01 
    2.9910410195559112E-01 
    3.7368574849678909E-01 
    4.1046319283956928E-01 
    4.3242965992668803E-01 
    4.2365110425349861E-01 
    3.1080659730564181E-01 
    1.8208492832968510E-02 
    2.1282416095352756E-06 
    1.0000001376152190E-06 
    1.0000000000023225E-06 
    1.0000648724957510E-06 
    1.0159749426347822E-06 
    1.5066118264628070E-06 
    6.0040312703796364E-05 
    1.3201032159369105E-04 
    1.4889271456118107E-03 
    1.4367092591562911E-02 
    6.3397630934606486E-02 
    1.3571407202972863E-01 
    2.2871552230998596E-01 
    3.0873899432941027E-01 
    2.6377744555210469E-01 
    2.2793693012440382E-02 
    7.3491000098140563E-06 
    1.0000010871800830E-06 
    9.9999999999999995E-07 
    9.9999999999999995E-07 
    1.0000000000002782E-06 
    1.0000000894347515E-06 
    1.0003503737958265E-06 
    1.0060588304778104E-06 
    1.0725800338870385E-06 
    9.8296404421935189E-06 
    7.3105031028592482E-05 
    1.5231602777641696E-04 
    3.1826823437306408E-03 
    1.7219156325560821E-02 
    2.2372370830720793E-02 
    2.8273889925840997E-04 
    1.0010853919328606E-06 
    1.0000000001028111E-06 
    9.9999999999999995E-07 
    9.9999999999999995E-07 
    9.9999999999999995E-07 
    9.9999999999999995E-07 
    9.9999999999999995E-07 
    9.9999999999999995E-07 
    1.0000000096034149E-06 
    1.0000062664445259E-06 
    1.0006515038766024E-06 
    1.0023724233575741E-06 
    1.3300605434008023E-06 
    2.0801534170576884E-06 
    6.8410001485450084E-06 
    1.0010776838779190E-06 
    1.0000000004788302E-06 
    9.9999999999999995E-07 
    9.9999999999999995E-07 
    9.9999999999999995E-07 
    9.9999999999999995E-07 
    9.9999999999999995E-07 
    9.9999999999999995E-07 
    9.9999999999999995E-07 
    9.9999999999999995E-07 
    9.9999999999999995E-07 
    9.9999999999999995E-07 
    1.0000000000564905E-06 
    1.0000000310517399E-06 
    1.0000001340420467E-06 
    1.0000009537686823E-06 
    1.0000000001026953E-06 
    9.9999999999999974E-07 
    1.0000003653377520E-06 
