# vtk DataFile Version 2.0
Pressure Field Data 
ASCII 
DATASET UNSTRUCTURED_GRID 

POINTS 289 double 

    0.0000000000000000E+00     0.0000000000000000E+00     0.0000000000000000E+00 
    1.0000000000000000E+00     0.0000000000000000E+00     0.0000000000000000E+00 
    1.0000000000000000E+00     1.0000000000000000E+00     0.0000000000000000E+00 
    0.0000000000000000E+00     1.0000000000000000E+00     0.0000000000000000E+00 
    6.2499999999872928E-02     0.0000000000000000E+00     0.0000000000000000E+00 
    1.2499999999977310E-01     0.0000000000000000E+00     0.0000000000000000E+00 
    1.8749999999959341E-01     0.0000000000000000E+00     0.0000000000000000E+00 
    2.4999999999941089E-01     0.0000000000000000E+00     0.0000000000000000E+00 
    3.1249999999922851E-01     0.0000000000000000E+00     0.0000000000000000E+00 
    3.7499999999904610E-01     0.0000000000000000E+00     0.0000000000000000E+00 
    4.3749999999886358E-01     0.0000000000000000E+00     0.0000000000000000E+00 
    4.9999999999869210E-01     0.0000000000000000E+00     0.0000000000000000E+00 
    5.6249999999884603E-01     0.0000000000000000E+00     0.0000000000000000E+00 
    6.2499999999901090E-01     0.0000000000000000E+00     0.0000000000000000E+00 
    6.8749999999917577E-01     0.0000000000000000E+00     0.0000000000000000E+00 
    7.4999999999934064E-01     0.0000000000000000E+00     0.0000000000000000E+00 
    8.1249999999950551E-01     0.0000000000000000E+00     0.0000000000000000E+00 
    8.7499999999967026E-01     0.0000000000000000E+00     0.0000000000000000E+00 
    9.3749999999983513E-01     0.0000000000000000E+00     0.0000000000000000E+00 
    1.0000000000000000E+00     6.2499999999872928E-02     0.0000000000000000E+00 
    1.0000000000000000E+00     1.2499999999977310E-01     0.0000000000000000E+00 
    1.0000000000000000E+00     1.8749999999959341E-01     0.0000000000000000E+00 
    1.0000000000000000E+00     2.4999999999941089E-01     0.0000000000000000E+00 
    1.0000000000000000E+00     3.1249999999922851E-01     0.0000000000000000E+00 
    1.0000000000000000E+00     3.7499999999904610E-01     0.0000000000000000E+00 
    1.0000000000000000E+00     4.3749999999886358E-01     0.0000000000000000E+00 
    1.0000000000000000E+00     4.9999999999869210E-01     0.0000000000000000E+00 
    1.0000000000000000E+00     5.6249999999884603E-01     0.0000000000000000E+00 
    1.0000000000000000E+00     6.2499999999901090E-01     0.0000000000000000E+00 
    1.0000000000000000E+00     6.8749999999917577E-01     0.0000000000000000E+00 
    1.0000000000000000E+00     7.4999999999934064E-01     0.0000000000000000E+00 
    1.0000000000000000E+00     8.1249999999950551E-01     0.0000000000000000E+00 
    1.0000000000000000E+00     8.7499999999967026E-01     0.0000000000000000E+00 
    1.0000000000000000E+00     9.3749999999983513E-01     0.0000000000000000E+00 
    9.3749999999973976E-01     1.0000000000000000E+00     0.0000000000000000E+00 
    8.7499999999950118E-01     1.0000000000000000E+00     0.0000000000000000E+00 
    8.1249999999991318E-01     1.0000000000000000E+00     0.0000000000000000E+00 
    7.5000000000034706E-01     1.0000000000000000E+00     0.0000000000000000E+00 
    6.8750000000078049E-01     1.0000000000000000E+00     0.0000000000000000E+00 
    6.2500000000121403E-01     1.0000000000000000E+00     0.0000000000000000E+00 
    5.6250000000164757E-01     1.0000000000000000E+00     0.0000000000000000E+00 
    5.0000000000205946E-01     1.0000000000000000E+00     0.0000000000000000E+00 
    4.3750000000182099E-01     1.0000000000000000E+00     0.0000000000000000E+00 
    3.7500000000156092E-01     1.0000000000000000E+00     0.0000000000000000E+00 
    3.1250000000130068E-01     1.0000000000000000E+00     0.0000000000000000E+00 
    2.5000000000104050E-01     1.0000000000000000E+00     0.0000000000000000E+00 
    1.8750000000078040E-01     1.0000000000000000E+00     0.0000000000000000E+00 
    1.2500000000052031E-01     1.0000000000000000E+00     0.0000000000000000E+00 
    6.2500000000260125E-02     1.0000000000000000E+00     0.0000000000000000E+00 
    0.0000000000000000E+00     9.3749999999973976E-01     0.0000000000000000E+00 
    0.0000000000000000E+00     8.7499999999950118E-01     0.0000000000000000E+00 
    0.0000000000000000E+00     8.1249999999991318E-01     0.0000000000000000E+00 
    0.0000000000000000E+00     7.5000000000034706E-01     0.0000000000000000E+00 
    0.0000000000000000E+00     6.8750000000078049E-01     0.0000000000000000E+00 
    0.0000000000000000E+00     6.2500000000121403E-01     0.0000000000000000E+00 
    0.0000000000000000E+00     5.6250000000164757E-01     0.0000000000000000E+00 
    0.0000000000000000E+00     5.0000000000205946E-01     0.0000000000000000E+00 
    0.0000000000000000E+00     4.3750000000182099E-01     0.0000000000000000E+00 
    0.0000000000000000E+00     3.7500000000156092E-01     0.0000000000000000E+00 
    0.0000000000000000E+00     3.1250000000130068E-01     0.0000000000000000E+00 
    0.0000000000000000E+00     2.5000000000104050E-01     0.0000000000000000E+00 
    0.0000000000000000E+00     1.8750000000078040E-01     0.0000000000000000E+00 
    0.0000000000000000E+00     1.2500000000052031E-01     0.0000000000000000E+00 
    0.0000000000000000E+00     6.2500000000260125E-02     0.0000000000000000E+00 
    6.2499999999897131E-02     6.2500000000235922E-02     0.0000000000000000E+00 
    6.2499999999921327E-02     1.2500000000047351E-01     0.0000000000000000E+00 
    6.2499999999945530E-02     1.8750000000070621E-01     0.0000000000000000E+00 
    6.2499999999969733E-02     2.5000000000093858E-01     0.0000000000000000E+00 
    6.2499999999993928E-02     3.1250000000117117E-01     0.0000000000000000E+00 
    6.2500000000018124E-02     3.7500000000140382E-01     0.0000000000000000E+00 
    6.2500000000042327E-02     4.3750000000163619E-01     0.0000000000000000E+00 
    6.2500000000066530E-02     5.0000000000184897E-01     0.0000000000000000E+00 
    6.2500000000090733E-02     5.6250000000147260E-01     0.0000000000000000E+00 
    6.2500000000114922E-02     6.2500000000107636E-01     0.0000000000000000E+00 
    6.2500000000139125E-02     6.8750000000068034E-01     0.0000000000000000E+00 
    6.2500000000163328E-02     7.5000000000028411E-01     0.0000000000000000E+00 
    6.2500000000187531E-02     8.1249999999988787E-01     0.0000000000000000E+00 
    6.2500000000211720E-02     8.7499999999951172E-01     0.0000000000000000E+00 
    6.2500000000235922E-02     9.3749999999974565E-01     0.0000000000000000E+00 
    1.2499999999981980E-01     6.2500000000211733E-02     0.0000000000000000E+00 
    1.2499999999986650E-01     1.2500000000042691E-01     0.0000000000000000E+00 
    1.2499999999991319E-01     1.8750000000063199E-01     0.0000000000000000E+00 
    1.2499999999995989E-01     2.5000000000083678E-01     0.0000000000000000E+00 
    1.2500000000000661E-01     3.1250000000104172E-01     0.0000000000000000E+00 
    1.2500000000005329E-01     3.7500000000124661E-01     0.0000000000000000E+00 
    1.2500000000010000E-01     4.3750000000145117E-01     0.0000000000000000E+00 
    1.2500000000014669E-01     5.0000000000163858E-01     0.0000000000000000E+00 
    1.2500000000019340E-01     5.6250000000129741E-01     0.0000000000000000E+00 
    1.2500000000024011E-01     6.2500000000093847E-01     0.0000000000000000E+00 
    1.2500000000028680E-01     6.8750000000057998E-01     0.0000000000000000E+00 
    1.2500000000033351E-01     7.5000000000022127E-01     0.0000000000000000E+00 
    1.2500000000038020E-01     8.1249999999986211E-01     0.0000000000000000E+00 
    1.2500000000042691E-01     8.7499999999952238E-01     0.0000000000000000E+00 
    1.2500000000047359E-01     9.3749999999975164E-01     0.0000000000000000E+00 
    1.8749999999966760E-01     6.2500000000187531E-02     0.0000000000000000E+00 
    1.8749999999974179E-01     1.2500000000038020E-01     0.0000000000000000E+00 
    1.8749999999981601E-01     1.8750000000055780E-01     0.0000000000000000E+00 
    1.8749999999989009E-01     2.5000000000073502E-01     0.0000000000000000E+00 
    1.8749999999996431E-01     3.1250000000091221E-01     0.0000000000000000E+00 
    1.8750000000003850E-01     3.7500000000108941E-01     0.0000000000000000E+00 
    1.8750000000011269E-01     4.3750000000126649E-01     0.0000000000000000E+00 
    1.8750000000018691E-01     5.0000000000142808E-01     0.0000000000000000E+00 
    1.8750000000026110E-01     5.6250000000112244E-01     0.0000000000000000E+00 
    1.8750000000033529E-01     6.2500000000080080E-01     0.0000000000000000E+00 
    1.8750000000040951E-01     6.8750000000047962E-01     0.0000000000000000E+00 
    1.8750000000048361E-01     7.5000000000015843E-01     0.0000000000000000E+00 
    1.8750000000055780E-01     8.1249999999983680E-01     0.0000000000000000E+00 
    1.8750000000063199E-01     8.7499999999953304E-01     0.0000000000000000E+00 
    1.8750000000070621E-01     9.3749999999975764E-01     0.0000000000000000E+00 
    2.4999999999951281E-01     6.2500000000163314E-02     0.0000000000000000E+00 
    2.4999999999961461E-01     1.2500000000033351E-01     0.0000000000000000E+00 
    2.4999999999971650E-01     1.8750000000048361E-01     0.0000000000000000E+00 
    2.4999999999981831E-01     2.5000000000063310E-01     0.0000000000000000E+00 
    2.4999999999992020E-01     3.1250000000078260E-01     0.0000000000000000E+00 
    2.5000000000002198E-01     3.7500000000093209E-01     0.0000000000000000E+00 
    2.5000000000012390E-01     4.3750000000108180E-01     0.0000000000000000E+00 
    2.5000000000022571E-01     5.0000000000121769E-01     0.0000000000000000E+00 
    2.5000000000032763E-01     5.6250000000094724E-01     0.0000000000000000E+00 
    2.5000000000042938E-01     6.2500000000066314E-01     0.0000000000000000E+00 
    2.5000000000053119E-01     6.8750000000037925E-01     0.0000000000000000E+00 
[...]
CELL_DATA 256 
SCALARS Pressure double 1 
LOOKUP_TABLE default 

    9.4227175157735243E-01 
    8.9165005352970894E-01 
    8.5899593568798127E-01 
    8.3424078109649835E-01 
    8.1336413750301650E-01 
    7.9513379883548096E-01 
    7.7924945619974417E-01 
    7.6565628021463283E-01 
    7.5431971287973876E-01 
    7.4485940215825541E-01 
    7.3571211335676001E-01 
    7.2770534875075921E-01 
    7.2264146795833406E-01 
    7.1973133287931557E-01 
    7.1837600420557912E-01 
    7.1801060998974342E-01 
    8.9166234712407166E-01 
    8.8116626015076327E-01 
    8.5980537787256295E-01 
    8.3821068412073652E-01 
    8.1808525116132214E-01 
    7.9973649949713155E-01 
    7.8333801342069576E-01 
    7.6903828117349959E-01 
    7.5696090391481441E-01 
    7.4695210167328463E-01 
    7.3781774755800034E-01 
    7.2906227057861894E-01 
    7.2311569985989443E-01 
    7.1964728261838795E-01 
    7.1801042047979657E-01 
    7.1764528552079032E-01 
    8.5901402450569941E-01 
    8.5981488077855805E-01 
    8.4962363772764404E-01 
    8.3416343141135363E-01 
    8.1699868811670207E-01 
    7.9990060069408164E-01 
    7.8381407824209237E-01 
    7.6931200300979241E-01 
    7.5678648810432658E-01 
    7.4635627716171493E-01 
    7.3735115677618224E-01 
    7.2843506094867527E-01 
    7.2176744717971275E-01 
    7.1801385545289143E-01 
    7.1637382915029846E-01 
    7.1629055578371637E-01 
    8.3425563774724443E-01 
    8.3822207964447415E-01 
    8.3416862461055552E-01 
    8.2409113916108723E-01 
    8.1055868254504471E-01 
    7.9555647236087812E-01 
    7.8045245365410054E-01 
    7.6620599021170177E-01 
    7.5351165992958524E-01 
    7.4278112432822840E-01 
    7.3383850238634341E-01 
    7.2526335972085709E-01 
    7.1810223751236246E-01 
    7.1428946036731622E-01 
    7.1290652028370882E-01 
    7.1338143179341384E-01 
    8.1336921348437097E-01 
    8.1809066774375516E-01 
    8.1700284645804255E-01 
    8.1056074002159484E-01 
    8.0014860188652182E-01 
    7.8732445118563255E-01 
    7.7346582513056605E-01 
    7.5972138072689854E-01 
    7.4702509112850757E-01 
    7.3606163252762935E-01 
    7.2706319089213300E-01 
    7.1906369158523886E-01 
    7.1178334999326476E-01 
    7.0796730880243264E-01 
    7.0705414834049674E-01 
    7.0835211942833765E-01 
    7.9512902731660062E-01 
    7.9973253109204723E-01 
    7.9989748328475452E-01 
    7.9555485343484389E-01 
    7.8732312403181937E-01 
    7.7624224205547476E-01 
    7.6348193422557076E-01 
    7.5019682401000720E-01 
    7.3745936205892215E-01 
    7.2618164963219189E-01 
    7.1695590561533606E-01 
    7.0940383935049334E-01 
    7.0235165597717020E-01 
    6.9847890747605557E-01 
    6.9823003992818000E-01 
    7.0061375556384409E-01 
    7.7923093354375139E-01 
    7.8332198561740618E-01 
    7.8380015391275615E-01 
    7.8044245744114826E-01 
    7.7345900774613707E-01 
    7.6347797298898468E-01 
    7.5140007175500911E-01 
    7.3827599356645490E-01 
    7.2521880329021327E-01 
    7.1330785437289068E-01 
    7.0344814793423971E-01 
    6.9581863800387167E-01 
    6.8912439673771297E-01 
    6.8520919868327113E-01 
    6.8578893753787784E-01 
    6.8952384877703843E-01 
    7.6561660019356936E-01 
    7.6900387364767342E-01 
    7.6928359477209052E-01 
    7.6618497878644753E-01 
    7.5970607014332370E-01 
    7.5018622941316127E-01 
    7.3827072451347375E-01 
    7.2485052880135203E-01 
    7.1099954382745234E-01 
    6.9790066564092934E-01 
    6.8673201701188180E-01 
    6.7820809983938868E-01 
    6.7165286860329476E-01 
    6.6766182294891330E-01 
    6.6902381866965466E-01 
    6.7435768345397329E-01 
    7.5425861516398507E-01 
    7.5690523307038760E-01 
    7.5674185508786951E-01 
    7.5348001399754416E-01 
    7.4700032930694715E-01 
    7.3743915883939037E-01 
    7.2520523455403918E-01 
    7.1099334672710335E-01 
    6.9577054316072351E-01 
    6.8075422017288778E-01 
    6.6737159523009926E-01 
    6.5690666311699886E-01 
    6.4962115865141146E-01 
    6.4518701868546990E-01 
    6.4699122788188579E-01 
    6.5420154855102763E-01 
    7.4479066130725724E-01 
    7.4688439694969777E-01 
    7.4630116158577087E-01 
    7.4274475658175232E-01 
    7.3603179584509193E-01 
    7.2615237871852178E-01 
    7.1328328239926631E-01 
    6.9788515144290708E-01 
    6.8074578285565723E-01 
    6.6301261870178041E-01 
    6.4626902709519385E-01 
    6.3237484651721809E-01 
    6.2263653700612476E-01 
    6.1688248385564970E-01 
    6.1840147342915319E-01 
    6.2780910643954524E-01 
    7.3565901256396526E-01 
    7.3776677361057941E-01 
    7.3730761187399252E-01 
    7.3381186948545951E-01 
    7.2703732969507229E-01 
    7.1692136883130997E-01 
    7.0341175106554910E-01 
    6.8670425345872543E-01 
    6.6734980545580913E-01 
    6.4625191068849164E-01 
    6.2493295548182304E-01 
    6.0566783916646627E-01 
    5.9090396597594408E-01 
    5.8190946869221571E-01 
    5.8167124237454537E-01 
    5.9335529548823729E-01 
    7.2765790207637426E-01 
    7.2901850103046861E-01 
    7.2839895771768937E-01 
    7.2523351972489380E-01 
    7.1902950867270532E-01 
    7.0935690291361120E-01 
    6.9576700248650158E-01 
    6.7816903034421094E-01 
    6.5687426289479312E-01 
    6.3233681750984394E-01 
    6.0564153279134070E-01 
    5.7903555936748718E-01 
    5.5588589582223058E-01 
    5.3975525652377965E-01 
    5.3461782579019257E-01 
    5.4773665162203544E-01 
    7.2259384538510774E-01 
    7.2306813948821380E-01 
    7.2172047319969412E-01 
    7.1805735638797552E-01 
    7.1173921645809701E-01 
    7.0229763779980015E-01 
    6.8906865721763244E-01 
    6.7160885169223539E-01 
    6.4958582481747706E-01 
    6.2257729825046426E-01 
    5.9085062409262101E-01 
    5.5586509039503951E-01 
    5.2078739447600619E-01 
    4.9102806908056185E-01 
    4.7413146787280519E-01 
    4.8471907743156034E-01 
    7.1968465850135832E-01 
    7.1960069636899293E-01 
    7.1796790805701061E-01 
    7.1424536895450830E-01 
    7.0792585030078037E-01 
    6.9843831154498548E-01 
    6.8516759366381763E-01 
    6.6762497133338050E-01 
    6.4516347723278566E-01 
    6.1684937075460688E-01 
    5.8187831432364034E-01 
    5.3977113710552971E-01 
    4.9105713423390379E-01 
    4.4047587774916808E-01 
    3.9856042299493544E-01 
    3.9276434770964969E-01 
    7.1832970947786134E-01 
    7.1796417968516546E-01 
    7.1632804176719989E-01 
    7.1286228702322818E-01 
    7.0701217779105174E-01 
    6.9819002131321428E-01 
    6.8575059879473599E-01 
    6.6898944369317404E-01 
    6.4696714792986987E-01 
    6.1838361202048775E-01 
    5.8165362051410407E-01 
    5.3464979068151164E-01 
    4.7418476401017123E-01 
    3.9856947583980878E-01 
    3.1139304767243126E-01 
    2.5194387504675231E-01 
    7.1796441229420505E-01 
    7.1759905513660149E-01 
    7.1624450799325645E-01 
    7.1333675904474880E-01 
    7.0830958621827433E-01 
    7.0057314219627820E-01 
    6.8948552148528808E-01 
    6.7432330142024222E-01 
    6.5417524362471891E-01 
    6.2779200909183819E-01 
    5.9334090988371002E-01 
    5.4773786507013544E-01 
    4.8475428720909247E-01 
    3.9274945090204494E-01 
    2.5190584133310356E-01 
    0.0000000000000000E+00 

SCALARS Saturarion double 1 
LOOKUP_TABLE default 

    1.0000000000000000E+00 
    9.7651435448704471E-01 
    9.3542903386500487E-01 
    8.6229795212983162E-01 
    7.8474019015992069E-01 
    7.1872688610433477E-01 
    6.6114097089379420E-01 
    6.1106560895735740E-01 
    5.6381000291795147E-01 
    4.9542367215027139E-01 
    2.4469749093966925E-01 
    3.2557017190688273E-04 
    1.0000012258656637E-06 
    1.0000000000000804E-06 
    9.9999999999999995E-07 
    9.9999999999999995E-07 
    9.7641010219723245E-01 
    9.5606969638510675E-01 
    9.1928339111268109E-01 
    8.5834646183154273E-01 
    7.9017950847457130E-01 
    7.2791540610176164E-01 
    6.7131781435610360E-01 
    6.2137819113931314E-01 
    5.7503739630602990E-01 
    5.1548438208979452E-01 
    3.5169664445231408E-01 
    2.0983510841088172E-02 
    9.1779615824389272E-06 
    1.0000046361455533E-06 
    9.9999999999999995E-07 
    9.9999999999999995E-07 
    9.3510318960035199E-01 
    9.1909592083958136E-01 
    8.8465376237698867E-01 
    8.3826009592267636E-01 
    7.8567537729237380E-01 
    7.3238397593017590E-01 
    6.8062853379634680E-01 
    6.3273167237764716E-01 
    5.8712648372702325E-01 
    5.3553788550396952E-01 
    4.3100060891871272E-01 
    1.1189574508228477E-01 
    2.3572311494146698E-04 
    1.0132200208658965E-06 
    9.9999999999999995E-07 
    9.9999999999999995E-07 
    8.6161782470776183E-01 
    8.5797754507901669E-01 
    8.3811645661980105E-01 
    8.0709148822362742E-01 
    7.6891894318728771E-01 
    7.2621748273723463E-01 
    6.8220848457996641E-01 
    6.3894536774234667E-01 
    5.9615665418350794E-01 
    5.5018535377286748E-01 
    4.7597115023532854E-01 
    2.3107830867406043E-01 
    3.3630476202350474E-03 
    1.4186386450291739E-06 
    1.0000000666320625E-06 
    9.9999999999999995E-07 
    7.8398435823633583E-01 
    7.8964162984012265E-01 
    7.8534696687963224E-01 
    7.6873126622171906E-01 
    7.4314003025259578E-01 
    7.1143528026170610E-01 
    6.7622930242739221E-01 
    6.3951885896568628E-01 
    6.0187166433402561E-01 
    5.6169495151942950E-01 
    5.0595027151187488E-01 
    3.5024919833197143E-01 
    3.4893294145207948E-02 
    6.7780104834752483E-05 
    1.0003928248838486E-06 
    9.9999999999999995E-07 
    7.1797879702178868E-01 
    7.2737572796672167E-01 
    7.3197983683932466E-01 
    7.2583494255780900E-01 
    7.1121434475728007E-01 
    6.9000283725345668E-01 
    6.6395043887459260E-01 
    6.3493681044995376E-01 
    6.0372354821526220E-01 
    5.6921822559353852E-01 
    5.2441441591157523E-01 
    4.2225602705645549E-01 
    1.1360557614646166E-01 
    2.1745434675581748E-04 
    1.0188722259005022E-06 
    1.0000000000000859E-06 
    6.5997314058567458E-01 
    6.7062485606291522E-01 
    6.8025199412623449E-01 
    6.8182582254666702E-01 
    6.7585500777858554E-01 
    6.6376528693270598E-01 
    6.4669837770047423E-01 
    6.2583635945251215E-01 
    6.0168973590772057E-01 
    5.7324741345592922E-01 
    5.3689684943180360E-01 
    4.6095629828950213E-01 
    2.0998122367959732E-01 
    3.6729361183170106E-03 
    1.5422833538485452E-06 
    1.0000000706447348E-06 
    6.0958454810278473E-01 
    6.2046931140362138E-01 
    6.3232901287451904E-01 
    6.3866090903414774E-01 
    6.3913162547363045E-01 
    6.3456783649989801E-01 
    6.2564063368628531E-01 
    6.1269079030423912E-01 
    5.9564957203054658E-01 
    5.7378196462214937E-01 
    5.4470527304772021E-01 
    4.8794503373157844E-01 
    3.1835055379790572E-01 
    2.8561204290003431E-02 
    5.7464431524291842E-05 
    1.0002179903975113E-06 
    5.6236898849186479E-01 
    5.7410610125244355E-01 
    5.8683034354047525E-01 
    5.9596176970540538E-01 
    6.0161776130443811E-01 
    6.0333319164612542E-01 
    6.0129789999126537E-01 
    5.9539249939343164E-01 
    5.8518978357855300E-01 
    5.7011492763244032E-01 
    5.4882105244929669E-01 
    5.0975032134450193E-01 
    4.0438735359112921E-01 
    1.0454734408985512E-01 
    3.5539352567572476E-04 
    1.0440212218008132E-06 
    4.9474691584069402E-01 
    5.1542682099476678E-01 
    5.3599335848283358E-01 
    5.5005821862344562E-01 
    5.6143702752963731E-01 
    5.6905933773527628E-01 
    5.7295999327584646E-01 
    5.7335725838185214E-01 
    5.6977403728598475E-01 
    5.6160550893010164E-01 
    5.4823438634472299E-01 
    5.2192596614460451E-01 
    4.5235661951622996E-01 
    2.1031860905504632E-01 
    6.2393418817315921E-03 
    2.5905512882774343E-06 
    2.4538492539965817E-01 
    3.5412402821066569E-01 
    4.3378072516998123E-01 
    4.7663206648323281E-01 
    5.0546291096689755E-01 
    5.2418912904971415E-01 
    5.3681635084673207E-01 
    5.4445937554222168E-01 
    5.4824043852232307E-01 
    5.4780043692044922E-01 
    5.4203608960252125E-01 
    5.2775713358993659E-01 
    4.8261425468481689E-01 
    3.2961952726157134E-01 
    4.9547847790317498E-02 
    1.9146075497326461E-04 
    3.3625298481847150E-04 
    2.2836219373363956E-02 
    1.1850910719332369E-01 
    2.3135759561941702E-01 
    3.4665788595099339E-01 
    4.2074170184338999E-01 
    4.6049307232565406E-01 
    4.8823832675087281E-01 
    5.0951901202928085E-01 
    5.2147657811304360E-01 
    5.2743660375871193E-01 
    5.2589187913538238E-01 
    5.0342311798705763E-01 
    4.1200057477565499E-01 
    1.3452439747565109E-01 
    1.1192890644472029E-03 
    1.0000014455080152E-06 
    1.0975446710415380E-05 
    2.4531907297970537E-04 
    3.1377957859679835E-03 
    3.3334056023480288E-02 
    1.1175236805606818E-01 
    2.0994909929592689E-01 
    3.1990706027723276E-01 
    4.0420133052919688E-01 
    4.5201827204948236E-01 
    4.8235179938418871E-01 
    5.0324272795179359E-01 
    5.0645273656186485E-01 
    4.6319681439013100E-01 
    2.7348802058027843E-01 
    4.6327327113558345E-02 
    1.0000000000000942E-06 
    1.0000067029665954E-06 
    1.0158227072757492E-06 
    1.3549092607430091E-06 
    6.5486860942596812E-05 
    2.3211211002035844E-04 
    3.9328626838042984E-03 
    2.8690353997497087E-02 
    1.0435678714064785E-01 
    2.1135845975904630E-01 
    3.3338430262675234E-01 
    4.1354814627142156E-01 
    4.6359579114366506E-01 
    4.7335452282654500E-01 
    3.9169185135281626E-01 
    1.9045917548833538E-01 
    9.9999999999999995E-07 
    9.9999999999999995E-07 
    9.9999999999999995E-07 
    1.0000000538835695E-06 
    1.0003569999391499E-06 
    1.0209486599519361E-06 
    1.6276444924033881E-06 
    5.7509376054055762E-05 
    3.3685405251618485E-04 
    6.7739831186916979E-03 
    5.2562419619842551E-02 
    1.3368446110056492E-01 
    2.7198748046810983E-01 
    3.9120908231082452E-01 
    4.0582934002293652E-01 
    2.8612008068269323E-01 
    9.9999999999999995E-07 
    9.9999999999999995E-07 
    9.9999999999999995E-07 
    9.9999999999999995E-07 
    9.9999999999999995E-07 
    1.0000000000000182E-06 
    1.0000000831395986E-06 
    1.0002256739913388E-06 
    1.0391634639600698E-06 
    2.9925326897899286E-06 
    2.0314808894130980E-04 
    9.5510530337891903E-04 
    4.6865920510278922E-02 
    1.8886524278285965E-01 
    2.8604188177534928E-01 
    2.8616276577184702E-01 
