# vtk DataFile Version 2.0
Pressure Field Data 
ASCII 
DATASET UNSTRUCTURED_GRID 

POINTS 289 double 

    0.0000000000000000E+00     0.0000000000000000E+00     0.0000000000000000E+00 
    1.0000000000000000E+00     0.0000000000000000E+00     0.0000000000000000E+00 
    1.0000000000000000E+00     1.0000000000000000E+00     0.0000000000000000E+00 
    0.0000000000000000E+00     1.0000000000000000E+00     0.0000000000000000E+00 
    6.2499999999872928E-02     0.0000000000000000E+00     0.0000000000000000E+00 
    1.2499999999977310E-01     0.0000000000000000E+00     0.0000000000000000E+00 
    1.8749999999959341E-01     0.0000000000000000E+00     0.0000000000000000E+00 
    2.4999999999941089E-01     0.0000000000000000E+00     0.0000000000000000E+00 
    3.1249999999922851E-01     0.0000000000000000E+00     0.0000000000000000E+00 
    3.7499999999904610E-01     0.0000000000000000E+00     0.0000000000000000E+00 
    4.3749999999886358E-01     0.0000000000000000E+00     0.0000000000000000E+00 
    4.9999999999869210E-01     0.0000000000000000E+00     0.0000000000000000E+00 
    5.6249999999884603E-01     0.0000000000000000E+00     0.0000000000000000E+00 
    6.2499999999901090E-01     0.0000000000000000E+00     0.0000000000000000E+00 
    6.8749999999917577E-01     0.0000000000000000E+00     0.0000000000000000E+00 
    7.4999999999934064E-01     0.0000000000000000E+00     0.0000000000000000E+00 
    8.1249999999950551E-01     0.0000000000000000E+00     0.0000000000000000E+00 
    8.7499999999967026E-01     0.0000000000000000E+00     0.0000000000000000E+00 
    9.3749999999983513E-01     0.0000000000000000E+00     0.0000000000000000E+00 
    1.0000000000000000E+00     6.2499999999872928E-02     0.0000000000000000E+00 
    1.0000000000000000E+00     1.2499999999977310E-01     0.0000000000000000E+00 
    1.0000000000000000E+00     1.8749999999959341E-01     0.0000000000000000E+00 
    1.0000000000000000E+00     2.4999999999941089E-01     0.0000000000000000E+00 
    1.0000000000000000E+00     3.1249999999922851E-01     0.0000000000000000E+00 
    1.0000000000000000E+00     3.7499999999904610E-01     0.0000000000000000E+00 
    1.0000000000000000E+00     4.3749999999886358E-01     0.0000000000000000E+00 
    1.0000000000000000E+00     4.9999999999869210E-01     0.0000000000000000E+00 
    1.0000000000000000E+00     5.6249999999884603E-01     0.0000000000000000E+00 
    1.0000000000000000E+00     6.2499999999901090E-01     0.0000000000000000E+00 
    1.0000000000000000E+00     6.8749999999917577E-01     0.0000000000000000E+00 
    1.0000000000000000E+00     7.4999999999934064E-01     0.0000000000000000E+00 
    1.0000000000000000E+00     8.1249999999950551E-01     0.0000000000000000E+00 
    1.0000000000000000E+00     8.7499999999967026E-01     0.0000000000000000E+00 
    1.0000000000000000E+00     9.3749999999983513E-01     0.0000000000000000E+00 
    9.3749999999973976E-01     1.0000000000000000E+00     0.0000000000000000E+00 
    8.7499999999950118E-01     1.0000000000000000E+00     0.0000000000000000E+00 
    8.1249999999991318E-01     1.0000000000000000E+00     0.0000000000000000E+00 
    7.5000000000034706E-01     1.0000000000000000E+00     0.0000000000000000E+00 
    6.8750000000078049E-01     1.0000000000000000E+00     0.0000000000000000E+00 
    6.2500000000121403E-01     1.0000000000000000E+00     0.0000000000000000E+00 
    5.6250000000164757E-01     1.0000000000000000E+00     0.0000000000000000E+00 
    5.0000000000205946E-01     1.0000000000000000E+00     0.0000000000000000E+00 
    4.3750000000182099E-01     1.0000000000000000E+00     0.0000000000000000E+00 
    3.7500000000156092E-01     1.0000000000000000E+00     0.0000000000000000E+00 
    3.1250000000130068E-01     1.0000000000000000E+00     0.0000000000000000E+00 
    2.5000000000104050E-01     1.0000000000000000E+00     0.0000000000000000E+00 
    1.8750000000078040E-01     1.0000000000000000E+00     0.0000000000000000E+00 
    1.2500000000052031E-01     1.0000000000000000E+00     0.0000000000000000E+00 
    6.2500000000260125E-02     1.0000000000000000E+00     0.0000000000000000E+00 
    0.0000000000000000E+00     9.3749999999973976E-01     0.0000000000000000E+00 
    0.0000000000000000E+00     8.7499999999950118E-01     0.0000000000000000E+00 
    0.0000000000000000E+00     8.1249999999991318E-01     0.0000000000000000E+00 
    0.0000000000000000E+00     7.5000000000034706E-01     0.0000000000000000E+00 
    0.0000000000000000E+00     6.8750000000078049E-01     0.0000000000000000E+00 
    0.0000000000000000E+00     6.2500000000121403E-01     0.0000000000000000E+00 
    0.0000000000000000E+00     5.6250000000164757E-01     0.0000000000000000E+00 
    0.0000000000000000E+00     5.0000000000205946E-01     0.0000000000000000E+00 
    0.0000000000000000E+00     4.3750000000182099E-01     0.0000000000000000E+00 
    0.0000000000000000E+00     3.7500000000156092E-01     0.0000000000000000E+00 
    0.0000000000000000E+00     3.1250000000130068E-01     0.0000000000000000E+00 
    0.0000000000000000E+00     2.5000000000104050E-01     0.0000000000000000E+00 
    0.0000000000000000E+00     1.8750000000078040E-01     0.0000000000000000E+00 
    0.0000000000000000E+00     1.2500000000052031E-01     0.0000000000000000E+00 
    0.0000000000000000E+00     6.2500000000260125E-02     0.0000000000000000E+00 
    6.2499999999897131E-02     6.2500000000235922E-02     0.0000000000000000E+00 
    6.2499999999921327E-02     1.2500000000047351E-01     0.0000000000000000E+00 
    6.2499999999945530E-02     1.8750000000070621E-01     0.0000000000000000E+00 
    6.2499999999969733E-02     2.5000000000093858E-01     0.0000000000000000E+00 
    6.2499999999993928E-02     3.1250000000117117E-01     0.0000000000000000E+00 
    6.2500000000018124E-02     3.7500000000140382E-01     0.0000000000000000E+00 
    6.2500000000042327E-02     4.3750000000163619E-01     0.0000000000000000E+00 
    6.2500000000066530E-02     5.0000000000184897E-01     0.0000000000000000E+00 
    6.2500000000090733E-02     5.6250000000147260E-01     0.0000000000000000E+00 
    6.2500000000114922E-02     6.2500000000107636E-01     0.0000000000000000E+00 
    6.2500000000139125E-02     6.8750000000068034E-01     0.0000000000000000E+00 
    6.2500000000163328E-02     7.5000000000028411E-01     0.0000000000000000E+00 
    6.2500000000187531E-02     8.1249999999988787E-01     0.0000000000000000E+00 
    6.2500000000211720E-02     8.7499999999951172E-01     0.0000000000000000E+00 
    6.2500000000235922E-02     9.3749999999974565E-01     0.0000000000000000E+00 
    1.2499999999981980E-01     6.2500000000211733E-02     0.0000000000000000E+00 
    1.2499999999986650E-01     1.2500000000042691E-01     0.0000000000000000E+00 
    1.2499999999991319E-01     1.8750000000063199E-01     0.0000000000000000E+00 
    1.2499999999995989E-01     2.5000000000083678E-01     0.0000000000000000E+00 
    1.2500000000000661E-01     3.1250000000104172E-01     0.0000000000000000E+00 
    1.2500000000005329E-01     3.7500000000124661E-01     0.0000000000000000E+00 
    1.2500000000010000E-01     4.3750000000145117E-01     0.0000000000000000E+00 
    1.2500000000014669E-01     5.0000000000163858E-01     0.0000000000000000E+00 
    1.2500000000019340E-01     5.6250000000129741E-01     0.0000000000000000E+00 
    1.2500000000024011E-01     6.2500000000093847E-01     0.0000000000000000E+00 
    1.2500000000028680E-01     6.8750000000057998E-01     0.0000000000000000E+00 
    1.2500000000033351E-01     7.5000000000022127E-01     0.0000000000000000E+00 
    1.2500000000038020E-01     8.1249999999986211E-01     0.0000000000000000E+00 
    1.2500000000042691E-01     8.7499999999952238E-01     0.0000000000000000E+00 
    1.2500000000047359E-01     9.3749999999975164E-01     0.0000000000000000E+00 
    1.8749999999966760E-01     6.2500000000187531E-02     0.0000000000000000E+00 
    1.8749999999974179E-01     1.2500000000038020E-01     0.0000000000000000E+00 
    1.8749999999981601E-01     1.8750000000055780E-01     0.0000000000000000E+00 
    1.8749999999989009E-01     2.5000000000073502E-01     0.0000000000000000E+00 
    1.8749999999996431E-01     3.1250000000091221E-01     0.0000000000000000E+00 
    1.8750000000003850E-01     3.7500000000108941E-01     0.0000000000000000E+00 
    1.8750000000011269E-01     4.3750000000126649E-01     0.0000000000000000E+00 
    1.8750000000018691E-01     5.0000000000142808E-01     0.0000000000000000E+00 
    1.8750000000026110E-01     5.6250000000112244E-01     0.0000000000000000E+00 
    1.8750000000033529E-01     6.2500000000080080E-01     0.0000000000000000E+00 
    1.8750000000040951E-01     6.8750000000047962E-01     0.0000000000000000E+00 
    1.8750000000048361E-01     7.5000000000015843E-01     0.0000000000000000E+00 
    1.8750000000055780E-01     8.1249999999983680E-01     0.0000000000000000E+00 
    1.8750000000063199E-01     8.7499999999953304E-01     0.0000000000000000E+00 
    1.8750000000070621E-01     9.3749999999975764E-01     0.0000000000000000E+00 
    2.4999999999951281E-01     6.2500000000163314E-02     0.0000000000000000E+00 
    2.4999999999961461E-01     1.2500000000033351E-01     0.0000000000000000E+00 
    2.4999999999971650E-01     1.8750000000048361E-01     0.0000000000000000E+00 
    2.4999999999981831E-01     2.5000000000063310E-01     0.0000000000000000E+00 
    2.4999999999992020E-01     3.1250000000078260E-01     0.0000000000000000E+00 
    2.5000000000002198E-01     3.7500000000093209E-01     0.0000000000000000E+00 
    2.5000000000012390E-01     4.3750000000108180E-01     0.0000000000000000E+00 
    2.5000000000022571E-01     5.0000000000121769E-01     0.0000000000000000E+00 
    2.5000000000032763E-01     5.6250000000094724E-01     0.0000000000000000E+00 
    2.5000000000042938E-01     6.2500000000066314E-01     0.0000000000000000E+00 
    2.5000000000053119E-01     6.8750000000037925E-01     0.0000000000000000E+00 
[...]
CELL_DATA 256 
SCALARS Pressure double 1 
LOOKUP_TABLE default 

    9.3203689364296227E-01 
    8.8145403887053675E-01 
    8.4887346730185731E-01 
    8.2423493475672915E-01 
    8.0350676230736651E-01 
    7.8543211001506874E-01 
    7.6969496312270258E-01 
    7.5623066005002104E-01 
    7.4501176524482970E-01 
    7.3570663172209594E-01 
    7.2685453376560138E-01 
    7.1899730887849767E-01 
    7.1396429265079908E-01 
    7.1107966232687758E-01 
    7.0973662133668747E-01 
    7.0937458946427767E-01 
    8.8146604070976931E-01 
    8.7098038364270647E-01 
    8.4967511578381449E-01 
    8.2817967720070884E-01 
    8.0819016577904645E-01 
    7.8999177615050498E-01 
    7.7374132536950979E-01 
    7.5957372281472546E-01 
    7.4761239131190582E-01 
    7.3773860749766784E-01 
    7.2887779971607736E-01 
    7.2033640491958517E-01 
    7.1442865829760316E-01 
    7.1099453015809422E-01 
    7.0937383247721153E-01 
    7.0901240468040339E-01 
    8.4889115040416574E-01 
    8.4968440635962683E-01 
    8.3953151608411170E-01 
    8.2415325381960192E-01 
    8.0710767873969735E-01 
    7.9014908045335264E-01 
    7.7420664726348654E-01 
    7.5983761871220534E-01 
    7.4742851032735091E-01 
    7.3711878403197673E-01 
    7.2833537130316162E-01 
    7.1969615828517786E-01 
    7.1308221669171323E-01 
    7.0937192417547856E-01 
    7.0775103875130307E-01 
    7.0766962335437522E-01 
    8.2424954757515290E-01 
    8.2819088016019715E-01 
    8.2415838648334550E-01 
    8.1414478535243295E-01 
    8.0071267553167036E-01 
    7.8583615191540579E-01 
    7.7086914414346619E-01 
    7.5675477719793194E-01 
    7.4417779288940555E-01 
    7.3355774012448105E-01 
    7.2477630083399747E-01 
    7.1651281981643589E-01 
    7.0946051856807857E-01 
    7.0568225951851637E-01 
    7.0431637004183423E-01 
    7.0478792774254861E-01 
    8.0351200668389666E-01 
    8.0819568083015325E-01 
    8.0711194182613466E-01 
    8.0071482689232387E-01 
    7.9038479083278679E-01 
    7.7767220198918163E-01 
    7.6394201928970373E-01 
    7.5032720875965697E-01 
    7.3774898388306853E-01 
    7.2689183284215364E-01 
    7.1802950258167730E-01 
    7.1032248832742539E-01 
    7.0322988111725360E-01 
    6.9942259845940957E-01 
    6.9852211530862851E-01 
    6.9980829942628542E-01 
    7.8542800098703536E-01 
    7.8998835374377063E-01 
    7.9014643265678375E-01 
    7.8583487325400758E-01 
    7.7767103768052215E-01 
    7.6668933868811306E-01 
    7.5404916462998739E-01 
    7.4089057035370565E-01 
    7.2827175181924730E-01 
    7.1709882704848416E-01 
    7.0798524650168726E-01 
    7.0066798472765024E-01 
    6.9388227981160666E-01 
    6.9001895477287734E-01 
    6.8978550141969497E-01 
    6.9214777819531947E-01 
    7.6967777127400461E-01 
    7.7372647626730573E-01 
    7.7419371559285866E-01 
    7.7085985175937455E-01 
    7.6393557820519697E-01 
    7.5404531991352686E-01 
    7.4208136426578530E-01 
    7.2908176455245965E-01 
    7.1614621114196797E-01 
    7.0434467954078994E-01 
    6.9458880635635700E-01 
    6.8712216560274786E-01 
    6.8073789239164817E-01 
    6.7689363963076421E-01 
    6.7747593027794029E-01 
    6.8117379524009647E-01 
    7.5619296087811927E-01 
    7.5954118001435855E-01 
    7.5981073581683056E-01 
    7.5673483402338837E-01 
    7.5031254115477941E-01 
    7.4088025273392555E-01 
    7.2907656208131311E-01 
    7.1578263185644353E-01 
    7.0206164347378952E-01 
    6.8908597003967353E-01 
    6.7803116387763862E-01 
    6.6966474672369647E-01 
    6.6342406258889253E-01 
    6.5956102970748709E-01 
    6.6088957459429176E-01 
    6.6616983831247001E-01 
    7.4495269830470223E-01 
    7.4755877038030516E-01 
    7.4738541516475532E-01 
    7.4414720988574623E-01 
    7.3772508598475883E-01 
    7.2825213698226055E-01 
    7.1613291265196277E-01 
    7.0205548329094025E-01 
    6.8697888953637076E-01 
    6.7210934347391504E-01 
    6.5885745299057208E-01 
    6.4853303343017543E-01 
    6.4152035426729948E-01 
    6.3732257156227989E-01 
    6.3907542049916377E-01 
    6.4622792229741954E-01 
    7.3563892552159327E-01 
    7.3767221328964871E-01 
    7.3706439938405832E-01 
    7.3352169923399457E-01 
    7.2686249052558083E-01 
    7.1707023627366240E-01 
    7.0432072897661169E-01 
    6.8907062735866165E-01 
    6.7210079551061475E-01 
    6.5455139448122035E-01 
    6.3798086221401784E-01 
    6.2423716431458831E-01 
    6.1469116468456375E-01 
    6.0924694430723547E-01 
    6.1077922939339147E-01 
    6.2012216172977952E-01 
    7.2680064518648579E-01 
    7.2882493328072784E-01 
    7.2828938784031605E-01 
    7.2474833814953232E-01 
    7.1800348973607486E-01 
    7.0795212504081129E-01 
    6.9455464703613967E-01 
    6.7800449368208615E-01 
    6.5883559559028348E-01 
    6.3796279207606599E-01 
    6.1688927042995012E-01 
    5.9785135908360365E-01 
    5.8332533187541791E-01 
    5.7468593813482427E-01 
    5.7447605275015601E-01 
    5.8604040089846965E-01 
    7.1894968805517145E-01 
    7.2029186412939250E-01 
    7.1965820532079805E-01 
    7.1648220912629079E-01 
    7.1028975137971528E-01 
    7.0062410964216293E-01 
    6.8707449981201740E-01 
    6.6962769334169225E-01 
    6.4850108280037277E-01 
    6.2419616210920137E-01 
    5.9782151940033623E-01 
    5.7153939052749991E-01 
    5.4871388172840185E-01 
    5.3295855780773504E-01 
    5.2800523452089076E-01 
    5.4090636621591093E-01 
    7.1391696939468985E-01 
    7.1438141302430458E-01 
    7.1303602744538352E-01 
    7.0941848069455504E-01 
    7.0318945153647194E-01 
    6.9383224722686343E-01 
    6.8068524827444921E-01 
    6.6338002818095787E-01 
    6.4148238766572663E-01 
    6.1462667989832354E-01 
    5.8326320486658245E-01 
    5.4868666560821133E-01 
    5.1404802011858008E-01 
    4.8473859651954515E-01 
    4.6812963688162451E-01 
    4.7836326853576600E-01 
    7.1103347181718290E-01 
    7.1094851160955130E-01 
    7.0932691601704800E-01 
    7.0564005999291013E-01 
    6.9938393272280819E-01 
    6.8998140005963304E-01 
    6.7685303474592640E-01 
    6.5952273628524993E-01 
    6.3729532246538556E-01 
    6.0920640376094282E-01 
    5.7464295398170084E-01 
    5.3296392316437768E-01 
    4.8477119632324911E-01 
    4.3479175906367257E-01 
    3.9346065180384532E-01 
    3.8733391344600149E-01 
    7.0969084968483864E-01 
    7.0932820622914272E-01 
    7.0770617638224753E-01 
    7.0427356378593731E-01 
    6.9848202817202354E-01 
    6.8974743196852373E-01 
    6.7743849024791869E-01 
    6.6085405394146512E-01 
    6.3904853347139712E-01 
    6.1075489835292474E-01 
    5.7444767570257471E-01 
    5.2802500479889825E-01 
    4.6818941776123163E-01 
    3.9348191480698236E-01 
    3.0742302012608402E-01 
    2.4851773435106830E-01 
    7.0932889695898294E-01 
    7.0896674921218317E-01 
    7.0762444472997799E-01 
    7.0474450405812872E-01 
    6.9976731915669454E-01 
    6.9210876921258135E-01 
    6.8113644532031969E-01 
    6.6613500220215627E-01 
    6.4619943910158828E-01 
    6.2009985809688239E-01 
    5.8601548537006298E-01 
    5.4089640520882509E-01 
    4.7839956067011191E-01 
    3.8733387393964674E-01 
    2.4847200223914159E-01 
    0.0000000000000000E+00 

SCALARS Saturarion double 1 
LOOKUP_TABLE default 

    1.0000000000000000E+00 
    9.7699449830063323E-01 
    9.3667949565791764E-01 
    8.6490867864312460E-01 
    7.8795542012090591E-01 
    7.2212941154132948E-01 
    6.6444764936880762E-01 
    6.1407740051759752E-01 
    5.6706499036938052E-01 
    5.0214395110354071E-01 
    2.7290530215580572E-01 
    1.0570768447188440E-03 
    1.0000067170741919E-06 
    1.0000000000005001E-06 
    9.9999999999999995E-07 
    9.9999999999999995E-07 
    9.7689319797850405E-01 
    9.5695669081794277E-01 
    9.2083857169394745E-01 
    8.6100813652286090E-01 
    7.9335876681924333E-01 
    7.3133806879971364E-01 
    6.7469981529624679E-01 
    6.2448907171028145E-01 
    5.7824284405652349E-01 
    5.2108491273736068E-01 
    3.7252528826616210E-01 
    3.3025369318906803E-02 
    1.9782981432453313E-05 
    1.0000244208208599E-06 
    9.9999999999999995E-07 
    9.9999999999999995E-07 
    9.3636197418221545E-01 
    9.2065487532765911E-01 
    8.8682169394889321E-01 
    8.4107523864548661E-01 
    7.8887334034090772E-01 
    7.3587091749553868E-01 
    6.8413201469036100E-01 
    6.3606189934731128E-01 
    5.9050792450100931E-01 
    5.3998341138641870E-01 
    4.4258137461446850E-01 
    1.3384118974715828E-01 
    2.4108413767524837E-04 
    1.0207153732328203E-06 
    1.0000000000000027E-06 
    9.9999999999999995E-07 
    8.6424471358940957E-01 
    8.6064757619995780E-01 
    8.4093639555247834E-01 
    8.1011245941908205E-01 
    7.7226376617201853E-01 
    7.2980543755740968E-01 
    6.8584915755911979E-01 
    6.4249391823267210E-01 
    5.9965604187706167E-01 
    5.5426719136270330E-01 
    4.8419738903224840E-01 
    2.5671981841937469E-01 
    6.4560467836131735E-03 
    2.6989043753518202E-06 
    1.0000003558621674E-06 
    9.9999999999999995E-07 
    7.8721619653202868E-01 
    7.9283435544123448E-01 
    7.8855306738489395E-01 
    7.7207871401377803E-01 
    7.4668313668286979E-01 
    7.1514443013381424E-01 
    6.8000660293675741E-01 
    6.4321680293678329E-01 
    6.0543639312520725E-01 
    5.6540582080722490E-01 
    5.1163066233549492E-01 
    3.7314323457957432E-01 
    4.9471760197604547E-02 
    1.1383827031963551E-04 
    1.0014370652065750E-06 
    9.9999999999999995E-07 
    7.2140009022989160E-01 
    7.3081403432795056E-01 
    7.3547700094356760E-01 
    7.2942775541230742E-01 
    7.1492442414313162E-01 
    6.9383112134048419E-01 
    6.6781923754537598E-01 
    6.3870106547138517E-01 
    6.0732131839162362E-01 
    5.7286352822238806E-01 
    5.2973066655893308E-01 
    4.3329531123337373E-01 
    1.3358901218197100E-01 
    2.6776876490609109E-04 
    1.0245684537316945E-06 
    1.0000000001122778E-06 
    6.6330406484248727E-01 
    6.7402908645962356E-01 
    6.8376856573591460E-01 
    6.8547064331379859E-01 
    6.7963299194096283E-01 
    6.6763532728120989E-01 
    6.5057200373133517E-01 
    6.2960038319279965E-01 
    6.0531060676449244E-01 
    5.7684810483567772E-01 
    5.4108084080757524E-01 
    4.7101731232529437E-01 
    2.3670835383008698E-01 
    6.6875809679094534E-03 
    3.0681977831261184E-06 
    1.0000003948781842E-06 
    6.1261806287871301E-01 
    6.2359374142430657E-01 
    6.3566012388672521E-01 
    6.4220796985506690E-01 
    6.4283056771484204E-01 
    6.3833744683805083E-01 
    6.2941036234603931E-01 
    6.1641782512205590E-01 
    5.9934323881087248E-01 
    5.7747181301637129E-01 
    5.4884784887609550E-01 
    4.9467836521880926E-01 
    3.4305467756197838E-01 
    4.0485140791251532E-02 
    9.7911789379083724E-05 
    1.0008245677719417E-06 
    5.6562263982286176E-01 
    5.7728767180646268E-01 
    5.9017811140810894E-01 
    5.9944864855382740E-01 
    6.0518137427405638E-01 
    6.0693722585455534E-01 
    6.0493050256643721E-01 
    5.9909442387258094E-01 
    5.8900108527792017E-01 
    5.7398361214532057E-01 
    5.5279645642625241E-01 
    5.1549415817399724E-01 
    4.1479483137568984E-01 
    1.1982375184629368E-01 
    4.4128858748658707E-04 
    1.0552305860663740E-06 
    5.0142689936293161E-01 
    5.2092973330512360E-01 
    5.4036883363211852E-01 
    5.5413544346573540E-01 
    5.6513109203172252E-01 
    5.7268156022040007E-01 
    5.7656365771871243E-01 
    5.7706182564907527E-01 
    5.7365369418910372E-01 
    5.6561545933232116E-01 
    5.5223921906350482E-01 
    5.2712584710825638E-01 
    4.6257210557026390E-01 
    2.3136120371144756E-01 
    1.0405589435839446E-02 
    6.0887813527607501E-06 
    2.7365038486794641E-01 
    3.7445118005327910E-01 
    4.4505069369813699E-01 
    4.8480568380296657E-01 
    5.1116756347643932E-01 
    5.2953181146835671E-01 
    5.4105563325373107E-01 
    5.4862920125596004E-01 
    5.5223883302267462E-01 
    5.5181266017142883E-01 
    5.4610586153606189E-01 
    5.3230249243088079E-01 
    4.9035279035819396E-01 
    3.5216575827096164E-01 
    6.2654457888026635E-02 
    2.5896259954967619E-04 
    1.0885850185142047E-03 
    3.5263407329033526E-02 
    1.4061081445382539E-01 
    2.5783394311722974E-01 
    3.6992481735092114E-01 
    4.3202282254158914E-01 
    4.7049827579791997E-01 
    4.9483171757034000E-01 
    5.1527421911279925E-01 
    5.2667946586394376E-01 
    5.3199005512338959E-01 
    5.3021519298134656E-01 
    5.0875318929320401E-01 
    4.2316520023510618E-01 
    1.5099230433106026E-01 
    2.0560614280631891E-03 
    1.0000080914013191E-06 
    2.3231264625359706E-05 
    2.4839652943899873E-04 
    6.0983505117899418E-03 
    4.7381251379245641E-02 
    1.3152974036830892E-01 
    2.3637439963957568E-01 
    3.4420248345440041E-01 
    4.1449292769597801E-01 
    4.6192230953183144E-01 
    4.9021536877523864E-01 
    5.0859250594734984E-01 
    5.1156016588392450E-01 
    4.7013364113325951E-01 
    2.9268181245646724E-01 
    6.0894730967555280E-02 
    1.0000000000005948E-06 
    1.0000344018512049E-06 
    1.0237395064934323E-06 
    2.4849703762648783E-06 
    1.1157338439411883E-04 
    2.7439133374657771E-04 
    7.0975570985760093E-03 
    4.0601400775953964E-02 
    1.1958321732269596E-01 
    2.3242761208686291E-01 
    3.5537866904620097E-01 
    4.2481377097192685E-01 
    4.7076986038420798E-01 
    4.7811876523053365E-01 
    3.9926184992532110E-01 
    1.9896405183905469E-01 
    9.9999999999999995E-07 
    9.9999999999999995E-07 
    1.0000000000003849E-06 
    1.0000002931748700E-06 
    1.0013420220273107E-06 
    1.0278083722517499E-06 
    3.3667204825500440E-06 
    9.6415555423697301E-05 
    4.3143282187961128E-04 
    1.1191155205986930E-02 
    6.6129335732017708E-02 
    1.5112183625951822E-01 
    2.9212556777023507E-01 
    3.9859403731870674E-01 
    4.1290730173146195E-01 
    2.9382311595169058E-01 
    9.9999999999999995E-07 
    9.9999999999999995E-07 
    9.9999999999999995E-07 
    9.9999999999999995E-07 
    9.9999999999999995E-07 
    1.0000000000924873E-06 
    1.0000004752956796E-06 
    1.0008279221258080E-06 
    1.0488930480961872E-06 
    7.3640981552444178E-06 
    2.7401041405117327E-04 
    1.7314718714339762E-03 
    6.1384182379406946E-02 
    1.9733063914531332E-01 
    2.9377930224998383E-01 
    2.9374326581696519E-01 
