# vtk DataFile Version 2.0
Pressure Field Data 
ASCII 
DATASET UNSTRUCTURED_GRID 

POINTS 289 double 

    0.0000000000000000E+00     0.0000000000000000E+00     0.0000000000000000E+00 
    1.0000000000000000E+00     0.0000000000000000E+00     0.0000000000000000E+00 
    1.0000000000000000E+00     1.0000000000000000E+00     0.0000000000000000E+00 
    0.0000000000000000E+00     1.0000000000000000E+00     0.0000000000000000E+00 
    6.2499999999872928E-02     0.0000000000000000E+00     0.0000000000000000E+00 
    1.2499999999977310E-01     0.0000000000000000E+00     0.0000000000000000E+00 
    1.8749999999959341E-01     0.0000000000000000E+00     0.0000000000000000E+00 
    2.4999999999941089E-01     0.0000000000000000E+00     0.0000000000000000E+00 
    3.1249999999922851E-01     0.0000000000000000E+00     0.0000000000000000E+00 
    3.7499999999904610E-01     0.0000000000000000E+00     0.0000000000000000E+00 
    4.3749999999886358E-01     0.0000000000000000E+00     0.0000000000000000E+00 
    4.9999999999869210E-01     0.0000000000000000E+00     0.0000000000000000E+00 
    5.6249999999884603E-01     0.0000000000000000E+00     0.0000000000000000E+00 
    6.2499999999901090E-01     0.0000000000000000E+00     0.0000000000000000E+00 
    6.8749999999917577E-01     0.0000000000000000E+00     0.0000000000000000E+00 
    7.4999999999934064E-01     0.0000000000000000E+00     0.0000000000000000E+00 
    8.1249999999950551E-01     0.0000000000000000E+00     0.0000000000000000E+00 
    8.7499999999967026E-01     0.0000000000000000E+00     0.0000000000000000E+00 
    9.3749999999983513E-01     0.0000000000000000E+00     0.0000000000000000E+00 
    1.0000000000000000E+00     6.2499999999872928E-02     0.0000000000000000E+00 
    1.0000000000000000E+00     1.2499999999977310E-01     0.0000000000000000E+00 
    1.0000000000000000E+00     1.8749999999959341E-01     0.0000000000000000E+00 
    1.0000000000000000E+00     2.4999999999941089E-01     0.0000000000000000E+00 
    1.0000000000000000E+00     3.1249999999922851E-01     0.0000000000000000E+00 
    1.0000000000000000E+00     3.7499999999904610E-01     0.0000000000000000E+00 
    1.0000000000000000E+00     4.3749999999886358E-01     0.0000000000000000E+00 
    1.0000000000000000E+00     4.9999999999869210E-01     0.0000000000000000E+00 
    1.0000000000000000E+00     5.6249999999884603E-01     0.0000000000000000E+00 
    1.0000000000000000E+00     6.2499999999901090E-01     0.0000000000000000E+00 
    1.0000000000000000E+00     6.8749999999917577E-01     0.0000000000000000E+00 
    1.0000000000000000E+00     7.4999999999934064E-01     0.0000000000000000E+00 
    1.0000000000000000E+00     8.1249999999950551E-01     0.0000000000000000E+00 
    1.0000000000000000E+00     8.7499999999967026E-01     0.0000000000000000E+00 
    1.0000000000000000E+00     9.3749999999983513E-01     0.0000000000000000E+00 
    9.3749999999973976E-01     1.0000000000000000E+00     0.0000000000000000E+00 
    8.7499999999950118E-01     1.0000000000000000E+00     0.0000000000000000E+00 
    8.1249999999991318E-01     1.0000000000000000E+00     0.0000000000000000E+00 
    7.5000000000034706E-01     1.0000000000000000E+00     0.0000000000000000E+00 
    6.8750000000078049E-01     1.0000000000000000E+00     0.0000000000000000E+00 
    6.2500000000121403E-01     1.0000000000000000E+00     0.0000000000000000E+00 
    5.6250000000164757E-01     1.0000000000000000E+00     0.0000000000000000E+00 
    5.0000000000205946E-01     1.0000000000000000E+00     0.0000000000000000E+00 
    4.3750000000182099E-01     1.0000000000000000E+00     0.0000000000000000E+00 
    3.7500000000156092E-01     1.0000000000000000E+00     0.0000000000000000E+00 
    3.1250000000130068E-01     1.0000000000000000E+00     0.0000000000000000E+00 
    2.5000000000104050E-01     1.0000000000000000E+00     0.0000000000000000E+00 
    1.8750000000078040E-01     1.0000000000000000E+00     0.0000000000000000E+00 
    1.2500000000052031E-01     1.0000000000000000E+00     0.0000000000000000E+00 
    6.2500000000260125E-02     1.0000000000000000E+00     0.0000000000000000E+00 
    0.0000000000000000E+00     9.3749999999973976E-01     0.0000000000000000E+00 
    0.0000000000000000E+00     8.7499999999950118E-01     0.0000000000000000E+00 
    0.0000000000000000E+00     8.1249999999991318E-01     0.0000000000000000E+00 
    0.0000000000000000E+00     7.5000000000034706E-01     0.0000000000000000E+00 
    0.0000000000000000E+00     6.8750000000078049E-01     0.0000000000000000E+00 
    0.0000000000000000E+00     6.2500000000121403E-01     0.0000000000000000E+00 
    0.0000000000000000E+00     5.6250000000164757E-01     0.0000000000000000E+00 
    0.0000000000000000E+00     5.0000000000205946E-01     0.0000000000000000E+00 
    0.0000000000000000E+00     4.3750000000182099E-01     0.0000000000000000E+00 
    0.0000000000000000E+00     3.7500000000156092E-01     0.0000000000000000E+00 
    0.0000000000000000E+00     3.1250000000130068E-01     0.0000000000000000E+00 
    0.0000000000000000E+00     2.5000000000104050E-01     0.0000000000000000E+00 
    0.0000000000000000E+00     1.8750000000078040E-01     0.0000000000000000E+00 
    0.0000000000000000E+00     1.2500000000052031E-01     0.0000000000000000E+00 
    0.0000000000000000E+00     6.2500000000260125E-02     0.0000000000000000E+00 
    6.2499999999897131E-02     6.2500000000235922E-02     0.0000000000000000E+00 
    6.2499999999921327E-02     1.2500000000047351E-01     0.0000000000000000E+00 
    6.2499999999945530E-02     1.8750000000070621E-01     0.0000000000000000E+00 
    6.2499999999969733E-02     2.5000000000093858E-01     0.0000000000000000E+00 
    6.2499999999993928E-02     3.1250000000117117E-01     0.0000000000000000E+00 
    6.2500000000018124E-02     3.7500000000140382E-01     0.0000000000000000E+00 
    6.2500000000042327E-02     4.3750000000163619E-01     0.0000000000000000E+00 
    6.2500000000066530E-02     5.0000000000184897E-01     0.0000000000000000E+00 
    6.2500000000090733E-02     5.6250000000147260E-01     0.0000000000000000E+00 
    6.2500000000114922E-02     6.2500000000107636E-01     0.0000000000000000E+00 
    6.2500000000139125E-02     6.8750000000068034E-01     0.0000000000000000E+00 
    6.2500000000163328E-02     7.5000000000028411E-01     0.0000000000000000E+00 
    6.2500000000187531E-02     8.1249999999988787E-01     0.0000000000000000E+00 
    6.2500000000211720E-02     8.7499999999951172E-01     0.0000000000000000E+00 
    6.2500000000235922E-02     9.3749999999974565E-01     0.0000000000000000E+00 
    1.2499999999981980E-01     6.2500000000211733E-02     0.0000000000000000E+00 
    1.2499999999986650E-01     1.2500000000042691E-01     0.0000000000000000E+00 
    1.2499999999991319E-01     1.8750000000063199E-01     0.0000000000000000E+00 
    1.2499999999995989E-01     2.5000000000083678E-01     0.0000000000000000E+00 
    1.2500000000000661E-01     3.1250000000104172E-01     0.0000000000000000E+00 
    1.2500000000005329E-01     3.7500000000124661E-01     0.0000000000000000E+00 
    1.2500000000010000E-01     4.3750000000145117E-01     0.0000000000000000E+00 
    1.2500000000014669E-01     5.0000000000163858E-01     0.0000000000000000E+00 
    1.2500000000019340E-01     5.6250000000129741E-01     0.0000000000000000E+00 
    1.2500000000024011E-01     6.2500000000093847E-01     0.0000000000000000E+00 
    1.2500000000028680E-01     6.8750000000057998E-01     0.0000000000000000E+00 
    1.2500000000033351E-01     7.5000000000022127E-01     0.0000000000000000E+00 
    1.2500000000038020E-01     8.1249999999986211E-01     0.0000000000000000E+00 
    1.2500000000042691E-01     8.7499999999952238E-01     0.0000000000000000E+00 
    1.2500000000047359E-01     9.3749999999975164E-01     0.0000000000000000E+00 
    1.8749999999966760E-01     6.2500000000187531E-02     0.0000000000000000E+00 
    1.8749999999974179E-01     1.2500000000038020E-01     0.0000000000000000E+00 
    1.8749999999981601E-01     1.8750000000055780E-01     0.0000000000000000E+00 
    1.8749999999989009E-01     2.5000000000073502E-01     0.0000000000000000E+00 
    1.8749999999996431E-01     3.1250000000091221E-01     0.0000000000000000E+00 
    1.8750000000003850E-01     3.7500000000108941E-01     0.0000000000000000E+00 
    1.8750000000011269E-01     4.3750000000126649E-01     0.0000000000000000E+00 
    1.8750000000018691E-01     5.0000000000142808E-01     0.0000000000000000E+00 
    1.8750000000026110E-01     5.6250000000112244E-01     0.0000000000000000E+00 
    1.8750000000033529E-01     6.2500000000080080E-01     0.0000000000000000E+00 
    1.8750000000040951E-01     6.8750000000047962E-01     0.0000000000000000E+00 
    1.8750000000048361E-01     7.5000000000015843E-01     0.0000000000000000E+00 
    1.8750000000055780E-01     8.1249999999983680E-01     0.0000000000000000E+00 
    1.8750000000063199E-01     8.7499999999953304E-01     0.0000000000000000E+00 
    1.8750000000070621E-01     9.3749999999975764E-01     0.0000000000000000E+00 
    2.4999999999951281E-01     6.2500000000163314E-02     0.0000000000000000E+00 
    2.4999999999961461E-01     1.2500000000033351E-01     0.0000000000000000E+00 
    2.4999999999971650E-01     1.8750000000048361E-01     0.0000000000000000E+00 
    2.4999999999981831E-01     2.5000000000063310E-01     0.0000000000000000E+00 
    2.4999999999992020E-01     3.1250000000078260E-01     0.0000000000000000E+00 
    2.5000000000002198E-01     3.7500000000093209E-01     0.0000000000000000E+00 
    2.5000000000012390E-01     4.3750000000108180E-01     0.0000000000000000E+00 
    2.5000000000022571E-01     5.0000000000121769E-01     0.0000000000000000E+00 
    2.5000000000032763E-01     5.6250000000094724E-01     0.0000000000000000E+00 
    2.5000000000042938E-01     6.2500000000066314E-01     0.0000000000000000E+00 
    2.5000000000053119E-01     6.8750000000037925E-01     0.0000000000000000E+00 
[...]
CELL_DATA 256 
SCALARS Pressure double 1 
LOOKUP_TABLE default 

    6.7352964226062728E-01 
    6.2382564715805811E-01 
    5.9287584180600494E-01 
    5.7075445686407345E-01 
    5.5329759760816821E-01 
    5.3877683040358804E-01 
    5.2650858022778091E-01 
    5.1619183156697401E-01 
    5.0766616057889058E-01 
    5.0083739214759404E-01 
    4.9562759405150236E-01 
    4.9177722625898135E-01 
    4.8851894998902240E-01 
    4.8622010639716412E-01 
    4.8519743834731782E-01 
    4.8492289694287660E-01 
    6.2383017491372927E-01 
    6.1359042796833285E-01 
    5.9352202639430762E-01 
    5.7418816388831384E-01 
    5.5719416036610048E-01 
    5.4241748803992573E-01 
    5.2963736612879120E-01 
    5.1871311652096308E-01 
    5.0955682368129185E-01 
    5.0211658441336549E-01 
    4.9636063261168112E-01 
    4.9213510344836986E-01 
    4.8877340555554655E-01 
    4.8614789427716354E-01 
    4.8491821605258262E-01 
    4.8464703261824088E-01 
    5.9288210619984494E-01 
    5.9352536180877380E-01 
    5.8424093468572258E-01 
    5.7069126773093226E-01 
    5.5631578905701484E-01 
    5.4254927673368658E-01 
    5.2998213292516738E-01 
    5.1887709912891766E-01 
    5.0936050719131054E-01 
    5.0150302135321145E-01 
    4.9535174167118268E-01 
    4.9086649825168882E-01 
    4.8758051645329303E-01 
    4.8493712628431174E-01 
    4.8368437583349544E-01 
    4.8362896280401690E-01 
    5.7075814359490951E-01 
    5.7419107864279773E-01 
    5.7069244681607934E-01 
    5.6217791816653984E-01 
    5.5106861870084722E-01 
    5.3910455444836203E-01 
    5.2736062722036903E-01 
    5.1648244554164879E-01 
    5.0686413536492536E-01 
    4.9875936311303254E-01 
    4.9233752010969317E-01 
    4.8767643108329073E-01 
    4.8453599771662442E-01 
    4.8215881522171189E-01 
    4.8106614019476091E-01 
    4.8144681052884675E-01 
    5.5329627534444847E-01 
    5.5719337972395988E-01 
    5.5631543024231844E-01 
    5.5106863528438854E-01 
    5.4272111529701295E-01 
    5.3264757674635188E-01 
    5.2197832541290523E-01 
    5.1155628035615419E-01 
    5.0199274497392166E-01 
    4.9373383664316350E-01 
    4.8710149160695976E-01 
    4.8230166420832216E-01 
    4.7928321458798873E-01 
    4.7737297087914471E-01 
    4.7667173307906857E-01 
    4.7769299650475106E-01 
    5.3877103943287952E-01 
    5.4241199191116507E-01 
    5.4254498734982970E-01 
    5.3910234592962369E-01 
    5.3264641343824248E-01 
    5.2408512006352714E-01 
    5.1437839855617595E-01 
    5.0439363419055250E-01 
    4.9486859815910472E-01 
    4.8641393736862426E-01 
    4.7951689170524336E-01 
    4.7453466139664374E-01 
    4.7160772098643006E-01 
    4.7024898255629566E-01 
    4.7012608465660582E-01 
    4.7194995636265408E-01 
    5.2649728560532238E-01 
    5.2962665266266762E-01 
    5.2997257377174745E-01 
    5.2735380168865198E-01 
    5.2197361097434269E-01 
    5.1437531123769487E-01 
    5.0528985812728600E-01 
    4.9550958042579701E-01 
    4.8581816500392239E-01 
    4.7695154725860639E-01 
    4.6956520429842313E-01 
    4.6419360935137799E-01 
    4.6119052891794726E-01 
    4.6034055949509117E-01 
    4.6094623431800408E-01 
    4.6372395998552440E-01 
    5.1617206792537751E-01 
    5.1869527124838088E-01 
    5.1886139737851833E-01 
    5.1646982069803837E-01 
    5.1154600234935466E-01 
    5.0438515406765561E-01 
    4.9550438059837332E-01 
    4.8557445828379936E-01 
    4.7536476103051079E-01 
    4.6569750164007534E-01 
    4.5739762723377497E-01 
    4.5121897169159525E-01 
    4.4776149446009300E-01 
    4.4712334178074370E-01 
    4.4849569545154172E-01 
    4.5247024078965226E-01 
    5.0763656940317348E-01 
    5.0952993964624083E-01 
    5.0933718894876878E-01 
    5.0684494549337855E-01 
    5.0197571101296012E-01 
    4.9485270055736147E-01 
    4.8580542224096551E-01 
    4.7535775733738389E-01 
    4.6421207530275094E-01 
    4.5322961283859298E-01 
    4.4339434573935771E-01 
    4.3573264417505325E-01 
    4.3118383135850347E-01 
    4.3024278458720872E-01 
    4.3227667051110802E-01 
    4.3762802534211620E-01 
    5.0079762559415253E-01 
    5.0207913060895393E-01 
    5.0146948171318451E-01 
    4.9873146770223697E-01 
    4.9370863075086729E-01 
    4.8638912723713473E-01 
    4.7692924792677494E-01 
    4.6568145067377720E-01 
    4.5322116479795654E-01 
    4.4037353145902436E-01 
    4.2822899322759073E-01 
    4.1810943703416392E-01 
    4.1143040795850294E-01 
    4.0931322480864818E-01 
    4.1156580086820149E-01 
    4.1829191546390043E-01 
    4.9557679348107936E-01 
    4.9631068233624320E-01 
    4.9530496087931264E-01 
    4.9229746730084722E-01 
    4.8706523620065911E-01 
    4.7948087061271139E-01 
    4.6953123078590392E-01 
    4.5737014302368922E-01 
    4.4337524527082750E-01 
    4.2821898509168110E-01 
    4.1296631666719003E-01 
    3.9915623519635940E-01 
    3.8876273251271409E-01 
    3.8384317781163174E-01 
    3.8521231039059028E-01 
    3.9287515411175539E-01 
    4.9171748445610802E-01 
    4.9207493076869935E-01 
    4.9080808168883983E-01 
    4.8762464104296405E-01 
    4.8225325315188960E-01 
    4.7448485202933349E-01 
    4.6414536697727504E-01 
    4.5117712592519571E-01 
    4.3569956642595437E-01 
    4.1808665762551167E-01 
    3.9914702865319435E-01 
    3.8037698442907769E-01 
    3.6417410998198096E-01 
    3.5378431251696502E-01 
    3.5196254912747893E-01 
    3.5945641353161384E-01 
    4.8845689606949860E-01 
    4.8871312258825250E-01 
    4.8752210374494720E-01 
    4.8448161680263024E-01 
    4.7922963849842481E-01 
    4.7154700203825811E-01 
    4.6112790854020486E-01 
    4.4770314074603967E-01 
    4.3113398133670272E-01 
    4.1139128302625944E-01 
    3.8874678734481483E-01 
    3.6417533570740956E-01 
    3.3991860916811001E-01 
    3.2009505644000863E-01 
    3.1057615610568207E-01 
    3.1528482542697578E-01 
    4.8615954836137265E-01 
    4.8608841035611644E-01 
    4.8488022368585582E-01 
    4.8210595830239839E-01 
    4.7732155186416686E-01 
    4.7019168080581569E-01 
    4.6027635347379142E-01 
    4.4705865999555827E-01 
    4.3018361620129258E-01 
    4.0926777105436274E-01 
    3.8383775862519631E-01 
    3.5381288502075764E-01 
    3.2012321076477540E-01 
    2.8605178082415972E-01 
    2.6009873411910928E-01 
    2.5450820461175999E-01 
    4.8513740151053802E-01 
    4.8485851942629699E-01 
    4.8362549728700888E-01 
    4.8100829319563371E-01 
    4.7661648093714448E-01 
    4.7006937304409430E-01 
    4.6088339551163271E-01 
    4.4843361565414663E-01 
    4.3221190183115149E-01 
    4.1153118688219054E-01 
    3.8522800278316577E-01 
    3.5202836029686779E-01 
    3.1064749524972018E-01 
    2.6012496128921841E-01 
    2.0381510287720470E-01 
    1.6398280631681544E-01 
    4.8486303418953997E-01 
    4.8458737654330075E-01 
    4.8356986181038625E-01 
    4.8138858160348275E-01 
    4.7763615030752693E-01 
    4.7189201819181364E-01 
    4.6366186912021640E-01 
    4.5240642228528821E-01 
    4.3755483027315706E-01 
    4.1824363356528860E-01 
    3.9289911888677459E-01 
    3.5952277926529486E-01 
    3.1537722589177536E-01 
    2.5455442979297449E-01 
    1.6395247404443344E-01 
    0.0000000000000000E+00 

SCALARS Saturarion double 1 
LOOKUP_TABLE default 

    1.0000000000000000E+00 
    9.8794819934778688E-01 
    9.6559199533580120E-01 
    9.2599264216746791E-01 
    8.7340352863074999E-01 
    8.1911179165512515E-01 
    7.6674310934160650E-01 
    7.1536069813157988E-01 
    6.6428283946854527E-01 
    6.1439271531552420E-01 
    5.6641500827263569E-01 
    4.9234145680485264E-01 
    1.9579649279846542E-01 
    3.7743210379264829E-06 
    1.0000000146435636E-06 
    9.9999999999999995E-07 
    9.8790924445537298E-01 
    9.7732082972696088E-01 
    9.5691914966682623E-01 
    9.2367305603618621E-01 
    8.7773074385901440E-01 
    8.2745090243068953E-01 
    7.7709314618095049E-01 
    7.2708590851777688E-01 
    6.7699996275364138E-01 
    6.2729003935717653E-01 
    5.7934652125462904E-01 
    5.1606383647008069E-01 
    3.1952481120295995E-01 
    9.3284328386803086E-03 
    2.7019221127910751E-06 
    1.0000001627020644E-06 
    9.6546007661992761E-01 
    9.5683744405521476E-01 
    9.3731532436427201E-01 
    9.1028979466454119E-01 
    8.7379223574786757E-01 
    8.3155175594688058E-01 
    7.8688402456021345E-01 
    7.4077351514374135E-01 
    6.9325446244638766E-01 
    6.4483999264014402E-01 
    5.9697312114548351E-01 
    5.4285726192899642E-01 
    4.2021273747857268E-01 
    7.9787860875814520E-02 
    1.6584368954874177E-04 
    1.0023679359073264E-06 
    9.2568555627784466E-01 
    9.2347794466627142E-01 
    9.1020507984882437E-01 
    8.8847146222737572E-01 
    8.6030643986266697E-01 
    8.2686640569320624E-01 
    7.8968601378339676E-01 
    7.4938587487528863E-01 
    7.0620153488434079E-01 
    6.6064202888227574E-01 
    6.1367713281995473E-01 
    5.6432813185409736E-01 
    4.7356992016570931E-01 
    1.7876709097289567E-01 
    8.0259936862104816E-04 
    1.0259601965546050E-06 
    8.7304027952757113E-01 
    8.7748204438820487E-01 
    8.7365249274974710E-01 
    8.6022005991736372E-01 
    8.4022886858773971E-01 
    8.1525078765454351E-01 
    7.8584062041529124E-01 
    7.5228560989886695E-01 
    7.1478480863576710E-01 
    6.7370417401313276E-01 
    6.2931081854761062E-01 
    5.8201168780991341E-01 
    5.1426780150732054E-01 
    2.9809050687792210E-01 
    1.5544355403221790E-02 
    1.1160628410874561E-05 
    8.1875279017068570E-01 
    8.2723018851360719E-01 
    8.3139281387752173E-01 
    8.2666569329846895E-01 
    8.1510756695509268E-01 
    7.9812403092651063E-01 
    7.7625072741991208E-01 
    7.4978966003945291E-01 
    7.1874375879221808E-01 
    6.8309151701524151E-01 
    6.4269449951995350E-01 
    5.9812195578279725E-01 
    5.4115131454696463E-01 
    3.9872969071832515E-01 
    6.5418039715944634E-02 
    9.0746292796981825E-05 
    7.6611359679995139E-01 
    7.7683437643984099E-01 
    7.8680436079462335E-01 
    7.8950420895753548E-01 
    7.8557675695316842E-01 
    7.7610379243882932E-01 
    7.6161984712215669E-01 
    7.4238337040035818E-01 
    7.1824696043172365E-01 
    6.8871383194286240E-01 
    6.5326681084230143E-01 
    6.1187022843090244E-01 
    5.6141776887742600E-01 
    4.4844991282280594E-01 
    1.1824597002273536E-01 
    1.3468626794502941E-04 
    7.1449498108475196E-01 
    7.2671675340857744E-01 
    7.4072253538743560E-01 
    7.4931284946177490E-01 
    7.5202192327088446E-01 
    7.4950087716020852E-01 
    7.4224010018145126E-01 
    7.3032819802485238E-01 
    7.1342302129373780E-01 
    6.9076799245061826E-01 
    6.6135413620089567E-01 
    6.2426498081620752E-01 
    5.7999378565366244E-01 
    4.9265007649742076E-01 
    2.0858778757025495E-01 
    2.8313530208189429E-03 
    6.6338607656397852E-01 
    6.7647495980101457E-01 
    6.9312559989505829E-01 
    7.0612115228245709E-01 
    7.1462461814074418E-01 
    7.1846165946726825E-01 
    7.1799027500467549E-01 
    7.1327046163174734E-01 
    7.0388903929381141E-01 
    6.8883153414194220E-01 
    6.6670014831221558E-01 
    6.3565557289563701E-01 
    5.9580154160054788E-01 
    5.2785328529187836E-01 
    3.0698227704089742E-01 
    1.2939501460668554E-02 
    6.1337043460978491E-01 
    6.2660001932426768E-01 
    6.4462701663611410E-01 
    6.6037257115548786E-01 
    6.7344697768192985E-01 
    6.8288559149336092E-01 
    6.8851368049873229E-01 
    6.9053917519317576E-01 
    6.8866129232919471E-01 
    6.8178556686766201E-01 
    6.6807033730521670E-01 
    6.4503252370730169E-01 
    6.1063212371466757E-01 
    5.5535860125880643E-01 
    3.9258349240820767E-01 
    7.2576085032025228E-02 
    5.6497287866198342E-01 
    5.7840531763747882E-01 
    5.9667669583424199E-01 
    6.1332079487188529E-01 
    6.2878102692016269E-01 
    6.4232575478560427E-01 
    6.5314333204454722E-01 
    6.6121462168885037E-01 
    6.6642396374168977E-01 
    6.6787350820224956E-01 
    6.6354585564147051E-01 
    6.5044028601494353E-01 
    6.2449015833737909E-01 
    5.7856207327622833E-01 
    4.4712037262614512E-01 
    1.4832198438812605E-01 
    4.9040976316737978E-01 
    5.1554716151096591E-01 
    5.4312929292420775E-01 
    5.6444026819018378E-01 
    5.8158399907870151E-01 
    5.9749429775408891E-01 
    6.1154908693006949E-01 
    6.2420545685714368E-01 
    6.3549080596740581E-01 
    6.4474334811011802E-01 
    6.5022052304979649E-01 
    6.4879495104443796E-01 
    6.3512777559680156E-01 
    6.0119939910687537E-01 
    5.0170108024487192E-01 
    2.3462330284052021E-01 
    1.9348459130357698E-01 
    3.1993037090934984E-01 
    4.2250832409125055E-01 
    4.7524672963613640E-01 
    5.1454268505970702E-01 
    5.4107335947767421E-01 
    5.6126740393338381E-01 
    5.7973786812115669E-01 
    5.9570533727828734E-01 
    6.1059110053395294E-01 
    6.2439744762392146E-01 
    6.3496346069879772E-01 
    6.3637058594663043E-01 
    6.1930673666220926E-01 
    5.5035575086170341E-01 
    3.1216496613165634E-01 
    3.2251536831346497E-06 
    9.7321506314373592E-03 
    8.4887006386513211E-02 
    1.8036376865544373E-01 
    2.9925796117020464E-01 
    3.9937981384847293E-01 
    4.5058635250604262E-01 
    4.9362382388156290E-01 
    5.2862920235238275E-01 
    5.5589297378587543E-01 
    5.7999451003192659E-01 
    6.0172168806935877E-01 
    6.1936764181433324E-01 
    6.2022600500709013E-01 
    5.8859814181144865E-01 
    3.9283438400259496E-01 
    1.0000000150885043E-06 
    2.8968364212598060E-06 
    1.8755041616432799E-04 
    7.9422256388668965E-04 
    1.6474375482248005E-02 
    6.6070101301048872E-02 
    1.2589944714175427E-01 
    2.1017165887995068E-01 
    3.0984671106207645E-01 
    3.9404824353957218E-01 
    4.5024016366165215E-01 
    5.0248798238123649E-01 
    5.5042414425952091E-01 
    5.8821320004224931E-01 
    5.9741035031890455E-01 
    4.6868924248725424E-01 
    9.9999999999999995E-07 
    1.0000001900787762E-06 
    1.0031464423834398E-06 
    1.0233894904317145E-06 
    1.2914586344893710E-05 
    1.0130434236991094E-04 
    1.7831353813229641E-04 
    1.9448710366364098E-03 
    1.5886368956524757E-02 
    6.5846421955583906E-02 
    1.6091179554800594E-01 
    2.3512861829712572E-01 
    3.1286714090244572E-01 
    3.9164318343905785E-01 
    4.6866354641743296E-01 
    4.6871438403585836E-01 
