# vtk DataFile Version 2.0
Pressure Field Data 
ASCII 
DATASET UNSTRUCTURED_GRID 

POINTS 289 double 

    0.0000000000000000E+00     0.0000000000000000E+00     0.0000000000000000E+00 
    1.0000000000000000E+00     0.0000000000000000E+00     0.0000000000000000E+00 
    1.0000000000000000E+00     1.0000000000000000E+00     0.0000000000000000E+00 
    0.0000000000000000E+00     1.0000000000000000E+00     0.0000000000000000E+00 
    6.2499999999872928E-02     0.0000000000000000E+00     0.0000000000000000E+00 
    1.2499999999977310E-01     0.0000000000000000E+00     0.0000000000000000E+00 
    1.8749999999959341E-01     0.0000000000000000E+00     0.0000000000000000E+00 
    2.4999999999941089E-01     0.0000000000000000E+00     0.0000000000000000E+00 
    3.1249999999922851E-01     0.0000000000000000E+00     0.0000000000000000E+00 
    3.7499999999904610E-01     0.0000000000000000E+00     0.0000000000000000E+00 
    4.3749999999886358E-01     0.0000000000000000E+00     0.0000000000000000E+00 
    4.9999999999869210E-01     0.0000000000000000E+00     0.0000000000000000E+00 
    5.6249999999884603E-01     0.0000000000000000E+00     0.0000000000000000E+00 
    6.2499999999901090E-01     0.0000000000000000E+00     0.0000000000000000E+00 
    6.8749999999917577E-01     0.0000000000000000E+00     0.0000000000000000E+00 
    7.4999999999934064E-01     0.0000000000000000E+00     0.0000000000000000E+00 
    8.1249999999950551E-01     0.0000000000000000E+00     0.0000000000000000E+00 
    8.7499999999967026E-01     0.0000000000000000E+00     0.0000000000000000E+00 
    9.3749999999983513E-01     0.0000000000000000E+00     0.0000000000000000E+00 
    1.0000000000000000E+00     6.2499999999872928E-02     0.0000000000000000E+00 
    1.0000000000000000E+00     1.2499999999977310E-01     0.0000000000000000E+00 
    1.0000000000000000E+00     1.8749999999959341E-01     0.0000000000000000E+00 
    1.0000000000000000E+00     2.4999999999941089E-01     0.0000000000000000E+00 
    1.0000000000000000E+00     3.1249999999922851E-01     0.0000000000000000E+00 
    1.0000000000000000E+00     3.7499999999904610E-01     0.0000000000000000E+00 
    1.0000000000000000E+00     4.3749999999886358E-01     0.0000000000000000E+00 
    1.0000000000000000E+00     4.9999999999869210E-01     0.0000000000000000E+00 
    1.0000000000000000E+00     5.6249999999884603E-01     0.0000000000000000E+00 
    1.0000000000000000E+00     6.2499999999901090E-01     0.0000000000000000E+00 
    1.0000000000000000E+00     6.8749999999917577E-01     0.0000000000000000E+00 
    1.0000000000000000E+00     7.4999999999934064E-01     0.0000000000000000E+00 
    1.0000000000000000E+00     8.1249999999950551E-01     0.0000000000000000E+00 
    1.0000000000000000E+00     8.7499999999967026E-01     0.0000000000000000E+00 
    1.0000000000000000E+00     9.3749999999983513E-01     0.0000000000000000E+00 
    9.3749999999973976E-01     1.0000000000000000E+00     0.0000000000000000E+00 
    8.7499999999950118E-01     1.0000000000000000E+00     0.0000000000000000E+00 
    8.1249999999991318E-01     1.0000000000000000E+00     0.0000000000000000E+00 
    7.5000000000034706E-01     1.0000000000000000E+00     0.0000000000000000E+00 
    6.8750000000078049E-01     1.0000000000000000E+00     0.0000000000000000E+00 
    6.2500000000121403E-01     1.0000000000000000E+00     0.0000000000000000E+00 
    5.6250000000164757E-01     1.0000000000000000E+00     0.0000000000000000E+00 
    5.0000000000205946E-01     1.0000000000000000E+00     0.0000000000000000E+00 
    4.3750000000182099E-01     1.0000000000000000E+00     0.0000000000000000E+00 
    3.7500000000156092E-01     1.0000000000000000E+00     0.0000000000000000E+00 
    3.1250000000130068E-01     1.0000000000000000E+00     0.0000000000000000E+00 
    2.5000000000104050E-01     1.0000000000000000E+00     0.0000000000000000E+00 
    1.8750000000078040E-01     1.0000000000000000E+00     0.0000000000000000E+00 
    1.2500000000052031E-01     1.0000000000000000E+00     0.0000000000000000E+00 
    6.2500000000260125E-02     1.0000000000000000E+00     0.0000000000000000E+00 
    0.0000000000000000E+00     9.3749999999973976E-01     0.0000000000000000E+00 
    0.0000000000000000E+00     8.7499999999950118E-01     0.0000000000000000E+00 
    0.0000000000000000E+00     8.1249999999991318E-01     0.0000000000000000E+00 
    0.0000000000000000E+00     7.5000000000034706E-01     0.0000000000000000E+00 
    0.0000000000000000E+00     6.8750000000078049E-01     0.0000000000000000E+00 
    0.0000000000000000E+00     6.2500000000121403E-01     0.0000000000000000E+00 
    0.0000000000000000E+00     5.6250000000164757E-01     0.0000000000000000E+00 
    0.0000000000000000E+00     5.0000000000205946E-01     0.0000000000000000E+00 
    0.0000000000000000E+00     4.3750000000182099E-01     0.0000000000000000E+00 
    0.0000000000000000E+00     3.7500000000156092E-01     0.0000000000000000E+00 
    0.0000000000000000E+00     3.1250000000130068E-01     0.0000000000000000E+00 
    0.0000000000000000E+00     2.5000000000104050E-01     0.0000000000000000E+00 
    0.0000000000000000E+00     1.8750000000078040E-01     0.0000000000000000E+00 
    0.0000000000000000E+00     1.2500000000052031E-01     0.0000000000000000E+00 
    0.0000000000000000E+00     6.2500000000260125E-02     0.0000000000000000E+00 
    6.2499999999897131E-02     6.2500000000235922E-02     0.0000000000000000E+00 
    6.2499999999921327E-02     1.2500000000047351E-01     0.0000000000000000E+00 
    6.2499999999945530E-02     1.8750000000070621E-01     0.0000000000000000E+00 
    6.2499999999969733E-02     2.5000000000093858E-01     0.0000000000000000E+00 
    6.2499999999993928E-02     3.1250000000117117E-01     0.0000000000000000E+00 
    6.2500000000018124E-02     3.7500000000140382E-01     0.0000000000000000E+00 
    6.2500000000042327E-02     4.3750000000163619E-01     0.0000000000000000E+00 
    6.2500000000066530E-02     5.0000000000184897E-01     0.0000000000000000E+00 
    6.2500000000090733E-02     5.6250000000147260E-01     0.0000000000000000E+00 
    6.2500000000114922E-02     6.2500000000107636E-01     0.0000000000000000E+00 
    6.2500000000139125E-02     6.8750000000068034E-01     0.0000000000000000E+00 
    6.2500000000163328E-02     7.5000000000028411E-01     0.0000000000000000E+00 
    6.2500000000187531E-02     8.1249999999988787E-01     0.0000000000000000E+00 
    6.2500000000211720E-02     8.7499999999951172E-01     0.0000000000000000E+00 
    6.2500000000235922E-02     9.3749999999974565E-01     0.0000000000000000E+00 
    1.2499999999981980E-01     6.2500000000211733E-02     0.0000000000000000E+00 
    1.2499999999986650E-01     1.2500000000042691E-01     0.0000000000000000E+00 
    1.2499999999991319E-01     1.8750000000063199E-01     0.0000000000000000E+00 
    1.2499999999995989E-01     2.5000000000083678E-01     0.0000000000000000E+00 
    1.2500000000000661E-01     3.1250000000104172E-01     0.0000000000000000E+00 
    1.2500000000005329E-01     3.7500000000124661E-01     0.0000000000000000E+00 
    1.2500000000010000E-01     4.3750000000145117E-01     0.0000000000000000E+00 
    1.2500000000014669E-01     5.0000000000163858E-01     0.0000000000000000E+00 
    1.2500000000019340E-01     5.6250000000129741E-01     0.0000000000000000E+00 
    1.2500000000024011E-01     6.2500000000093847E-01     0.0000000000000000E+00 
    1.2500000000028680E-01     6.8750000000057998E-01     0.0000000000000000E+00 
    1.2500000000033351E-01     7.5000000000022127E-01     0.0000000000000000E+00 
    1.2500000000038020E-01     8.1249999999986211E-01     0.0000000000000000E+00 
    1.2500000000042691E-01     8.7499999999952238E-01     0.0000000000000000E+00 
    1.2500000000047359E-01     9.3749999999975164E-01     0.0000000000000000E+00 
    1.8749999999966760E-01     6.2500000000187531E-02     0.0000000000000000E+00 
    1.8749999999974179E-01     1.2500000000038020E-01     0.0000000000000000E+00 
    1.8749999999981601E-01     1.8750000000055780E-01     0.0000000000000000E+00 
    1.8749999999989009E-01     2.5000000000073502E-01     0.0000000000000000E+00 
    1.8749999999996431E-01     3.1250000000091221E-01     0.0000000000000000E+00 
    1.8750000000003850E-01     3.7500000000108941E-01     0.0000000000000000E+00 
    1.8750000000011269E-01     4.3750000000126649E-01     0.0000000000000000E+00 
    1.8750000000018691E-01     5.0000000000142808E-01     0.0000000000000000E+00 
    1.8750000000026110E-01     5.6250000000112244E-01     0.0000000000000000E+00 
    1.8750000000033529E-01     6.2500000000080080E-01     0.0000000000000000E+00 
    1.8750000000040951E-01     6.8750000000047962E-01     0.0000000000000000E+00 
    1.8750000000048361E-01     7.5000000000015843E-01     0.0000000000000000E+00 
    1.8750000000055780E-01     8.1249999999983680E-01     0.0000000000000000E+00 
    1.8750000000063199E-01     8.7499999999953304E-01     0.0000000000000000E+00 
    1.8750000000070621E-01     9.3749999999975764E-01     0.0000000000000000E+00 
    2.4999999999951281E-01     6.2500000000163314E-02     0.0000000000000000E+00 
    2.4999999999961461E-01     1.2500000000033351E-01     0.0000000000000000E+00 
    2.4999999999971650E-01     1.8750000000048361E-01     0.0000000000000000E+00 
    2.4999999999981831E-01     2.5000000000063310E-01     0.0000000000000000E+00 
    2.4999999999992020E-01     3.1250000000078260E-01     0.0000000000000000E+00 
    2.5000000000002198E-01     3.7500000000093209E-01     0.0000000000000000E+00 
    2.5000000000012390E-01     4.3750000000108180E-01     0.0000000000000000E+00 
    2.5000000000022571E-01     5.0000000000121769E-01     0.0000000000000000E+00 
    2.5000000000032763E-01     5.6250000000094724E-01     0.0000000000000000E+00 
    2.5000000000042938E-01     6.2500000000066314E-01     0.0000000000000000E+00 
    2.5000000000053119E-01     6.8750000000037925E-01     0.0000000000000000E+00 
[...]
CELL_DATA 256 
SCALARS Pressure double 1 
LOOKUP_TABLE default 

    1.0244164536758102E+00 
    9.7290844479695215E-01 
    9.3850714969680626E-01 
    9.1098824961149605E-01 
    8.8664781715573571E-01 
    8.6488423938173797E-01 
    8.4568625264219877E-01 
    8.2888122187552526E-01 
    8.1337544615527713E-01 
    7.9682836728733775E-01 
    7.8283608728473519E-01 
    7.7353461236705789E-01 
    7.6746136070771365E-01 
    7.6393934793394347E-01 
    7.6229629294341850E-01 
    7.6185214277672797E-01 
    9.7292625559319734E-01 
    9.6219670412988723E-01 
    9.3952868850358584E-01 
    9.1560240762301548E-01 
    8.9231606098800154E-01 
    8.7056474313249088E-01 
    8.5089220959936596E-01 
    8.3350655181572164E-01 
    8.1780729977565902E-01 
    8.0128112380536254E-01 
    7.8580450713982553E-01 
    7.7514793379760205E-01 
    7.6805521596390292E-01 
    7.6384566987879277E-01 
    7.6185711252714150E-01 
    7.6141103851078018E-01 
    9.3853199946136934E-01 
    9.3954161460539243E-01 
    9.2849403825526033E-01 
    9.1115725875600906E-01 
    8.9126747979009602E-01 
    8.7103476096600096E-01 
    8.5179718247840330E-01 
    8.3430047584539235E-01 
    8.1849769700454555E-01 
    8.0244328462272474E-01 
    7.8604206273941801E-01 
    7.7425639343918973E-01 
    7.6646071671728000E-01 
    7.6188568763728681E-01 
    7.5988450235102789E-01 
    7.5977741407624588E-01 
    9.1100181703666694E-01 
    9.1561326692175393E-01 
    9.1116091101652685E-01 
    8.9969758138628209E-01 
    8.8393902490385790E-01 
    8.6616234686870064E-01 
    8.4811510767177012E-01 
    8.3099982714619958E-01 
    8.1529643901708493E-01 
    7.9993359353572824E-01 
    7.8325233409019646E-01 
    7.7030030258584037E-01 
    7.6204661150675290E-01 
    7.5739053785892918E-01 
    7.5569275981919559E-01 
    7.5626155322138067E-01 
    8.8663612458036745E-01 
    8.9230860129685419E-01 
    8.9126157963465880E-01 
    8.8393542811378911E-01 
    8.7179084034549015E-01 
    8.5660623226416588E-01 
    8.4008977795534279E-01 
    8.2365194514704554E-01 
    8.0817027729808588E-01 
    7.9335406949351894E-01 
    7.7685095362379231E-01 
    7.6273961073213259E-01 
    7.5420253458161290E-01 
    7.4969526100250805E-01 
    7.4858897166616878E-01 
    7.5016376950721164E-01 
    8.6484417940901881E-01 
    8.7053052575812262E-01 
    8.7100799656085182E-01 
    8.6614630731998632E-01 
    8.5659902928817533E-01 
    8.4357018885963320E-01 
    8.2847727961768980E-01 
    8.1269197525416492E-01 
    7.9731643299814858E-01 
    7.8262203032730782E-01 
    7.6642246771013811E-01 
    7.5129370102759885E-01 
    7.4238983280898674E-01 
    7.3814153333998911E-01 
    7.3786405459824100E-01 
    7.4076749119089569E-01 
    8.4561516278352811E-01 
    8.5082679695599273E-01 
    8.5174300194294272E-01 
    8.4807880498523303E-01 
    8.4006919266960656E-01 
    8.2846716867769510E-01 
    8.1434060749294057E-01 
    7.9888069350586499E-01 
    7.8326434259135591E-01 
    7.6817068399840471E-01 
    7.5205476720782449E-01 
    7.3585894083152337E-01 
    7.2611127804877307E-01 
    7.2205143270673033E-01 
    7.2276081280468951E-01 
    7.2730967554361237E-01 
    8.2878118446782933E-01 
    8.3341134639346459E-01 
    8.3422084317289724E-01 
    8.3094279137668270E-01 
    8.2361390937280454E-01 
    8.1266699175339729E-01 
    7.9886803532941553E-01 
    7.8319653840503889E-01 
    7.6679547313973584E-01 
    7.5062714868296398E-01 
    7.3388335380342873E-01 
    7.1616549013895381E-01 
    7.0477275372235715E-01 
    7.0065209452467114E-01 
    7.0240789898660017E-01 
    7.0891963570657346E-01 
    8.1326706394511805E-01 
    8.1769954157305158E-01 
    8.1840624003145945E-01 
    8.1522946372354899E-01 
    8.0811846137972154E-01 
    7.9727422936951520E-01 
    7.8323621451028302E-01 
    7.6678375198335946E-01 
    7.4892456497391002E-01 
    7.3074561575867614E-01 
    7.1207904065562866E-01 
    6.9179577964985128E-01 
    6.7772966904807086E-01 
    6.7303641743237619E-01 
    6.7573847408322119E-01 
    6.8453575680761225E-01 
    7.9673827583793355E-01 
    8.0119813360276315E-01 
    8.0237111436348696E-01 
    7.9987313372379365E-01 
    7.9329729962167195E-01 
    7.8256444007805881E-01 
    7.6812560635863536E-01 
    7.5060243990162612E-01 
    7.3073196043340416E-01 
    7.0951363010092916E-01 
    6.8703276998057050E-01 
    6.6270204635181351E-01 
    6.4465752234576401E-01 
    6.3824667268973456E-01 
    6.4140775028144104E-01 
    6.5277662547144888E-01 
    7.8276318738426387E-01 
    7.8573419062838967E-01 
    7.8598294694520776E-01 
    7.8320423821712171E-01 
    7.7679915649476416E-01 
    7.6636438966906417E-01 
    7.5199278011842774E-01 
    7.3382978864193393E-01 
    7.1202705924681142E-01 
    6.8698666428088373E-01 
    6.5890658766203680E-01 
    6.2927608743326779E-01 
    6.0576525662293057E-01 
    5.9541038616062802E-01 
    5.9767023184883106E-01 
    6.1170572277206869E-01 
    7.7346956180418613E-01 
    7.7508142151113657E-01 
    7.7419132664151535E-01 
    7.7023984116503474E-01 
    7.6268719531926421E-01 
    7.5124202319156974E-01 
    7.3580610874424357E-01 
    7.1611702954158352E-01 
    6.9174369696799154E-01 
    6.6264262523525086E-01 
    6.2924507886091907E-01 
    5.9381654398392592E-01 
    5.6287553420380598E-01 
    5.4429749975147657E-01 
    5.4227605397283696E-01 
    5.5835224080314849E-01 
    7.6740255330909712E-01 
    7.6799430717894912E-01 
    7.6639874745677838E-01 
    7.6198656595910674E-01 
    7.5414738341311072E-01 
    7.4233838312311295E-01 
    7.2606188142136918E-01 
    7.0472888344753393E-01 
    6.7770389852675039E-01 
    6.4463430593868998E-01 
    6.0575325453571416E-01 
    5.6287855928206787E-01 
    5.2058382911292433E-01 
    4.8660720990059880E-01 
    4.7260064872582513E-01 
    4.8763721558497886E-01 
    7.6388550054661664E-01 
    7.6378969845082301E-01 
    7.6182700295142181E-01 
    7.5733140154577427E-01 
    7.4963893652552949E-01 
    7.3808918772799970E-01 
    7.2200284119703617E-01 
    7.0060862267030755E-01 
    6.7300281791861138E-01 
    6.3822070225808081E-01 
    5.9539280181414356E-01 
    5.4428972038248946E-01 
    4.8660387925374915E-01 
    4.2866822085482309E-01 
    3.8711878617114948E-01 
    3.8977578166017596E-01 
    7.6224621426910311E-01 
    7.6180548233950862E-01 
    7.5982901693748783E-01 
    7.5563450029024992E-01 
    7.4853169400119124E-01 
    7.3781036393404031E-01 
    7.2271116798224444E-01 
    7.0236315311952857E-01 
    6.7570092686158023E-01 
    6.4137799347049562E-01 
    5.9764824537213612E-01 
    5.4226195843615665E-01 
    4.7259258799583936E-01 
    3.8711517746658008E-01 
    2.9352045189467280E-01 
    2.4378487803204196E-01 
    7.6180415117525480E-01 
    7.6136251809571953E-01 
    7.5972431852093980E-01 
    7.5620357166497343E-01 
    7.5010519519796415E-01 
    7.4071214961303677E-01 
    7.2725809281712173E-01 
    7.0887265550215239E-01 
    6.8449503015282698E-01 
    6.5274335181220156E-01 
    6.1167990063854805E-01 
    5.5833375027778043E-01 
    4.8762514546939623E-01 
    3.8976891579974765E-01 
    2.4378208126491355E-01 
    0.0000000000000000E+00 

SCALARS Saturarion double 1 
LOOKUP_TABLE default 

    1.0000000000000002E+00 
    9.6595426358522307E-01 
    9.0761776874030908E-01 
    8.0760990106378128E-01 
    7.2335136127587507E-01 
    6.5714100966852662E-01 
    6.0441139669900412E-01 
    5.5164398573788065E-01 
    4.5599691949004434E-01 
    1.2061957773280305E-01 
    1.0026162549513131E-06 
    1.0000000016851203E-06 
    9.9999999999999995E-07 
    9.9999999999999995E-07 
    9.9999999999999995E-07 
    9.9999999999999995E-07 
    9.6578373407069185E-01 
    9.3668442336336999E-01 
    8.8475418460265276E-01 
    8.0375881787938486E-01 
    7.2871994693997166E-01 
    6.6510623919642997E-01 
    6.1254588408266208E-01 
    5.6120864825271344E-01 
    4.8221447241014409E-01 
    2.1989052157538166E-01 
    4.6349968132759257E-04 
    1.0103405270951655E-06 
    1.0000000010964013E-06 
    9.9999999999999995E-07 
    9.9999999999999995E-07 
    9.9999999999999995E-07 
    9.0710929113390260E-01 
    8.8451217543995608E-01 
    8.3836913284062942E-01 
    7.8187780284742203E-01 
    7.2256388145085360E-01 
    6.6712974778089507E-01 
    6.1772092340062990E-01 
    5.6922256986526132E-01 
    5.0650060193689161E-01 
    3.3604314591252638E-01 
    1.8794017163944229E-02 
    1.1973633676144137E-05 
    1.0000099673232130E-06 
    9.9999999999999995E-07 
    9.9999999999999995E-07 
    9.9999999999999995E-07 
    8.0655461733802281E-01 
    8.0313754125242953E-01 
    7.8161705358060074E-01 
    7.4612818630372268E-01 
    7.0279342878607920E-01 
    6.5815416557921746E-01 
    6.1594286309620916E-01 
    5.7399542032743023E-01 
    5.2186872813684737E-01 
    4.1279015915046841E-01 
    8.7070990733963849E-02 
    1.3658953778317935E-04 
    1.0036458202120524E-06 
    9.9999999999999995E-07 
    9.9999999999999995E-07 
    9.9999999999999995E-07 
    7.2223056941186392E-01 
    7.2790188440604697E-01 
    7.2209864233546417E-01 
    7.0257788649106512E-01 
    6.7405953235463512E-01 
    6.4135580903239464E-01 
    6.0847853974630917E-01 
    5.7419322142684448E-01 
    5.3146232524300285E-01 
    4.5110799640531529E-01 
    1.7447545815131271E-01 
    4.1832008483290260E-04 
    1.0120763677085907E-06 
    1.0000000016205377E-06 
    9.9999999999999995E-07 
    9.9999999999999995E-07 
    6.5592552943967353E-01 
    6.6419288569072432E-01 
    6.6653992968678544E-01 
    6.5771885417464082E-01 
    6.4111303705204559E-01 
    6.1996682366701938E-01 
    5.9617326800653714E-01 
    5.6916347959648250E-01 
    5.3490781167473966E-01 
    4.7393241053908913E-01 
    2.6751886320239227E-01 
    5.7456080058258278E-03 
    2.2276439208789777E-06 
    1.0000002802092776E-06 
    9.9999999999999995E-07 
    9.9999999999999995E-07 
    6.0284667810138692E-01 
    6.1164941231077796E-01 
    6.1730692974386003E-01 
    6.1552563610470123E-01 
    6.0801090139468206E-01 
    5.9587895036938943E-01 
    5.7908815521491663E-01 
    5.5812433108359694E-01 
    5.3229183731826546E-01 
    4.8632476828532678E-01 
    3.4734825116738266E-01 
    2.9485954417606593E-02 
    1.5278120084754947E-05 
    1.0000198194082355E-06 
    9.9999999999999995E-07 
    9.9999999999999995E-07 
    5.4987590637412176E-01 
    5.6057213234611936E-01 
    5.6918161827476865E-01 
    5.7380776198860317E-01 
    5.7372332494016320E-01 
    5.6858935340612171E-01 
    5.5783940929747666E-01 
    5.4259294428319682E-01 
    5.2375600956265389E-01 
    4.9112391705178060E-01 
    3.9182043514866377E-01 
    7.7096442236992149E-02 
    3.6866206123137407E-05 
    1.0000668617268815E-06 
    1.0000000000040560E-06 
    9.9999999999999995E-07 
    4.5482914623919118E-01 
    4.8267290070646462E-01 
    5.0720470217284686E-01 
    5.2202568292580565E-01 
    5.3135854405677463E-01 
    5.3435151583264906E-01 
    5.3179062470385063E-01 
    5.2343182162331259E-01 
    5.1031730343411219E-01 
    4.8680502635224709E-01 
    4.1321603427149550E-01 
    1.2094585428169320E-01 
    8.7329464726221786E-06 
    1.0000143533368339E-06 
    1.0000000000000010E-06 
    9.9999999999999995E-07 
    1.2076694333264419E-01 
    2.2217495032780088E-01 
    3.3960535603336228E-01 
    4.1335777811793423E-01 
    4.5070855490920086E-01 
    4.7367480512590443E-01 
    4.8607065162091301E-01 
    4.9059384182130061E-01 
    4.8637532157402175E-01 
    4.7053744333689818E-01 
    4.1662012684063843E-01 
    1.5561740441984581E-01 
    3.9697874680076133E-05 
    1.0001272099914735E-06 
    1.0000000000434468E-06 
    9.9999999999999995E-07 
    1.0030942210592795E-06 
    5.3575595827039929E-04 
    2.1128780146532956E-02 
    8.6332537518093583E-02 
    1.7487551127943765E-01 
    2.6810185840775153E-01 
    3.4837042586789208E-01 
    3.9123579102812206E-01 
    4.1177987988256148E-01 
    4.1569634354262341E-01 
    3.7629046694155582E-01 
    1.3076179924159367E-01 
    2.5167936605907610E-04 
    1.0071287141446167E-06 
    1.0000000008125839E-06 
    9.9999999999999995E-07 
    1.0000000019712889E-06 
    1.0121681960869071E-06 
    1.5220562588500347E-05 
    1.2240687256513720E-04 
    4.3988585937194171E-04 
    5.7002398018333317E-03 
    3.0716111794377901E-02 
    7.4355903529977438E-02 
    1.1817281821768896E-01 
    1.5290903607506473E-01 
    1.2850456948816147E-01 
    1.3258698842340825E-02 
    5.2120514078070082E-06 
    1.0000013942543281E-06 
    1.0000000000000112E-06 
    9.9999999999999995E-07 
    9.9999999999999995E-07 
    1.0000000013152842E-06 
    1.0000162806490855E-06 
    1.0030255733925480E-06 
    1.0125520423381109E-06 
    2.1847777416868097E-06 
    1.6497909112237501E-05 
    2.8060343666919110E-05 
    9.7804876939186182E-06 
    3.8016006728868598E-05 
    2.4380104092978374E-04 
    5.1928589539346775E-06 
    1.0000037134151420E-06 
    1.0000000000004000E-06 
    9.9999999999999995E-07 
    9.9999999999999995E-07 
    9.9999999999999995E-07 
    9.9999999999999995E-07 
    1.0000000000000002E-06 
    9.9999999999999995E-07 
    1.0000000016864059E-06 
    1.0000002665644351E-06 
    1.0000227506677107E-06 
    1.0000379276521906E-06 
    1.0000225145156570E-06 
    1.0001181752328025E-06 
    1.0065410031695849E-06 
    1.0000013749742891E-06 
    1.0000000000003898E-06 
    9.9999999999999995E-07 
    9.9999999999999995E-07 
    9.9999999999999995E-07 
    9.9999999999999995E-07 
    9.9999999999999995E-07 
    9.9999999999999995E-07 
    9.9999999999999995E-07 
    9.9999999999999995E-07 
    9.9999999999999995E-07 
    9.9999999999999995E-07 
    1.0000000000022711E-06 
    1.0000000000000158E-06 
    1.0000000000403018E-06 
    1.0000000007358439E-06 
    1.0000000000000105E-06 
    9.9999999999999995E-07 
    9.9999999999999995E-07 
    9.9999999999999995E-07 
    9.9999999999999995E-07 
    9.9999999999999995E-07 
    9.9999999999999995E-07 
    9.9999999999999995E-07 
    9.9999999999999995E-07 
    9.9999999999999995E-07 
    9.9999999999999995E-07 
    9.9999999999999995E-07 
    9.9999999999999995E-07 
    9.9999999999999995E-07 
    9.9999999999999995E-07 
    9.9999999999999995E-07 
    9.9999999999999995E-07 
    9.9999999999999995E-07 
    9.9999999999999995E-07 
    9.9999999999999995E-07 
    1.0000003158576879E-06 
