# vtk DataFile Version 2.0
Pressure Field Data 
ASCII 
DATASET UNSTRUCTURED_GRID 

POINTS 289 double 

    0.0000000000000000E+00     0.0000000000000000E+00     0.0000000000000000E+00 
    1.0000000000000000E+00     0.0000000000000000E+00     0.0000000000000000E+00 
    1.0000000000000000E+00     1.0000000000000000E+00     0.0000000000000000E+00 
    0.0000000000000000E+00     1.0000000000000000E+00     0.0000000000000000E+00 
    6.2499999999872928E-02     0.0000000000000000E+00     0.0000000000000000E+00 
    1.2499999999977310E-01     0.0000000000000000E+00     0.0000000000000000E+00 
    1.8749999999959341E-01     0.0000000000000000E+00     0.0000000000000000E+00 
    2.4999999999941089E-01     0.0000000000000000E+00     0.0000000000000000E+00 
    3.1249999999922851E-01     0.0000000000000000E+00     0.0000000000000000E+00 
    3.7499999999904610E-01     0.0000000000000000E+00     0.0000000000000000E+00 
    4.3749999999886358E-01     0.0000000000000000E+00     0.0000000000000000E+00 
    4.9999999999869210E-01     0.0000000000000000E+00     0.0000000000000000E+00 
    5.6249999999884603E-01     0.0000000000000000E+00     0.0000000000000000E+00 
    6.2499999999901090E-01     0.0000000000000000E+00     0.0000000000000000E+00 
    6.8749999999917577E-01     0.0000000000000000E+00     0.0000000000000000E+00 
    7.4999999999934064E-01     0.0000000000000000E+00     0.0000000000000000E+00 
    8.1249999999950551E-01     0.0000000000000000E+00     0.0000000000000000E+00 
    8.7499999999967026E-01     0.0000000000000000E+00     0.0000000000000000E+00 
    9.3749999999983513E-01     0.0000000000000000E+00     0.0000000000000000E+00 
    1.0000000000000000E+00     6.2499999999872928E-02     0.0000000000000000E+00 
    1.0000000000000000E+00     1.2499999999977310E-01     0.0000000000000000E+00 
    1.0000000000000000E+00     1.8749999999959341E-01     0.0000000000000000E+00 
    1.0000000000000000E+00     2.4999999999941089E-01     0.0000000000000000E+00 
    1.0000000000000000E+00     3.1249999999922851E-01     0.0000000000000000E+00 
    1.0000000000000000E+00     3.7499999999904610E-01     0.0000000000000000E+00 
    1.0000000000000000E+00     4.3749999999886358E-01     0.0000000000000000E+00 
    1.0000000000000000E+00     4.9999999999869210E-01     0.0000000000000000E+00 
    1.0000000000000000E+00     5.6249999999884603E-01     0.0000000000000000E+00 
    1.0000000000000000E+00     6.2499999999901090E-01     0.0000000000000000E+00 
    1.0000000000000000E+00     6.8749999999917577E-01     0.0000000000000000E+00 
    1.0000000000000000E+00     7.4999999999934064E-01     0.0000000000000000E+00 
    1.0000000000000000E+00     8.1249999999950551E-01     0.0000000000000000E+00 
    1.0000000000000000E+00     8.7499999999967026E-01     0.0000000000000000E+00 
    1.0000000000000000E+00     9.3749999999983513E-01     0.0000000000000000E+00 
    9.3749999999973976E-01     1.0000000000000000E+00     0.0000000000000000E+00 
    8.7499999999950118E-01     1.0000000000000000E+00     0.0000000000000000E+00 
    8.1249999999991318E-01     1.0000000000000000E+00     0.0000000000000000E+00 
    7.5000000000034706E-01     1.0000000000000000E+00     0.0000000000000000E+00 
    6.8750000000078049E-01     1.0000000000000000E+00     0.0000000000000000E+00 
    6.2500000000121403E-01     1.0000000000000000E+00     0.0000000000000000E+00 
    5.6250000000164757E-01     1.0000000000000000E+00     0.0000000000000000E+00 
    5.0000000000205946E-01     1.0000000000000000E+00     0.0000000000000000E+00 
    4.3750000000182099E-01     1.0000000000000000E+00     0.0000000000000000E+00 
    3.7500000000156092E-01     1.0000000000000000E+00     0.0000000000000000E+00 
    3.1250000000130068E-01     1.0000000000000000E+00     0.0000000000000000E+00 
    2.5000000000104050E-01     1.0000000000000000E+00     0.0000000000000000E+00 
    1.8750000000078040E-01     1.0000000000000000E+00     0.0000000000000000E+00 
    1.2500000000052031E-01     1.0000000000000000E+00     0.0000000000000000E+00 
    6.2500000000260125E-02     1.0000000000000000E+00     0.0000000000000000E+00 
    0.0000000000000000E+00     9.3749999999973976E-01     0.0000000000000000E+00 
    0.0000000000000000E+00     8.7499999999950118E-01     0.0000000000000000E+00 
    0.0000000000000000E+00     8.1249999999991318E-01     0.0000000000000000E+00 
    0.0000000000000000E+00     7.5000000000034706E-01     0.0000000000000000E+00 
    0.0000000000000000E+00     6.8750000000078049E-01     0.0000000000000000E+00 
    0.0000000000000000E+00     6.2500000000121403E-01     0.0000000000000000E+00 
    0.0000000000000000E+00     5.6250000000164757E-01     0.0000000000000000E+00 
    0.0000000000000000E+00     5.0000000000205946E-01     0.0000000000000000E+00 
    0.0000000000000000E+00     4.3750000000182099E-01     0.0000000000000000E+00 
    0.0000000000000000E+00     3.7500000000156092E-01     0.0000000000000000E+00 
    0.0000000000000000E+00     3.1250000000130068E-01     0.0000000000000000E+00 
    0.0000000000000000E+00     2.5000000000104050E-01     0.0000000000000000E+00 
    0.0000000000000000E+00     1.8750000000078040E-01     0.0000000000000000E+00 
    0.0000000000000000E+00     1.2500000000052031E-01     0.0000000000000000E+00 
    0.0000000000000000E+00     6.2500000000260125E-02     0.0000000000000000E+00 
    6.2499999999897131E-02     6.2500000000235922E-02     0.0000000000000000E+00 
    6.2499999999921327E-02     1.2500000000047351E-01     0.0000000000000000E+00 
    6.2499999999945530E-02     1.8750000000070621E-01     0.0000000000000000E+00 
    6.2499999999969733E-02     2.5000000000093858E-01     0.0000000000000000E+00 
    6.2499999999993928E-02     3.1250000000117117E-01     0.0000000000000000E+00 
    6.2500000000018124E-02     3.7500000000140382E-01     0.0000000000000000E+00 
    6.2500000000042327E-02     4.3750000000163619E-01     0.0000000000000000E+00 
    6.2500000000066530E-02     5.0000000000184897E-01     0.0000000000000000E+00 
    6.2500000000090733E-02     5.6250000000147260E-01     0.0000000000000000E+00 
    6.2500000000114922E-02     6.2500000000107636E-01     0.0000000000000000E+00 
    6.2500000000139125E-02     6.8750000000068034E-01     0.0000000000000000E+00 
    6.2500000000163328E-02     7.5000000000028411E-01     0.0000000000000000E+00 
    6.2500000000187531E-02     8.1249999999988787E-01     0.0000000000000000E+00 
    6.2500000000211720E-02     8.7499999999951172E-01     0.0000000000000000E+00 
    6.2500000000235922E-02     9.3749999999974565E-01     0.0000000000000000E+00 
    1.2499999999981980E-01     6.2500000000211733E-02     0.0000000000000000E+00 
    1.2499999999986650E-01     1.2500000000042691E-01     0.0000000000000000E+00 
    1.2499999999991319E-01     1.8750000000063199E-01     0.0000000000000000E+00 
    1.2499999999995989E-01     2.5000000000083678E-01     0.0000000000000000E+00 
    1.2500000000000661E-01     3.1250000000104172E-01     0.0000000000000000E+00 
    1.2500000000005329E-01     3.7500000000124661E-01     0.0000000000000000E+00 
    1.2500000000010000E-01     4.3750000000145117E-01     0.0000000000000000E+00 
    1.2500000000014669E-01     5.0000000000163858E-01     0.0000000000000000E+00 
    1.2500000000019340E-01     5.6250000000129741E-01     0.0000000000000000E+00 
    1.2500000000024011E-01     6.2500000000093847E-01     0.0000000000000000E+00 
    1.2500000000028680E-01     6.8750000000057998E-01     0.0000000000000000E+00 
    1.2500000000033351E-01     7.5000000000022127E-01     0.0000000000000000E+00 
    1.2500000000038020E-01     8.1249999999986211E-01     0.0000000000000000E+00 
    1.2500000000042691E-01     8.7499999999952238E-01     0.0000000000000000E+00 
    1.2500000000047359E-01     9.3749999999975164E-01     0.0000000000000000E+00 
    1.8749999999966760E-01     6.2500000000187531E-02     0.0000000000000000E+00 
    1.8749999999974179E-01     1.2500000000038020E-01     0.0000000000000000E+00 
    1.8749999999981601E-01     1.8750000000055780E-01     0.0000000000000000E+00 
    1.8749999999989009E-01     2.5000000000073502E-01     0.0000000000000000E+00 
    1.8749999999996431E-01     3.1250000000091221E-01     0.0000000000000000E+00 
    1.8750000000003850E-01     3.7500000000108941E-01     0.0000000000000000E+00 
    1.8750000000011269E-01     4.3750000000126649E-01     0.0000000000000000E+00 
    1.8750000000018691E-01     5.0000000000142808E-01     0.0000000000000000E+00 
    1.8750000000026110E-01     5.6250000000112244E-01     0.0000000000000000E+00 
    1.8750000000033529E-01     6.2500000000080080E-01     0.0000000000000000E+00 
    1.8750000000040951E-01     6.8750000000047962E-01     0.0000000000000000E+00 
    1.8750000000048361E-01     7.5000000000015843E-01     0.0000000000000000E+00 
    1.8750000000055780E-01     8.1249999999983680E-01     0.0000000000000000E+00 
    1.8750000000063199E-01     8.7499999999953304E-01     0.0000000000000000E+00 
    1.8750000000070621E-01     9.3749999999975764E-01     0.0000000000000000E+00 
    2.4999999999951281E-01     6.2500000000163314E-02     0.0000000000000000E+00 
    2.4999999999961461E-01     1.2500000000033351E-01     0.0000000000000000E+00 
    2.4999999999971650E-01     1.8750000000048361E-01     0.0000000000000000E+00 
    2.4999999999981831E-01     2.5000000000063310E-01     0.0000000000000000E+00 
    2.4999999999992020E-01     3.1250000000078260E-01     0.0000000000000000E+00 
    2.5000000000002198E-01     3.7500000000093209E-01     0.0000000000000000E+00 
    2.5000000000012390E-01     4.3750000000108180E-01     0.0000000000000000E+00 
    2.5000000000022571E-01     5.0000000000121769E-01     0.0000000000000000E+00 
    2.5000000000032763E-01     5.6250000000094724E-01     0.0000000000000000E+00 
    2.5000000000042938E-01     6.2500000000066314E-01     0.0000000000000000E+00 
    2.5000000000053119E-01     6.8750000000037925E-01     0.0000000000000000E+00 
[...]
CELL_DATA 256 
SCALARS Pressure double 1 
LOOKUP_TABLE default 

    9.2243357028697981E-01 
    8.7188632333664251E-01 
    8.3937301952197196E-01 
    8.1484104001094892E-01 
    7.9424880672696530E-01 
    7.7631713701803362E-01 
    7.6071563460926117E-01 
    7.4737012597047903E-01 
    7.3625773066327793E-01 
    7.2708670450345925E-01 
    7.1850321513724658E-01 
    7.1079326720809299E-01 
    7.0578526637471040E-01 
    7.0292367880994622E-01 
    7.0159178028826352E-01 
    7.0123279539628147E-01 
    8.7189798395229945E-01 
    8.6142192759981617E-01 
    8.4016752827004670E-01 
    8.1876283337580535E-01 
    7.9889774609739106E-01 
    7.8083740416661840E-01 
    7.6472337754510178E-01 
    7.5067796925377628E-01 
    7.3882293652261710E-01 
    7.2906822384879699E-01 
    7.2044716148920429E-01 
    7.1211238832604540E-01 
    7.0623998651997866E-01 
    7.0283735208547315E-01 
    7.0123148013311198E-01 
    7.0087344736967927E-01 
    8.3939014562123060E-01 
    8.4017652095246698E-01 
    8.3005878912183528E-01 
    8.1475556927517112E-01 
    7.9781917657671853E-01 
    7.8098865234653170E-01 
    7.6517899618754093E-01 
    7.5093312973620741E-01 
    7.3863134760121796E-01 
    7.2842915962188692E-01 
    7.1983480168188663E-01 
    7.1145280915404474E-01 
    7.0489490623884332E-01 
    7.0122435699764796E-01 
    6.9962118861269995E-01 
    6.9954153378083117E-01 
    8.1485508869976908E-01 
    8.1877361311420238E-01 
    8.1476050846368342E-01 
    8.0480558733207552E-01 
    7.9146557299378839E-01 
    7.7670448337446474E-01 
    7.6186372723163964E-01 
    7.4787169433454326E-01 
    7.3540350422222978E-01 
    7.2488408135682036E-01 
    7.1624279297609761E-01 
    7.0825912314451867E-01 
    7.0131770002519689E-01 
    6.9756719502980891E-01 
    6.9621653277070228E-01 
    6.9668495743700765E-01 
    7.9425366766862149E-01 
    7.9890292058940771E-01 
    7.9782321966642289E-01 
    7.9146763455643832E-01 
    7.8121307947562468E-01 
    7.6860303342232461E-01 
    7.5499124828061959E-01 
    7.4149654877749283E-01 
    7.2902812880792001E-01 
    7.1826897822343960E-01 
    7.0952610101917091E-01 
    7.0207319914537336E-01 
    6.9516364962607635E-01 
    6.9136286048895956E-01 
    6.9047503708032165E-01 
    6.9175064647262352E-01 
    7.7631285616518131E-01 
    7.8083382307520177E-01 
    7.8098590042263349E-01 
    7.7670312697353039E-01 
    7.6860180421294311E-01 
    7.5771139762796602E-01 
    7.4518208801224239E-01 
    7.3214086370457576E-01 
    7.1963256317178026E-01 
    7.0855658570608293E-01 
    6.9954227400420788E-01 
    6.9242086630156596E-01 
    6.8588327930029580E-01 
    6.8203681201004052E-01 
    6.8181843813400378E-01 
    6.8416129496798084E-01 
    7.6069861480839507E-01 
    7.6470868586177532E-01 
    7.6516618528626978E-01 
    7.6185443647217943E-01 
    7.5498467604675512E-01 
    7.4517808022642451E-01 
    7.3331948152673088E-01 
    7.2043550210723961E-01 
    7.0761333061761522E-01 
    6.9591360769389898E-01 
    6.8624967209505616E-01 
    6.7892239074987992E-01 
    6.7282175106595710E-01 
    6.6905172415539582E-01 
    6.6963096977114511E-01 
    6.7329403614609018E-01 
    7.4733292845825916E-01 
    7.5064594710956578E-01 
    7.5090660167336942E-01 
    7.4785181455349659E-01 
    7.4148168120440894E-01 
    7.3213018212945824E-01 
    7.2043000340785746E-01 
    7.0725309365336841E-01 
    6.9365262545719397E-01 
    6.8079189574924748E-01 
    6.6984328726205333E-01 
    6.6161642560191192E-01 
    6.5565262500349020E-01 
    6.5191538550618611E-01 
    6.5320608331871721E-01 
    6.5843801169125604E-01 
    7.3619897348094010E-01 
    7.3876976228563129E-01 
    7.3858840034070083E-01 
    7.3537271852361941E-01 
    7.2900389433080603E-01 
    7.1961244291916004E-01 
    7.0759947251450306E-01 
    6.9364604792634521E-01 
    6.7870321401654610E-01 
    6.6396852593858113E-01 
    6.5084050689436035E-01 
    6.4065473695597219E-01 
    6.3387589077812589E-01 
    6.2988460999889084E-01 
    6.3158825165654853E-01 
    6.3869054271406733E-01 
    7.2701812278472189E-01 
    7.2900127423879202E-01 
    7.2837396601061899E-01 
    7.2484695983965064E-01 
    7.1823872526734744E-01 
    7.0852707100181689E-01 
    6.9588884462037481E-01 
    6.8077568781828857E-01 
    6.6395939475505450E-01 
    6.4657449594437699E-01 
    6.3016091523571427E-01 
    6.1655434238952156E-01 
    6.0717100540372759E-01 
    6.0200029652644138E-01 
    6.0355657687782438E-01 
    6.1284366112296018E-01 
    7.1844667193630130E-01 
    7.2039065286728088E-01 
    7.1978482682002642E-01 
    7.1621186889237520E-01 
    7.0949843775798715E-01 
    6.9950800341131569E-01 
    6.8621531306660066E-01 
    6.6981578121927388E-01 
    6.5081754228324218E-01 
    6.3014187846349956E-01 
    6.0928768168592851E-01 
    5.9045149079204162E-01 
    5.7612231993105456E-01 
    5.6778870465007691E-01 
    5.6764439971071157E-01 
    5.7910182402770571E-01 
    7.1074381468901526E-01 
    7.1206550811290237E-01 
    7.1141169921684744E-01 
    7.0822651949695581E-01 
    7.0204033400441868E-01 
    6.9237735778095499E-01 
    6.7887539538352348E-01 
    6.6157816238441991E-01 
    6.4062049741183547E-01 
    6.1651065370481584E-01 
    5.9041863153357077E-01 
    5.6443370176083774E-01 
    5.4190120389185237E-01 
    5.2649432693941578E-01 
    5.2173874273362297E-01 
    5.3444185638903929E-01 
    7.0573651261418680E-01 
    7.0619143471335732E-01 
    7.0484804339326146E-01 
    7.0127682017390169E-01 
    6.9512486028411402E-01 
    6.8583408170463789E-01 
    6.7276803967171050E-01 
    6.5560508784391858E-01 
    6.3383174897747319E-01 
    6.0709982937232121E-01 
    5.7605273791414335E-01 
    5.4186839953733112E-01 
    5.0764030180517883E-01 
    4.7877509436591897E-01 
    4.6248239702671684E-01 
    4.7238525580430546E-01 
    7.0287611705846165E-01 
    7.0279005389102445E-01 
    7.0117839511679803E-01 
    6.9752473248687752E-01 
    6.9132428825157199E-01 
    6.8199850263679873E-01 
    6.6900771113729585E-01 
    6.5187095723023358E-01 
    6.2984889160946478E-01 
    6.0194800352616606E-01 
    5.6773276992633370E-01 
    5.2648552862458642E-01 
    4.7880241593129025E-01 
    4.2946377684347109E-01 
    3.8876455811394578E-01 
    3.8233538159468994E-01 
    7.0154462477598556E-01 
    7.0118453907259137E-01 
    6.9957522459911825E-01 
    6.9617289485881151E-01 
    6.9043415777307948E-01 
    6.8177896234322310E-01 
    6.6959042930913859E-01 
    6.5316490975334118E-01 
    6.3155370475674821E-01 
    6.0352027988501011E-01 
    5.6760273225979108E-01 
    5.2174912313330557E-01 
    4.6254434018000090E-01 
    3.8880286283499582E-01 
    3.0392003221871006E-01 
    2.4551416159010273E-01 
    7.0118569286554955E-01 
    7.0082643017564250E-01 
    6.9949519023700957E-01 
    6.9664054552493893E-01 
    6.9170864362836004E-01 
    6.8412079913563517E-01 
    6.7325398141634452E-01 
    6.5839848354052555E-01 
    6.3865513576692257E-01 
    6.1281081124520831E-01 
    5.7906284648713990E-01 
    5.3442406138246901E-01 
    4.7242636951138872E-01 
    3.8236304070993715E-01 
    2.4548582113131701E-01 
    0.0000000000000000E+00 

SCALARS Saturarion double 1 
LOOKUP_TABLE default 

    1.0000000000000000E+00 
    9.7743446989715432E-01 
    9.3782553786315992E-01 
    8.6730730274208689E-01 
    7.9093876067359947E-01 
    7.2529890058590696E-01 
    6.6755166139343647E-01 
    6.1690548695953384E-01 
    5.7004045907429834E-01 
    5.0795826980646930E-01 
    2.9918408648404493E-01 
    2.5177630341477806E-03 
    1.0000290043760408E-06 
    1.0000000000023691E-06 
    9.9999999999999995E-07 
    9.9999999999999995E-07 
    9.7733586539170236E-01 
    9.5776988977844235E-01 
    9.2226414415576718E-01 
    8.6345624856254566E-01 
    7.9630796487672251E-01 
    7.3452145552630377E-01 
    6.7786954534442379E-01 
    6.2740924859608604E-01 
    5.8118780328696462E-01 
    5.2598348296979713E-01 
    3.8965784980781598E-01 
    4.6769954562051734E-02 
    3.6406078018080416E-05 
    1.0000963379525039E-06 
    9.9999999999999995E-07 
    9.9999999999999995E-07 
    9.3751564397945719E-01 
    9.2208398876087339E-01 
    8.8881018985958160E-01 
    8.4367527094432537E-01 
    7.9183472135691479E-01 
    7.3910842574250024E-01 
    6.8740624061590061E-01 
    6.3917696543881997E-01 
    5.9363124876205808E-01 
    5.4397403648325016E-01 
    4.5236247921829154E-01 
    1.5488775273334340E-01 
    2.6078866433706786E-04 
    1.0272663353259618E-06 
    1.0000000000376821E-06 
    9.9999999999999995E-07 
    8.6665808547055490E-01 
    8.6310313656856363E-01 
    8.4354061325521046E-01 
    8.1290607108192747E-01 
    7.7535619094332808E-01 
    7.3313503518311107E-01 
    6.8924126822899656E-01 
    6.4580687673265424E-01 
    6.0291609415735525E-01 
    5.5796469266943505E-01 
    4.9132982196189040E-01 
    2.8047867543759769E-01 
    1.0740240355360694E-02 
    6.3944195873413451E-06 
    1.0000021055268853E-06 
    9.9999999999999995E-07 
    7.9021480261297683E-01 
    7.9579594439091650E-01 
    7.9152213341559807E-01 
    7.7517369442304374E-01 
    7.4996374394203480E-01 
    7.1858476245136504E-01 
    6.8352140556174124E-01 
    6.4667301256665499E-01 
    6.0877013935922475E-01 
    5.6883135460829148E-01 
    5.1665343515031048E-01 
    3.9170673197199651E-01 
    6.5654009029038660E-02 
    1.6051817624205021E-04 
    1.0037110758830016E-06 
    9.9999999999999995E-07 
    7.2458644575268094E-01 
    7.3401146398329398E-01 
    7.3872379700079061E-01 
    7.3276202325981743E-01 
    7.1836575959967885E-01 
    6.9738507029108610E-01 
    6.7142392041247534E-01 
    6.4222753646661312E-01 
    6.1069394085712181E-01 
    5.7623606240104785E-01 
    5.3437644015146946E-01 
    4.4290336641283923E-01 
    1.5327881241371114E-01 
    5.0647212820778304E-04 
    1.0309864328774745E-06 
    1.0000000008877026E-06 
    6.6643050273673687E-01 
    6.7721949327359687E-01 
    6.8705545304106397E-01 
    6.8886715031449441E-01 
    6.8314849030062086E-01 
    6.7124094036765791E-01 
    6.5419375484953124E-01 
    6.3313285714569811E-01 
    6.0870389009913728E-01 
    5.8019936539162154E-01 
    5.4489379256821124E-01 
    4.7938045852330535E-01 
    2.6076051057629435E-01 
    1.0749590967080813E-02 
    7.1289019717596481E-06 
    1.0000022508143136E-06 
    6.1546663995365058E-01 
    6.2652810473846454E-01 
    6.3877794760107898E-01 
    6.4552032963092409E-01 
    6.4628746945853199E-01 
    6.4186819722971067E-01 
    6.3294763642628016E-01 
    6.1991127626714093E-01 
    6.0278790118604719E-01 
    5.8089534899438089E-01 
    5.5254745252273052E-01 
    5.0125316687722565E-01 
    3.6368102312826434E-01 
    5.4108931089641016E-02 
    1.3982559493712303E-04 
    1.0021665261446375E-06 
    5.6859891815192876E-01 
    5.8021577142460112E-01 
    5.9327422323273460E-01 
    6.0269706935451528E-01 
    6.0851390580499032E-01 
    6.1031570442065186E-01 
    6.0833446249592893E-01 
    6.0254679750070450E-01 
    5.9253547985693056E-01 
    5.7756780289667498E-01 
    5.5647120782207227E-01 
    5.2042424143514954E-01 
    4.2429916553602798E-01 
    1.3513888753737263E-01 
    7.1322959858951586E-04 
    1.0673072346033622E-06 
    5.0719920667780183E-01 
    5.2574217662776168E-01 
    5.4429589882522922E-01 
    5.5782622953676364E-01 
    5.6854589109435716E-01 
    5.7603489380093620E-01 
    5.7991642798717180E-01 
    5.8049835138708872E-01 
    5.7724813267845854E-01 
    5.6933622464127764E-01 
    5.5595004831054118E-01 
    5.3181163731450998E-01 
    4.6942077118724579E-01 
    2.4884045375983393E-01 
    1.5416335809725540E-02 
    1.4064130274200174E-05 
    2.9994076136017961E-01 
    3.9124109407319224E-01 
    4.5459402325411957E-01 
    4.9185043948916057E-01 
    5.1621535394716855E-01 
    5.3417749942280779E-01 
    5.4491464725648375E-01 
    5.5235426728010384E-01 
    5.5593721417111164E-01 
    5.5553216850173759E-01 
    5.4989321930921675E-01 
    5.3651179904482071E-01 
    4.9750651851133776E-01 
    3.7095122470137099E-01 
    7.3940555967912908E-02 
    3.0761541923718096E-04 
    2.5868909653089436E-03 
    4.9256108072702413E-02 
    1.6190510833838226E-01 
    2.8223630507713982E-01 
    3.8883920954716839E-01 
    4.4171261882682217E-01 
    4.7898933076453754E-01 
    5.0123816056532022E-01 
    5.2021751819773754E-01 
    5.3134913695471941E-01 
    5.3620940216407331E-01 
    5.3413980793875304E-01 
    5.1372850867869346E-01 
    4.3361281049660594E-01 
    1.6839414896150265E-01 
    3.4623376684281108E-03 
    1.0000351294431573E-06 
    4.1854707239960338E-05 
    2.8825741724647493E-04 
    1.0258571173549650E-02 
    6.3207994641894208E-02 
    1.5106248152926183E-01 
    2.6010227521680729E-01 
    3.6446125775890692E-01 
    4.2403638573446045E-01 
    4.6862093387087206E-01 
    4.9733043553462764E-01 
    5.1362679264375233E-01 
    5.1641835723634377E-01 
    4.7691213381868919E-01 
    3.0904762760899368E-01 
    7.5965666754252342E-02 
    1.0000000000028542E-06 
    1.0001310217619599E-06 
    1.0298510083724271E-06 
    5.7903237405191842E-06 
    1.5909878533374171E-04 
    4.9318960518130340E-04 
    1.1324606979156063E-02 
    5.4101646093554001E-02 
    1.3485515326900918E-01 
    2.4970633376128620E-01 
    3.7398846911917749E-01 
    4.3515617378957944E-01 
    4.7760388229162720E-01 
    4.8353882556479066E-01 
    4.0753670785255419E-01 
    2.0674423993784505E-01 
    9.9999999999999995E-07 
    9.9999999999999995E-07 
    1.0000000001114532E-06 
    1.0000017271563824E-06 
    1.0035384545804409E-06 
    1.0341581131150967E-06 
    7.9465076195278479E-06 
    1.3625996698688375E-04 
    7.2804052816713340E-04 
    1.6386718301804850E-02 
    7.7370132812087433E-02 
    1.6933648477208527E-01 
    3.0949306684134870E-01 
    4.0707457990645118E-01 
    4.1984930081363092E-01 
    3.0021829308183212E-01 
    9.9999999999999995E-07 
    9.9999999999999995E-07 
    9.9999999999999995E-07 
    9.9999999999999995E-07 
    9.9999999999999995E-07 
    1.0000000008688633E-06 
    1.0000027666692334E-06 
    1.0021274584809878E-06 
    1.0612034096256146E-06 
    1.7150345227158093E-05 
    3.2184287274075735E-04 
    2.9140274868883383E-03 
    7.6613785006437576E-02 
    2.0514305640308592E-01 
    3.0016419011934975E-01 
    3.0011512249313049E-01 
