# vtk DataFile Version 2.0
Pressure Field Data 
ASCII 
DATASET UNSTRUCTURED_GRID 

POINTS 289 double 

    0.0000000000000000E+00     0.0000000000000000E+00     0.0000000000000000E+00 
    1.0000000000000000E+00     0.0000000000000000E+00     0.0000000000000000E+00 
    1.0000000000000000E+00     1.0000000000000000E+00     0.0000000000000000E+00 
    0.0000000000000000E+00     1.0000000000000000E+00     0.0000000000000000E+00 
    6.2499999999872928E-02     0.0000000000000000E+00     0.0000000000000000E+00 
    1.2499999999977310E-01     0.0000000000000000E+00     0.0000000000000000E+00 
    1.8749999999959341E-01     0.0000000000000000E+00     0.0000000000000000E+00 
    2.4999999999941089E-01     0.0000000000000000E+00     0.0000000000000000E+00 
    3.1249999999922851E-01     0.0000000000000000E+00     0.0000000000000000E+00 
    3.7499999999904610E-01     0.0000000000000000E+00     0.0000000000000000E+00 
    4.3749999999886358E-01     0.0000000000000000E+00     0.0000000000000000E+00 
    4.9999999999869210E-01     0.0000000000000000E+00     0.0000000000000000E+00 
    5.6249999999884603E-01     0.0000000000000000E+00     0.0000000000000000E+00 
    6.2499999999901090E-01     0.0000000000000000E+00     0.0000000000000000E+00 
    6.8749999999917577E-01     0.0000000000000000E+00     0.0000000000000000E+00 
    7.4999999999934064E-01     0.0000000000000000E+00     0.0000000000000000E+00 
    8.1249999999950551E-01     0.0000000000000000E+00     0.0000000000000000E+00 
    8.7499999999967026E-01     0.0000000000000000E+00     0.0000000000000000E+00 
    9.3749999999983513E-01     0.0000000000000000E+00     0.0000000000000000E+00 
    1.0000000000000000E+00     6.2499999999872928E-02     0.0000000000000000E+00 
    1.0000000000000000E+00     1.2499999999977310E-01     0.0000000000000000E+00 
    1.0000000000000000E+00     1.8749999999959341E-01     0.0000000000000000E+00 
    1.0000000000000000E+00     2.4999999999941089E-01     0.0000000000000000E+00 
    1.0000000000000000E+00     3.1249999999922851E-01     0.0000000000000000E+00 
    1.0000000000000000E+00     3.7499999999904610E-01     0.0000000000000000E+00 
    1.0000000000000000E+00     4.3749999999886358E-01     0.0000000000000000E+00 
    1.0000000000000000E+00     4.9999999999869210E-01     0.0000000000000000E+00 
    1.0000000000000000E+00     5.6249999999884603E-01     0.0000000000000000E+00 
    1.0000000000000000E+00     6.2499999999901090E-01     0.0000000000000000E+00 
    1.0000000000000000E+00     6.8749999999917577E-01     0.0000000000000000E+00 
    1.0000000000000000E+00     7.4999999999934064E-01     0.0000000000000000E+00 
    1.0000000000000000E+00     8.1249999999950551E-01     0.0000000000000000E+00 
    1.0000000000000000E+00     8.7499999999967026E-01     0.0000000000000000E+00 
    1.0000000000000000E+00     9.3749999999983513E-01     0.0000000000000000E+00 
    9.3749999999973976E-01     1.0000000000000000E+00     0.0000000000000000E+00 
    8.7499999999950118E-01     1.0000000000000000E+00     0.0000000000000000E+00 
    8.1249999999991318E-01     1.0000000000000000E+00     0.0000000000000000E+00 
    7.5000000000034706E-01     1.0000000000000000E+00     0.0000000000000000E+00 
    6.8750000000078049E-01     1.0000000000000000E+00     0.0000000000000000E+00 
    6.2500000000121403E-01     1.0000000000000000E+00     0.0000000000000000E+00 
    5.6250000000164757E-01     1.0000000000000000E+00     0.0000000000000000E+00 
    5.0000000000205946E-01     1.0000000000000000E+00     0.0000000000000000E+00 
    4.3750000000182099E-01     1.0000000000000000E+00     0.0000000000000000E+00 
    3.7500000000156092E-01     1.0000000000000000E+00     0.0000000000000000E+00 
    3.1250000000130068E-01     1.0000000000000000E+00     0.0000000000000000E+00 
    2.5000000000104050E-01     1.0000000000000000E+00     0.0000000000000000E+00 
    1.8750000000078040E-01     1.0000000000000000E+00     0.0000000000000000E+00 
    1.2500000000052031E-01     1.0000000000000000E+00     0.0000000000000000E+00 
    6.2500000000260125E-02     1.0000000000000000E+00     0.0000000000000000E+00 
    0.0000000000000000E+00     9.3749999999973976E-01     0.0000000000000000E+00 
    0.0000000000000000E+00     8.7499999999950118E-01     0.0000000000000000E+00 
    0.0000000000000000E+00     8.1249999999991318E-01     0.0000000000000000E+00 
    0.0000000000000000E+00     7.5000000000034706E-01     0.0000000000000000E+00 
    0.0000000000000000E+00     6.8750000000078049E-01     0.0000000000000000E+00 
    0.0000000000000000E+00     6.2500000000121403E-01     0.0000000000000000E+00 
    0.0000000000000000E+00     5.6250000000164757E-01     0.0000000000000000E+00 
    0.0000000000000000E+00     5.0000000000205946E-01     0.0000000000000000E+00 
    0.0000000000000000E+00     4.3750000000182099E-01     0.0000000000000000E+00 
    0.0000000000000000E+00     3.7500000000156092E-01     0.0000000000000000E+00 
    0.0000000000000000E+00     3.1250000000130068E-01     0.0000000000000000E+00 
    0.0000000000000000E+00     2.5000000000104050E-01     0.0000000000000000E+00 
    0.0000000000000000E+00     1.8750000000078040E-01     0.0000000000000000E+00 
    0.0000000000000000E+00     1.2500000000052031E-01     0.0000000000000000E+00 
    0.0000000000000000E+00     6.2500000000260125E-02     0.0000000000000000E+00 
    6.2499999999897131E-02     6.2500000000235922E-02     0.0000000000000000E+00 
    6.2499999999921327E-02     1.2500000000047351E-01     0.0000000000000000E+00 
    6.2499999999945530E-02     1.8750000000070621E-01     0.0000000000000000E+00 
    6.2499999999969733E-02     2.5000000000093858E-01     0.0000000000000000E+00 
    6.2499999999993928E-02     3.1250000000117117E-01     0.0000000000000000E+00 
    6.2500000000018124E-02     3.7500000000140382E-01     0.0000000000000000E+00 
    6.2500000000042327E-02     4.3750000000163619E-01     0.0000000000000000E+00 
    6.2500000000066530E-02     5.0000000000184897E-01     0.0000000000000000E+00 
    6.2500000000090733E-02     5.6250000000147260E-01     0.0000000000000000E+00 
    6.2500000000114922E-02     6.2500000000107636E-01     0.0000000000000000E+00 
    6.2500000000139125E-02     6.8750000000068034E-01     0.0000000000000000E+00 
    6.2500000000163328E-02     7.5000000000028411E-01     0.0000000000000000E+00 
    6.2500000000187531E-02     8.1249999999988787E-01     0.0000000000000000E+00 
    6.2500000000211720E-02     8.7499999999951172E-01     0.0000000000000000E+00 
    6.2500000000235922E-02     9.3749999999974565E-01     0.0000000000000000E+00 
    1.2499999999981980E-01     6.2500000000211733E-02     0.0000000000000000E+00 
    1.2499999999986650E-01     1.2500000000042691E-01     0.0000000000000000E+00 
    1.2499999999991319E-01     1.8750000000063199E-01     0.0000000000000000E+00 
    1.2499999999995989E-01     2.5000000000083678E-01     0.0000000000000000E+00 
    1.2500000000000661E-01     3.1250000000104172E-01     0.0000000000000000E+00 
    1.2500000000005329E-01     3.7500000000124661E-01     0.0000000000000000E+00 
    1.2500000000010000E-01     4.3750000000145117E-01     0.0000000000000000E+00 
    1.2500000000014669E-01     5.0000000000163858E-01     0.0000000000000000E+00 
    1.2500000000019340E-01     5.6250000000129741E-01     0.0000000000000000E+00 
    1.2500000000024011E-01     6.2500000000093847E-01     0.0000000000000000E+00 
    1.2500000000028680E-01     6.8750000000057998E-01     0.0000000000000000E+00 
    1.2500000000033351E-01     7.5000000000022127E-01     0.0000000000000000E+00 
    1.2500000000038020E-01     8.1249999999986211E-01     0.0000000000000000E+00 
    1.2500000000042691E-01     8.7499999999952238E-01     0.0000000000000000E+00 
    1.2500000000047359E-01     9.3749999999975164E-01     0.0000000000000000E+00 
    1.8749999999966760E-01     6.2500000000187531E-02     0.0000000000000000E+00 
    1.8749999999974179E-01     1.2500000000038020E-01     0.0000000000000000E+00 
    1.8749999999981601E-01     1.8750000000055780E-01     0.0000000000000000E+00 
    1.8749999999989009E-01     2.5000000000073502E-01     0.0000000000000000E+00 
    1.8749999999996431E-01     3.1250000000091221E-01     0.0000000000000000E+00 
    1.8750000000003850E-01     3.7500000000108941E-01     0.0000000000000000E+00 
    1.8750000000011269E-01     4.3750000000126649E-01     0.0000000000000000E+00 
    1.8750000000018691E-01     5.0000000000142808E-01     0.0000000000000000E+00 
    1.8750000000026110E-01     5.6250000000112244E-01     0.0000000000000000E+00 
    1.8750000000033529E-01     6.2500000000080080E-01     0.0000000000000000E+00 
    1.8750000000040951E-01     6.8750000000047962E-01     0.0000000000000000E+00 
    1.8750000000048361E-01     7.5000000000015843E-01     0.0000000000000000E+00 
    1.8750000000055780E-01     8.1249999999983680E-01     0.0000000000000000E+00 
    1.8750000000063199E-01     8.7499999999953304E-01     0.0000000000000000E+00 
    1.8750000000070621E-01     9.3749999999975764E-01     0.0000000000000000E+00 
    2.4999999999951281E-01     6.2500000000163314E-02     0.0000000000000000E+00 
    2.4999999999961461E-01     1.2500000000033351E-01     0.0000000000000000E+00 
    2.4999999999971650E-01     1.8750000000048361E-01     0.0000000000000000E+00 
    2.4999999999981831E-01     2.5000000000063310E-01     0.0000000000000000E+00 
    2.4999999999992020E-01     3.1250000000078260E-01     0.0000000000000000E+00 
    2.5000000000002198E-01     3.7500000000093209E-01     0.0000000000000000E+00 
    2.5000000000012390E-01     4.3750000000108180E-01     0.0000000000000000E+00 
    2.5000000000022571E-01     5.0000000000121769E-01     0.0000000000000000E+00 
    2.5000000000032763E-01     5.6250000000094724E-01     0.0000000000000000E+00 
    2.5000000000042938E-01     6.2500000000066314E-01     0.0000000000000000E+00 
    2.5000000000053119E-01     6.8750000000037925E-01     0.0000000000000000E+00 
[...]
CELL_DATA 256 
SCALARS Pressure double 1 
LOOKUP_TABLE default 

    6.7931305164266620E-01 
    6.2958984324177281E-01 
    5.9860479542090350E-01 
    5.7643090979951450E-01 
    5.5890503517175705E-01 
    5.4430638409074972E-01 
    5.3195995706294230E-01 
    5.2156963855653005E-01 
    5.1297882633867420E-01 
    5.0609762451568607E-01 
    5.0084787976793410E-01 
    4.9694681546539521E-01 
    4.9361460341117558E-01 
    4.9129030642260102E-01 
    4.9026107628896171E-01 
    4.8998456953459446E-01 
    6.2959463102123336E-01 
    6.1934924175124362E-01 
    5.9925393138167204E-01 
    5.7987459461764923E-01 
    5.6281735013352718E-01 
    5.4796589758778325E-01 
    5.3510798229230538E-01 
    5.2410849264258708E-01 
    5.1488374155844241E-01 
    5.0738687557011863E-01 
    5.0158925018636769E-01 
    4.9732142135721502E-01 
    4.9388141871099173E-01 
    4.9121645383968382E-01 
    4.8997997034968516E-01 
    4.8970675008937664E-01 
    5.9861155869174476E-01 
    5.9925753704175388E-01 
    5.8995402369434413E-01 
    5.7636512587430289E-01 
    5.6193224278843035E-01 
    5.4809533866873772E-01 
    5.3545245764733651E-01 
    5.2427205164928892E-01 
    5.1468511987636745E-01 
    5.0676783980666618E-01 
    5.0057219042279610E-01 
    4.9604908617105720E-01 
    4.9269411752636938E-01 
    4.8999458964950510E-01 
    4.8873810508322196E-01 
    4.8868156955574693E-01 
    5.7643528781177999E-01 
    5.7987801598626421E-01 
    5.7636657458500362E-01 
    5.6781833806047299E-01 
    5.5665721883546138E-01 
    5.4462773998693470E-01 
    5.3281104020490377E-01 
    5.2185817716036431E-01 
    5.1216839113112000E-01 
    5.0400130933174903E-01 
    4.9753222180605872E-01 
    4.9283669749375703E-01 
    4.8964831602796960E-01 
    4.8720568518685292E-01 
    4.8610437373881710E-01 
    4.8648443310988171E-01 
    5.5890459051916475E-01 
    5.6281729371534284E-01 
    5.6193242139985955E-01 
    5.5665753408238394E-01 
    5.4826354915459496E-01 
    5.3812931529988772E-01 
    5.2739010449560253E-01 
    5.1689395954535722E-01 
    5.0725774165004700E-01 
    4.9893388931847965E-01 
    4.9225075657662271E-01 
    4.8741824738774076E-01 
    4.8436662146445181E-01 
    4.8239019723653598E-01 
    4.8167231033273511E-01 
    4.8270051790871460E-01 
    5.4430169386190963E-01 
    5.4796134873681912E-01 
    5.4809183030609265E-01 
    5.4462611029655594E-01 
    5.3812845621450578E-01 
    5.2951006087596786E-01 
    5.1973497924760059E-01 
    5.0967560519115707E-01 
    5.0007568440068439E-01 
    4.9155251799836613E-01 
    4.8459987235553831E-01 
    4.7957990829789926E-01 
    4.7662452845486736E-01 
    4.7520971565399628E-01 
    4.7506752223466137E-01 
    4.7691189306017795E-01 
    5.3194998378209069E-01 
    5.3509845182485283E-01 
    5.3544392506227367E-01 
    5.3280506225088431E-01 
    5.2738599345730297E-01 
    5.1973220507872298E-01 
    5.1057807305557301E-01 
    5.0072075048013420E-01 
    4.9095013529940462E-01 
    4.8200938539151422E-01 
    4.7456145675956896E-01 
    4.6914695419198649E-01 
    4.6611821192833458E-01 
    4.6523144262282801E-01 
    4.6582168696222731E-01 
    4.6862910942934549E-01 
    5.2155134652721669E-01 
    5.2409203713626995E-01 
    5.2425763731217201E-01 
    5.2184669851728660E-01 
    5.1688461130807350E-01 
    5.0966778120887823E-01 
    5.0071591059297693E-01 
    4.9070401265729618E-01 
    4.8040755423795861E-01 
    4.7065659622660155E-01 
    4.6228530543980018E-01 
    4.5605768954858478E-01 
    4.5258242199286164E-01 
    4.5194045732026761E-01 
    4.5329451148870897E-01 
    4.5729537623841399E-01 
    5.1295075312009997E-01 
    5.1485835108483535E-01 
    5.1466327805086531E-01 
    5.1215062093415165E-01 
    5.0724196972708502E-01 
    5.0006081093068222E-01 
    4.9093816988388927E-01 
    4.8040103121848921E-01 
    4.6915723669754589E-01 
    4.5807617437275511E-01 
    4.4815233342184574E-01 
    4.4042499701530052E-01 
    4.3584815752515005E-01 
    4.3489793355700529E-01 
    4.3691102027206608E-01 
    4.4230939170704553E-01 
    5.0605931439003538E-01 
    5.0735086693068809E-01 
    5.0673581093560882E-01 
    5.0397500950825680E-01 
    4.9891024987418880E-01 
    4.9152911256719239E-01 
    4.8198832338371689E-01 
    4.7064163674402165E-01 
    4.5806846881092306E-01 
    4.4510196638610872E-01 
    4.3284386335334796E-01 
    4.2263037804403070E-01 
    4.1589484961506695E-01 
    4.1374312949406411E-01 
    4.1596600269754597E-01 
    4.2275771095228221E-01 
    5.0079857952213780E-01 
    5.0154070773410009E-01 
    5.0052697108051603E-01 
    4.9749398653933480E-01 
    4.9221645574307599E-01 
    4.8456571678160859E-01 
    4.7452918918980286E-01 
    4.6225958923074062E-01 
    4.4813498192316931E-01 
    4.3283499915147011E-01 
    4.1743641544075394E-01 
    4.0349366082389626E-01 
    3.9299833977335275E-01 
    3.8801607660226572E-01 
    3.8936594891033927E-01 
    3.9713840288060764E-01 
    4.9688886438081026E-01 
    4.9726295710029389E-01 
    4.9599274834203588E-01 
    4.9278735408841429E-01 
    4.8737248415185741E-01 
    4.7953270016555882E-01 
    4.6910077980402015E-01 
    4.5601804138282159E-01 
    4.4039483338048890E-01 
    4.2261039239170300E-01 
    4.0348560541954237E-01 
    3.8453533367487142E-01 
    3.6817617234348105E-01 
    3.5767934179229127E-01 
    3.5581676256296868E-01 
    3.6341587038217033E-01 
    4.9355539589281688E-01 
    4.9382401395714193E-01 
    4.9263897850180610E-01 
    4.8959745150670353E-01 
    4.8431653059660795E-01 
    4.7656693918486859E-01 
    4.6605767294666628E-01 
    4.5252628806457984E-01 
    4.3580253071790453E-01 
    4.1586181560276592E-01 
    3.9298532016926413E-01 
    3.6817717980574888E-01 
    3.4369265795219212E-01 
    3.2368149688069348E-01 
    3.1405679649337692E-01 
    3.1882098177813611E-01 
    4.9123335370867843E-01 
    4.9116062348525669E-01 
    4.8994157562478580E-01 
    4.8715684421538841E-01 
    4.8234294677037537E-01 
    4.7515663662457847E-01 
    4.6517051116260888E-01 
    4.5187970940616418E-01 
    4.3484687138478084E-01 
    4.1371003124057604E-01 
    3.8801544253537673E-01 
    3.5770559145484337E-01 
    3.2370891217719278E-01 
    2.8930773599355925E-01 
    2.6307660042858172E-01 
    2.5741480331655275E-01 
    4.9020473901138084E-01 
    4.8992401956059550E-01 
    4.8868312421748167E-01 
    4.8605044107115253E-01 
    4.8162132297235938E-01 
    4.7501557470958955E-01 
    4.6576339753141577E-01 
    4.5323727365103272E-01 
    4.3685581782298805E-01 
    4.1594719185132656E-01 
    3.8938701267190556E-01 
    3.5587541415817253E-01 
    3.1412652894893323E-01 
    2.6310583545170113E-01 
    2.0618892613336315E-01 
    1.6589089164843887E-01 
    4.8992842943764126E-01 
    4.8965086099802418E-01 
    4.8862636576002677E-01 
    4.8643018714177211E-01 
    4.8264791725872747E-01 
    4.7685887790344555E-01 
    4.6857217048463223E-01 
    4.5723610434727197E-01 
    4.4224364669737093E-01 
    4.2272549855241387E-01 
    3.9717045451985955E-01 
    3.6347035101692060E-01 
    3.1891017095011148E-01 
    2.5746455142134944E-01 
    1.6586026621945965E-01 
    0.0000000000000000E+00 

SCALARS Saturarion double 1 
LOOKUP_TABLE default 

    1.0000000000000000E+00 
    9.8770736130304615E-01 
    9.6494130491826957E-01 
    9.2461883634911124E-01 
    8.7126939543453552E-01 
    8.1648321763276765E-01 
    7.6381938004465733E-01 
    7.1223729222504062E-01 
    6.6112414279467235E-01 
    6.1144219517339604E-01 
    5.6349183821620352E-01 
    4.8589538407480704E-01 
    1.7658702008695731E-01 
    1.1092418950006738E-06 
    1.0000000069469574E-06 
    9.9999999999999995E-07 
    9.8766719394030666E-01 
    9.7687042639164046E-01 
    9.5610415462878862E-01 
    9.2226179445627876E-01 
    8.7563373723302917E-01 
    8.2486895689489514E-01 
    7.7420590806936984E-01 
    7.2398442395747054E-01 
    6.7382127274891879E-01 
    6.2426318213139909E-01 
    5.7652456300485166E-01 
    5.1081137511931562E-01 
    3.0007401646912496E-01 
    5.7848410201098580E-03 
    1.6806384768081743E-06 
    1.0000000479492364E-06 
    9.6480552935561936E-01 
    9.5602011214845406E-01 
    9.3616242352795542E-01 
    9.0868779793585408E-01 
    8.7165731542475655E-01 
    8.2900703343867244E-01 
    7.8404846922767313E-01 
    7.3770514365816919E-01 
    6.9005924505599447E-01 
    6.4171480551582938E-01 
    5.9409008547982234E-01 
    5.3907082379091054E-01 
    4.0878192322195500E-01 
    6.6352812457550911E-02 
    1.3548685537801967E-04 
    1.0012884405792044E-06 
    9.2430389205364871E-01 
    9.2206263586674575E-01 
    9.0860209191903485E-01 
    8.8655728715898963E-01 
    8.5804602459019419E-01 
    8.2431244320150820E-01 
    7.8687526199732638E-01 
    7.4634122006370340E-01 
    7.0300422919801142E-01 
    6.5744538010933828E-01 
    6.1064348171725402E-01 
    5.6078910672971982E-01 
    4.6640137383971680E-01 
    1.6398862981652407E-01 
    4.6667411672725653E-04 
    1.0181568653169305E-06 
    8.7089815633829593E-01 
    8.7538008501352804E-01 
    8.7151516231588633E-01 
    8.5795763495488797E-01 
    8.3780543274329278E-01 
    8.1263754483354456E-01 
    7.8300919279992021E-01 
    7.4924270460928177E-01 
    7.1158974465705394E-01 
    6.7046508218418355E-01 
    6.2616034288296740E-01 
    5.7889244932275186E-01 
    5.0931525726586613E-01 
    2.8034874662153103E-01 
    1.2127513117197154E-02 
    6.6639762023896554E-06 
    8.1611610797154022E-01 
    8.2464235673415254E-01 
    8.2884315359091776E-01 
    8.2410635273923816E-01 
    8.1249117092259460E-01 
    7.9538879257563033E-01 
    7.7335159063183911E-01 
    7.4672441454328875E-01 
    7.1554354243798568E-01 
    6.7981991333051983E-01 
    6.3944874513384109E-01 
    5.9504953097955338E-01 
    5.3584292092668662E-01 
    3.8616160960602691E-01 
    5.5700674384892124E-02 
    7.3742818601867200E-05 
    7.6317893544903315E-01 
    7.7394049201134996E-01 
    7.8396431325635818E-01 
    7.8668817752960585E-01 
    7.8274053753921857E-01 
    7.7320262598482703E-01 
    7.5862174713229191E-01 
    7.3927415987454614E-01 
    7.1502814130777259E-01 
    6.8541135696227584E-01 
    6.4994052285793391E-01 
    6.0863214782569752E-01 
    5.5809864335862969E-01 
    4.4098955884988150E-01 
    1.0840914452243172E-01 
    1.2108486683296727E-04 
    7.1135814194280733E-01 
    7.2360595869657185E-01 
    7.3764819519263958E-01 
    7.4626290175240451E-01 
    7.4897339539139540E-01 
    7.4643176474042738E-01 
    7.3912944580526585E-01 
    7.2715473345277992E-01 
    7.1017037225030477E-01 
    6.8743781723359609E-01 
    6.5797738144353979E-01 
    6.2093562594604901E-01 
    5.7689099999291193E-01 
    4.8763063748329571E-01 
    1.9707676942288752E-01 
    1.9559731943130506E-03 
    6.6020973348746559E-01 
    6.7328034695259542E-01 
    6.8991763783478244E-01 
    7.0291397909348385E-01 
    7.1142186248389405E-01 
    7.1525624951460676E-01 
    7.1476895554230924E-01 
    7.1001685113118473E-01 
    7.0058734822525726E-01 
    6.8547308170147714E-01 
    6.6329573749718262E-01 
    6.3227509807141902E-01 
    5.9250805870677958E-01 
    5.2255692538717513E-01 
    2.8473220530211873E-01 
    1.0743090484814503E-02 
    6.1039575040085126E-01 
    6.2355034366924289E-01 
    6.4148260703150328E-01 
    6.5716162890760788E-01 
    6.7019716297209775E-01 
    6.7960730737999775E-01 
    6.8520842930699954E-01 
    6.8720768288078538E-01 
    6.8530210879828202E-01 
    6.7839427364983929E-01 
    6.6464751072946149E-01 
    6.4161181906366738E-01 
    6.0728572088703081E-01 
    5.5001351882960903E-01 
    3.8310132531457480E-01 
    6.3634862951243723E-02 
    5.6203895620898803E-01 
    5.7557713380808506E-01 
    5.9379496187722891E-01 
    6.1028759049876768E-01 
    6.2562475236547377E-01 
    6.3907442304801798E-01 
    6.4981555952390868E-01 
    6.5783707144645176E-01 
    6.6301823401946069E-01 
    6.6444947315126290E-01 
    6.6010571118081873E-01 
    6.4699343971997170E-01 
    6.2110193446983175E-01 
    5.7378251045152739E-01 
    4.4114682697399327E-01 
    1.4117405290384213E-01 
    4.8393773131112250E-01 
    5.1036721596769141E-01 
    5.3942003315602405E-01 
    5.6094547448905463E-01 
    5.7847563222071374E-01 
    5.9441773493551053E-01 
    6.0830646070141348E-01 
    6.2087092438358760E-01 
    6.3210568977089421E-01 
    6.4131887788559128E-01 
    6.4677123683660753E-01 
    6.4533628687960487E-01 
    6.3169406033998943E-01 
    5.9804426729021543E-01 
    4.9745506121210109E-01 
    2.2901152860739660E-01 
    1.7438331063749751E-01 
    3.0076846096897614E-01 
    4.1141324525883000E-01 
    4.6808198604484907E-01 
    5.0963053019048443E-01 
    5.3574015585924040E-01 
    5.5784206231713251E-01 
    5.7665219784098298E-01 
    5.9244944335641236E-01 
    6.0725438132471166E-01 
    6.2100728682467132E-01 
    6.3152931736582585E-01 
    6.3293389986906923E-01 
    6.1593602333796194E-01 
    5.4622778562247776E-01 
    3.0719911120087212E-01 
    1.0875597004119969E-06 
    6.0802948686939293E-03 
    7.1049432469455179E-02 
    1.6550575721574401E-01 
    2.8151970828817419E-01 
    3.8678355653168406E-01 
    4.4319458837411707E-01 
    4.8879650632862404E-01 
    5.2358016676798946E-01 
    5.5080200089963660E-01 
    5.7506502433420159E-01 
    5.9846225343794757E-01 
    6.1602535508487988E-01 
    6.1676158929624603E-01 
    5.8459894736372220E-01 
    3.8827106977846099E-01 
    1.0000000080107759E-06 
    1.7659503440851304E-06 
    1.5564629015103642E-04 
    4.6243885642874256E-04 
    1.2852103001860767E-02 
    5.6489560998320129E-02 
    1.1532482050743749E-01 
    1.9882993172553026E-01 
    2.8785683254458716E-01 
    3.8436211568795769E-01 
    4.4345126757900150E-01 
    4.9824974742152806E-01 
    5.4633725512554987E-01 
    5.8420919602384069E-01 
    5.9326920722272103E-01 
    4.6423594671990420E-01 
    9.9999999999999995E-07 
    1.0000000555194585E-06 
    1.0017541420157116E-06 
    1.0157329598097026E-06 
    7.5971911100086304E-06 
    8.3879190142069937E-05 
    1.4512508211753631E-04 
    1.3278880316758264E-03 
    1.3325843999253037E-02 
    5.7214540591751066E-02 
    1.5438403575577700E-01 
    2.2953787979644288E-01 
    3.0789967638966648E-01 
    3.8703808879942053E-01 
    4.6416614945708773E-01 
    4.6430804993048114E-01 
