# vtk DataFile Version 2.0
Pressure Field Data 
ASCII 
DATASET UNSTRUCTURED_GRID 

POINTS 289 double 

    0.0000000000000000E+00     0.0000000000000000E+00     0.0000000000000000E+00 
    1.0000000000000000E+00     0.0000000000000000E+00     0.0000000000000000E+00 
    1.0000000000000000E+00     1.0000000000000000E+00     0.0000000000000000E+00 
    0.0000000000000000E+00     1.0000000000000000E+00     0.0000000000000000E+00 
    6.2499999999872928E-02     0.0000000000000000E+00     0.0000000000000000E+00 
    1.2499999999977310E-01     0.0000000000000000E+00     0.0000000000000000E+00 
    1.8749999999959341E-01     0.0000000000000000E+00     0.0000000000000000E+00 
    2.4999999999941089E-01     0.0000000000000000E+00     0.0000000000000000E+00 
    3.1249999999922851E-01     0.0000000000000000E+00     0.0000000000000000E+00 
    3.7499999999904610E-01     0.0000000000000000E+00     0.0000000000000000E+00 
    4.3749999999886358E-01     0.0000000000000000E+00     0.0000000000000000E+00 
    4.9999999999869210E-01     0.0000000000000000E+00     0.0000000000000000E+00 
    5.6249999999884603E-01     0.0000000000000000E+00     0.0000000000000000E+00 
    6.2499999999901090E-01     0.0000000000000000E+00     0.0000000000000000E+00 
    6.8749999999917577E-01     0.0000000000000000E+00     0.0000000000000000E+00 
    7.4999999999934064E-01     0.0000000000000000E+00     0.0000000000000000E+00 
    8.1249999999950551E-01     0.0000000000000000E+00     0.0000000000000000E+00 
    8.7499999999967026E-01     0.0000000000000000E+00     0.0000000000000000E+00 
    9.3749999999983513E-01     0.0000000000000000E+00     0.0000000000000000E+00 
    1.0000000000000000E+00     6.2499999999872928E-02     0.0000000000000000E+00 
    1.0000000000000000E+00     1.2499999999977310E-01     0.0000000000000000E+00 
    1.0000000000000000E+00     1.8749999999959341E-01     0.0000000000000000E+00 
    1.0000000000000000E+00     2.4999999999941089E-01     0.0000000000000000E+00 
    1.0000000000000000E+00     3.1249999999922851E-01     0.0000000000000000E+00 
    1.0000000000000000E+00     3.7499999999904610E-01     0.0000000000000000E+00 
    1.0000000000000000E+00     4.3749999999886358E-01     0.0000000000000000E+00 
    1.0000000000000000E+00     4.9999999999869210E-01     0.0000000000000000E+00 
    1.0000000000000000E+00     5.6249999999884603E-01     0.0000000000000000E+00 
    1.0000000000000000E+00     6.2499999999901090E-01     0.0000000000000000E+00 
    1.0000000000000000E+00     6.8749999999917577E-01     0.0000000000000000E+00 
    1.0000000000000000E+00     7.4999999999934064E-01     0.0000000000000000E+00 
    1.0000000000000000E+00     8.1249999999950551E-01     0.0000000000000000E+00 
    1.0000000000000000E+00     8.7499999999967026E-01     0.0000000000000000E+00 
    1.0000000000000000E+00     9.3749999999983513E-01     0.0000000000000000E+00 
    9.3749999999973976E-01     1.0000000000000000E+00     0.0000000000000000E+00 
    8.7499999999950118E-01     1.0000000000000000E+00     0.0000000000000000E+00 
    8.1249999999991318E-01     1.0000000000000000E+00     0.0000000000000000E+00 
    7.5000000000034706E-01     1.0000000000000000E+00     0.0000000000000000E+00 
    6.8750000000078049E-01     1.0000000000000000E+00     0.0000000000000000E+00 
    6.2500000000121403E-01     1.0000000000000000E+00     0.0000000000000000E+00 
    5.6250000000164757E-01     1.0000000000000000E+00     0.0000000000000000E+00 
    5.0000000000205946E-01     1.0000000000000000E+00     0.0000000000000000E+00 
    4.3750000000182099E-01     1.0000000000000000E+00     0.0000000000000000E+00 
    3.7500000000156092E-01     1.0000000000000000E+00     0.0000000000000000E+00 
    3.1250000000130068E-01     1.0000000000000000E+00     0.0000000000000000E+00 
    2.5000000000104050E-01     1.0000000000000000E+00     0.0000000000000000E+00 
    1.8750000000078040E-01     1.0000000000000000E+00     0.0000000000000000E+00 
    1.2500000000052031E-01     1.0000000000000000E+00     0.0000000000000000E+00 
    6.2500000000260125E-02     1.0000000000000000E+00     0.0000000000000000E+00 
    0.0000000000000000E+00     9.3749999999973976E-01     0.0000000000000000E+00 
    0.0000000000000000E+00     8.7499999999950118E-01     0.0000000000000000E+00 
    0.0000000000000000E+00     8.1249999999991318E-01     0.0000000000000000E+00 
    0.0000000000000000E+00     7.5000000000034706E-01     0.0000000000000000E+00 
    0.0000000000000000E+00     6.8750000000078049E-01     0.0000000000000000E+00 
    0.0000000000000000E+00     6.2500000000121403E-01     0.0000000000000000E+00 
    0.0000000000000000E+00     5.6250000000164757E-01     0.0000000000000000E+00 
    0.0000000000000000E+00     5.0000000000205946E-01     0.0000000000000000E+00 
    0.0000000000000000E+00     4.3750000000182099E-01     0.0000000000000000E+00 
    0.0000000000000000E+00     3.7500000000156092E-01     0.0000000000000000E+00 
    0.0000000000000000E+00     3.1250000000130068E-01     0.0000000000000000E+00 
    0.0000000000000000E+00     2.5000000000104050E-01     0.0000000000000000E+00 
    0.0000000000000000E+00     1.8750000000078040E-01     0.0000000000000000E+00 
    0.0000000000000000E+00     1.2500000000052031E-01     0.0000000000000000E+00 
    0.0000000000000000E+00     6.2500000000260125E-02     0.0000000000000000E+00 
    6.2499999999897131E-02     6.2500000000235922E-02     0.0000000000000000E+00 
    6.2499999999921327E-02     1.2500000000047351E-01     0.0000000000000000E+00 
    6.2499999999945530E-02     1.8750000000070621E-01     0.0000000000000000E+00 
    6.2499999999969733E-02     2.5000000000093858E-01     0.0000000000000000E+00 
    6.2499999999993928E-02     3.1250000000117117E-01     0.0000000000000000E+00 
    6.2500000000018124E-02     3.7500000000140382E-01     0.0000000000000000E+00 
    6.2500000000042327E-02     4.3750000000163619E-01     0.0000000000000000E+00 
    6.2500000000066530E-02     5.0000000000184897E-01     0.0000000000000000E+00 
    6.2500000000090733E-02     5.6250000000147260E-01     0.0000000000000000E+00 
    6.2500000000114922E-02     6.2500000000107636E-01     0.0000000000000000E+00 
    6.2500000000139125E-02     6.8750000000068034E-01     0.0000000000000000E+00 
    6.2500000000163328E-02     7.5000000000028411E-01     0.0000000000000000E+00 
    6.2500000000187531E-02     8.1249999999988787E-01     0.0000000000000000E+00 
    6.2500000000211720E-02     8.7499999999951172E-01     0.0000000000000000E+00 
    6.2500000000235922E-02     9.3749999999974565E-01     0.0000000000000000E+00 
    1.2499999999981980E-01     6.2500000000211733E-02     0.0000000000000000E+00 
    1.2499999999986650E-01     1.2500000000042691E-01     0.0000000000000000E+00 
    1.2499999999991319E-01     1.8750000000063199E-01     0.0000000000000000E+00 
    1.2499999999995989E-01     2.5000000000083678E-01     0.0000000000000000E+00 
    1.2500000000000661E-01     3.1250000000104172E-01     0.0000000000000000E+00 
    1.2500000000005329E-01     3.7500000000124661E-01     0.0000000000000000E+00 
    1.2500000000010000E-01     4.3750000000145117E-01     0.0000000000000000E+00 
    1.2500000000014669E-01     5.0000000000163858E-01     0.0000000000000000E+00 
    1.2500000000019340E-01     5.6250000000129741E-01     0.0000000000000000E+00 
    1.2500000000024011E-01     6.2500000000093847E-01     0.0000000000000000E+00 
    1.2500000000028680E-01     6.8750000000057998E-01     0.0000000000000000E+00 
    1.2500000000033351E-01     7.5000000000022127E-01     0.0000000000000000E+00 
    1.2500000000038020E-01     8.1249999999986211E-01     0.0000000000000000E+00 
    1.2500000000042691E-01     8.7499999999952238E-01     0.0000000000000000E+00 
    1.2500000000047359E-01     9.3749999999975164E-01     0.0000000000000000E+00 
    1.8749999999966760E-01     6.2500000000187531E-02     0.0000000000000000E+00 
    1.8749999999974179E-01     1.2500000000038020E-01     0.0000000000000000E+00 
    1.8749999999981601E-01     1.8750000000055780E-01     0.0000000000000000E+00 
    1.8749999999989009E-01     2.5000000000073502E-01     0.0000000000000000E+00 
    1.8749999999996431E-01     3.1250000000091221E-01     0.0000000000000000E+00 
    1.8750000000003850E-01     3.7500000000108941E-01     0.0000000000000000E+00 
    1.8750000000011269E-01     4.3750000000126649E-01     0.0000000000000000E+00 
    1.8750000000018691E-01     5.0000000000142808E-01     0.0000000000000000E+00 
    1.8750000000026110E-01     5.6250000000112244E-01     0.0000000000000000E+00 
    1.8750000000033529E-01     6.2500000000080080E-01     0.0000000000000000E+00 
    1.8750000000040951E-01     6.8750000000047962E-01     0.0000000000000000E+00 
    1.8750000000048361E-01     7.5000000000015843E-01     0.0000000000000000E+00 
    1.8750000000055780E-01     8.1249999999983680E-01     0.0000000000000000E+00 
    1.8750000000063199E-01     8.7499999999953304E-01     0.0000000000000000E+00 
    1.8750000000070621E-01     9.3749999999975764E-01     0.0000000000000000E+00 
    2.4999999999951281E-01     6.2500000000163314E-02     0.0000000000000000E+00 
    2.4999999999961461E-01     1.2500000000033351E-01     0.0000000000000000E+00 
    2.4999999999971650E-01     1.8750000000048361E-01     0.0000000000000000E+00 
    2.4999999999981831E-01     2.5000000000063310E-01     0.0000000000000000E+00 
    2.4999999999992020E-01     3.1250000000078260E-01     0.0000000000000000E+00 
    2.5000000000002198E-01     3.7500000000093209E-01     0.0000000000000000E+00 
    2.5000000000012390E-01     4.3750000000108180E-01     0.0000000000000000E+00 
    2.5000000000022571E-01     5.0000000000121769E-01     0.0000000000000000E+00 
    2.5000000000032763E-01     5.6250000000094724E-01     0.0000000000000000E+00 
    2.5000000000042938E-01     6.2500000000066314E-01     0.0000000000000000E+00 
    2.5000000000053119E-01     6.8750000000037925E-01     0.0000000000000000E+00 
[...]
CELL_DATA 256 
SCALARS Pressure double 1 
LOOKUP_TABLE default 

    6.9921049760233855E-01 
    6.4942339654190073E-01 
    6.1832104361345586E-01 
    5.9597166411607216E-01 
    5.7821491732277086E-01 
    5.6335648620975354E-01 
    5.5074978560098520E-01 
    5.4011463365336465E-01 
    5.3130782578653712E-01 
    5.2425335064292311E-01 
    5.1886638896980608E-01 
    5.1477207190650731E-01 
    5.1120361150954652E-01 
    5.0880899480046438E-01 
    5.0775406998994210E-01 
    5.0747026918694316E-01 
    6.4942907202314371E-01 
    6.3916504493610349E-01 
    6.1898032321062879E-01 
    5.9944921239299198E-01 
    5.8218054167953637E-01 
    5.6707973144085544E-01 
    5.5396289220861650E-01 
    5.4271297498599558E-01 
    5.3326106820194419E-01 
    5.2557772831810767E-01 
    5.1964086046054103E-01 
    5.1521855012608364E-01 
    5.1150755614101229E-01 
    5.0872846061414012E-01 
    5.0746519790516564E-01 
    5.0718499092914249E-01 
    6.1832952034302002E-01 
    6.1898485561669325E-01 
    6.0961810563360908E-01 
    5.9589858773358917E-01 
    5.8127427235148588E-01 
    5.6720310579552902E-01 
    5.5430845459160738E-01 
    5.4287727526045593E-01 
    5.3305671808381327E-01 
    5.2494216733456600E-01 
    5.1859965152970877E-01 
    5.1394031120585537E-01 
    5.1033335180994588E-01 
    5.0745838011822963E-01 
    5.0619008648683006E-01 
    5.0613255612398034E-01 
    5.9597844529903587E-01 
    5.9945439055272098E-01 
    5.9590097230189143E-01 
    5.8724111994752093E-01 
    5.7590809724517023E-01 
    5.6366174960453053E-01 
    5.5160365496622243E-01 
    5.4040261900934783E-01 
    5.3047542756508259E-01 
    5.2210215236395885E-01 
    5.1547643806265198E-01 
    5.1066129428389639E-01 
    5.0728140333211635E-01 
    5.0461763521637992E-01 
    5.0350007740739833E-01 
    5.0388151696619032E-01 
    5.7821755624361704E-01 
    5.8218302030115265E-01 
    5.8127632676730623E-01 
    5.7590945115154479E-01 
    5.6736255956982684E-01 
    5.5702812599825913E-01 
    5.4605753804845569E-01 
    5.3531575801034659E-01 
    5.2543856440296832E-01 
    5.1689969325177898E-01 
    5.1004778673692897E-01 
    5.0510066968578660E-01 
    5.0192164051999566E-01 
    4.9971465474917337E-01 
    4.9894883411733537E-01 
    4.9999663102703201E-01 
    5.6335570384737765E-01 
    5.6707852849233897E-01 
    5.6720234401231384E-01 
    5.6366214233790768E-01 
    5.5702832511433997E-01 
    5.4822253933662857E-01 
    5.3822224037987831E-01 
    5.2791649737122770E-01 
    5.1806912710010444E-01 
    5.0931966460674127E-01 
    5.0218306527205370E-01 
    4.9703340750014802E-01 
    4.9396609754954862E-01 
    4.9234376601621527E-01 
    4.9214785451843046E-01 
    4.9405281963837999E-01 
    5.5074457037336289E-01 
    5.5395760270079375E-01 
    5.5430358497553478E-01 
    5.5160067633620569E-01 
    5.4605554662531264E-01 
    5.3822056424494091E-01 
    5.2884126765279560E-01 
    5.1873075777120425E-01 
    5.0869944467736461E-01 
    4.9951441462835122E-01 
    4.9186382386354693E-01 
    4.8631109841738412E-01 
    4.8319505070880697E-01 
    4.8214401628951520E-01 
    4.8266589083905614E-01 
    4.8557428911578748E-01 
    5.4010173527994221E-01 
    5.4270157356211357E-01 
    5.4286750325956545E-01 
    5.4039523279465140E-01 
    5.3530970197626593E-01 
    5.2791099069491887E-01 
    5.1872718595952982E-01 
    5.0844716567209391E-01 
    4.9786631968942557E-01 
    4.8784024011326582E-01 
    4.7923317746992300E-01 
    4.7284455563203481E-01 
    4.6930563113091578E-01 
    4.6858699360215617E-01 
    4.6986197013377573E-01 
    4.7395532910850935E-01 
    5.3128544315170156E-01 
    5.3324118946204224E-01 
    5.3304024528700844E-01 
    5.3046276621478816E-01 
    5.2542730181178099E-01 
    5.1805791262978884E-01 
    5.0869024624005965E-01 
    4.9786144017783651E-01 
    4.8629753470838216E-01 
    4.7489428503237857E-01 
    4.6467952323096634E-01 
    4.5673287802417140E-01 
    4.5204798955793135E-01 
    4.5103954036481519E-01 
    4.5297756638989689E-01 
    4.5851372584701977E-01 
    5.2422078345689860E-01 
    5.2554724098836691E-01 
    5.2491578363062830E-01 
    5.2208175151395331E-01 
    5.1688177763648080E-01 
    5.0930136778653279E-01 
    4.9949788881335383E-01 
    4.8782904852865605E-01 
    4.7488875979864936E-01 
    4.6153658994638480E-01 
    4.4890991075339193E-01 
    4.3838985050636842E-01 
    4.3146061129270691E-01 
    4.2921689794582280E-01 
    4.3138459143170743E-01 
    4.3840634231404940E-01 
    5.1882349074309531E-01 
    5.1959822068655170E-01 
    5.1856069915131564E-01 
    5.1544532364939832E-01 
    5.1002094396674780E-01 
    5.0215573716073747E-01 
    4.9183811246959697E-01 
    4.7921405268044165E-01 
    4.6466726006695463E-01 
    4.4890329865652878E-01 
    4.3303499571271803E-01 
    4.1866627942007667E-01 
    4.0785870419489334E-01 
    4.0273540607938163E-01 
    4.0405690609576544E-01 
    4.1220502937495840E-01 
    5.1472212056452249E-01 
    5.1516773102903168E-01 
    5.1389244190957739E-01 
    5.1062156393178004E-01 
    5.0506552501893354E-01 
    4.9699505273633926E-01 
    4.8627276098933336E-01 
    4.7281497378065934E-01 
    4.5671238939132541E-01 
    4.3837482652990006E-01 
    4.1865885267789332E-01 
    3.9912248735241862E-01 
    3.8226525365172420E-01 
    3.7147685274842740E-01 
    3.6951042440360787E-01 
    3.7748904286039414E-01 
    5.1115566534892243E-01 
    5.1146122221725443E-01 
    5.1029059889832251E-01 
    5.0724405840426889E-01 
    5.0188538242943614E-01 
    4.9391891249490749E-01 
    4.8314210214685360E-01 
    4.6926510162617008E-01 
    4.5202235688558057E-01 
    4.3143925290278529E-01 
    4.0784643314816660E-01 
    3.8226383148352477E-01 
    3.5700163452264860E-01 
    3.3636324888065749E-01 
    3.2634902351977163E-01 
    3.3130755903402809E-01 
    5.0876559797401333E-01 
    5.0868621873494979E-01 
    5.0741974589117445E-01 
    5.0458459724645999E-01 
    4.9968431099284771E-01 
    4.9230680903591861E-01 
    4.8209705593977681E-01 
    4.6855287966670578E-01 
    4.5102488682544634E-01 
    4.2920298587856653E-01 
    4.0273233706123257E-01 
    3.7149322766901799E-01 
    3.3638226963824686E-01 
    3.0081676084090486E-01 
    2.7356940910287958E-01 
    2.6761954741530103E-01 
    5.0771177646441223E-01 
    5.0742346363893287E-01 
    5.0615009127633703E-01 
    5.0346239502295687E-01 
    4.9891557904718087E-01 
    4.9211549095751983E-01 
    4.8262814656928688E-01 
    4.6983452305149825E-01 
    4.5296767625589690E-01 
    4.3139668938140202E-01 
    4.0406972796296381E-01 
    3.6954672725237936E-01 
    3.2640001547860836E-01 
    2.7358651651768706E-01 
    2.1452693086501937E-01 
    1.7256961893016426E-01 
    5.0742827936684243E-01 
    5.0714340601536623E-01 
    5.0609227134857915E-01 
    5.0384329657461380E-01 
    4.9996168251277490E-01 
    4.9402012904214582E-01 
    4.8553979355057802E-01 
    4.7392242615593116E-01 
    4.5848924515534434E-01 
    4.3841991153580062E-01 
    4.1223427856534045E-01 
    3.7750339325081034E-01 
    3.3136569270528154E-01 
    2.6764363581843870E-01 
    1.7252994347578005E-01 
    0.0000000000000000E+00 

SCALARS Saturarion double 1 
LOOKUP_TABLE default 

    1.0000000000000000E+00 
    9.8690728703205455E-01 
    9.6278658354553570E-01 
    9.2006790663506355E-01 
    8.6426293167528256E-01 
    8.0794449195998508E-01 
    7.5437914290637798E-01 
    7.0221487557479878E-01 
    6.5110800021859716E-01 
    6.0216879246279564E-01 
    5.5376854446050328E-01 
    4.6180621844971392E-01 
    1.1776576959792726E-01 
    1.0060279334826787E-06 
    1.0000000016690638E-06 
    9.9999999999999995E-07 
    9.8686302449375607E-01 
    9.7537502747122040E-01 
    9.5340622668838371E-01 
    9.1758692923174023E-01 
    8.6874165702865225E-01 
    8.1647271502496777E-01 
    7.6487435948137295E-01 
    7.1401324691006540E-01 
    6.6370879627427981E-01 
    6.1474443976709370E-01 
    5.6736381502194222E-01 
    4.9233295446813874E-01 
    2.3466669439361859E-01 
    9.2439635027251462E-04 
    1.0244194208218564E-06 
    1.0000000014791423E-06 
    9.6263788598426669E-01 
    9.5331439115719752E-01 
    9.3235457272261413E-01 
    9.0339197248772229E-01 
    8.6464753848949960E-01 
    8.2073142571766833E-01 
    7.7486979101390219E-01 
    7.2781220583895179E-01 
    6.7985050638286915E-01 
    6.3184873270748754E-01 
    5.8484481116993603E-01 
    5.2583417063242954E-01 
    3.6157814502016200E-01 
    3.2681744146547322E-02 
    4.4167855374315933E-05 
    1.0000819155818787E-06 
    9.1972699611541642E-01 
    9.1737473635139843E-01 
    9.0330332583314021E-01 
    8.8025119175289523E-01 
    8.5065615473172562E-01 
    8.1601271780290097E-01 
    7.7775907769008112E-01 
    7.3650008841911063E-01 
    6.9275171273922420E-01 
    6.4729593772087890E-01 
    6.0099965455376736E-01 
    5.4863836633587315E-01 
    4.4312653876816527E-01 
    1.1980026654290742E-01 
    2.1234414893233475E-04 
    1.0108688505338914E-06 
    8.6386524088156513E-01 
    8.6847143431717033E-01 
    8.6449691344481228E-01 
    8.5056072515888992E-01 
    8.2991767423296703E-01 
    8.0414053781117811E-01 
    7.7380856651920693E-01 
    7.3939175889464848E-01 
    7.0131383830169858E-01 
    6.6012128986058771E-01 
    6.1614877752102715E-01 
    5.6895511997362014E-01 
    4.8850047630553017E-01 
    2.2353942597976290E-01 
    4.4907354890637973E-03 
    1.5795700975875321E-06 
    8.0755087521038327E-01 
    8.1622637365382844E-01 
    8.2055068312724355E-01 
    8.1578901574592322E-01 
    8.0398431713985907E-01 
    7.8648666110794840E-01 
    7.6392853479803657E-01 
    7.3679597422774512E-01 
    7.0522483287220039E-01 
    6.6932279152714158E-01 
    6.2908117944923003E-01 
    5.8497440730625039E-01 
    5.1965001571833747E-01 
    3.3983387795099590E-01 
    2.7880176206452899E-02 
    3.0131075655973463E-05 
    7.5370356271316108E-01 
    7.6458711463291174E-01 
    7.7477082939710051E-01 
    7.7755531208637452E-01 
    7.7352522190573136E-01 
    7.6377349020266228E-01 
    7.4889124533931406E-01 
    7.2920297091541575E-01 
    7.0462834954786602E-01 
    6.7478044033340845E-01 
    6.3928157602615610E-01 
    5.9826477636987607E-01 
    5.4746623165763231E-01 
    4.1729829223514064E-01 
    8.2639025991757806E-02 
    1.0976103555716078E-04 
    7.0129178773533174E-01 
    7.1360286973113130E-01 
    7.2773384267445806E-01 
    7.3640334925473350E-01 
    7.3910438886156493E-01 
    7.3649174244969917E-01 
    7.2905428813385575E-01 
    7.1687800804940105E-01 
    6.9964928413560834E-01 
    6.7669672325046515E-01 
    6.4714007075685676E-01 
    6.1043523223785467E-01 
    5.6558310887129659E-01 
    4.6500682521099451E-01 
    1.5089820884361144E-01 
    5.2971491756768723E-04 
    6.5013516009697281E-01 
    6.6311390574617957E-01 
    6.7966488097795141E-01 
    6.9262793169076364E-01 
    7.0112132897141277E-01 
    7.0492248974422023E-01 
    7.0436275100280199E-01 
    6.9949351475891619E-01 
    6.8991011290063420E-01 
    6.7463389997665846E-01 
    6.5235562117625401E-01 
    6.2152941479149371E-01 
    5.8165501693154409E-01 
    5.0129150399511568E-01 
    2.3356690732117882E-01 
    5.4890747955726790E-03 
    6.0104997138547733E-01 
    6.1396162457326375E-01 
    6.3155799547816960E-01 
    6.4696945507191672E-01 
    6.5982225372711401E-01 
    6.6909233532592360E-01 
    6.7457112288129673E-01 
    6.7646386759054211E-01 
    6.7446113388322426E-01 
    6.6745909775895995E-01 
    6.5364280141939879E-01 
    6.3065637450022705E-01 
    5.9668198663110028E-01 
    5.3470313148597604E-01 
    3.5179739277668831E-01 
    3.5435721438425452E-02 
    5.5230067232314450E-01 
    5.6642859970003179E-01 
    5.8458906909983210E-01 
    6.0066155081480865E-01 
    6.1560375852265303E-01 
    6.2869687121550877E-01 
    6.3915538349318202E-01 
    6.4699873820611320E-01 
    6.5207449807334616E-01 
    6.5344047775876024E-01 
    6.4905784079895090E-01 
    6.3594738759718772E-01 
    6.1039148297078416E-01 
    5.6232604044629997E-01 
    4.2078656719027036E-01 
    1.1218798339508435E-01 
    4.5978169954823200E-01 
    4.9215096403891978E-01 
    5.2644719490041636E-01 
    5.4894135954416534E-01 
    5.6856535968871236E-01 
    5.8432682652195600E-01 
    5.9791525007048074E-01 
    6.1035014168697521E-01 
    6.2135249037067208E-01 
    6.3035621568734734E-01 
    6.3571698451649883E-01 
    6.3427079631868100E-01 
    6.2080328676627483E-01 
    5.8760057962271373E-01 
    4.7954802260322477E-01 
    2.0675961283326486E-01 
    1.1594492352296035E-01 
    2.3612234898664386E-01 
    3.6524137970872683E-01 
    4.4495603098135927E-01 
    4.8904911834441483E-01 
    5.1910264152841568E-01 
    5.4718553907644396E-01 
    5.6556029127486629E-01 
    5.8170975280953485E-01 
    5.9668314725665705E-01 
    6.1031343164279617E-01 
    6.2063977413011073E-01 
    6.2199959744484035E-01 
    6.0476058155877077E-01 
    5.3012915307793307E-01 
    2.8854336125176672E-01 
    1.0066470834377240E-06 
    9.9402938294514695E-04 
    3.5789939967058891E-02 
    1.2142242953970214E-01 
    2.2465546905276179E-01 
    3.4027346343390985E-01 
    4.2029335999777995E-01 
    4.6766865758421594E-01 
    5.0256089632502965E-01 
    5.3507144124618788E-01 
    5.6316957111359622E-01 
    5.8800590432668121E-01 
    6.0480043096172287E-01 
    6.0521216587931337E-01 
    5.7047314101409896E-01 
    3.7193914672779887E-01 
    1.0000000019489724E-06 
    1.0272436926455390E-06 
    5.3179229356966721E-05 
    1.9378562070063206E-04 
    4.7410834648761793E-03 
    2.8985906969753245E-02 
    8.8750665189336150E-02 
    1.5212653835884671E-01 
    2.3483840761391214E-01 
    3.5127044895503506E-01 
    4.2300578455204191E-01 
    4.8013839994737084E-01 
    5.3015629196827174E-01 
    5.7021234717553160E-01 
    5.7871782582632869E-01 
    4.4899768008250762E-01 
    9.9999999999999995E-07 
    1.0000000016758616E-06 
    1.0001209706659123E-06 
    1.0094305168090005E-06 
    1.6477073355196163E-06 
    3.5962216554919212E-05 
    1.2807477622706512E-04 
    3.6567082934399947E-04 
    6.9907928963568490E-03 
    3.1220616220805516E-02 
    1.2729219235852499E-01 
    2.0665721529260450E-01 
    2.8895554222776371E-01 
    3.7054845699878936E-01 
    4.4897742620219516E-01 
    4.4908383444048205E-01 
