# vtk DataFile Version 2.0
Pressure Field Data 
ASCII 
DATASET UNSTRUCTURED_GRID 

POINTS 289 double 

    0.0000000000000000E+00     0.0000000000000000E+00     0.0000000000000000E+00 
    1.0000000000000000E+00     0.0000000000000000E+00     0.0000000000000000E+00 
    1.0000000000000000E+00     1.0000000000000000E+00     0.0000000000000000E+00 
    0.0000000000000000E+00     1.0000000000000000E+00     0.0000000000000000E+00 
    6.2499999999872928E-02     0.0000000000000000E+00     0.0000000000000000E+00 
    1.2499999999977310E-01     0.0000000000000000E+00     0.0000000000000000E+00 
    1.8749999999959341E-01     0.0000000000000000E+00     0.0000000000000000E+00 
    2.4999999999941089E-01     0.0000000000000000E+00     0.0000000000000000E+00 
    3.1249999999922851E-01     0.0000000000000000E+00     0.0000000000000000E+00 
    3.7499999999904610E-01     0.0000000000000000E+00     0.0000000000000000E+00 
    4.3749999999886358E-01     0.0000000000000000E+00     0.0000000000000000E+00 
    4.9999999999869210E-01     0.0000000000000000E+00     0.0000000000000000E+00 
    5.6249999999884603E-01     0.0000000000000000E+00     0.0000000000000000E+00 
    6.2499999999901090E-01     0.0000000000000000E+00     0.0000000000000000E+00 
    6.8749999999917577E-01     0.0000000000000000E+00     0.0000000000000000E+00 
    7.4999999999934064E-01     0.0000000000000000E+00     0.0000000000000000E+00 
    8.1249999999950551E-01     0.0000000000000000E+00     0.0000000000000000E+00 
    8.7499999999967026E-01     0.0000000000000000E+00     0.0000000000000000E+00 
    9.3749999999983513E-01     0.0000000000000000E+00     0.0000000000000000E+00 
    1.0000000000000000E+00     6.2499999999872928E-02     0.0000000000000000E+00 
    1.0000000000000000E+00     1.2499999999977310E-01     0.0000000000000000E+00 
    1.0000000000000000E+00     1.8749999999959341E-01     0.0000000000000000E+00 
    1.0000000000000000E+00     2.4999999999941089E-01     0.0000000000000000E+00 
    1.0000000000000000E+00     3.1249999999922851E-01     0.0000000000000000E+00 
    1.0000000000000000E+00     3.7499999999904610E-01     0.0000000000000000E+00 
    1.0000000000000000E+00     4.3749999999886358E-01     0.0000000000000000E+00 
    1.0000000000000000E+00     4.9999999999869210E-01     0.0000000000000000E+00 
    1.0000000000000000E+00     5.6249999999884603E-01     0.0000000000000000E+00 
    1.0000000000000000E+00     6.2499999999901090E-01     0.0000000000000000E+00 
    1.0000000000000000E+00     6.8749999999917577E-01     0.0000000000000000E+00 
    1.0000000000000000E+00     7.4999999999934064E-01     0.0000000000000000E+00 
    1.0000000000000000E+00     8.1249999999950551E-01     0.0000000000000000E+00 
    1.0000000000000000E+00     8.7499999999967026E-01     0.0000000000000000E+00 
    1.0000000000000000E+00     9.3749999999983513E-01     0.0000000000000000E+00 
    9.3749999999973976E-01     1.0000000000000000E+00     0.0000000000000000E+00 
    8.7499999999950118E-01     1.0000000000000000E+00     0.0000000000000000E+00 
    8.1249999999991318E-01     1.0000000000000000E+00     0.0000000000000000E+00 
    7.5000000000034706E-01     1.0000000000000000E+00     0.0000000000000000E+00 
    6.8750000000078049E-01     1.0000000000000000E+00     0.0000000000000000E+00 
    6.2500000000121403E-01     1.0000000000000000E+00     0.0000000000000000E+00 
    5.6250000000164757E-01     1.0000000000000000E+00     0.0000000000000000E+00 
    5.0000000000205946E-01     1.0000000000000000E+00     0.0000000000000000E+00 
    4.3750000000182099E-01     1.0000000000000000E+00     0.0000000000000000E+00 
    3.7500000000156092E-01     1.0000000000000000E+00     0.0000000000000000E+00 
    3.1250000000130068E-01     1.0000000000000000E+00     0.0000000000000000E+00 
    2.5000000000104050E-01     1.0000000000000000E+00     0.0000000000000000E+00 
    1.8750000000078040E-01     1.0000000000000000E+00     0.0000000000000000E+00 
    1.2500000000052031E-01     1.0000000000000000E+00     0.0000000000000000E+00 
    6.2500000000260125E-02     1.0000000000000000E+00     0.0000000000000000E+00 
    0.0000000000000000E+00     9.3749999999973976E-01     0.0000000000000000E+00 
    0.0000000000000000E+00     8.7499999999950118E-01     0.0000000000000000E+00 
    0.0000000000000000E+00     8.1249999999991318E-01     0.0000000000000000E+00 
    0.0000000000000000E+00     7.5000000000034706E-01     0.0000000000000000E+00 
    0.0000000000000000E+00     6.8750000000078049E-01     0.0000000000000000E+00 
    0.0000000000000000E+00     6.2500000000121403E-01     0.0000000000000000E+00 
    0.0000000000000000E+00     5.6250000000164757E-01     0.0000000000000000E+00 
    0.0000000000000000E+00     5.0000000000205946E-01     0.0000000000000000E+00 
    0.0000000000000000E+00     4.3750000000182099E-01     0.0000000000000000E+00 
    0.0000000000000000E+00     3.7500000000156092E-01     0.0000000000000000E+00 
    0.0000000000000000E+00     3.1250000000130068E-01     0.0000000000000000E+00 
    0.0000000000000000E+00     2.5000000000104050E-01     0.0000000000000000E+00 
    0.0000000000000000E+00     1.8750000000078040E-01     0.0000000000000000E+00 
    0.0000000000000000E+00     1.2500000000052031E-01     0.0000000000000000E+00 
    0.0000000000000000E+00     6.2500000000260125E-02     0.0000000000000000E+00 
    6.2499999999897131E-02     6.2500000000235922E-02     0.0000000000000000E+00 
    6.2499999999921327E-02     1.2500000000047351E-01     0.0000000000000000E+00 
    6.2499999999945530E-02     1.8750000000070621E-01     0.0000000000000000E+00 
    6.2499999999969733E-02     2.5000000000093858E-01     0.0000000000000000E+00 
    6.2499999999993928E-02     3.1250000000117117E-01     0.0000000000000000E+00 
    6.2500000000018124E-02     3.7500000000140382E-01     0.0000000000000000E+00 
    6.2500000000042327E-02     4.3750000000163619E-01     0.0000000000000000E+00 
    6.2500000000066530E-02     5.0000000000184897E-01     0.0000000000000000E+00 
    6.2500000000090733E-02     5.6250000000147260E-01     0.0000000000000000E+00 
    6.2500000000114922E-02     6.2500000000107636E-01     0.0000000000000000E+00 
    6.2500000000139125E-02     6.8750000000068034E-01     0.0000000000000000E+00 
    6.2500000000163328E-02     7.5000000000028411E-01     0.0000000000000000E+00 
    6.2500000000187531E-02     8.1249999999988787E-01     0.0000000000000000E+00 
    6.2500000000211720E-02     8.7499999999951172E-01     0.0000000000000000E+00 
    6.2500000000235922E-02     9.3749999999974565E-01     0.0000000000000000E+00 
    1.2499999999981980E-01     6.2500000000211733E-02     0.0000000000000000E+00 
    1.2499999999986650E-01     1.2500000000042691E-01     0.0000000000000000E+00 
    1.2499999999991319E-01     1.8750000000063199E-01     0.0000000000000000E+00 
    1.2499999999995989E-01     2.5000000000083678E-01     0.0000000000000000E+00 
    1.2500000000000661E-01     3.1250000000104172E-01     0.0000000000000000E+00 
    1.2500000000005329E-01     3.7500000000124661E-01     0.0000000000000000E+00 
    1.2500000000010000E-01     4.3750000000145117E-01     0.0000000000000000E+00 
    1.2500000000014669E-01     5.0000000000163858E-01     0.0000000000000000E+00 
    1.2500000000019340E-01     5.6250000000129741E-01     0.0000000000000000E+00 
    1.2500000000024011E-01     6.2500000000093847E-01     0.0000000000000000E+00 
    1.2500000000028680E-01     6.8750000000057998E-01     0.0000000000000000E+00 
    1.2500000000033351E-01     7.5000000000022127E-01     0.0000000000000000E+00 
    1.2500000000038020E-01     8.1249999999986211E-01     0.0000000000000000E+00 
    1.2500000000042691E-01     8.7499999999952238E-01     0.0000000000000000E+00 
    1.2500000000047359E-01     9.3749999999975164E-01     0.0000000000000000E+00 
    1.8749999999966760E-01     6.2500000000187531E-02     0.0000000000000000E+00 
    1.8749999999974179E-01     1.2500000000038020E-01     0.0000000000000000E+00 
    1.8749999999981601E-01     1.8750000000055780E-01     0.0000000000000000E+00 
    1.8749999999989009E-01     2.5000000000073502E-01     0.0000000000000000E+00 
    1.8749999999996431E-01     3.1250000000091221E-01     0.0000000000000000E+00 
    1.8750000000003850E-01     3.7500000000108941E-01     0.0000000000000000E+00 
    1.8750000000011269E-01     4.3750000000126649E-01     0.0000000000000000E+00 
    1.8750000000018691E-01     5.0000000000142808E-01     0.0000000000000000E+00 
    1.8750000000026110E-01     5.6250000000112244E-01     0.0000000000000000E+00 
    1.8750000000033529E-01     6.2500000000080080E-01     0.0000000000000000E+00 
    1.8750000000040951E-01     6.8750000000047962E-01     0.0000000000000000E+00 
    1.8750000000048361E-01     7.5000000000015843E-01     0.0000000000000000E+00 
    1.8750000000055780E-01     8.1249999999983680E-01     0.0000000000000000E+00 
    1.8750000000063199E-01     8.7499999999953304E-01     0.0000000000000000E+00 
    1.8750000000070621E-01     9.3749999999975764E-01     0.0000000000000000E+00 
    2.4999999999951281E-01     6.2500000000163314E-02     0.0000000000000000E+00 
    2.4999999999961461E-01     1.2500000000033351E-01     0.0000000000000000E+00 
    2.4999999999971650E-01     1.8750000000048361E-01     0.0000000000000000E+00 
    2.4999999999981831E-01     2.5000000000063310E-01     0.0000000000000000E+00 
    2.4999999999992020E-01     3.1250000000078260E-01     0.0000000000000000E+00 
    2.5000000000002198E-01     3.7500000000093209E-01     0.0000000000000000E+00 
    2.5000000000012390E-01     4.3750000000108180E-01     0.0000000000000000E+00 
    2.5000000000022571E-01     5.0000000000121769E-01     0.0000000000000000E+00 
    2.5000000000032763E-01     5.6250000000094724E-01     0.0000000000000000E+00 
    2.5000000000042938E-01     6.2500000000066314E-01     0.0000000000000000E+00 
    2.5000000000053119E-01     6.8750000000037925E-01     0.0000000000000000E+00 
[...]
CELL_DATA 256 
SCALARS Pressure double 1 
LOOKUP_TABLE default 

    1.0291761388439920E+00 
    9.7757965507468836E-01 
    9.4299575377764921E-01 
    9.1519575888617555E-01 
    8.9051161712760674E-01 
    8.6841106753329345E-01 
    8.4889288989829770E-01 
    8.3171244489565266E-01 
    8.1549598585288829E-01 
    7.9831399269938763E-01 
    7.8424778375742055E-01 
    7.7482996585815089E-01 
    7.6868182809189001E-01 
    7.6511785652337083E-01 
    7.6345539778974603E-01 
    7.6300590755204023E-01 
    9.7759816012808609E-01 
    9.6684407399782568E-01 
    9.4404081200128898E-01 
    9.1987670566166857E-01 
    8.9627658233345697E-01 
    8.7420129791156465E-01 
    8.5422377927884363E-01 
    8.3651134553824669E-01 
    8.2025406925849065E-01 
    8.0287626636203924E-01 
    7.8720943606045712E-01 
    7.7645231442022333E-01 
    7.6927894862489254E-01 
    7.6502200192823688E-01 
    7.6301096227512566E-01 
    7.6255965710138884E-01 
    9.4302167575462026E-01 
    9.4405429327603596E-01 
    9.3292094955657912E-01 
    9.1539514955667645E-01 
    8.9523634278132280E-01 
    8.7470526754095235E-01 
    8.5517909943897386E-01 
    8.3738538818090269E-01 
    8.2113968305167673E-01 
    8.0414395674403749E-01 
    7.8733020957691813E-01 
    7.7552140223621557E-01 
    7.6765413868727483E-01 
    7.6303550392064634E-01 
    7.6101501831125029E-01 
    7.6090748335983149E-01 
    9.1520973497545666E-01 
    9.1988794631735826E-01 
    9.1539891841803434E-01 
    9.0380014419892774E-01 
    8.8782392144118460E-01 
    8.6978584235189138E-01 
    8.5147326989918237E-01 
    8.3408402337411525E-01 
    8.1799835733853909E-01 
    8.0175067201495154E-01 
    7.8439023938199393E-01 
    7.7149532887130934E-01 
    7.6317507756734704E-01 
    7.5848361714105439E-01 
    7.5677494540419377E-01 
    7.5735239466053861E-01 
    8.9049876191471666E-01 
    8.9626832701159398E-01 
    8.9522998676850973E-01 
    8.8782025333519032E-01 
    8.7551124065176134E-01 
    8.6011142769132731E-01 
    8.4336192051943437E-01 
    8.2667735280758725E-01 
    8.1086912024161051E-01 
    7.9532383549555530E-01 
    7.7791065012089211E-01 
    7.6381670542618763E-01 
    7.5522483657439698E-01 
    7.5069600058561903E-01 
    7.4959224853212980E-01 
    7.5118841456158303E-01 
    8.6836824735089324E-01 
    8.7416476053725101E-01 
    8.7467711118803582E-01 
    8.6976955401624767E-01 
    8.6010450549540229E-01 
    8.4690662663483951E-01 
    8.3161307665005157E-01 
    8.1560145974716691E-01 
    7.9994181980723067E-01 
    7.8468321736267643E-01 
    7.6732207201179925E-01 
    7.5204524047317223E-01 
    7.4322042074130945E-01 
    7.3899991806202214E-01 
    7.3875178167148658E-01 
    7.4169418054118319E-01 
    8.4881820586208601E-01 
    8.5415487377788080E-01 
    8.5512257411436887E-01 
    8.5143637995511556E-01 
    8.4334193355334175E-01 
    8.3160363187971964E-01 
    8.1729802567469478E-01 
    8.0162117193829718E-01 
    7.8572911067400530E-01 
    7.7011580234302246E-01 
    7.5254335489262769E-01 
    7.3604004228451225E-01 
    7.2666344665261229E-01 
    7.2271539610611468E-01 
    7.2349614851641153E-01 
    7.2810633373296962E-01 
    8.3160953722630271E-01 
    8.3641302216430047E-01 
    8.3730339629297679E-01 
    8.3402657409487535E-01 
    8.2664069691583586E-01 
    8.1557850464879433E-01 
    8.0161048781040656E-01 
    7.8572948034211454E-01 
    7.6905715984541034E-01 
    7.5233838866770664E-01 
    7.3384637169931233E-01 
    7.1570324451343748E-01 
    7.0506572440289428E-01 
    7.0110881501703293E-01 
    7.0297117927572905E-01 
    7.0956357392743430E-01 
    8.1538571813312055E-01 
    8.2014523848581899E-01 
    8.2104758344264017E-01 
    8.1793188416617901E-01 
    8.1081957782314107E-01 
    7.9990360228794555E-01 
    7.8570617948109678E-01 
    7.6904920367067497E-01 
    7.5094051981107668E-01 
    7.3223318366705503E-01 
    7.1151604228344090E-01 
    6.9080797133128091E-01 
    6.7788128440403228E-01 
    6.7332647833653025E-01 
    6.7613932447624281E-01 
    6.8502349524509110E-01 
    7.9822004788699963E-01 
    8.0278896489559037E-01 
    8.0406963309766155E-01 
    8.0169110065126781E-01 
    7.9526996583599852E-01 
    7.8463088611407461E-01 
    7.7007990343212085E-01 
    7.5232076709336759E-01 
    7.3222249850732180E-01 
    7.1053198684742258E-01 
    6.8579264722276290E-01 
    6.6117587016970092E-01 
    6.4470572630796130E-01 
    6.3841099231529908E-01 
    6.4167159611898417E-01 
    6.5312183171422944E-01 
    7.8417137552122962E-01 
    7.8713478869314724E-01 
    7.8726609952228521E-01 
    7.8433961106989758E-01 
    7.7785778781002857E-01 
    7.6726191842177549E-01 
    7.5248205989828121E-01 
    7.3378802286892131E-01 
    7.1145302536270194E-01 
    6.8574183404775868E-01 
    6.5646812873952476E-01 
    6.2720055031240141E-01 
    6.0575146439074212E-01 
    5.9548565254591945E-01 
    5.9782698119495914E-01 
    6.1193169657001978E-01 
    7.7476244020690799E-01 
    7.7638330443811854E-01 
    7.7545452954746152E-01 
    7.7143467155105250E-01 
    7.6376172069001913E-01 
    7.5198821547658090E-01 
    7.3598146376168738E-01 
    7.1564418194198587E-01 
    6.9073670914929552E-01 
    6.6110542728697030E-01 
    6.2716206059215462E-01 
    5.9206612718121443E-01 
    5.6281112401319899E-01 
    5.4430940462482491E-01 
    5.4235306378341619E-01 
    5.5848474594422304E-01 
    7.6862092359109224E-01 
    7.6921575504951112E-01 
    7.6758984581048639E-01 
    7.6311304631375476E-01 
    7.5516700769157175E-01 
    7.4316493728087540E-01 
    7.2660965265372568E-01 
    7.0501655653105788E-01 
    6.7784158780502590E-01 
    6.4467187549690452E-01 
    6.0573027958383752E-01 
    5.6280258985816367E-01 
    5.2043812546299340E-01 
    4.8656175255828965E-01 
    4.7261818730507971E-01 
    4.8769988252522650E-01 
    7.6506228149311639E-01 
    7.6496405578233551E-01 
    7.6297445766025185E-01 
    7.5842186110033005E-01 
    7.5063662552865917E-01 
    7.3894373016920312E-01 
    7.2266219266289089E-01 
    7.0105973071233774E-01 
    6.7328404272590892E-01 
    6.3837568335728678E-01 
    5.9545947182892833E-01 
    5.4429325591829225E-01 
    4.8655436631711824E-01 
    4.2862786149335880E-01 
    3.8710981847321113E-01 
    3.8979556600174525E-01 
    7.6340393945795171E-01 
    7.6295775298565494E-01 
    7.6095739980456012E-01 
    7.5671393018086297E-01 
    7.4953170985236928E-01 
    7.3869428162734030E-01 
    7.2344197520937470E-01 
    7.0292098861990315E-01 
    6.7609475116387263E-01 
    6.4163390105901952E-01 
    5.9779711530118484E-01 
    5.4233165050796783E-01 
    4.7260493767746126E-01 
    3.8710385846790230E-01 
    2.9351127910806102E-01 
    2.4378697007496938E-01 
    7.6295675790329121E-01 
    7.6250990921055162E-01 
    7.6085255159280019E-01 
    7.5729171481267632E-01 
    7.5112652584657336E-01 
    7.4163511845143359E-01 
    7.2805040936359078E-01 
    7.0951144059143589E-01 
    6.8497650371722152E-01 
    6.5308140120759950E-01 
    6.1189841733061034E-01 
    5.5845912876428561E-01 
    4.8768202253537968E-01 
    3.8978503268505754E-01 
    2.4378264900307525E-01 
    0.0000000000000000E+00 

SCALARS Saturarion double 1 
LOOKUP_TABLE default 

    1.0000000000000002E+00 
    9.6485650196999040E-01 
    9.0464549668520744E-01 
    8.0233972692276101E-01 
    7.1784102815813855E-01 
    6.5203412053361398E-01 
    5.9957527552527523E-01 
    5.4469044352653861E-01 
    4.3444246807941161E-01 
    7.9491230302186716E-02 
    1.0016155761216037E-06 
    1.0000000009597347E-06 
    9.9999999999999995E-07 
    9.9999999999999995E-07 
    9.9999999999999995E-07 
    9.9999999999999995E-07 
    9.6467904951032080E-01 
    9.3468281219520877E-01 
    8.8107367625409505E-01 
    7.9863059691166816E-01 
    7.2310463344149756E-01 
    6.5982201341779578E-01 
    6.0750501330140372E-01 
    5.5455174854454203E-01 
    4.6677436484292367E-01 
    1.7184627391301038E-01 
    1.1621939138857497E-04 
    1.0056563754330251E-06 
    1.0000000000142123E-06 
    9.9999999999999995E-07 
    9.9999999999999995E-07 
    9.9999999999999995E-07 
    9.0411799754215327E-01 
    8.8082926744915102E-01 
    8.3383402018328157E-01 
    7.7649959300421034E-01 
    7.1672996490366447E-01 
    6.6146656159036066E-01 
    6.1225122088673412E-01 
    5.6290941179423726E-01 
    4.9474164383433328E-01 
    2.8827427944888018E-01 
    6.4044938383374592E-03 
    2.3007981792628660E-06 
    1.0000002942163337E-06 
    9.9999999999999995E-07 
    9.9999999999999995E-07 
    9.9999999999999995E-07 
    8.0124439669819580E-01 
    7.9797882291607181E-01 
    7.7623022372512129E-01 
    7.4031416352810986E-01 
    6.9668271640305723E-01 
    6.5218787793767408E-01 
    6.1036515291053817E-01 
    5.6802054999550733E-01 
    5.1274589950920668E-01 
    3.8138140930009273E-01 
    4.9806991354313213E-02 
    6.5487098362591880E-05 
    1.0004898028744843E-06 
    9.9999999999999995E-07 
    9.9999999999999995E-07 
    9.9999999999999995E-07 
    7.1668084660695286E-01 
    7.2225560989126092E-01 
    7.1625238578686845E-01 
    6.9646663774076079E-01 
    6.6781524145193771E-01 
    6.3539544424070660E-01 
    6.0298851658803143E-01 
    5.6840880226692270E-01 
    5.2326474685751201E-01 
    4.3116059212939439E-01 
    1.2747620050814612E-01 
    1.2698709896722215E-04 
    1.0057268927136791E-06 
    1.0000000001291687E-06 
    9.9999999999999995E-07 
    9.9999999999999995E-07 
    6.5077689416995954E-01 
    6.5888195056358212E-01 
    6.6086746525809548E-01 
    6.5174734996701922E-01 
    6.3514553014296704E-01 
    6.1427955175571636E-01 
    5.9060651936831832E-01 
    5.6329506537639062E-01 
    5.2744749775119193E-01 
    4.5754456253531184E-01 
    2.0733300008965425E-01 
    1.0231957090815768E-03 
    1.0316631141019216E-06 
    1.0000000040923554E-06 
    9.9999999999999995E-07 
    9.9999999999999995E-07 
    5.9798708617074137E-01 
    6.0662582602704196E-01 
    6.1185113958817483E-01 
    6.0994033003699177E-01 
    6.0249986719064741E-01 
    5.9029820832091362E-01 
    5.7315043329087467E-01 
    5.5189436113143620E-01 
    5.2520223178407865E-01 
    4.7266767726420106E-01 
    2.8922803886616261E-01 
    6.7308060407808316E-03 
    2.0058563110188123E-06 
    1.0000002163933575E-06 
    9.9999999999999995E-07 
    9.9999999999999995E-07 
    5.4292071872041558E-01 
    5.5400970600350730E-01 
    5.6292777638520364E-01 
    5.6784928620587438E-01 
    5.6793535410085094E-01 
    5.6270671861035326E-01 
    5.5161561464313102E-01 
    5.3612288606749736E-01 
    5.1653615261341823E-01 
    4.7843078370119774E-01 
    3.4632358382476519E-01 
    2.6581012721609964E-02 
    5.8730018329158402E-06 
    1.0000009424363945E-06 
    1.0000000000000391E-06 
    9.9999999999999995E-07 
    4.3325209770579687E-01 
    4.6730993343035032E-01 
    4.9559591898413369E-01 
    5.1298728856489140E-01 
    5.2315107695839869E-01 
    5.2685013828961758E-01 
    5.2471608356927912E-01 
    5.1618164249497367E-01 
    5.0217368643457083E-01 
    4.7329304966545516E-01 
    3.7310350238559259E-01 
    5.0395018748591341E-02 
    2.4645999422741978E-06 
    1.0000004605943602E-06 
    1.0000000000000010E-06 
    9.9999999999999995E-07 
    7.9566002492052298E-02 
    1.7388652453337702E-01 
    2.9281521388872217E-01 
    3.8211422103171211E-01 
    4.3080678923940058E-01 
    4.5732450428258037E-01 
    4.7239326502537338E-01 
    4.7784710586861795E-01 
    4.7275874218145236E-01 
    4.5288573962175754E-01 
    3.6616813608477056E-01 
    5.6463972011627374E-02 
    1.3903526099929230E-05 
    1.0000109593454637E-06 
    1.0000000000007794E-06 
    9.9999999999999995E-07 
    1.0018875329903179E-06 
    1.2393268917545449E-04 
    7.4268038551979099E-03 
    4.9126256047703203E-02 
    1.2800592382782525E-01 
    2.0758012555145375E-01 
    2.9040929972741780E-01 
    3.4483177638193480E-01 
    3.7106871636814398E-01 
    3.6470115151396504E-01 
    2.5950160781064729E-01 
    1.7261715803223429E-02 
    1.3154830219958753E-05 
    1.0000100460101925E-06 
    1.0000000000000012E-06 
    9.9999999999999995E-07 
    1.0000000011223713E-06 
    1.0060098587499295E-06 
    2.8150322024382628E-06 
    6.0566104603729550E-05 
    1.2894664135655134E-04 
    9.9806529501405119E-04 
    6.9632045134086175E-03 
    2.4508882294105347E-02 
    4.8532628937988515E-02 
    5.4694976876742164E-02 
    1.6624001278317341E-02 
    5.5685725395050139E-05 
    1.0001527621562868E-06 
    1.0000000000082619E-06 
    9.9999999999999995E-07 
    9.9999999999999995E-07 
    9.9999999999999995E-07 
    1.0000000000229730E-06 
    1.0000004582782570E-06 
    1.0004279918780996E-06 
    1.0057436743592538E-06 
    1.0297987674084049E-06 
    2.0719084367798663E-06 
    4.3689708270979062E-06 
    2.9513846474017864E-06 
    1.3334515151907670E-05 
    1.2136721056958169E-05 
    1.0001308608464594E-06 
    1.0000000000322736E-06 
    9.9999999999999995E-07 
    9.9999999999999995E-07 
    9.9999999999999995E-07 
    9.9999999999999995E-07 
    9.9999999999999995E-07 
    1.0000000000000002E-06 
    9.9999999999999995E-07 
    1.0000000001419957E-06 
    1.0000000038548562E-06 
    1.0000002319265021E-06 
    1.0000005392893353E-06 
    1.0000005976526945E-06 
    1.0000099364832363E-06 
    1.0000085285007887E-06 
    1.0000000000070468E-06 
    9.9999999999999995E-07 
    9.9999999999999995E-07 
    9.9999999999999995E-07 
    9.9999999999999995E-07 
    9.9999999999999995E-07 
    9.9999999999999995E-07 
    9.9999999999999995E-07 
    9.9999999999999995E-07 
    9.9999999999999995E-07 
    9.9999999999999995E-07 
    9.9999999999999995E-07 
    1.0000000000000237E-06 
    1.0000000000000008E-06 
    1.0000000000006994E-06 
    1.0000000000000016E-06 
    9.9999999999999995E-07 
    9.9999999999999995E-07 
    9.9999999999999995E-07 
    9.9999999999999995E-07 
    9.9999999999999995E-07 
    9.9999999999999995E-07 
    9.9999999999999995E-07 
    9.9999999999999995E-07 
    9.9999999999999995E-07 
    9.9999999999999995E-07 
    9.9999999999999995E-07 
    9.9999999999999995E-07 
    9.9999999999999995E-07 
    9.9999999999999995E-07 
    9.9999999999999995E-07 
    9.9999999999999995E-07 
    9.9999999999999995E-07 
    9.9999999999999995E-07 
    9.9999999999999995E-07 
    9.9999999999999995E-07 
    1.0000003032489577E-06 
