# vtk DataFile Version 2.0
Pressure Field Data 
ASCII 
DATASET UNSTRUCTURED_GRID 

POINTS 289 double 

    0.0000000000000000E+00     0.0000000000000000E+00     0.0000000000000000E+00 
    1.0000000000000000E+00     0.0000000000000000E+00     0.0000000000000000E+00 
    1.0000000000000000E+00     1.0000000000000000E+00     0.0000000000000000E+00 
    0.0000000000000000E+00     1.0000000000000000E+00     0.0000000000000000E+00 
    6.2499999999872928E-02     0.0000000000000000E+00     0.0000000000000000E+00 
    1.2499999999977310E-01     0.0000000000000000E+00     0.0000000000000000E+00 
    1.8749999999959341E-01     0.0000000000000000E+00     0.0000000000000000E+00 
    2.4999999999941089E-01     0.0000000000000000E+00     0.0000000000000000E+00 
    3.1249999999922851E-01     0.0000000000000000E+00     0.0000000000000000E+00 
    3.7499999999904610E-01     0.0000000000000000E+00     0.0000000000000000E+00 
    4.3749999999886358E-01     0.0000000000000000E+00     0.0000000000000000E+00 
    4.9999999999869210E-01     0.0000000000000000E+00     0.0000000000000000E+00 
    5.6249999999884603E-01     0.0000000000000000E+00     0.0000000000000000E+00 
    6.2499999999901090E-01     0.0000000000000000E+00     0.0000000000000000E+00 
    6.8749999999917577E-01     0.0000000000000000E+00     0.0000000000000000E+00 
    7.4999999999934064E-01     0.0000000000000000E+00     0.0000000000000000E+00 
    8.1249999999950551E-01     0.0000000000000000E+00     0.0000000000000000E+00 
    8.7499999999967026E-01     0.0000000000000000E+00     0.0000000000000000E+00 
    9.3749999999983513E-01     0.0000000000000000E+00     0.0000000000000000E+00 
    1.0000000000000000E+00     6.2499999999872928E-02     0.0000000000000000E+00 
    1.0000000000000000E+00     1.2499999999977310E-01     0.0000000000000000E+00 
    1.0000000000000000E+00     1.8749999999959341E-01     0.0000000000000000E+00 
    1.0000000000000000E+00     2.4999999999941089E-01     0.0000000000000000E+00 
    1.0000000000000000E+00     3.1249999999922851E-01     0.0000000000000000E+00 
    1.0000000000000000E+00     3.7499999999904610E-01     0.0000000000000000E+00 
    1.0000000000000000E+00     4.3749999999886358E-01     0.0000000000000000E+00 
    1.0000000000000000E+00     4.9999999999869210E-01     0.0000000000000000E+00 
    1.0000000000000000E+00     5.6249999999884603E-01     0.0000000000000000E+00 
    1.0000000000000000E+00     6.2499999999901090E-01     0.0000000000000000E+00 
    1.0000000000000000E+00     6.8749999999917577E-01     0.0000000000000000E+00 
    1.0000000000000000E+00     7.4999999999934064E-01     0.0000000000000000E+00 
    1.0000000000000000E+00     8.1249999999950551E-01     0.0000000000000000E+00 
    1.0000000000000000E+00     8.7499999999967026E-01     0.0000000000000000E+00 
    1.0000000000000000E+00     9.3749999999983513E-01     0.0000000000000000E+00 
    9.3749999999973976E-01     1.0000000000000000E+00     0.0000000000000000E+00 
    8.7499999999950118E-01     1.0000000000000000E+00     0.0000000000000000E+00 
    8.1249999999991318E-01     1.0000000000000000E+00     0.0000000000000000E+00 
    7.5000000000034706E-01     1.0000000000000000E+00     0.0000000000000000E+00 
    6.8750000000078049E-01     1.0000000000000000E+00     0.0000000000000000E+00 
    6.2500000000121403E-01     1.0000000000000000E+00     0.0000000000000000E+00 
    5.6250000000164757E-01     1.0000000000000000E+00     0.0000000000000000E+00 
    5.0000000000205946E-01     1.0000000000000000E+00     0.0000000000000000E+00 
    4.3750000000182099E-01     1.0000000000000000E+00     0.0000000000000000E+00 
    3.7500000000156092E-01     1.0000000000000000E+00     0.0000000000000000E+00 
    3.1250000000130068E-01     1.0000000000000000E+00     0.0000000000000000E+00 
    2.5000000000104050E-01     1.0000000000000000E+00     0.0000000000000000E+00 
    1.8750000000078040E-01     1.0000000000000000E+00     0.0000000000000000E+00 
    1.2500000000052031E-01     1.0000000000000000E+00     0.0000000000000000E+00 
    6.2500000000260125E-02     1.0000000000000000E+00     0.0000000000000000E+00 
    0.0000000000000000E+00     9.3749999999973976E-01     0.0000000000000000E+00 
    0.0000000000000000E+00     8.7499999999950118E-01     0.0000000000000000E+00 
    0.0000000000000000E+00     8.1249999999991318E-01     0.0000000000000000E+00 
    0.0000000000000000E+00     7.5000000000034706E-01     0.0000000000000000E+00 
    0.0000000000000000E+00     6.8750000000078049E-01     0.0000000000000000E+00 
    0.0000000000000000E+00     6.2500000000121403E-01     0.0000000000000000E+00 
    0.0000000000000000E+00     5.6250000000164757E-01     0.0000000000000000E+00 
    0.0000000000000000E+00     5.0000000000205946E-01     0.0000000000000000E+00 
    0.0000000000000000E+00     4.3750000000182099E-01     0.0000000000000000E+00 
    0.0000000000000000E+00     3.7500000000156092E-01     0.0000000000000000E+00 
    0.0000000000000000E+00     3.1250000000130068E-01     0.0000000000000000E+00 
    0.0000000000000000E+00     2.5000000000104050E-01     0.0000000000000000E+00 
    0.0000000000000000E+00     1.8750000000078040E-01     0.0000000000000000E+00 
    0.0000000000000000E+00     1.2500000000052031E-01     0.0000000000000000E+00 
    0.0000000000000000E+00     6.2500000000260125E-02     0.0000000000000000E+00 
    6.2499999999897131E-02     6.2500000000235922E-02     0.0000000000000000E+00 
    6.2499999999921327E-02     1.2500000000047351E-01     0.0000000000000000E+00 
    6.2499999999945530E-02     1.8750000000070621E-01     0.0000000000000000E+00 
    6.2499999999969733E-02     2.5000000000093858E-01     0.0000000000000000E+00 
    6.2499999999993928E-02     3.1250000000117117E-01     0.0000000000000000E+00 
    6.2500000000018124E-02     3.7500000000140382E-01     0.0000000000000000E+00 
    6.2500000000042327E-02     4.3750000000163619E-01     0.0000000000000000E+00 
    6.2500000000066530E-02     5.0000000000184897E-01     0.0000000000000000E+00 
    6.2500000000090733E-02     5.6250000000147260E-01     0.0000000000000000E+00 
    6.2500000000114922E-02     6.2500000000107636E-01     0.0000000000000000E+00 
    6.2500000000139125E-02     6.8750000000068034E-01     0.0000000000000000E+00 
    6.2500000000163328E-02     7.5000000000028411E-01     0.0000000000000000E+00 
    6.2500000000187531E-02     8.1249999999988787E-01     0.0000000000000000E+00 
    6.2500000000211720E-02     8.7499999999951172E-01     0.0000000000000000E+00 
    6.2500000000235922E-02     9.3749999999974565E-01     0.0000000000000000E+00 
    1.2499999999981980E-01     6.2500000000211733E-02     0.0000000000000000E+00 
    1.2499999999986650E-01     1.2500000000042691E-01     0.0000000000000000E+00 
    1.2499999999991319E-01     1.8750000000063199E-01     0.0000000000000000E+00 
    1.2499999999995989E-01     2.5000000000083678E-01     0.0000000000000000E+00 
    1.2500000000000661E-01     3.1250000000104172E-01     0.0000000000000000E+00 
    1.2500000000005329E-01     3.7500000000124661E-01     0.0000000000000000E+00 
    1.2500000000010000E-01     4.3750000000145117E-01     0.0000000000000000E+00 
    1.2500000000014669E-01     5.0000000000163858E-01     0.0000000000000000E+00 
    1.2500000000019340E-01     5.6250000000129741E-01     0.0000000000000000E+00 
    1.2500000000024011E-01     6.2500000000093847E-01     0.0000000000000000E+00 
    1.2500000000028680E-01     6.8750000000057998E-01     0.0000000000000000E+00 
    1.2500000000033351E-01     7.5000000000022127E-01     0.0000000000000000E+00 
    1.2500000000038020E-01     8.1249999999986211E-01     0.0000000000000000E+00 
    1.2500000000042691E-01     8.7499999999952238E-01     0.0000000000000000E+00 
    1.2500000000047359E-01     9.3749999999975164E-01     0.0000000000000000E+00 
    1.8749999999966760E-01     6.2500000000187531E-02     0.0000000000000000E+00 
    1.8749999999974179E-01     1.2500000000038020E-01     0.0000000000000000E+00 
    1.8749999999981601E-01     1.8750000000055780E-01     0.0000000000000000E+00 
    1.8749999999989009E-01     2.5000000000073502E-01     0.0000000000000000E+00 
    1.8749999999996431E-01     3.1250000000091221E-01     0.0000000000000000E+00 
    1.8750000000003850E-01     3.7500000000108941E-01     0.0000000000000000E+00 
    1.8750000000011269E-01     4.3750000000126649E-01     0.0000000000000000E+00 
    1.8750000000018691E-01     5.0000000000142808E-01     0.0000000000000000E+00 
    1.8750000000026110E-01     5.6250000000112244E-01     0.0000000000000000E+00 
    1.8750000000033529E-01     6.2500000000080080E-01     0.0000000000000000E+00 
    1.8750000000040951E-01     6.8750000000047962E-01     0.0000000000000000E+00 
    1.8750000000048361E-01     7.5000000000015843E-01     0.0000000000000000E+00 
    1.8750000000055780E-01     8.1249999999983680E-01     0.0000000000000000E+00 
    1.8750000000063199E-01     8.7499999999953304E-01     0.0000000000000000E+00 
    1.8750000000070621E-01     9.3749999999975764E-01     0.0000000000000000E+00 
    2.4999999999951281E-01     6.2500000000163314E-02     0.0000000000000000E+00 
    2.4999999999961461E-01     1.2500000000033351E-01     0.0000000000000000E+00 
    2.4999999999971650E-01     1.8750000000048361E-01     0.0000000000000000E+00 
    2.4999999999981831E-01     2.5000000000063310E-01     0.0000000000000000E+00 
    2.4999999999992020E-01     3.1250000000078260E-01     0.0000000000000000E+00 
    2.5000000000002198E-01     3.7500000000093209E-01     0.0000000000000000E+00 
    2.5000000000012390E-01     4.3750000000108180E-01     0.0000000000000000E+00 
    2.5000000000022571E-01     5.0000000000121769E-01     0.0000000000000000E+00 
    2.5000000000032763E-01     5.6250000000094724E-01     0.0000000000000000E+00 
    2.5000000000042938E-01     6.2500000000066314E-01     0.0000000000000000E+00 
    2.5000000000053119E-01     6.8750000000037925E-01     0.0000000000000000E+00 
[...]
CELL_DATA 256 
SCALARS Pressure double 1 
LOOKUP_TABLE default 

    8.2164786644491161E-01 
    7.7144299133030836E-01 
    7.3956985234375205E-01 
    7.1604272800417201E-01 
    6.9674442023347594E-01 
    6.8019142570587232E-01 
    6.6591569210232227E-01 
    6.5374499459507274E-01 
    6.4363581530017211E-01 
    6.3552349251115126E-01 
    6.2897103902858065E-01 
    6.2280095871249641E-01 
    6.1805702529887585E-01 
    6.1545934139505554E-01 
    6.1425344938629944E-01 
    6.1392845717648736E-01 
    7.7145148178529221E-01 
    7.6106927928937285E-01 
    7.4029950524343413E-01 
    7.1975419609768287E-01 
    7.0107367631304252E-01 
    6.8434284042280502E-01 
    6.6955934896087466E-01 
    6.5672697553494841E-01 
    6.4589786384285708E-01 
    6.3711331887573130E-01 
    6.3013293987884267E-01 
    6.2385947385878948E-01 
    6.1848343267625960E-01 
    6.1538074814650034E-01 
    6.1392700482916829E-01 
    6.1360289149934288E-01 
    7.3958192962018854E-01 
    7.4030582333766448E-01 
    7.3052678400813409E-01 
    7.1594236764240149E-01 
    7.0005236805726756E-01 
    6.8445779610144675E-01 
    6.6994273138394833E-01 
    6.5692034660892207E-01 
    6.4567263821873122E-01 
    6.3640009876985049E-01 
    6.2907521896894081E-01 
    6.2293879056760770E-01 
    6.1733938816322886E-01 
    6.1392387212405941E-01 
    6.1246964012915472E-01 
    6.1239670196969687E-01 
    7.1605164958859413E-01 
    7.1976108113164938E-01 
    7.1594545483515448E-01 
    7.0656473222554372E-01 
    6.9411900702919516E-01 
    6.8047744000638200E-01 
    6.6687016418953338E-01 
    6.5409295946746104E-01 
    6.4270557498952774E-01 
    6.3311312229006667E-01 
    6.2551678660188947E-01 
    6.1957056546264033E-01 
    6.1418261350917791E-01 
    6.1059881508576441E-01 
    6.0938383659749185E-01 
    6.0980913035377771E-01 
    6.9674584820763019E-01 
    7.0107566577163982E-01 
    7.0005418146139831E-01 
    6.9412008309636397E-01 
    6.8461130745037568E-01 
    6.7300543486054587E-01 
    6.6055818141410294E-01 
    6.4826064794163241E-01 
    6.3689483811200587E-01 
    6.2707356532470460E-01 
    6.1922253603207722E-01 
    6.1333574645466538E-01 
    6.0845452318556081E-01 
    6.0495036648674527E-01 
    6.0417672995253435E-01 
    6.0533867075396619E-01 
    6.8018565244023010E-01 
    6.8433766723364786E-01 
    6.8445382240773267E-01 
    6.8047527259974794E-01 
    6.7300376870209599E-01 
    6.6302201934219018E-01 
    6.5159750354504153E-01 
    6.3974049177150727E-01 
    6.2836125271888421E-01 
    6.1825275762933884E-01 
    6.1005482907377928E-01 
    6.0408547578266181E-01 
    5.9975228772245659E-01 
    5.9658691381811235E-01 
    5.9634250546006995E-01 
    5.9847029114257533E-01 
    6.6590055974643847E-01 
    6.6954583915077237E-01 
    6.6993070279096345E-01 
    6.6686097802004496E-01 
    6.6055098023985170E-01 
    6.5159256216559125E-01 
    6.4080498630539884E-01 
    6.2911095627622393E-01 
    6.1746540139201678E-01 
    6.0680392419146212E-01 
    5.9797913475632980E-01 
    5.9162302966134428E-01 
    5.8762319791240092E-01 
    5.8497312024213988E-01 
    5.8529017158129060E-01 
    5.8863708479007371E-01 
    6.5371447887752154E-01 
    6.5670065583884996E-01 
    6.5689779872130438E-01 
    6.5407456757366966E-01 
    6.4824500811008434E-01 
    6.3972745378208684E-01 
    6.2910318769911577E-01 
    6.1715507536868686E-01 
    6.0481761473028595E-01 
    5.9312624635948141E-01 
    5.8314484659531063E-01 
    5.7583368609732477E-01 
    5.7156081805690417E-01 
    5.6936678552945552E-01 
    5.7036775582136545E-01 
    5.7520186972319698E-01 
    6.4358632890618539E-01 
    6.4585365569287134E-01 
    6.4563541354505793E-01 
    6.4267590042714429E-01 
    6.3686900756936438E-01 
    6.2833755774631883E-01 
    6.1744688837701911E-01 
    6.0480768214890546E-01 
    5.9127251860762120E-01 
    5.7791878687777920E-01 
    5.6600113142987785E-01 
    5.5684270547791270E-01 
    5.5140082469575813E-01 
    5.4925704798455788E-01 
    5.5083387271748729E-01 
    5.5738145719212751E-01 
    6.3545793461023781E-01 
    6.3705084536677947E-01 
    6.3634632195768981E-01 
    6.3307160431088205E-01 
    6.2703785625650466E-01 
    6.1821762135592040E-01 
    6.0677209767030249E-01 
    5.9310322805412707E-01 
    5.7790629077271938E-01 
    5.6220957514173042E-01 
    5.4738981292492461E-01 
    5.3514078586514691E-01 
    5.2714542207322579E-01 
    5.2402830745190454E-01 
    5.2571451210052111E-01 
    5.3405315731859648E-01 
    6.2890001863034783E-01 
    6.3006140134363997E-01 
    6.2901126090568615E-01 
    6.2546680653494158E-01 
    6.1917936059552325E-01 
    6.1000986324525341E-01 
    5.9793367790249452E-01 
    5.8310619854093781E-01 
    5.6597201505516803E-01 
    5.4737167390839969E-01 
    5.2864235985194497E-01 
    5.1173888045686700E-01 
    4.9912470092579697E-01 
    4.9282700932846135E-01 
    4.9344054586934033E-01 
    5.0358299846609411E-01 
    6.2273747714650185E-01 
    6.2379882713130086E-01 
    6.2288352479203535E-01 
    6.1952357001007152E-01 
    6.1329487615439982E-01 
    6.0403810150744364E-01 
    5.9156832851554664E-01 
    5.7578185177890373E-01 
    5.5679574053884540E-01 
    5.3509746725697027E-01 
    5.1171140066084797E-01 
    4.8852117315065346E-01 
    4.6855882542889271E-01 
    4.5553266119853925E-01 
    4.5217342718221004E-01 
    4.6289457200038014E-01 
    6.1799723102030002E-01 
    6.1842613144487002E-01 
    6.1728811331549249E-01 
    6.1413610097314331E-01 
    6.0840981034961983E-01 
    5.9970201179381188E-01 
    5.8756094101948753E-01 
    5.7149848197051423E-01 
    5.5133488003558262E-01 
    5.2706740254668449E-01 
    4.9906234415943673E-01 
    4.6853390870813122E-01 
    4.3829450701750899E-01 
    4.1333511804842521E-01 
    4.0011625248180666E-01 
    4.0712193179107725E-01 
    6.1539959978968439E-01 
    6.1532164307781778E-01 
    6.1386617124104370E-01 
    6.1054149024819127E-01 
    6.0489653657949893E-01 
    5.9653194751370686E-01 
    5.8490503177122177E-01 
    5.6929704882748078E-01 
    5.4917760115000891E-01 
    5.2392293971599313E-01 
    4.9272941676425386E-01 
    4.5550346353529847E-01 
    4.1335123370476734E-01 
    3.7030120235426567E-01 
    3.3611150961449648E-01 
    3.2898410761301877E-01 
    6.1419373833229041E-01 
    6.1386763405214684E-01 
    6.1241119305099512E-01 
    6.0932608028447954E-01 
    6.0412015202999714E-01 
    5.9628617536963169E-01 
    5.8522846518125160E-01 
    5.7030023169534583E-01 
    5.5075669277832873E-01 
    5.2560998485013821E-01 
    4.9332597051272031E-01 
    4.5217097315889160E-01 
    4.0021088700296797E-01 
    3.3616541842658154E-01 
    2.6353714544932721E-01 
    2.1200882504580548E-01 
    6.1386866104975291E-01 
    6.1354328060971797E-01 
    6.1233787994436262E-01 
    6.0975111988987141E-01 
    6.0528127680653232E-01 
    5.9841267827540501E-01 
    5.8857629335981831E-01 
    5.7513645054656126E-01 
    5.5731074602415354E-01 
    5.3396287705593481E-01 
    5.0345850618338794E-01 
    4.6284366737497873E-01 
    4.0726842929560336E-01 
    3.2908663556749379E-01 
    2.1200411844983638E-01 
    0.0000000000000000E+00 

SCALARS Saturarion double 1 
LOOKUP_TABLE default 

    1.0000000000000000E+00 
    9.8168131685320414E-01 
    9.4892316257586751E-01 
    8.9072082460620683E-01 
    8.2162788470271531E-01 
    7.5864053429152922E-01 
    7.0143312758237730E-01 
    6.4851830123896081E-01 
    6.0035724524668144E-01 
    5.5269045198516076E-01 
    4.6929259349755237E-01 
    1.4881158476699097E-01 
    1.0154837000943341E-06 
    1.0000000038568040E-06 
    9.9999999999999995E-07 
    9.9999999999999995E-07 
    9.8160814191431289E-01 
    9.6563979177105430E-01 
    9.3608514284142164E-01 
    8.8744324923724660E-01 
    8.2664317432229983E-01 
    7.6776990807342094E-01 
    7.1216242400981944E-01 
    6.5989119728178702E-01 
    6.1183454390168779E-01 
    5.6557617646556224E-01 
    4.9615304944666738E-01 
    2.6690667209246943E-01 
    2.4460436940869227E-03 
    1.1301951710941157E-06 
    1.0000000126623779E-06 
    9.9999999999999995E-07 
    9.4868673393250946E-01 
    9.3594258386744700E-01 
    9.0810366331801273E-01 
    8.6968201130805478E-01 
    8.2217821034725569E-01 
    7.7256448645079823E-01 
    7.2237425272324396E-01 
    6.7314288535812905E-01 
    6.2625946008841427E-01 
    5.8075968875680650E-01 
    5.2486060827266878E-01 
    3.8512822835291394E-01 
    5.1893490972228180E-02 
    1.0400388872237756E-04 
    1.0008821832578788E-06 
    9.9999999999999995E-07 
    8.9021151277971267E-01 
    8.8715471508846500E-01 
    8.6957642686515968E-01 
    8.4132406586218633E-01 
    8.0672969371608494E-01 
    7.6742246847538975E-01 
    7.2500447410737834E-01 
    6.8130205323688098E-01 
    6.3757741931844214E-01 
    5.9366241821442700E-01 
    5.4430716218910347E-01 
    4.5234124412546278E-01 
    1.5511825927571216E-01 
    3.8810027326508829E-04 
    1.0391333261673963E-06 
    1.0000000003273907E-06 
    8.2105280250954626E-01 
    8.2624939622164861E-01 
    8.2194661235018973E-01 
    8.0658079194707888E-01 
    7.8337774717394260E-01 
    7.5401688245028609E-01 
    7.2024430641953607E-01 
    6.8352439723841685E-01 
    6.4479169144054371E-01 
    6.0445130704291228E-01 
    5.6129295849327798E-01 
    4.9420395284644569E-01 
    2.7356052967035549E-01 
    1.3733732098120460E-02 
    1.0380108552907318E-05 
    1.0000040290140691E-06 
    7.5807785393795635E-01 
    7.6738509887396955E-01 
    7.7226827802745612E-01 
    7.6710368772389237E-01 
    7.5381623240282114E-01 
    7.3408200101612608E-01 
    7.0913351599725072E-01 
    6.8005043239238105E-01 
    6.4753743302167421E-01 
    6.1203671758467493E-01 
    5.7330330716969269E-01 
    5.1901289522188943E-01 
    3.8615450912939830E-01 
    6.5159502112881226E-02 
    1.5369359907703542E-04 
    1.0026831389944927E-06 
    7.0052727994275088E-01 
    7.1170554578009970E-01 
    7.2215638146267291E-01 
    7.2469904229005655E-01 
    7.1989203781694022E-01 
    7.0895597519859643E-01 
    6.9258439271345174E-01 
    6.7143031250734542E-01 
    6.4597224220849725E-01 
    6.1630734163239487E-01 
    5.8220068479490739E-01 
    5.3977064979369604E-01 
    4.4103096176968098E-01 
    1.3328120687397149E-01 
    3.1282231195414549E-04 
    1.0176221742819467E-06 
    6.4730282920689686E-01 
    6.5921387936789644E-01 
    6.7285952431142271E-01 
    6.8106212743994443E-01 
    6.8315195465910727E-01 
    6.7971094352509653E-01 
    6.7127108809551661E-01 
    6.5810423654234562E-01 
    6.4025621702205671E-01 
    6.1746952850112169E-01 
    5.8905303475606641E-01 
    5.5291390944905483E-01 
    4.8110009171371348E-01 
    2.3197359091338446E-01 
    6.2038046211137302E-03 
    2.3898440145292238E-06 
    5.9903390702907766E-01 
    6.1090889269079129E-01 
    6.2582817432717452E-01 
    6.3729979137755088E-01 
    6.4451915283882832E-01 
    6.4719857269615966E-01 
    6.4568169612445836E-01 
    6.4007891426723884E-01 
    6.3009914466708294E-01 
    6.1497831362007160E-01 
    5.9355665746439668E-01 
    5.6403831881731881E-01 
    5.0929588048429353E-01 
    3.4253247500738127E-01 
    4.0765452730155180E-02 
    1.1104714377297467E-04 
    5.5148651091764955E-01 
    5.6476389385992054E-01 
    5.8052214465518681E-01 
    5.9335233852942970E-01 
    6.0412905478692913E-01 
    6.1178861392067907E-01 
    6.1606371810687355E-01 
    6.1717951982543684E-01 
    6.1475098761374625E-01 
    6.0767574929075108E-01 
    5.9431304830321874E-01 
    5.7281160365500339E-01 
    5.3293512859490189E-01 
    4.1510356672858811E-01 
    9.9824084835773833E-02 
    2.8698827767009710E-04 
    4.6842573455381670E-01 
    4.9642657205344748E-01 
    5.2555523995848175E-01 
    5.4438041208570320E-01 
    5.6071154204196849E-01 
    5.7293405499764671E-01 
    5.8212551231727694E-01 
    5.8892596008350184E-01 
    5.9320326868724482E-01 
    5.9401846320818441E-01 
    5.8937925768023058E-01 
    5.7700774194122861E-01 
    5.5013575327931441E-01 
    4.7135318235831769E-01 
    2.0176604132702444E-01 
    3.9366523552826450E-03 
    1.4892055844522983E-01 
    2.6990952654300776E-01 
    3.8862191079113700E-01 
    4.5362342339816875E-01 
    4.9415043788091800E-01 
    5.1877952136527095E-01 
    5.3963316834273389E-01 
    5.5309439776931246E-01 
    5.6398774635524151E-01 
    5.7242260347181861E-01 
    5.7664831435137498E-01 
    5.7449961550619044E-01 
    5.6058931731724104E-01 
    5.1123607576333907E-01 
    3.3475609226549602E-01 
    6.4356245626839781E-02 
    1.0172672906809701E-06 
    2.6933747446135511E-03 
    5.5872336479883017E-02 
    1.5838448197297270E-01 
    2.7408468636468419E-01 
    3.8396606489449508E-01 
    4.4025547735518733E-01 
    4.8115502837757423E-01 
    5.0921179555499807E-01 
    5.3261353928452904E-01 
    5.4983932131460544E-01 
    5.6040890799766963E-01 
    5.6091184640614078E-01 
    5.3607759535742550E-01 
    4.2464935886571453E-01 
    1.7937889046144218E-01 
    1.0000000043400445E-06 
    1.1599013764314686E-06 
    1.2032938269927240E-04 
    3.6578671116552583E-04 
    1.2935916733947048E-02 
    6.3352172850448335E-02 
    1.3474168341176795E-01 
    2.3177495484925423E-01 
    3.4156205099777553E-01 
    4.1514147581177835E-01 
    4.7280729272709704E-01 
    5.1161111183926999E-01 
    5.3612030141392064E-01 
    5.3780263417498309E-01 
    4.8407098904844392E-01 
    2.8035285780327662E-01 
    9.9999999999999995E-07 
    1.0000000157233561E-06 
    1.0012377605347954E-06 
    1.0293410226362850E-06 
    9.2930791422879048E-06 
    1.5935689188196022E-04 
    3.5226577951437096E-04 
    5.3487573399628218E-03 
    4.1874967259916671E-02 
    1.0025447687976898E-01 
    2.0824132626134959E-01 
    3.3928916987935925E-01 
    4.2601642317534227E-01 
    4.8398665817101222E-01 
    4.9523778772185023E-01 
    3.6648744366183522E-01 
    9.9999999999999995E-07 
    9.9999999999999995E-07 
    9.9999999999999995E-07 
    1.0000000003256278E-06 
    1.0000032269302379E-06 
    1.0028739498044873E-06 
    1.0215877278605213E-06 
    2.0364131863560438E-06 
    1.3611422395002194E-04 
    3.1355431925321025E-04 
    5.8463944374309270E-03 
    5.9735200647769160E-02 
    1.7973667306528757E-01 
    2.7870210185321603E-01 
    3.6648489228392062E-01 
    3.6649396605294837E-01 
