# vtk DataFile Version 2.0
Pressure Field Data 
ASCII 
DATASET UNSTRUCTURED_GRID 

POINTS 289 double 

    0.0000000000000000E+00     0.0000000000000000E+00     0.0000000000000000E+00 
    1.0000000000000000E+00     0.0000000000000000E+00     0.0000000000000000E+00 
    1.0000000000000000E+00     1.0000000000000000E+00     0.0000000000000000E+00 
    0.0000000000000000E+00     1.0000000000000000E+00     0.0000000000000000E+00 
    6.2499999999872928E-02     0.0000000000000000E+00     0.0000000000000000E+00 
    1.2499999999977310E-01     0.0000000000000000E+00     0.0000000000000000E+00 
    1.8749999999959341E-01     0.0000000000000000E+00     0.0000000000000000E+00 
    2.4999999999941089E-01     0.0000000000000000E+00     0.0000000000000000E+00 
    3.1249999999922851E-01     0.0000000000000000E+00     0.0000000000000000E+00 
    3.7499999999904610E-01     0.0000000000000000E+00     0.0000000000000000E+00 
    4.3749999999886358E-01     0.0000000000000000E+00     0.0000000000000000E+00 
    4.9999999999869210E-01     0.0000000000000000E+00     0.0000000000000000E+00 
    5.6249999999884603E-01     0.0000000000000000E+00     0.0000000000000000E+00 
    6.2499999999901090E-01     0.0000000000000000E+00     0.0000000000000000E+00 
    6.8749999999917577E-01     0.0000000000000000E+00     0.0000000000000000E+00 
    7.4999999999934064E-01     0.0000000000000000E+00     0.0000000000000000E+00 
    8.1249999999950551E-01     0.0000000000000000E+00     0.0000000000000000E+00 
    8.7499999999967026E-01     0.0000000000000000E+00     0.0000000000000000E+00 
    9.3749999999983513E-01     0.0000000000000000E+00     0.0000000000000000E+00 
    1.0000000000000000E+00     6.2499999999872928E-02     0.0000000000000000E+00 
    1.0000000000000000E+00     1.2499999999977310E-01     0.0000000000000000E+00 
    1.0000000000000000E+00     1.8749999999959341E-01     0.0000000000000000E+00 
    1.0000000000000000E+00     2.4999999999941089E-01     0.0000000000000000E+00 
    1.0000000000000000E+00     3.1249999999922851E-01     0.0000000000000000E+00 
    1.0000000000000000E+00     3.7499999999904610E-01     0.0000000000000000E+00 
    1.0000000000000000E+00     4.3749999999886358E-01     0.0000000000000000E+00 
    1.0000000000000000E+00     4.9999999999869210E-01     0.0000000000000000E+00 
    1.0000000000000000E+00     5.6249999999884603E-01     0.0000000000000000E+00 
    1.0000000000000000E+00     6.2499999999901090E-01     0.0000000000000000E+00 
    1.0000000000000000E+00     6.8749999999917577E-01     0.0000000000000000E+00 
    1.0000000000000000E+00     7.4999999999934064E-01     0.0000000000000000E+00 
    1.0000000000000000E+00     8.1249999999950551E-01     0.0000000000000000E+00 
    1.0000000000000000E+00     8.7499999999967026E-01     0.0000000000000000E+00 
    1.0000000000000000E+00     9.3749999999983513E-01     0.0000000000000000E+00 
    9.3749999999973976E-01     1.0000000000000000E+00     0.0000000000000000E+00 
    8.7499999999950118E-01     1.0000000000000000E+00     0.0000000000000000E+00 
    8.1249999999991318E-01     1.0000000000000000E+00     0.0000000000000000E+00 
    7.5000000000034706E-01     1.0000000000000000E+00     0.0000000000000000E+00 
    6.8750000000078049E-01     1.0000000000000000E+00     0.0000000000000000E+00 
    6.2500000000121403E-01     1.0000000000000000E+00     0.0000000000000000E+00 
    5.6250000000164757E-01     1.0000000000000000E+00     0.0000000000000000E+00 
    5.0000000000205946E-01     1.0000000000000000E+00     0.0000000000000000E+00 
    4.3750000000182099E-01     1.0000000000000000E+00     0.0000000000000000E+00 
    3.7500000000156092E-01     1.0000000000000000E+00     0.0000000000000000E+00 
    3.1250000000130068E-01     1.0000000000000000E+00     0.0000000000000000E+00 
    2.5000000000104050E-01     1.0000000000000000E+00     0.0000000000000000E+00 
    1.8750000000078040E-01     1.0000000000000000E+00     0.0000000000000000E+00 
    1.2500000000052031E-01     1.0000000000000000E+00     0.0000000000000000E+00 
    6.2500000000260125E-02     1.0000000000000000E+00     0.0000000000000000E+00 
    0.0000000000000000E+00     9.3749999999973976E-01     0.0000000000000000E+00 
    0.0000000000000000E+00     8.7499999999950118E-01     0.0000000000000000E+00 
    0.0000000000000000E+00     8.1249999999991318E-01     0.0000000000000000E+00 
    0.0000000000000000E+00     7.5000000000034706E-01     0.0000000000000000E+00 
    0.0000000000000000E+00     6.8750000000078049E-01     0.0000000000000000E+00 
    0.0000000000000000E+00     6.2500000000121403E-01     0.0000000000000000E+00 
    0.0000000000000000E+00     5.6250000000164757E-01     0.0000000000000000E+00 
    0.0000000000000000E+00     5.0000000000205946E-01     0.0000000000000000E+00 
    0.0000000000000000E+00     4.3750000000182099E-01     0.0000000000000000E+00 
    0.0000000000000000E+00     3.7500000000156092E-01     0.0000000000000000E+00 
    0.0000000000000000E+00     3.1250000000130068E-01     0.0000000000000000E+00 
    0.0000000000000000E+00     2.5000000000104050E-01     0.0000000000000000E+00 
    0.0000000000000000E+00     1.8750000000078040E-01     0.0000000000000000E+00 
    0.0000000000000000E+00     1.2500000000052031E-01     0.0000000000000000E+00 
    0.0000000000000000E+00     6.2500000000260125E-02     0.0000000000000000E+00 
    6.2499999999897131E-02     6.2500000000235922E-02     0.0000000000000000E+00 
    6.2499999999921327E-02     1.2500000000047351E-01     0.0000000000000000E+00 
    6.2499999999945530E-02     1.8750000000070621E-01     0.0000000000000000E+00 
    6.2499999999969733E-02     2.5000000000093858E-01     0.0000000000000000E+00 
    6.2499999999993928E-02     3.1250000000117117E-01     0.0000000000000000E+00 
    6.2500000000018124E-02     3.7500000000140382E-01     0.0000000000000000E+00 
    6.2500000000042327E-02     4.3750000000163619E-01     0.0000000000000000E+00 
    6.2500000000066530E-02     5.0000000000184897E-01     0.0000000000000000E+00 
    6.2500000000090733E-02     5.6250000000147260E-01     0.0000000000000000E+00 
    6.2500000000114922E-02     6.2500000000107636E-01     0.0000000000000000E+00 
    6.2500000000139125E-02     6.8750000000068034E-01     0.0000000000000000E+00 
    6.2500000000163328E-02     7.5000000000028411E-01     0.0000000000000000E+00 
    6.2500000000187531E-02     8.1249999999988787E-01     0.0000000000000000E+00 
    6.2500000000211720E-02     8.7499999999951172E-01     0.0000000000000000E+00 
    6.2500000000235922E-02     9.3749999999974565E-01     0.0000000000000000E+00 
    1.2499999999981980E-01     6.2500000000211733E-02     0.0000000000000000E+00 
    1.2499999999986650E-01     1.2500000000042691E-01     0.0000000000000000E+00 
    1.2499999999991319E-01     1.8750000000063199E-01     0.0000000000000000E+00 
    1.2499999999995989E-01     2.5000000000083678E-01     0.0000000000000000E+00 
    1.2500000000000661E-01     3.1250000000104172E-01     0.0000000000000000E+00 
    1.2500000000005329E-01     3.7500000000124661E-01     0.0000000000000000E+00 
    1.2500000000010000E-01     4.3750000000145117E-01     0.0000000000000000E+00 
    1.2500000000014669E-01     5.0000000000163858E-01     0.0000000000000000E+00 
    1.2500000000019340E-01     5.6250000000129741E-01     0.0000000000000000E+00 
    1.2500000000024011E-01     6.2500000000093847E-01     0.0000000000000000E+00 
    1.2500000000028680E-01     6.8750000000057998E-01     0.0000000000000000E+00 
    1.2500000000033351E-01     7.5000000000022127E-01     0.0000000000000000E+00 
    1.2500000000038020E-01     8.1249999999986211E-01     0.0000000000000000E+00 
    1.2500000000042691E-01     8.7499999999952238E-01     0.0000000000000000E+00 
    1.2500000000047359E-01     9.3749999999975164E-01     0.0000000000000000E+00 
    1.8749999999966760E-01     6.2500000000187531E-02     0.0000000000000000E+00 
    1.8749999999974179E-01     1.2500000000038020E-01     0.0000000000000000E+00 
    1.8749999999981601E-01     1.8750000000055780E-01     0.0000000000000000E+00 
    1.8749999999989009E-01     2.5000000000073502E-01     0.0000000000000000E+00 
    1.8749999999996431E-01     3.1250000000091221E-01     0.0000000000000000E+00 
    1.8750000000003850E-01     3.7500000000108941E-01     0.0000000000000000E+00 
    1.8750000000011269E-01     4.3750000000126649E-01     0.0000000000000000E+00 
    1.8750000000018691E-01     5.0000000000142808E-01     0.0000000000000000E+00 
    1.8750000000026110E-01     5.6250000000112244E-01     0.0000000000000000E+00 
    1.8750000000033529E-01     6.2500000000080080E-01     0.0000000000000000E+00 
    1.8750000000040951E-01     6.8750000000047962E-01     0.0000000000000000E+00 
    1.8750000000048361E-01     7.5000000000015843E-01     0.0000000000000000E+00 
    1.8750000000055780E-01     8.1249999999983680E-01     0.0000000000000000E+00 
    1.8750000000063199E-01     8.7499999999953304E-01     0.0000000000000000E+00 
    1.8750000000070621E-01     9.3749999999975764E-01     0.0000000000000000E+00 
    2.4999999999951281E-01     6.2500000000163314E-02     0.0000000000000000E+00 
    2.4999999999961461E-01     1.2500000000033351E-01     0.0000000000000000E+00 
    2.4999999999971650E-01     1.8750000000048361E-01     0.0000000000000000E+00 
    2.4999999999981831E-01     2.5000000000063310E-01     0.0000000000000000E+00 
    2.4999999999992020E-01     3.1250000000078260E-01     0.0000000000000000E+00 
    2.5000000000002198E-01     3.7500000000093209E-01     0.0000000000000000E+00 
    2.5000000000012390E-01     4.3750000000108180E-01     0.0000000000000000E+00 
    2.5000000000022571E-01     5.0000000000121769E-01     0.0000000000000000E+00 
    2.5000000000032763E-01     5.6250000000094724E-01     0.0000000000000000E+00 
    2.5000000000042938E-01     6.2500000000066314E-01     0.0000000000000000E+00 
    2.5000000000053119E-01     6.8750000000037925E-01     0.0000000000000000E+00 
[...]
CELL_DATA 256 
SCALARS Pressure double 1 
LOOKUP_TABLE default 

    6.6071204145052853E-01 
    6.1105342683536379E-01 
    5.8018684928497866E-01 
    5.5818911111736302E-01 
    5.4089475555112188E-01 
    5.2655790662977331E-01 
    5.1447475358189088E-01 
    5.0433248067041025E-01 
    4.9596196411657512E-01 
    4.8925895197230218E-01 
    4.8414333385127606E-01 
    4.8040289283304427E-01 
    4.7732273498082867E-01 
    4.7509333758140204E-01 
    4.7408471203438141E-01 
    4.7381461689363880E-01 
    6.1105746601030408E-01 
    6.0083105331807796E-01 
    5.8082623764914443E-01 
    5.6159955279081430E-01 
    5.4475446422217655E-01 
    5.3015433117494859E-01 
    5.1755834583202698E-01 
    5.0681240985069786E-01 
    4.9781893210877032E-01 
    4.9051450414608438E-01 
    4.8485839564054162E-01 
    4.8072809555174850E-01 
    4.7754425261951144E-01 
    4.7502309748524757E-01 
    4.7380897956989937E-01 
    4.7354290142464384E-01 
    5.8019224522816071E-01 
    5.8082910877913241E-01 
    5.7158981344624460E-01 
    5.5813271239641415E-01 
    5.4389258516344741E-01 
    5.3029241191425613E-01 
    5.1790460001370131E-01 
    5.0697812426338740E-01 
    4.9762859654302499E-01 
    4.8991425553568169E-01 
    4.8386977735082942E-01 
    4.7946998903873161E-01 
    4.7633439736579608E-01 
    4.7383086248215878E-01 
    4.7259111764684469E-01 
    4.7254034088294500E-01 
    5.5819171447655069E-01 
    5.6160167413699380E-01 
    5.5813347914317546E-01 
    5.4969871466178910E-01 
    5.3871198041300883E-01 
    5.2690283684986705E-01 
    5.1533136868408902E-01 
    5.0463010149873222E-01 
    4.9518140574997194E-01 
    4.8722548110574232E-01 
    4.8091757793453582E-01 
    4.7633723126219252E-01 
    4.7329708450729874E-01 
    4.7107654925682724E-01 
    4.7001355806826511E-01 
    4.7039512582594672E-01 
    5.4089219151133716E-01 
    5.4475265082339042E-01 
    5.4389145233425884E-01 
    5.3871156080286797E-01 
    5.3047448543432929E-01 
    5.2054512375460005E-01 
    5.1004186537697560E-01 
    4.9979545001432851E-01 
    4.9040434987676995E-01 
    4.8230016639121198E-01 
    4.7578982920669993E-01 
    4.7107007949407614E-01 
    4.6812820985927345E-01 
    4.6637046944954730E-01 
    4.6571353298276802E-01 
    4.6671502353620326E-01 
    5.2655066302629205E-01 
    5.3014759090496533E-01 
    5.3028708740216945E-01 
    5.2689984842653248E-01 
    5.2054356604062268E-01 
    5.1211827922111586E-01 
    5.0257401405816338E-01 
    4.9276634414483045E-01 
    4.8341910426701967E-01 
    4.7512732685680981E-01 
    4.6836246018157546E-01 
    4.6346764237384008E-01 
    4.6060258549910377E-01 
    4.5937312637222588E-01 
    4.5930812609489352E-01 
    4.6108062755108842E-01 
    5.1446182894200132E-01 
    5.1754617865854990E-01 
    5.1789378858122770E-01 
    5.1532351177029156E-01 
    5.1003645077794113E-01 
    5.0257059837533002E-01 
    4.9364871328563242E-01 
    4.8405171515604756E-01 
    4.7454865045802003E-01 
    4.6585845194188019E-01 
    4.5861894105715906E-01 
    4.5334911002778228E-01 
    4.5040142945150391E-01 
    4.4962714643786128E-01 
    4.5027879286139538E-01 
    4.5299697168317288E-01 
    5.0431106164872952E-01 
    5.0679297459136929E-01 
    5.0696094996279617E-01 
    5.0461618165463940E-01 
    4.9978417887828919E-01 
    4.9275723115301945E-01 
    4.8404619017846667E-01 
    4.7431168778971228E-01 
    4.6430862204652806E-01 
    4.5484061264315950E-01 
    4.4671109956601779E-01 
    4.4065222800384191E-01 
    4.3724380007734898E-01 
    4.3661106396664118E-01 
    4.3802687168235255E-01 
    4.4194346533076523E-01 
    4.9593090724414279E-01 
    4.9779054569505371E-01 
    4.9760375997935286E-01 
    4.9516074793910897E-01 
    4.9038607542942236E-01 
    4.8340230066447620E-01 
    4.7453524924562446E-01 
    4.6430116226015805E-01 
    4.5338945694547633E-01 
    4.4264194002405305E-01 
    4.3301683355900944E-01 
    4.2551034644299784E-01 
    4.2102996292058437E-01 
    4.2009104239282058E-01 
    4.2216178707385998E-01 
    4.2740588703147236E-01 
    4.8921814991523760E-01 
    4.9047598864857495E-01 
    4.8987952053974365E-01 
    4.8719620895341459E-01 
    4.8227361372158378E-01 
    4.7510141201017536E-01 
    4.6583520752758883E-01 
    4.5482353469001996E-01 
    4.4263256491998570E-01 
    4.3006937859067901E-01 
    4.1819597946068215E-01 
    4.0829510231603749E-01 
    4.0173269691562036E-01 
    3.9964077064252795E-01 
    4.0193901353926381E-01 
    4.0850675744616810E-01 
    4.8409172662890515E-01 
    4.8480782788753291E-01 
    4.8382213235185767E-01 
    4.8087619819522004E-01 
    4.7575206443751289E-01 
    4.6832507675011076E-01 
    4.5858384569910349E-01 
    4.4668215585293530E-01 
    4.3299552417430581E-01 
    4.1818387137997670E-01 
    4.0328551525538520E-01 
    3.8979510106764648E-01 
    3.7962781582036337E-01 
    3.7482004935839675E-01 
    3.7622573343877580E-01 
    3.8362409440272599E-01 
    4.8034189451126308E-01 
    4.8066675852439722E-01 
    4.7940983454886715E-01 
    4.7628304324299303E-01 
    4.7101936444891146E-01 
    4.6341567053205074E-01 
    4.5329960692835147E-01 
    4.4060933726793111E-01 
    4.2547424112481413E-01 
    4.0826728841330107E-01 
    3.8978130458540805E-01 
    3.7146471263886616E-01 
    3.5564932781544295E-01 
    3.4552985605218445E-01 
    3.4384798322524757E-01 
    3.5111447595009027E-01 
    4.7725718682407348E-01 
    4.7748015673737204E-01 
    4.7627153228327573E-01 
    4.7323828746803981E-01 
    4.6807072129416949E-01 
    4.6053883353006342E-01 
    4.5033802027361552E-01 
    4.3718665734985757E-01 
    4.2097778332511804E-01 
    4.0168582267652680E-01 
    3.7959959055548015E-01 
    3.5564409819846943E-01 
    3.3197148454778380E-01 
    3.1262725284988274E-01 
    3.0340145378897337E-01 
    3.0799898617662330E-01 
    4.7502782986288078E-01 
    4.7495852580065101E-01 
    4.7376860755529732E-01 
    4.7101874301741736E-01 
    4.6631378804029450E-01 
    4.5931004838446010E-01 
    4.4956037232197127E-01 
    4.3654912356734321E-01 
    4.2002890106813556E-01 
    3.9957734448805038E-01 
    3.7478419146999448E-01 
    3.4554086045360172E-01 
    3.1265928172125729E-01 
    2.7936644744923167E-01 
    2.5403153946961693E-01 
    2.4859292344334807E-01 
    4.7401972908914292E-01 
    4.7374433394862520E-01 
    4.7252734989605805E-01 
    4.6995147811450355E-01 
    4.6565334218266374E-01 
    4.5924484785268638E-01 
    4.5021162541897053E-01 
    4.3796847372590281E-01 
    4.2209439329646337E-01 
    4.0187637780741564E-01 
    3.7620219409847494E-01 
    3.4389651928331583E-01 
    3.0349483772552749E-01 
    2.5408011155791338E-01 
    1.9902177965167536E-01 
    1.6013336135728826E-01 
    4.7374979444712545E-01 
    4.7347830039580935E-01 
    4.7247637246139618E-01 
    4.7033225120464622E-01 
    4.6665316028969112E-01 
    4.6101610216813610E-01 
    4.5292863370057979E-01 
    4.4188220307045933E-01 
    4.2733565178693661E-01 
    4.0843101717336994E-01 
    3.8360659974887212E-01 
    3.5116943903445580E-01 
    3.0812423524586224E-01 
    2.4868125184123827E-01 
    1.6011507530897012E-01 
    0.0000000000000000E+00 

SCALARS Saturarion double 1 
LOOKUP_TABLE default 

    1.0000000000000000E+00 
    9.8851811869005268E-01 
    9.6713582208526994E-01 
    9.2925149938687435E-01 
    8.7850027003162567E-01 
    8.2544306246452182E-01 
    7.7382166074240311E-01 
    7.2295742212499670E-01 
    6.7203532823402745E-01 
    6.2170172555092518E-01 
    5.7341615780838262E-01 
    5.0645873623864157E-01 
    2.4444810072153761E-01 
    1.5445461258436057E-04 
    1.0000005187741072E-06 
    1.0000000000000118E-06 
    9.8848199211280730E-01 
    9.7838713823607470E-01 
    9.5885324859130916E-01 
    9.2702088674465011E-01 
    8.8273415270608613E-01 
    8.3366391514686589E-01 
    7.8407787757419534E-01 
    7.3461892117988736E-01 
    6.8478134557318671E-01 
    6.3477680227086253E-01 
    5.8622448369504265E-01 
    5.2784938547858185E-01 
    3.6195187436987492E-01 
    2.3958963454358839E-02 
    1.1159655959627647E-05 
    1.0000034130810072E-06 
    9.6701295230519579E-01 
    9.5877704329350533E-01 
    9.4005657880621551E-01 
    9.1409640526734071E-01 
    8.7888935204513874E-01 
    8.3767477528951639E-01 
    7.9373634545305738E-01 
    7.4821034302591527E-01 
    7.0105012657808541E-01 
    6.5254185609547433E-01 
    6.0405190654988627E-01 
    5.5167909253275427E-01 
    4.4344185678059600E-01 
    1.1437863668145111E-01 
    2.0776849910868664E-04 
    1.0067077435384712E-06 
    9.2896305026922288E-01 
    9.2683556281264068E-01 
    9.1401424565918388E-01 
    8.9303014434406369E-01 
    8.6572087875822201E-01 
    8.3301713318654325E-01 
    7.9646935271738961E-01 
    7.5675054543871623E-01 
    7.1398069818673038E-01 
    6.6848553232274155E-01 
    6.2113555476574311E-01 
    5.7245349960104597E-01 
    4.9116236759952114E-01 
    2.1788699387217192E-01 
    2.7472216804210578E-03 
    1.1728053535085093E-06 
    8.7815591336874033E-01 
    8.8249708092643031E-01 
    8.7875506176503182E-01 
    8.6563902022437000E-01 
    8.4605714605588100E-01 
    8.2154510805552450E-01 
    7.9266331352998043E-01 
    7.5963590946949999E-01 
    7.2254180812017565E-01 
    6.8161818761366011E-01 
    6.3704817873971975E-01 
    5.8966512713374808E-01 
    5.2484001176734141E-01 
    3.4094486300838961E-01 
    2.7247954915373504E-02 
    3.2589540727219940E-05 
    8.2510333591797724E-01 
    8.3345688059323486E-01 
    8.3752709471642584E-01 
    8.3282911266936310E-01 
    8.2140961473935614E-01 
    8.0470730872703611E-01 
    7.8323268124871648E-01 
    7.5719065906437755E-01 
    7.2649973837395965E-01 
    6.9105526011197860E-01 
    6.5063178267756572E-01 
    6.0561620791463178E-01 
    5.5266531831981369E-01 
    4.2366675213029048E-01 
    8.8276336840874811E-02 
    1.2475384322003177E-04 
    7.7321859999857800E-01 
    7.8383486022522042E-01 
    7.9366721039944033E-01 
    7.9630039432095445E-01 
    7.9241143314028029E-01 
    7.8309090429008821E-01 
    7.6884734478619854E-01 
    7.4989176555673409E-01 
    7.2603702630005695E-01 
    6.9673020982089962E-01 
    6.6137029847855222E-01 
    6.1973017638563477E-01 
    5.7036622472768261E-01 
    4.6779403768080041E-01 
    1.4747244101410623E-01 
    2.5785323181909121E-04 
    7.2212376781100418E-01 
    7.3427116358132982E-01 
    7.4817251060669643E-01 
    7.5668946727229491E-01 
    7.5938570842191855E-01 
    7.5691156756207401E-01 
    7.4975227903308761E-01 
    7.3799467348201597E-01 
    7.2128780791243829E-01 
    6.9883705477759872E-01 
    6.6956417172232052E-01 
    6.3241932374554588E-01 
    5.8739500435519110E-01 
    5.0498977166093095E-01 
    2.3492207044374938E-01 
    6.1835110542136336E-03 
    6.7118003328385767E-01 
    6.8429293355715648E-01 
    7.0094982435409048E-01 
    7.1392258657611762E-01 
    7.2239969238153989E-01 
    7.2623072384879772E-01 
    7.2578712761715192E-01 
    7.2113800579828846E-01 
    7.1187233630303659E-01 
    6.9696269227584584E-01 
    6.7496844386360966E-01 
    6.4394558909667476E-01 
    6.0352692733340085E-01 
    5.3842261160849636E-01 
    3.5018323465311663E-01 
    2.4507306741347639E-02 
    6.2073996544151278E-01 
    6.3414259727185995E-01 
    6.5237551643471370E-01 
    6.6825127742725043E-01 
    6.8138778340771511E-01 
    6.9086691908868791E-01 
    6.9653797306134346E-01 
    6.9861215559515544E-01 
    6.9679456240000914E-01 
    6.8999940689721961E-01 
    6.7637816222443703E-01 
    6.5338477162532393E-01 
    6.1874117309798660E-01 
    5.6521185551867115E-01 
    4.1513420783416000E-01 
    9.8286919856043806E-02 
    5.7201082964790373E-01 
    5.8531353012702403E-01 
    6.0377066288823222E-01 
    6.2078803519748416E-01 
    6.3653682156641811E-01 
    6.5028084174813272E-01 
    6.6125304345158442E-01 
    6.6942730713647203E-01 
    6.7469568198240404E-01 
    6.7618438707751605E-01 
    6.7189950484009919E-01 
    6.5882954909402247E-01 
    6.3279328685626512E-01 
    5.8985279166481963E-01 
    4.6832254779916282E-01 
    1.6554389050726712E-01 
    5.0459315546347172E-01 
    5.2716791133703511E-01 
    5.5177534790509386E-01 
    5.7246452535564307E-01 
    5.8920826222948974E-01 
    6.0499686126845009E-01 
    6.1941847402908923E-01 
    6.3236635065019198E-01 
    6.4378938988026213E-01 
    6.5310522167884677E-01 
    6.5861675748158099E-01 
    6.5721227830675200E-01 
    6.4352385098404796E-01 
    6.1064769207485015E-01 
    5.1511125831664295E-01 
    2.4792933044493062E-01 
    2.4189895288054680E-01 
    3.6180571648654253E-01 
    4.4514152599560197E-01 
    4.9273199940858509E-01 
    5.2516031358162674E-01 
    5.5248858582121563E-01 
    5.7040422518748068E-01 
    5.8721679773570534E-01 
    6.0339230833248669E-01 
    6.1868041677333185E-01 
    6.3270840972014897E-01 
    6.4336740327004294E-01 
    6.4477421902178111E-01 
    6.2751944002251692E-01 
    5.6046974080583134E-01 
    3.2267489683186351E-01 
    1.4036354844521222E-04 
    2.4550657237784254E-02 
    1.1996377197601447E-01 
    2.2009795613800354E-01 
    3.4196950235434753E-01 
    4.2432131529770312E-01 
    4.6981188921566941E-01 
    5.0581755051166699E-01 
    5.3885873703253195E-01 
    5.6536768676944116E-01 
    5.9065193171760899E-01 
    6.1125545125474767E-01 
    6.2765292891549829E-01 
    6.2849497042475222E-01 
    5.9725635524519616E-01 
    4.0259560901593400E-01 
    1.0000005210446440E-06 
    1.2100219781974564E-05 
    2.2643005092729698E-04 
    2.6367621266691426E-03 
    2.8757317087778376E-02 
    8.8594744450607901E-02 
    1.5659601509548013E-01 
    2.3774013165836119E-01 
    3.5179807681696340E-01 
    4.1569241299470866E-01 
    4.7151993794194547E-01 
    5.1743206604210501E-01 
    5.6122545146707592E-01 
    5.9675200245935156E-01 
    6.0556785106283206E-01 
    4.7793670192249843E-01 
    1.0000000000000116E-06 
    1.0000040457523223E-06 
    1.0084513465947095E-06 
    1.1608805764534013E-06 
    3.8476767763082333E-05 
    1.3394174536394886E-04 
    4.2615738707369756E-04 
    4.3097907778713949E-03 
    2.8454954883627741E-02 
    9.0369531564867947E-02 
    1.7729212710625530E-01 
    2.4869176175372620E-01 
    3.2350367555899989E-01 
    4.0140610673267796E-01 
    4.7775429653918933E-01 
    4.7793950007253877E-01 
