# vtk DataFile Version 2.0
Pressure Field Data 
ASCII 
DATASET UNSTRUCTURED_GRID 

POINTS 2213 double 

    0.0000000000000000E+00     0.0000000000000000E+00     0.0000000000000000E+00 
    5.0000000000000000E-01     0.0000000000000000E+00     0.0000000000000000E+00 
    1.0000000000000000E+00     0.0000000000000000E+00     0.0000000000000000E+00 
    1.0000000000000000E+00     5.0000000000000000E-01     0.0000000000000000E+00 
    1.0000000000000000E+00     1.0000000000000000E+00     0.0000000000000000E+00 
    5.0000000000000000E-01     1.0000000000000000E+00     0.0000000000000000E+00 
    0.0000000000000000E+00     1.0000000000000000E+00     0.0000000000000000E+00 
    0.0000000000000000E+00     5.0000000000000000E-01     0.0000000000000000E+00 
    1.5624999999971041E-02     0.0000000000000000E+00     0.0000000000000000E+00 
    3.1249999999936742E-02     0.0000000000000000E+00     0.0000000000000000E+00 
    4.6874999999913257E-02     0.0000000000000000E+00     0.0000000000000000E+00 
    6.2499999999889783E-02     0.0000000000000000E+00     0.0000000000000000E+00 
    7.8124999999844805E-02     0.0000000000000000E+00     0.0000000000000000E+00 
    9.3749999999799827E-02     0.0000000000000000E+00     0.0000000000000000E+00 
    1.0937499999975490E-01     0.0000000000000000E+00     0.0000000000000000E+00 
    1.2499999999970990E-01     0.0000000000000000E+00     0.0000000000000000E+00 
    1.4062499999966460E-01     0.0000000000000000E+00     0.0000000000000000E+00 
    1.5624999999961930E-01     0.0000000000000000E+00     0.0000000000000000E+00 
    1.7187499999957390E-01     0.0000000000000000E+00     0.0000000000000000E+00 
    1.8749999999952860E-01     0.0000000000000000E+00     0.0000000000000000E+00 
    2.0312499999948330E-01     0.0000000000000000E+00     0.0000000000000000E+00 
    2.1874999999943801E-01     0.0000000000000000E+00     0.0000000000000000E+00 
    2.3437499999939271E-01     0.0000000000000000E+00     0.0000000000000000E+00 
    2.4999999999934730E-01     0.0000000000000000E+00     0.0000000000000000E+00 
    2.6562499999938810E-01     0.0000000000000000E+00     0.0000000000000000E+00 
    2.8124999999942890E-01     0.0000000000000000E+00     0.0000000000000000E+00 
    2.9687499999946970E-01     0.0000000000000000E+00     0.0000000000000000E+00 
    3.1249999999951050E-01     0.0000000000000000E+00     0.0000000000000000E+00 
    3.2812499999955130E-01     0.0000000000000000E+00     0.0000000000000000E+00 
    3.4374999999959210E-01     0.0000000000000000E+00     0.0000000000000000E+00 
    3.5937499999963290E-01     0.0000000000000000E+00     0.0000000000000000E+00 
    3.7499999999967371E-01     0.0000000000000000E+00     0.0000000000000000E+00 
    3.9062499999971451E-01     0.0000000000000000E+00     0.0000000000000000E+00 
    4.0624999999975520E-01     0.0000000000000000E+00     0.0000000000000000E+00 
    4.2187499999979600E-01     0.0000000000000000E+00     0.0000000000000000E+00 
    4.3749999999983680E-01     0.0000000000000000E+00     0.0000000000000000E+00 
    4.5312499999987760E-01     0.0000000000000000E+00     0.0000000000000000E+00 
    4.6874999999991840E-01     0.0000000000000000E+00     0.0000000000000000E+00 
    4.8437499999995920E-01     0.0000000000000000E+00     0.0000000000000000E+00 
    5.1562499999992384E-01     0.0000000000000000E+00     0.0000000000000000E+00 
    5.3124999999985478E-01     0.0000000000000000E+00     0.0000000000000000E+00 
    5.4687499999994527E-01     0.0000000000000000E+00     0.0000000000000000E+00 
    5.6249999999998668E-01     0.0000000000000000E+00     0.0000000000000000E+00 
    5.7812499999998068E-01     0.0000000000000000E+00     0.0000000000000000E+00 
    5.9374999999994749E-01     0.0000000000000000E+00     0.0000000000000000E+00 
    6.0937499999997913E-01     0.0000000000000000E+00     0.0000000000000000E+00 
    6.2500000000000000E-01     0.0000000000000000E+00     0.0000000000000000E+00 
    6.4062499999998945E-01     0.0000000000000000E+00     0.0000000000000000E+00 
    6.5624999999996603E-01     0.0000000000000000E+00     0.0000000000000000E+00 
    6.7187499999995337E-01     0.0000000000000000E+00     0.0000000000000000E+00 
    6.8749999999998734E-01     0.0000000000000000E+00     0.0000000000000000E+00 
    7.0312499999998124E-01     0.0000000000000000E+00     0.0000000000000000E+00 
    7.1874999999997025E-01     0.0000000000000000E+00     0.0000000000000000E+00 
    7.3437499999999034E-01     0.0000000000000000E+00     0.0000000000000000E+00 
    7.5000000000000000E-01     0.0000000000000000E+00     0.0000000000000000E+00 
    7.6562499999996902E-01     0.0000000000000000E+00     0.0000000000000000E+00 
    7.8124999999993228E-01     0.0000000000000000E+00     0.0000000000000000E+00 
    7.9687499999989997E-01     0.0000000000000000E+00     0.0000000000000000E+00 
    8.1249999999996247E-01     0.0000000000000000E+00     0.0000000000000000E+00 
    8.2812499999999578E-01     0.0000000000000000E+00     0.0000000000000000E+00 
    8.4374999999999556E-01     0.0000000000000000E+00     0.0000000000000000E+00 
    8.5937500000000111E-01     0.0000000000000000E+00     0.0000000000000000E+00 
    8.7499999999997691E-01     0.0000000000000000E+00     0.0000000000000000E+00 
    8.9062500000000921E-01     0.0000000000000000E+00     0.0000000000000000E+00 
    9.0625000000004452E-01     0.0000000000000000E+00     0.0000000000000000E+00 
    9.2187500000005529E-01     0.0000000000000000E+00     0.0000000000000000E+00 
    9.3750000000012723E-01     0.0000000000000000E+00     0.0000000000000000E+00 
    9.5312500000011835E-01     0.0000000000000000E+00     0.0000000000000000E+00 
    9.6875000000005151E-01     0.0000000000000000E+00     0.0000000000000000E+00 
    9.8437500000003086E-01     0.0000000000000000E+00     0.0000000000000000E+00 
    1.0000000000000000E+00     1.5624999999971041E-02     0.0000000000000000E+00 
    1.0000000000000000E+00     3.1249999999936742E-02     0.0000000000000000E+00 
    1.0000000000000000E+00     4.6874999999913257E-02     0.0000000000000000E+00 
    1.0000000000000000E+00     6.2499999999889783E-02     0.0000000000000000E+00 
    1.0000000000000000E+00     7.8124999999844805E-02     0.0000000000000000E+00 
    1.0000000000000000E+00     9.3749999999799827E-02     0.0000000000000000E+00 
    1.0000000000000000E+00     1.0937499999975490E-01     0.0000000000000000E+00 
    1.0000000000000000E+00     1.2499999999970990E-01     0.0000000000000000E+00 
    1.0000000000000000E+00     1.4062499999966460E-01     0.0000000000000000E+00 
    1.0000000000000000E+00     1.5624999999961930E-01     0.0000000000000000E+00 
    1.0000000000000000E+00     1.7187499999957390E-01     0.0000000000000000E+00 
    1.0000000000000000E+00     1.8749999999952860E-01     0.0000000000000000E+00 
    1.0000000000000000E+00     2.0312499999948330E-01     0.0000000000000000E+00 
    1.0000000000000000E+00     2.1874999999943801E-01     0.0000000000000000E+00 
    1.0000000000000000E+00     2.3437499999939271E-01     0.0000000000000000E+00 
    1.0000000000000000E+00     2.4999999999934730E-01     0.0000000000000000E+00 
    1.0000000000000000E+00     2.6562499999938810E-01     0.0000000000000000E+00 
    1.0000000000000000E+00     2.8124999999942890E-01     0.0000000000000000E+00 
    1.0000000000000000E+00     2.9687499999946970E-01     0.0000000000000000E+00 
    1.0000000000000000E+00     3.1249999999951050E-01     0.0000000000000000E+00 
    1.0000000000000000E+00     3.2812499999955130E-01     0.0000000000000000E+00 
    1.0000000000000000E+00     3.4374999999959210E-01     0.0000000000000000E+00 
    1.0000000000000000E+00     3.5937499999963290E-01     0.0000000000000000E+00 
    1.0000000000000000E+00     3.7499999999967371E-01     0.0000000000000000E+00 
    1.0000000000000000E+00     3.9062499999971451E-01     0.0000000000000000E+00 
    1.0000000000000000E+00     4.0624999999975520E-01     0.0000000000000000E+00 
    1.0000000000000000E+00     4.2187499999979600E-01     0.0000000000000000E+00 
    1.0000000000000000E+00     4.3749999999983680E-01     0.0000000000000000E+00 
    1.0000000000000000E+00     4.5312499999987760E-01     0.0000000000000000E+00 
    1.0000000000000000E+00     4.6874999999991840E-01     0.0000000000000000E+00 
    1.0000000000000000E+00     4.8437499999995920E-01     0.0000000000000000E+00 
    1.0000000000000000E+00     5.1562499999992384E-01     0.0000000000000000E+00 
    1.0000000000000000E+00     5.3124999999985478E-01     0.0000000000000000E+00 
    1.0000000000000000E+00     5.4687499999994527E-01     0.0000000000000000E+00 
    1.0000000000000000E+00     5.6249999999998668E-01     0.0000000000000000E+00 
    1.0000000000000000E+00     5.7812499999998068E-01     0.0000000000000000E+00 
    1.0000000000000000E+00     5.9374999999994749E-01     0.0000000000000000E+00 
    1.0000000000000000E+00     6.0937499999997913E-01     0.0000000000000000E+00 
    1.0000000000000000E+00     6.2500000000000000E-01     0.0000000000000000E+00 
    1.0000000000000000E+00     6.4062499999998945E-01     0.0000000000000000E+00 
    1.0000000000000000E+00     6.5624999999996603E-01     0.0000000000000000E+00 
    1.0000000000000000E+00     6.7187499999995337E-01     0.0000000000000000E+00 
    1.0000000000000000E+00     6.8749999999998734E-01     0.0000000000000000E+00 
    1.0000000000000000E+00     7.0312499999998124E-01     0.0000000000000000E+00 
    1.0000000000000000E+00     7.1874999999997025E-01     0.0000000000000000E+00 
    1.0000000000000000E+00     7.3437499999999034E-01     0.0000000000000000E+00 
    1.0000000000000000E+00     7.5000000000000000E-01     0.0000000000000000E+00 
    1.0000000000000000E+00     7.6562499999996902E-01     0.0000000000000000E+00 
    1.0000000000000000E+00     7.8124999999993228E-01     0.0000000000000000E+00 
    1.0000000000000000E+00     7.9687499999989997E-01     0.0000000000000000E+00 
[...]
CELL_DATA 2084 
SCALARS Pressure double 1 
LOOKUP_TABLE default 

    2.6505705070551020E+00 
    2.6616477338574467E+00 
    2.8547513901869932E+00 
    2.6606068404700736E+00 
    2.7728354870866512E+00 
    2.7375151748124273E+00 
    2.5945897539813774E+00 
    2.7238375168607090E+00 
    2.7304789813167876E+00 
    2.7770756167002864E+00 
    2.8478557742223511E+00 
    2.6379446421134656E+00 
    2.6976905946658274E+00 
    2.6825095450493075E+00 
    2.6176103198997289E+00 
    2.6719635468513170E+00 
    2.8166461436841606E+00 
    2.6999803144893399E+00 
    2.8711210732528896E+00 
    2.6316552272769291E+00 
    2.6540742182290615E+00 
    2.7627424262442744E+00 
    2.6703834261982093E+00 
    2.6968649153678399E+00 
    2.6274106409297482E+00 
    2.7135076924178341E+00 
    2.6665116106437194E+00 
    2.6232140283451555E+00 
    2.7148227994825525E+00 
    2.6616356335105849E+00 
    2.5853690567760603E+00 
    2.7119082735781346E+00 
    2.5909983884517875E+00 
    2.6359872422544672E+00 
    2.6409053771143070E+00 
    2.7654885306384860E+00 
    2.6944868036337142E+00 
    2.6912304971965990E+00 
    2.7544420726660483E+00 
    2.7096736224693494E+00 
    2.5997477475130775E+00 
    2.7870635893913760E+00 
    2.6289156433874825E+00 
    2.7384207887786456E+00 
    2.7366351045774384E+00 
    2.6072301498075765E+00 
    2.7801644297915398E+00 
    2.6153817403376105E+00 
    2.5920696876116396E+00 
    2.6938314242397050E+00 
    2.7083211634449369E+00 
    2.6231221209405322E+00 
    2.6370451943323321E+00 
    2.7004962186760868E+00 
    2.7036466199678353E+00 
    2.6274274182394213E+00 
    2.5995708812822982E+00 
    2.7393038377795107E+00 
    2.7512682918765532E+00 
    2.6832609464538324E+00 
    2.6867593092398234E+00 
    2.6643739948548597E+00 
    2.6117203357046206E+00 
    2.6477608351256738E+00 
    2.7852229717533104E+00 
    2.6800089839028818E+00 
    2.7169945214936315E+00 
    2.6053273315373291E+00 
    2.6159538964323534E+00 
    2.5892347357674113E+00 
    2.6258992736903992E+00 
    2.8906927726972897E+00 
    2.7124306584009865E+00 
    2.8360710672861198E+00 
    2.7454643191496175E+00 
    2.8302167511006622E+00 
    2.7074758653532074E+00 
    2.7769020929452397E+00 
    2.6378249885767131E+00 
    2.7933722278612882E+00 
    2.6698761654768282E+00 
    2.7118926000365753E+00 
    2.7355670193442139E+00 
    2.6073037290561141E+00 
    2.7265813363059577E+00 
    2.6360013691960726E+00 
    2.6940154357953237E+00 
    2.7331912900722504E+00 
    2.7554560872854434E+00 
    2.7450180612849020E+00 
    2.7250334086633976E+00 
    2.7147082867540595E+00 
    2.6549234177696848E+00 
    2.7357770507673247E+00 
    2.6740216338317588E+00 
    2.5955585715862974E+00 
    2.6856622689847600E+00 
    2.6987498600415205E+00 
    2.7675081003426469E+00 
    2.6608587431960209E+00 
    2.7800425255129371E+00 
    2.7331970665559822E+00 
    2.7505402518048125E+00 
    2.7604171916302107E+00 
    2.6738018185924139E+00 
    2.7350955887624315E+00 
    2.7140779641010622E+00 
    2.7694486037203734E+00 
    2.6525000819548983E+00 
    2.9186578752683978E+00 
    2.6731509487636576E+00 
    2.7119476099388331E+00 
    2.7431051318399078E+00 
    2.7962183275050170E+00 
    2.8409070333250246E+00 
    2.6798175131543198E+00 
    2.7373822425861642E+00 
    2.7385998758044194E+00 
    2.6621085918425789E+00 
    2.6364150398540080E+00 
    2.7006451037270254E+00 
    2.7496244868160318E+00 
    2.6415624317157804E+00 
    2.8189054808301464E+00 
    2.7215894757415011E+00 
    2.7567506876458578E+00 
    2.7062127005659651E+00 
    2.6385214033102895E+00 
    2.6664134167130658E+00 
    2.6376848052237518E+00 
    2.8399863802126499E+00 
    2.8481635695300871E+00 
    2.6016087173928004E+00 
    2.7809341331742665E+00 
    2.7654992770520286E+00 
    2.6851832958377888E+00 
    2.7480747126814267E+00 
    2.6334504496378019E+00 
    2.7649914613507396E+00 
    2.8236785927123882E+00 
    2.7244729595748898E+00 
    2.8582422456601986E+00 
    2.8323643546067476E+00 
    2.7017075211613846E+00 
    2.6499927100393665E+00 
    2.7024334185715029E+00 
    2.7346864148585763E+00 
    2.7629452188119301E+00 
    2.6748222250224214E+00 
    2.7190319793349218E+00 
    2.7365244006032889E+00 
    2.8258201220249650E+00 
    2.8820057331523361E+00 
    2.6709107657170224E+00 
    2.6801935267676580E+00 
    2.8697700244481266E+00 
    2.6381276110560385E+00 
    2.7348992788747966E+00 
    2.6783025256324096E+00 
    2.8187968530121501E+00 
    2.9943042220312837E+00 
    2.9436300646945579E+00 
    2.8842989867874351E+00 
    2.9062080453484058E+00 
    2.8635493221062567E+00 
    2.8781653288756202E+00 
    2.7330768547823214E+00 
    2.9100992070562337E+00 
    2.7212469978119525E+00 
    2.8710473856691374E+00 
    2.7221554094866192E+00 
    2.8127410541385389E+00 
    2.8302735905482463E+00 
    2.7663304486765927E+00 
    2.8049570852194305E+00 
    2.6856670698270926E+00 
    2.8075247706646786E+00 
    2.7186443645070835E+00 
    2.7215780580144480E+00 
    2.7220515394266158E+00 
    2.7512861160319928E+00 
    2.6740757926460081E+00 
    2.8138864931198619E+00 
    2.7503221073779485E+00 
    2.7489585287562397E+00 
    2.5750183702849418E+00 
    2.7758606765411344E+00 
    2.8344795984151805E+00 
    2.6732035109331420E+00 
    2.7982999417858925E+00 
    2.8455382453563862E+00 
    2.8631407598015750E+00 
    2.7488908220734847E+00 
    2.6995406494075085E+00 
    2.6784072191699932E+00 
    2.6739155072911451E+00 
    2.7861521162580050E+00 
    2.7495174201642096E+00 
    2.6987331381518751E+00 
    2.7875899056003655E+00 
    2.7251307384359937E+00 
    2.6750584759995988E+00 
    2.7514348115751801E+00 
    2.6392965381466844E+00 
    2.6695765844679205E+00 
    2.8500419504830949E+00 
    2.7832430483358874E+00 
    2.6852258743609334E+00 
    2.8029566711809100E+00 
    2.7969278658502583E+00 
    2.6765990055347664E+00 
    2.7019030419233037E+00 
    2.7052680182824704E+00 
    2.7747806684342233E+00 
    2.7704396897527857E+00 
    2.8291266487158500E+00 
    2.6981520973862421E+00 
    2.7659156497389117E+00 
    2.7812852486638548E+00 
    2.6806686507460027E+00 
    2.6878186041575960E+00 
    2.5842478479012163E+00 
    2.6941887237944981E+00 
    2.8556711578753387E+00 
    2.7486915154835532E+00 
    2.7702003857637885E+00 
    2.7235346211943465E+00 
    2.7631894577510994E+00 
    2.6849348637897616E+00 
    2.6538667721859688E+00 
    2.6575379047437862E+00 
    2.6868356864074272E+00 
    2.6609290840007152E+00 
    2.6948612881841001E+00 
    2.7556113185669342E+00 
    2.6731477192397817E+00 
    2.7974015994918981E+00 
    2.8062663544936557E+00 
    2.6933536243499643E+00 
    2.6599307333582636E+00 
    2.7579916266197495E+00 
    2.6751670911184178E+00 
    2.6437531310799378E+00 
    2.6683801568793477E+00 
    2.6426423434044888E+00 
    2.6247963641260106E+00 
    2.6870521941219354E+00 
    2.7396411746203402E+00 
    2.8182730135528460E+00 
    2.6135058914995541E+00 
    2.6855015312773776E+00 
    2.6417964252506927E+00 
    2.6651371904550727E+00 
    2.8915949431807402E+00 
    2.6538946925730045E+00 
    2.7250456657972517E+00 
    2.6653223870484735E+00 
    2.6851869736970957E+00 
    2.6753511533316896E+00 
    2.6921299057400554E+00 
    2.6471307113401643E+00 
    2.6895250442583962E+00 
    2.6539043600285170E+00 
    2.7149982261491581E+00 
    2.6501887185244621E+00 
    2.6733901205421908E+00 
    2.6229699862249509E+00 
    2.6337706697718088E+00 
    2.8007350928118786E+00 
    2.6280511628417234E+00 
    2.6119313528040791E+00 
    2.6635111379972058E+00 
    2.6464952296356024E+00 
    2.9547325758485963E+00 
    2.6669619498078010E+00 
    2.7684759084044996E+00 
    2.6578949307778674E+00 
    2.6230344912196872E+00 
    2.6799528791357674E+00 
    2.6610561626540057E+00 
    2.6989424199726093E+00 
    2.6514373268912750E+00 
    2.6809743620279112E+00 
    2.6623194717597309E+00 
    2.6301930073972013E+00 
    2.6783037064281934E+00 
    2.6717772571439120E+00 
    2.6301164401248815E+00 
    2.6408348277206257E+00 
    2.6705387444817834E+00 
    2.6585924619641896E+00 
    2.5950474970647863E+00 
    2.6517307499293929E+00 
    2.6606125478692664E+00 
    2.6950740458616016E+00 
    2.6302211123353971E+00 
    2.6158245339633437E+00 
    2.7814200194539773E+00 
    2.6607040515602489E+00 
    2.7250203903354691E+00 
    2.9531421953466972E+00 
    2.7905990523905810E+00 
    2.7359928273363048E+00 
    2.8143436781441746E+00 
    2.6459475459226192E+00 
    2.6406568066210583E+00 
    2.6438851539169961E+00 
    2.6203360467882355E+00 
    2.6502255227855978E+00 
    2.6125448443381321E+00 
    2.8182451633411501E+00 
    2.6406068913770429E+00 
    2.7054146787068154E+00 
    2.7995531736584032E+00 
    2.7046758859995887E+00 
    2.6604391599880270E+00 
    2.7596113810732468E+00 
    2.6112686389757229E+00 
    2.6389020602620246E+00 
    2.6488911774970947E+00 
    2.9204772829656287E+00 
    2.7468926426776865E+00 
    2.8093056404173540E+00 
    2.8116858119152175E+00 
    2.7077329725789601E+00 
    2.7812829838138975E+00 
    2.6533027590228646E+00 
    2.5567749603727132E+00 
    3.1032548276704324E+00 
    2.5844643219313022E+00 
    2.6023131415042351E+00 
    2.6273690162285241E+00 
    2.7266877815143840E+00 
    2.7938570496567348E+00 
    2.5729365090861189E+00 
    2.8424140188735292E+00 
    2.8591928146070673E+00 
    2.7111162208121691E+00 
    2.6520945000542002E+00 
    2.8344302715216076E+00 
    2.7083849265545537E+00 
    2.6212283887651653E+00 
    2.8063496964550136E+00 
    2.5928415363894368E+00 
    2.6160145282906480E+00 
    2.7220293358727461E+00 
    2.6622964001780054E+00 
    2.5662097573910594E+00 
    2.6503367375121036E+00 
    2.5981763105112510E+00 
    2.8248937119500108E+00 
    2.5840086039329093E+00 
    2.6391637637668781E+00 
    2.7938587796365999E+00 
    2.6709273337435304E+00 
    2.7098618952864242E+00 
    2.6045105082943931E+00 
    2.6899242838707345E+00 
    2.7135145965391780E+00 
    2.6505395718446878E+00 
    2.6895032224395208E+00 
    2.7994721758585293E+00 
    2.5761732546529248E+00 
    2.6865630299224179E+00 
    2.6425721342780166E+00 
    2.6280198064666975E+00 
    2.6858251124823300E+00 
    2.6220352171364607E+00 
    2.6948674594486826E+00 
    2.8136040070811292E+00 
    2.8261648421270018E+00 
    2.5933273885364052E+00 
    2.9673811467058973E+00 
    2.6969835386709531E+00 
    2.6436922569544921E+00 
    2.8498634007507886E+00 
    2.7170697879896069E+00 
    2.7344690973541570E+00 
    2.6540366331383058E+00 
    2.6494085345939475E+00 
    2.7610403204830534E+00 
    2.7256639462917991E+00 
    2.5669464702136540E+00 
    2.6272127907043954E+00 
    2.8702829635547702E+00 
    2.7089959530436771E+00 
    2.7861336465723436E+00 
    2.7242350648089095E+00 
    2.8043210105257552E+00 
    2.7604997659529134E+00 
    2.5835192355350771E+00 
    2.6049356865545117E+00 
    2.6560585221640478E+00 
    2.8263038444628239E+00 
    2.7899544602588868E+00 
    2.6589401894738174E+00 
    2.6505187228511868E+00 
    2.6633900001350899E+00 
    2.6602698276274133E+00 
    2.7727912872484950E+00 
    2.6265691920280498E+00 
    2.7315865193203210E+00 
    2.9034713746638734E+00 
    2.6183848660772364E+00 
    2.8746739097692595E+00 
    2.6734388686473558E+00 
    2.8873319312416670E+00 
    2.7967447481256213E+00 
    3.0190067209849270E+00 
    2.6443183066404261E+00 
    2.7849393444032100E+00 
    2.6943705857165021E+00 
    2.6371789955600504E+00 
    2.8105220668752842E+00 
    2.6853298904875458E+00 
    2.8200499349936812E+00 
    2.6175082005166193E+00 
    2.7887484586727243E+00 
    2.6831013142674141E+00 
    2.7134112160743671E+00 
    2.5821469761409022E+00 
    2.6414317166639449E+00 
    2.6324167667595564E+00 
    2.8445826133209562E+00 
    2.6494074414535653E+00 
    2.8984929665336967E+00 
    2.8577704325105553E+00 
    2.6309943386657926E+00 
    2.6967857293168680E+00 
    2.6665619175070328E+00 
    2.6027455572474332E+00 
    2.6895073735950534E+00 
    2.8022160920694792E+00 
    2.6606427834799851E+00 
    2.6149082719270917E+00 
    2.9231957329107203E+00 
    2.7730087186904222E+00 
    2.5565315702306739E+00 
    2.5732503415262711E+00 
    2.6030328698916385E+00 
    2.6103248334769478E+00 
    2.6121331049483527E+00 
    2.5761668489254852E+00 
    2.6509321258581466E+00 
    2.6406902030350037E+00 
    2.5478956684385476E+00 
    2.5636593626712667E+00 
    2.5147685774059352E+00 
    2.4216202367904796E+00 
    2.4088499221813873E+00 
    2.4426205821182734E+00 
    2.4475045847016226E+00 
    2.4606025180088804E+00 
    2.5335253467059977E+00 
    2.3888683872610987E+00 
    2.5175533046932972E+00 
    2.3951576247197828E+00 
    2.4784101707520061E+00 
    2.4372706202722121E+00 
    2.4513393837382780E+00 
    2.4268510982694420E+00 
    2.4002828162958041E+00 
    2.5730107478592417E+00 
    2.5334142129867550E+00 
    2.5567188932089344E+00 
    2.5117953894904375E+00 
    2.4660777589095559E+00 
    2.4076543530713752E+00 
    2.3791312542260026E+00 
    2.5737442360572875E+00 
    2.4817510772835094E+00 
    2.3765283415529135E+00 
    2.4552427638186494E+00 
    2.5534643539594022E+00 
    2.5386465978564123E+00 
    2.3562441765071984E+00 
    2.3869683722947586E+00 
    2.4837581383722180E+00 
    2.5512560427037734E+00 
    2.5226045693844927E+00 
    2.4698262583534847E+00 
    2.4170975462686535E+00 
    2.5827771502387948E+00 
    2.5678689322201182E+00 
    2.5535878034829476E+00 
    2.6173967960922511E+00 
    2.4160828370142355E+00 
    2.4504159562455587E+00 
    2.4409419810778572E+00 
    2.5656399233976215E+00 
    2.4503964954804864E+00 
    2.5452003308786848E+00 
    2.5038409030435229E+00 
    2.4906697528573312E+00 
    2.4804598591175391E+00 
    2.4848109206800850E+00 
    2.5543779061982317E+00 
    2.5631125841549367E+00 
    2.4946186770159788E+00 
    2.4055417813273676E+00 
    2.4726129104476300E+00 
    2.4673700227519988E+00 
    2.3868040063400247E+00 
    2.5380242407036362E+00 
    2.3916894718841117E+00 
    2.5551623088231552E+00 
    2.4026501992839693E+00 
    2.5044709165794381E+00 
    2.4376985415948109E+00 
    2.3537243257657545E+00 
    2.3617987381987180E+00 
    2.3681360408661569E+00 
    2.3784371539388718E+00 
    2.4702023405937630E+00 
    2.3814288405095012E+00 
    2.4111496796627412E+00 
    2.4168467579905895E+00 
    2.5963007186617628E+00 
    2.4888219037926507E+00 
    2.3961105537811020E+00 
    2.5558922053053164E+00 
    2.4503417375967413E+00 
    2.4433139621509032E+00 
    2.5290101913270586E+00 
    2.5894038137319897E+00 
    2.5119587792587770E+00 
    2.5150127065382946E+00 
    2.4935170178241597E+00 
    2.5023834813639159E+00 
    2.5384278300587284E+00 
    2.5385291896026971E+00 
    2.5443877145340492E+00 
    2.5473348617891158E+00 
    2.4923133621902003E+00 
    2.5635534309272927E+00 
    2.5465874067332956E+00 
    2.5078727559332008E+00 
    2.5190758247733118E+00 
    2.5815115917920686E+00 
    2.5385714205982612E+00 
    2.5556520035641124E+00 
    2.5872062096084942E+00 
    2.4591612380117480E+00 
    2.4288480941068387E+00 
    2.5080216801928628E+00 
    2.5713762869550036E+00 
    2.5915898548313900E+00 
    2.5567861333956974E+00 
    2.3653855749170289E+00 
    2.4311951500709363E+00 
    2.5137669437387231E+00 
    2.4743920998253501E+00 
    2.4215372212246757E+00 
    2.5511772624601186E+00 
    2.5166405524684992E+00 
    2.3983947112647588E+00 
    2.5387379902658900E+00 
    2.4210445664623608E+00 
    2.4402447676549124E+00 
    2.4314723860120280E+00 
    2.5207077347781373E+00 
    2.5630910298487461E+00 
    2.5874909197085896E+00 
    2.5459793090685503E+00 
    2.5725607291366019E+00 
    2.4128080730471320E+00 
    2.4079753432331170E+00 
    2.5708374053506176E+00 
    2.5421336057127468E+00 
    2.3632598895411272E+00 
    2.3552312579062264E+00 
    2.6028705158571310E+00 
    2.4922662220849796E+00 
    2.5386113636227328E+00 
    2.5055383336656489E+00 
    2.4612632864563930E+00 
    2.5083965366093923E+00 
    2.5237557645061695E+00 
    2.5022709164910255E+00 
    2.4819643263233813E+00 
    2.4816134098362288E+00 
    2.3806882888143619E+00 
    2.5702709950548814E+00 
    2.6070231383295601E+00 
    2.3847792184548560E+00 
    2.3837329671423464E+00 
    2.3827449829962308E+00 
    2.3798046234468710E+00 
    2.3700694336294883E+00 
    2.5388970483698743E+00 
    2.4676311567668030E+00 
    2.3718936181740773E+00 
    2.5204989797057893E+00 
    2.5216686358054496E+00 
    2.4626791354274382E+00 
    2.4776518473237652E+00 
    2.4651819040068701E+00 
    2.4969061226173292E+00 
    2.5648143800919359E+00 
    2.3823258842148372E+00 
    2.3844868922973790E+00 
    2.4142710842205450E+00 
    2.4780564028748162E+00 
    2.5575166718328028E+00 
    2.4084309175036749E+00 
    2.5683714729897944E+00 
    2.3631143892794304E+00 
    2.4590808459442792E+00 
    2.3598532103699856E+00 
    2.3516506452385846E+00 
    2.3734003962497017E+00 
    2.5700994168182549E+00 
    2.5173854678623679E+00 
    2.4650853997661035E+00 
    2.4920491197191610E+00 
    2.5207826116989844E+00 
    2.3591555541054978E+00 
    2.4601076837937641E+00 
    2.5034173056106401E+00 
    2.5748411199899772E+00 
    2.5746700531983833E+00 
    2.5715302721494608E+00 
    2.5723618941149837E+00 
    2.5934731686975505E+00 
    2.4980994581489591E+00 
    2.4148265379968419E+00 
    2.5204551768791816E+00 
    2.5199702902054866E+00 
    2.4616969834168789E+00 
    2.3617616800083434E+00 
    2.5184597767944301E+00 
    2.5376104542312401E+00 
    2.5513165172145484E+00 
    2.5344007690435193E+00 
    2.3568721150630649E+00 
    2.5302515896491609E+00 
    2.5253209147679043E+00 
    2.3683661015484945E+00 
    2.4181665963879224E+00 
    2.5168500046006947E+00 
    2.5361910417394165E+00 
    2.5296821214009952E+00 
    2.5289394839520001E+00 
    2.5285063303757855E+00 
    2.5855627535697927E+00 
    2.5233209207567864E+00 
    2.5441053163405685E+00 
    2.4965086018106439E+00 
    2.5162643538514118E+00 
    2.3804492471174483E+00 
    2.5841590257525522E+00 
    2.5772953047938660E+00 
    2.5867778868856437E+00 
    2.4624639838360789E+00 
    2.4347898844933606E+00 
    2.4322709196479941E+00 
    2.5362080780884915E+00 
    2.5189771465508550E+00 
    2.5397635708888400E+00 
    2.4491941266019928E+00 
    2.3793203952129609E+00 
    2.4031168683435720E+00 
    2.5714299473970326E+00 
    2.3998438149768502E+00 
    2.4853041842204946E+00 
    2.4388653410301373E+00 
    2.5516865337547712E+00 
    2.5035859068084996E+00 
    2.4963542445701012E+00 
    2.5775931535346310E+00 
    2.5703744487124545E+00 
    2.4658292385047322E+00 
    2.4536680755741727E+00 
    2.4286134331601272E+00 
    2.4742948945405163E+00 
    2.5553576428985458E+00 
    2.3684476295494812E+00 
    2.5628349826380328E+00 
    2.5772775452172190E+00 
    2.4638726792695191E+00 
    2.4565950830573127E+00 
    2.3879562248093009E+00 
    2.3721611418044284E+00 
    2.5948074850977876E+00 
    2.4529990837878914E+00 
    2.5199477452048371E+00 
    2.4771535559340552E+00 
    2.5297730814889237E+00 
    2.3958470712644422E+00 
    2.4900945652018742E+00 
    2.5932364011130877E+00 
    2.4348235619164984E+00 
    2.4800604633615992E+00 
    2.4173261379750768E+00 
    2.4763682468928883E+00 
    2.6028286304234354E+00 
    2.4396119721563516E+00 
    2.5139784354064130E+00 
    2.4417004815589221E+00 
    2.3729934088231519E+00 
    2.5419111219243873E+00 
    2.5280081015740858E+00 
    2.5236929713294640E+00 
    2.4391422524204174E+00 
    2.4477215002343393E+00 
    2.3818896224641941E+00 
    2.5062188531316116E+00 
    2.5421104611592233E+00 
    2.4871130527206393E+00 
    2.4106285929857036E+00 
    2.4274439149139733E+00 