# vtk DataFile Version 2.0
Pressure Field Data 
ASCII 
DATASET UNSTRUCTURED_GRID 

POINTS 2213 double 

    0.0000000000000000E+00     0.0000000000000000E+00     0.0000000000000000E+00 
    5.0000000000000000E-01     0.0000000000000000E+00     0.0000000000000000E+00 
    1.0000000000000000E+00     0.0000000000000000E+00     0.0000000000000000E+00 
    1.0000000000000000E+00     5.0000000000000000E-01     0.0000000000000000E+00 
    1.0000000000000000E+00     1.0000000000000000E+00     0.0000000000000000E+00 
    5.0000000000000000E-01     1.0000000000000000E+00     0.0000000000000000E+00 
    0.0000000000000000E+00     1.0000000000000000E+00     0.0000000000000000E+00 
    0.0000000000000000E+00     5.0000000000000000E-01     0.0000000000000000E+00 
    1.5624999999971041E-02     0.0000000000000000E+00     0.0000000000000000E+00 
    3.1249999999936742E-02     0.0000000000000000E+00     0.0000000000000000E+00 
    4.6874999999913257E-02     0.0000000000000000E+00     0.0000000000000000E+00 
    6.2499999999889783E-02     0.0000000000000000E+00     0.0000000000000000E+00 
    7.8124999999844805E-02     0.0000000000000000E+00     0.0000000000000000E+00 
    9.3749999999799827E-02     0.0000000000000000E+00     0.0000000000000000E+00 
    1.0937499999975490E-01     0.0000000000000000E+00     0.0000000000000000E+00 
    1.2499999999970990E-01     0.0000000000000000E+00     0.0000000000000000E+00 
    1.4062499999966460E-01     0.0000000000000000E+00     0.0000000000000000E+00 
    1.5624999999961930E-01     0.0000000000000000E+00     0.0000000000000000E+00 
    1.7187499999957390E-01     0.0000000000000000E+00     0.0000000000000000E+00 
    1.8749999999952860E-01     0.0000000000000000E+00     0.0000000000000000E+00 
    2.0312499999948330E-01     0.0000000000000000E+00     0.0000000000000000E+00 
    2.1874999999943801E-01     0.0000000000000000E+00     0.0000000000000000E+00 
    2.3437499999939271E-01     0.0000000000000000E+00     0.0000000000000000E+00 
    2.4999999999934730E-01     0.0000000000000000E+00     0.0000000000000000E+00 
    2.6562499999938810E-01     0.0000000000000000E+00     0.0000000000000000E+00 
    2.8124999999942890E-01     0.0000000000000000E+00     0.0000000000000000E+00 
    2.9687499999946970E-01     0.0000000000000000E+00     0.0000000000000000E+00 
    3.1249999999951050E-01     0.0000000000000000E+00     0.0000000000000000E+00 
    3.2812499999955130E-01     0.0000000000000000E+00     0.0000000000000000E+00 
    3.4374999999959210E-01     0.0000000000000000E+00     0.0000000000000000E+00 
    3.5937499999963290E-01     0.0000000000000000E+00     0.0000000000000000E+00 
    3.7499999999967371E-01     0.0000000000000000E+00     0.0000000000000000E+00 
    3.9062499999971451E-01     0.0000000000000000E+00     0.0000000000000000E+00 
    4.0624999999975520E-01     0.0000000000000000E+00     0.0000000000000000E+00 
    4.2187499999979600E-01     0.0000000000000000E+00     0.0000000000000000E+00 
    4.3749999999983680E-01     0.0000000000000000E+00     0.0000000000000000E+00 
    4.5312499999987760E-01     0.0000000000000000E+00     0.0000000000000000E+00 
    4.6874999999991840E-01     0.0000000000000000E+00     0.0000000000000000E+00 
    4.8437499999995920E-01     0.0000000000000000E+00     0.0000000000000000E+00 
    5.1562499999992384E-01     0.0000000000000000E+00     0.0000000000000000E+00 
    5.3124999999985478E-01     0.0000000000000000E+00     0.0000000000000000E+00 
    5.4687499999994527E-01     0.0000000000000000E+00     0.0000000000000000E+00 
    5.6249999999998668E-01     0.0000000000000000E+00     0.0000000000000000E+00 
    5.7812499999998068E-01     0.0000000000000000E+00     0.0000000000000000E+00 
    5.9374999999994749E-01     0.0000000000000000E+00     0.0000000000000000E+00 
    6.0937499999997913E-01     0.0000000000000000E+00     0.0000000000000000E+00 
    6.2500000000000000E-01     0.0000000000000000E+00     0.0000000000000000E+00 
    6.4062499999998945E-01     0.0000000000000000E+00     0.0000000000000000E+00 
    6.5624999999996603E-01     0.0000000000000000E+00     0.0000000000000000E+00 
    6.7187499999995337E-01     0.0000000000000000E+00     0.0000000000000000E+00 
    6.8749999999998734E-01     0.0000000000000000E+00     0.0000000000000000E+00 
    7.0312499999998124E-01     0.0000000000000000E+00     0.0000000000000000E+00 
    7.1874999999997025E-01     0.0000000000000000E+00     0.0000000000000000E+00 
    7.3437499999999034E-01     0.0000000000000000E+00     0.0000000000000000E+00 
    7.5000000000000000E-01     0.0000000000000000E+00     0.0000000000000000E+00 
    7.6562499999996902E-01     0.0000000000000000E+00     0.0000000000000000E+00 
    7.8124999999993228E-01     0.0000000000000000E+00     0.0000000000000000E+00 
    7.9687499999989997E-01     0.0000000000000000E+00     0.0000000000000000E+00 
    8.1249999999996247E-01     0.0000000000000000E+00     0.0000000000000000E+00 
    8.2812499999999578E-01     0.0000000000000000E+00     0.0000000000000000E+00 
    8.4374999999999556E-01     0.0000000000000000E+00     0.0000000000000000E+00 
    8.5937500000000111E-01     0.0000000000000000E+00     0.0000000000000000E+00 
    8.7499999999997691E-01     0.0000000000000000E+00     0.0000000000000000E+00 
    8.9062500000000921E-01     0.0000000000000000E+00     0.0000000000000000E+00 
    9.0625000000004452E-01     0.0000000000000000E+00     0.0000000000000000E+00 
    9.2187500000005529E-01     0.0000000000000000E+00     0.0000000000000000E+00 
    9.3750000000012723E-01     0.0000000000000000E+00     0.0000000000000000E+00 
    9.5312500000011835E-01     0.0000000000000000E+00     0.0000000000000000E+00 
    9.6875000000005151E-01     0.0000000000000000E+00     0.0000000000000000E+00 
    9.8437500000003086E-01     0.0000000000000000E+00     0.0000000000000000E+00 
    1.0000000000000000E+00     1.5624999999971041E-02     0.0000000000000000E+00 
    1.0000000000000000E+00     3.1249999999936742E-02     0.0000000000000000E+00 
    1.0000000000000000E+00     4.6874999999913257E-02     0.0000000000000000E+00 
    1.0000000000000000E+00     6.2499999999889783E-02     0.0000000000000000E+00 
    1.0000000000000000E+00     7.8124999999844805E-02     0.0000000000000000E+00 
    1.0000000000000000E+00     9.3749999999799827E-02     0.0000000000000000E+00 
    1.0000000000000000E+00     1.0937499999975490E-01     0.0000000000000000E+00 
    1.0000000000000000E+00     1.2499999999970990E-01     0.0000000000000000E+00 
    1.0000000000000000E+00     1.4062499999966460E-01     0.0000000000000000E+00 
    1.0000000000000000E+00     1.5624999999961930E-01     0.0000000000000000E+00 
    1.0000000000000000E+00     1.7187499999957390E-01     0.0000000000000000E+00 
    1.0000000000000000E+00     1.8749999999952860E-01     0.0000000000000000E+00 
    1.0000000000000000E+00     2.0312499999948330E-01     0.0000000000000000E+00 
    1.0000000000000000E+00     2.1874999999943801E-01     0.0000000000000000E+00 
    1.0000000000000000E+00     2.3437499999939271E-01     0.0000000000000000E+00 
    1.0000000000000000E+00     2.4999999999934730E-01     0.0000000000000000E+00 
    1.0000000000000000E+00     2.6562499999938810E-01     0.0000000000000000E+00 
    1.0000000000000000E+00     2.8124999999942890E-01     0.0000000000000000E+00 
    1.0000000000000000E+00     2.9687499999946970E-01     0.0000000000000000E+00 
    1.0000000000000000E+00     3.1249999999951050E-01     0.0000000000000000E+00 
    1.0000000000000000E+00     3.2812499999955130E-01     0.0000000000000000E+00 
    1.0000000000000000E+00     3.4374999999959210E-01     0.0000000000000000E+00 
    1.0000000000000000E+00     3.5937499999963290E-01     0.0000000000000000E+00 
    1.0000000000000000E+00     3.7499999999967371E-01     0.0000000000000000E+00 
    1.0000000000000000E+00     3.9062499999971451E-01     0.0000000000000000E+00 
    1.0000000000000000E+00     4.0624999999975520E-01     0.0000000000000000E+00 
    1.0000000000000000E+00     4.2187499999979600E-01     0.0000000000000000E+00 
    1.0000000000000000E+00     4.3749999999983680E-01     0.0000000000000000E+00 
    1.0000000000000000E+00     4.5312499999987760E-01     0.0000000000000000E+00 
    1.0000000000000000E+00     4.6874999999991840E-01     0.0000000000000000E+00 
    1.0000000000000000E+00     4.8437499999995920E-01     0.0000000000000000E+00 
    1.0000000000000000E+00     5.1562499999992384E-01     0.0000000000000000E+00 
    1.0000000000000000E+00     5.3124999999985478E-01     0.0000000000000000E+00 
    1.0000000000000000E+00     5.4687499999994527E-01     0.0000000000000000E+00 
    1.0000000000000000E+00     5.6249999999998668E-01     0.0000000000000000E+00 
    1.0000000000000000E+00     5.7812499999998068E-01     0.0000000000000000E+00 
    1.0000000000000000E+00     5.9374999999994749E-01     0.0000000000000000E+00 
    1.0000000000000000E+00     6.0937499999997913E-01     0.0000000000000000E+00 
    1.0000000000000000E+00     6.2500000000000000E-01     0.0000000000000000E+00 
    1.0000000000000000E+00     6.4062499999998945E-01     0.0000000000000000E+00 
    1.0000000000000000E+00     6.5624999999996603E-01     0.0000000000000000E+00 
    1.0000000000000000E+00     6.7187499999995337E-01     0.0000000000000000E+00 
    1.0000000000000000E+00     6.8749999999998734E-01     0.0000000000000000E+00 
    1.0000000000000000E+00     7.0312499999998124E-01     0.0000000000000000E+00 
    1.0000000000000000E+00     7.1874999999997025E-01     0.0000000000000000E+00 
    1.0000000000000000E+00     7.3437499999999034E-01     0.0000000000000000E+00 
    1.0000000000000000E+00     7.5000000000000000E-01     0.0000000000000000E+00 
    1.0000000000000000E+00     7.6562499999996902E-01     0.0000000000000000E+00 
    1.0000000000000000E+00     7.8124999999993228E-01     0.0000000000000000E+00 
    1.0000000000000000E+00     7.9687499999989997E-01     0.0000000000000000E+00 
[...]
CELL_DATA 2084 
SCALARS Pressure double 1 
LOOKUP_TABLE default 

    2.6362088848628282E+00 
    2.6462133905124183E+00 
    2.8343090340581472E+00 
    2.6451148002258513E+00 
    2.7538128598636078E+00 
    2.7195486117942917E+00 
    2.5824069882033713E+00 
    2.7062936203866359E+00 
    2.7126228735852078E+00 
    2.7579491927724886E+00 
    2.8274618951234931E+00 
    2.6242673775586427E+00 
    2.6807392433612116E+00 
    2.6669069408521486E+00 
    2.6037690494931214E+00 
    2.6568402063131971E+00 
    2.7968018762231166E+00 
    2.6834911363975205E+00 
    2.8504920374558966E+00 
    2.6172030630039025E+00 
    2.6393675530930945E+00 
    2.7441005499873659E+00 
    2.6553427322158796E+00 
    2.6800914655919343E+00 
    2.6131380325619320E+00 
    2.6964296180356935E+00 
    2.6513039374980769E+00 
    2.6101435782651525E+00 
    2.6974921656258406E+00 
    2.6459489686164197E+00 
    2.5736388022985230E+00 
    2.6946606178160968E+00 
    2.5794410737471538E+00 
    2.6213861170046333E+00 
    2.6270459264487722E+00 
    2.7466862703558097E+00 
    2.6782312474974641E+00 
    2.6751640316696101E+00 
    2.7358610595455675E+00 
    2.6924956157405480E+00 
    2.5870466284910192E+00 
    2.7678908217556883E+00 
    2.6147489235344521E+00 
    2.7204318696918190E+00 
    2.7187000244680508E+00 
    2.5939424493026095E+00 
    2.7609720397585114E+00 
    2.6027392132030025E+00 
    2.5798729818791966E+00 
    2.6770021826870707E+00 
    2.6912683963476742E+00 
    2.6101255917435187E+00 
    2.6235005052120126E+00 
    2.6838864953742090E+00 
    2.6870159541248020E+00 
    2.6142809935173776E+00 
    2.5876066185848581E+00 
    2.7210497655434414E+00 
    2.7328841990870858E+00 
    2.6666742759866766E+00 
    2.6702374970690825E+00 
    2.6496148199454965E+00 
    2.5983429475561763E+00 
    2.6325777831870276E+00 
    2.7660032951805955E+00 
    2.6635420077211731E+00 
    2.6995171115211232E+00 
    2.5921986600704767E+00 
    2.6032305369193782E+00 
    2.5770872077236455E+00 
    2.6118205748763135E+00 
    2.8698855693029484E+00 
    2.6952999790071352E+00 
    2.8158767136344798E+00 
    2.7271013977343737E+00 
    2.8100992423873357E+00 
    2.6905532862113741E+00 
    2.7579213179087847E+00 
    2.6241962957112217E+00 
    2.7739731067881448E+00 
    2.6548264340557575E+00 
    2.6946434261804186E+00 
    2.7175178754102221E+00 
    2.5949706058184661E+00 
    2.7086474819011142E+00 
    2.6213494947945901E+00 
    2.6776814547698584E+00 
    2.7151766664580834E+00 
    2.7369358066389000E+00 
    2.7267033198953730E+00 
    2.7072356965593114E+00 
    2.6972769878789569E+00 
    2.6399790820949054E+00 
    2.7177436175144405E+00 
    2.6579028814178658E+00 
    2.5829820852842853E+00 
    2.6698248246769372E+00 
    2.6817055853500014E+00 
    2.7487024943802942E+00 
    2.6451892139740156E+00 
    2.7609639063793590E+00 
    2.7150714080653078E+00 
    2.7320706586083907E+00 
    2.7418445834772815E+00 
    2.6576725943321615E+00 
    2.7169653508602893E+00 
    2.6966847942042382E+00 
    2.7506403168355749E+00 
    2.6382534990382513E+00 
    2.8976970525170391E+00 
    2.6578780726060112E+00 
    2.6947378492676157E+00 
    2.7248944674989271E+00 
    2.7767387040060805E+00 
    2.8206149062269361E+00 
    2.6642724521875190E+00 
    2.7191343903246312E+00 
    2.7204345679161426E+00 
    2.6463137428574499E+00 
    2.6220828931785909E+00 
    2.6839711202060128E+00 
    2.7311239894321400E+00 
    2.6271933631993432E+00 
    2.7989983712918414E+00 
    2.7041638338280132E+00 
    2.7381627866504661E+00 
    2.6894066368570790E+00 
    2.6241214016399192E+00 
    2.6504333920395213E+00 
    2.6229369046092073E+00 
    2.8198205623736805E+00 
    2.8278439297330231E+00 
    2.5886506668836646E+00 
    2.7618230272877358E+00 
    2.7467659086180740E+00 
    2.6686675521165220E+00 
    2.7298380648377103E+00 
    2.6191356827254624E+00 
    2.7462866449342882E+00 
    2.8036548342645018E+00 
    2.7065964030543812E+00 
    2.8377711332277773E+00 
    2.8122550678247635E+00 
    2.6845401120367969E+00 
    2.6347392952829374E+00 
    2.6854076637722111E+00 
    2.7167280138168626E+00 
    2.7441880141186470E+00 
    2.6587015381082599E+00 
    2.7014063010698282E+00 
    2.7184598784419127E+00 
    2.8058498698682715E+00 
    2.8612746669239790E+00 
    2.6547542691617569E+00 
    2.6636790678789426E+00 
    2.8491356509755814E+00 
    2.6234748953861931E+00 
    2.7170230819542351E+00 
    2.6619687744848393E+00 
    2.7988489573250570E+00 
    2.9731005570157976E+00 
    2.9225338562939340E+00 
    2.8634937400830385E+00 
    2.8852952436690495E+00 
    2.8429312361014971E+00 
    2.8574738648058653E+00 
    2.7151315184053524E+00 
    2.8891236294812028E+00 
    2.7035411633273432E+00 
    2.8504134591205514E+00 
    2.7044093847319171E+00 
    2.7929777717213766E+00 
    2.8101300548396471E+00 
    2.7475124401451780E+00 
    2.7852925455626392E+00 
    2.6697483630788037E+00 
    2.7877952411886384E+00 
    2.7011060925382187E+00 
    2.7038693113917835E+00 
    2.7042820550804780E+00 
    2.7327841154989443E+00 
    2.6584328633803072E+00 
    2.7940386498819665E+00 
    2.7319367983571161E+00 
    2.7306544018289145E+00 
    2.5637896556837094E+00 
    2.7568336371794850E+00 
    2.8142805332589558E+00 
    2.6572657827937860E+00 
    2.7788895469433288E+00 
    2.8252026239800889E+00 
    2.8425702502135710E+00 
    2.7305303276757771E+00 
    2.6828196176744590E+00 
    2.6629359733509546E+00 
    2.6578695708917666E+00 
    2.7669433391863514E+00 
    2.7312095225558766E+00 
    2.6821073396914588E+00 
    2.7683463273956477E+00 
    2.7074950545712859E+00 
    2.6589831182646257E+00 
    2.7330854618556488E+00 
    2.6256079906286378E+00 
    2.6535143352708470E+00 
    2.8297336632092152E+00 
    2.7641108037162425E+00 
    2.6692695753252660E+00 
    2.7833144884979730E+00 
    2.7774344597566554E+00 
    2.6603289626879825E+00 
    2.6848957417717090E+00 
    2.6879889338908680E+00 
    2.7558514977181368E+00 
    2.7515815037539579E+00 
    2.8090196907431992E+00 
    2.6813020886341645E+00 
    2.7471284144984534E+00 
    2.7621363366232625E+00 
    2.6642128644459597E+00 
    2.6710404776917911E+00 
    2.5730145312094179E+00 
    2.6775577241078050E+00 
    2.8351916004881565E+00 
    2.7303864915677174E+00 
    2.7513665376814322E+00 
    2.7059543245884368E+00 
    2.7443669515995563E+00 
    2.6687851948570467E+00 
    2.6384273368969269E+00 
    2.6430276693895789E+00 
    2.6707515114116358E+00 
    2.6462007500258200E+00 
    2.6779348472922662E+00 
    2.7371388145334024E+00 
    2.6578020071759676E+00 
    2.7778886455351484E+00 
    2.7866443407733303E+00 
    2.6765891846528072E+00 
    2.6444530263469019E+00 
    2.7394562656919330E+00 
    2.6588777356482338E+00 
    2.6296951380898910E+00 
    2.6523757533787227E+00 
    2.6284149027439598E+00 
    2.6107346858172251E+00 
    2.6705876174025032E+00 
    2.7216040979213623E+00 
    2.7984686111902803E+00 
    2.6001357594751551E+00 
    2.6693984690144212E+00 
    2.6268965226330074E+00 
    2.6492249461979824E+00 
    2.8707561089721407E+00 
    2.6393217342534143E+00 
    2.7075550894410170E+00 
    2.6502335087983520E+00 
    2.6686922415026655E+00 
    2.6597986151063933E+00 
    2.6752779286430934E+00 
    2.6322154855003341E+00 
    2.6728107220175699E+00 
    2.6384908909095919E+00 
    2.6979040564017440E+00 
    2.6350506860935905E+00 
    2.6579651726500377E+00 
    2.6088939420077883E+00 
    2.6191872332988479E+00 
    2.7812682018011650E+00 
    2.6147129251510108E+00 
    2.5984325658510192E+00 
    2.6478457715716588E+00 
    2.6314112445857849E+00 
    2.9335992423150987E+00 
    2.6511092699662635E+00 
    2.7495316976603936E+00 
    2.6423689246983488E+00 
    2.6100302745468511E+00 
    2.6636021509386456E+00 
    2.6461908699148387E+00 
    2.6820480598216410E+00 
    2.6362923380048509E+00 
    2.6654063195693829E+00 
    2.6465694215967135E+00 
    2.6159648111237366E+00 
    2.6623421505175333E+00 
    2.6563127025312494E+00 
    2.6167874651567558E+00 
    2.6261483590479213E+00 
    2.6554503879200575E+00 
    2.6429955464714738E+00 
    2.5827233489284298E+00 
    2.6367311673460434E+00 
    2.6449963997200312E+00 
    2.6781852187067643E+00 
    2.6160458481230884E+00 
    2.6021617495590177E+00 
    2.7622378837720367E+00 
    2.6460563559906234E+00 
    2.7073898280256978E+00 
    2.9319860764915404E+00 
    2.7711935890547887E+00 
    2.7181193292387711E+00 
    2.7946214294689167E+00 
    2.6308782065040504E+00 
    2.6259684637623821E+00 
    2.6299554433572019E+00 
    2.6066774215873294E+00 
    2.6360390696572060E+00 
    2.5990121729511348E+00 
    2.7983621567736656E+00 
    2.6265878813714449E+00 
    2.6887123289726724E+00 
    2.7800302021753689E+00 
    2.6876790136450852E+00 
    2.6458298346474294E+00 
    2.7408404826839790E+00 
    2.5981044558753856E+00 
    2.6252123972737080E+00 
    2.6347012611818807E+00 
    2.8994614757391477E+00 
    2.7286695665700420E+00 
    2.7895760896650046E+00 
    2.7919677853120759E+00 
    2.6905456279493460E+00 
    2.7620904294148367E+00 
    2.6386520052770699E+00 
    2.5465810052188402E+00 
    3.0818898124542415E+00 
    2.5728219270452457E+00 
    2.5896553467818269E+00 
    2.6141822529845538E+00 
    2.7090220872005157E+00 
    2.7743781305252404E+00 
    2.5622624807820080E+00 
    2.8221757698682977E+00 
    2.8387314341089329E+00 
    2.6938391443171343E+00 
    2.6369279789294451E+00 
    2.8142521422763891E+00 
    2.6910575273049906E+00 
    2.6072828113472490E+00 
    2.7867344738032349E+00 
    2.5807099503644109E+00 
    2.6033248683652177E+00 
    2.7044702800139282E+00 
    2.6467093324776552E+00 
    2.5554299471895159E+00 
    2.6350881311844465E+00 
    2.5862863684106583E+00 
    2.8048677847359200E+00 
    2.5723780231013049E+00 
    2.6243961118081978E+00 
    2.7744486905275125E+00 
    2.6551748310860552E+00 
    2.6925393662415229E+00 
    2.5923245108090875E+00 
    2.6733777181697067E+00 
    2.6964480172665466E+00 
    2.6362305992421580E+00 
    2.6735159781411579E+00 
    2.7799296292642008E+00 
    2.5649730399133501E+00 
    2.6706765942389463E+00 
    2.6281910575679532E+00 
    2.6137451964702443E+00 
    2.6694674907686724E+00 
    2.6080949322469236E+00 
    2.6786248845026992E+00 
    2.7937633653141263E+00 
    2.8062137582549367E+00 
    2.5816482882689873E+00 
    2.9461829434523841E+00 
    2.6803184054234261E+00 
    2.6287638547711967E+00 
    2.8294617840874592E+00 
    2.6996212354057332E+00 
    2.7165518860705107E+00 
    2.6395131475170017E+00 
    2.6352616468438916E+00 
    2.7424269977012217E+00 
    2.7081579293027493E+00 
    2.5562087384523537E+00 
    2.6130203312883529E+00 
    2.8496762902324009E+00 
    2.6918568111526704E+00 
    2.7668161675078897E+00 
    2.7066186992316856E+00 
    2.7847234334662301E+00 
    2.7418822556462104E+00 
    2.5723169497719192E+00 
    2.5920636685955354E+00 
    2.6406867150171487E+00 
    2.8062902937120735E+00 
    2.7706748765794371E+00 
    2.6436266030245750E+00 
    2.6363024404124662E+00 
    2.6481673775497305E+00 
    2.6454868404804426E+00 
    2.7538897575345382E+00 
    2.6124659370489889E+00 
    2.7136770507218189E+00 
    2.8825666630304561E+00 
    2.6047894095397628E+00 
    2.8540001819992638E+00 
    2.6574154256987379E+00 
    2.8665389148449343E+00 
    2.7773229487066406E+00 
    2.9977165341413063E+00 
    2.6294642353742996E+00 
    2.7657514688614477E+00 
    2.6775638605901051E+00 
    2.6233475315701655E+00 
    2.7907669232498895E+00 
    2.6688814537215793E+00 
    2.8001379749496813E+00 
    2.6037588742475894E+00 
    2.7694792041446998E+00 
    2.6668796591577895E+00 
    2.6960597705561034E+00 
    2.5704679280731315E+00 
    2.6272911946369835E+00 
    2.6188200502147474E+00 
    2.8242449457268370E+00 
    2.6344146843270821E+00 
    2.8776088175840115E+00 
    2.8372880359756212E+00 
    2.6166220381286012E+00 
    2.6804621059024827E+00 
    2.6510446480972867E+00 
    2.5906441935263036E+00 
    2.6731062318855545E+00 
    2.7826659750192375E+00 
    2.6459728784129495E+00 
    2.6022626184712734E+00 
    2.9021549948216308E+00 
    2.7540947049873634E+00 
    2.5463077662426672E+00 
    2.5625490576970225E+00 
    2.5902895156965564E+00 
    2.5971680697354698E+00 
    2.5996101879473454E+00 
    2.5648799590458835E+00 
    2.6357406911089751E+00 
    2.6259584330753367E+00 
    2.5381537023123202E+00 
    2.5534258734322477E+00 
    2.5071689799038306E+00 
    2.4211252044683400E+00 
    2.4108682987636949E+00 
    2.4369799461394330E+00 
    2.4445972974412866E+00 
    2.4551296263822557E+00 
    2.5248459429263499E+00 
    2.3903546242945306E+00 
    2.5095294733497977E+00 
    2.3981097224972592E+00 
    2.4725139851169171E+00 
    2.4368725460161631E+00 
    2.4466898970219395E+00 
    2.4216705459212573E+00 
    2.4027231336540469E+00 
    2.5617344809519413E+00 
    2.5245844694716491E+00 
    2.5458425873421744E+00 
    2.5041980375360229E+00 
    2.4598707923858107E+00 
    2.4043254583238927E+00 
    2.3814251593066973E+00 
    2.5621161944701445E+00 
    2.4746995613716347E+00 
    2.3784964654617688E+00 
    2.4528646830759309E+00 
    2.5437238478128683E+00 
    2.5294459185925131E+00 
    2.3587143285119829E+00 
    2.3887756674013256E+00 
    2.4767121821707785E+00 
    2.5413220373612639E+00 
    2.5141320594214966E+00 
    2.4645690559978841E+00 
    2.4186081816851175E+00 
    2.5708034765763537E+00 
    2.5568660682181688E+00 
    2.5438435874624905E+00 
    2.6042699576435879E+00 
    2.4175554143562521E+00 
    2.4481039843269055E+00 
    2.4399175796611905E+00 
    2.5548478230701366E+00 
    2.4469360172184969E+00 
    2.5355704842261755E+00 
    2.4968538507095723E+00 
    2.4840493548789864E+00 
    2.4733865525877241E+00 
    2.4792946663484461E+00 
    2.5438274131535512E+00 
    2.5523309818108948E+00 
    2.4883315444421177E+00 
    2.4067624774661809E+00 
    2.4674373192484964E+00 
    2.4621358582480801E+00 
    2.3878613534311213E+00 
    2.5291063329164807E+00 
    2.3925439695747612E+00 
    2.5444725856157806E+00 
    2.4047422174938093E+00 
    2.4972459498589283E+00 
    2.4365213504961676E+00 
    2.3562860788386053E+00 
    2.3636897613908241E+00 
    2.3702302989008066E+00 
    2.3771640347279965E+00 
    2.4651016702575363E+00 
    2.3803777069578005E+00 
    2.4074589822845929E+00 
    2.4123423545328313E+00 
    2.5838438986129333E+00 
    2.4822513199748082E+00 
    2.3990209035715644E+00 
    2.5450680285948177E+00 
    2.4470945474527510E+00 
    2.4387270460224131E+00 
    2.5203759132659469E+00 
    2.5770885785350197E+00 
    2.5042320072906965E+00 
    2.5071705916359379E+00 
    2.4872437034850816E+00 
    2.4953057320068095E+00 
    2.5285587679128225E+00 
    2.5284480279388819E+00 
    2.5346109498925946E+00 
    2.5371650731717628E+00 
    2.4855337199359071E+00 
    2.5533233003390929E+00 
    2.5368776597055778E+00 
    2.5003916246348012E+00 
    2.5109721966018230E+00 
    2.5696935860651435E+00 
    2.5285725268909696E+00 
    2.5449465028087097E+00 
    2.5752072642493817E+00 
    2.4544694202897297E+00 
    2.4300286159942961E+00 
    2.5002269515201707E+00 
    2.5603148632790718E+00 
    2.5792343660875106E+00 
    2.5459072037572819E+00 
    2.3673899686427951E+00 
    2.4304012577100682E+00 
    2.5061658230117780E+00 
    2.4696935838198764E+00 
    2.4183874980654272E+00 
    2.5410124220589343E+00 
    2.5084905302215170E+00 
    2.3990094840590963E+00 
    2.5293631931570268E+00 
    2.4227846667230528E+00 
    2.4389934625688410E+00 
    2.4311009527736096E+00 
    2.5127564049728903E+00 
    2.5524881946906333E+00 
    2.5757563983571523E+00 
    2.5366453743845341E+00 
    2.5611385379975631E+00 
    2.4128471824293052E+00 
    2.4079191635501123E+00 
    2.5593783078757228E+00 
    2.5322248154483300E+00 
    2.3651925290396218E+00 
    2.3577910207386163E+00 
    2.5906053514958134E+00 
    2.4858033096785537E+00 
    2.5288766279902029E+00 
    2.4976860857233185E+00 
    2.4573766458082269E+00 
    2.5006786359789688E+00 
    2.5153848271133454E+00 
    2.4949777276464205E+00 
    2.4760755630689819E+00 
    2.4758309463307544E+00 
    2.3785095207792413E+00 
    2.5590518436456375E+00 
    2.5939527752983387E+00 
    2.3819014839326700E+00 
    2.3812135298135071E+00 
    2.3806960019362489E+00 
    2.3777147197184303E+00 
    2.3726483772518958E+00 
    2.5292834461731171E+00 
    2.4622665494081648E+00 
    2.3739022269228300E+00 
    2.5123718421679411E+00 
    2.5128100710603629E+00 
    2.4564793492860413E+00 
    2.4724607451987222E+00 
    2.4614255456279679E+00 
    2.4903164974439234E+00 
    2.5539188773719688E+00 
    2.3800126634732335E+00 
    2.3817432961231972E+00 
    2.4160166495862812E+00 
    2.4721776047936976E+00 
    2.5469990046856941E+00 
    2.4048565723721667E+00 
    2.5571946390578391E+00 
    2.3666410162620020E+00 
    2.4529461265032380E+00 
    2.3617667173806489E+00 
    2.3542475251619481E+00 
    2.3755673803794704E+00 
    2.5587441690604327E+00 
    2.5090890200904110E+00 
    2.4600331251234686E+00 
    2.4853229473565057E+00 
    2.5118104763862994E+00 
    2.3617263141240614E+00 
    2.4558110262865518E+00 
    2.4960990771848257E+00 
    2.5631786724414809E+00 
    2.5638822555206859E+00 
    2.5608166455470736E+00 
    2.5607774676603294E+00 
    2.5814392211784556E+00 
    2.4908682975545027E+00 
    2.4106908332760213E+00 
    2.5113554757950012E+00 
    2.5107860079130346E+00 
    2.4555532828852407E+00 
    2.3646009890854063E+00 
    2.5092900341366859E+00 
    2.5275657922584829E+00 
    2.5408547015362140E+00 
    2.5245169542872121E+00 
    2.3594299138278290E+00 
    2.5206877530480529E+00 
    2.5160415026283087E+00 
    2.3704405513897626E+00 
    2.4146307989345273E+00 
    2.5087528498237277E+00 
    2.5265865002196937E+00 
    2.5204628588201050E+00 
    2.5203204246430260E+00 
    2.5198491559979481E+00 
    2.5742522485558696E+00 
    2.5145131298049122E+00 
    2.5345588463184376E+00 
    2.4896597242335776E+00 
    2.5082567068886670E+00 
    2.3813166296637487E+00 
    2.5720675798123227E+00 
    2.5659265369998980E+00 
    2.5748479963623510E+00 
    2.4579738762211512E+00 
    2.4338859606371877E+00 
    2.4279785560544402E+00 
    2.5269866188372596E+00 
    2.5104645065259792E+00 
    2.5304601191365266E+00 
    2.4437573906530496E+00 
    2.3808923689655299E+00 
    2.4045960488747218E+00 
    2.5605327301366558E+00 
    2.4023274980515272E+00 
    2.4791190235611307E+00 
    2.4331531699764612E+00 
    2.5415238100189899E+00 
    2.4956558638996267E+00 
    2.4891020626196556E+00 
    2.5659972035154075E+00 
    2.5593552234276618E+00 
    2.4611249316430346E+00 
    2.4500096659752924E+00 
    2.4292796625560453E+00 
    2.4688353044307538E+00 
    2.5455065601510900E+00 
    2.3721854875772306E+00 
    2.5521928147958559E+00 
    2.5658201468515922E+00 
    2.4591821079136529E+00 
    2.4526422109636221E+00 
    2.3914856419444575E+00 
    2.3756446473708421E+00 
    2.5830436516677926E+00 
    2.4476865376665362E+00 
    2.5109848652739988E+00 
    2.4711292574702020E+00 
    2.5213153972261244E+00 
    2.3972929848209885E+00 
    2.4832437591930656E+00 
    2.5813207506741058E+00 
    2.4297833338066104E+00 
    2.4726172929328687E+00 
    2.4189626576387271E+00 
    2.4704644550500858E+00 
    2.5906740085176119E+00 
    2.4345171224272555E+00 
    2.5049984522180129E+00 
    2.4406799312128418E+00 
    2.3749548871406434E+00 
    2.5327769925232855E+00 
    2.5194119622831641E+00 
    2.5155322716117525E+00 
    2.4384967133820927E+00 
    2.4443452068910756E+00 
    2.3836499278923107E+00 
    2.4986914322727443E+00 
    2.5329519813418329E+00 
    2.4802072787997522E+00 
    2.4075730642886715E+00 
    2.4291249511571471E+00 