# vtk DataFile Version 2.0
Pressure Field Data 
ASCII 
DATASET UNSTRUCTURED_GRID 

POINTS 2213 double 

    0.0000000000000000E+00     0.0000000000000000E+00     0.0000000000000000E+00 
    5.0000000000000000E-01     0.0000000000000000E+00     0.0000000000000000E+00 
    1.0000000000000000E+00     0.0000000000000000E+00     0.0000000000000000E+00 
    1.0000000000000000E+00     5.0000000000000000E-01     0.0000000000000000E+00 
    1.0000000000000000E+00     1.0000000000000000E+00     0.0000000000000000E+00 
    5.0000000000000000E-01     1.0000000000000000E+00     0.0000000000000000E+00 
    0.0000000000000000E+00     1.0000000000000000E+00     0.0000000000000000E+00 
    0.0000000000000000E+00     5.0000000000000000E-01     0.0000000000000000E+00 
    1.5624999999971041E-02     0.0000000000000000E+00     0.0000000000000000E+00 
    3.1249999999936742E-02     0.0000000000000000E+00     0.0000000000000000E+00 
    4.6874999999913257E-02     0.0000000000000000E+00     0.0000000000000000E+00 
    6.2499999999889783E-02     0.0000000000000000E+00     0.0000000000000000E+00 
    7.8124999999844805E-02     0.0000000000000000E+00     0.0000000000000000E+00 
    9.3749999999799827E-02     0.0000000000000000E+00     0.0000000000000000E+00 
    1.0937499999975490E-01     0.0000000000000000E+00     0.0000000000000000E+00 
    1.2499999999970990E-01     0.0000000000000000E+00     0.0000000000000000E+00 
    1.4062499999966460E-01     0.0000000000000000E+00     0.0000000000000000E+00 
    1.5624999999961930E-01     0.0000000000000000E+00     0.0000000000000000E+00 
    1.7187499999957390E-01     0.0000000000000000E+00     0.0000000000000000E+00 
    1.8749999999952860E-01     0.0000000000000000E+00     0.0000000000000000E+00 
    2.0312499999948330E-01     0.0000000000000000E+00     0.0000000000000000E+00 
    2.1874999999943801E-01     0.0000000000000000E+00     0.0000000000000000E+00 
    2.3437499999939271E-01     0.0000000000000000E+00     0.0000000000000000E+00 
    2.4999999999934730E-01     0.0000000000000000E+00     0.0000000000000000E+00 
    2.6562499999938810E-01     0.0000000000000000E+00     0.0000000000000000E+00 
    2.8124999999942890E-01     0.0000000000000000E+00     0.0000000000000000E+00 
    2.9687499999946970E-01     0.0000000000000000E+00     0.0000000000000000E+00 
    3.1249999999951050E-01     0.0000000000000000E+00     0.0000000000000000E+00 
    3.2812499999955130E-01     0.0000000000000000E+00     0.0000000000000000E+00 
    3.4374999999959210E-01     0.0000000000000000E+00     0.0000000000000000E+00 
    3.5937499999963290E-01     0.0000000000000000E+00     0.0000000000000000E+00 
    3.7499999999967371E-01     0.0000000000000000E+00     0.0000000000000000E+00 
    3.9062499999971451E-01     0.0000000000000000E+00     0.0000000000000000E+00 
    4.0624999999975520E-01     0.0000000000000000E+00     0.0000000000000000E+00 
    4.2187499999979600E-01     0.0000000000000000E+00     0.0000000000000000E+00 
    4.3749999999983680E-01     0.0000000000000000E+00     0.0000000000000000E+00 
    4.5312499999987760E-01     0.0000000000000000E+00     0.0000000000000000E+00 
    4.6874999999991840E-01     0.0000000000000000E+00     0.0000000000000000E+00 
    4.8437499999995920E-01     0.0000000000000000E+00     0.0000000000000000E+00 
    5.1562499999992384E-01     0.0000000000000000E+00     0.0000000000000000E+00 
    5.3124999999985478E-01     0.0000000000000000E+00     0.0000000000000000E+00 
    5.4687499999994527E-01     0.0000000000000000E+00     0.0000000000000000E+00 
    5.6249999999998668E-01     0.0000000000000000E+00     0.0000000000000000E+00 
    5.7812499999998068E-01     0.0000000000000000E+00     0.0000000000000000E+00 
    5.9374999999994749E-01     0.0000000000000000E+00     0.0000000000000000E+00 
    6.0937499999997913E-01     0.0000000000000000E+00     0.0000000000000000E+00 
    6.2500000000000000E-01     0.0000000000000000E+00     0.0000000000000000E+00 
    6.4062499999998945E-01     0.0000000000000000E+00     0.0000000000000000E+00 
    6.5624999999996603E-01     0.0000000000000000E+00     0.0000000000000000E+00 
    6.7187499999995337E-01     0.0000000000000000E+00     0.0000000000000000E+00 
    6.8749999999998734E-01     0.0000000000000000E+00     0.0000000000000000E+00 
    7.0312499999998124E-01     0.0000000000000000E+00     0.0000000000000000E+00 
    7.1874999999997025E-01     0.0000000000000000E+00     0.0000000000000000E+00 
    7.3437499999999034E-01     0.0000000000000000E+00     0.0000000000000000E+00 
    7.5000000000000000E-01     0.0000000000000000E+00     0.0000000000000000E+00 
    7.6562499999996902E-01     0.0000000000000000E+00     0.0000000000000000E+00 
    7.8124999999993228E-01     0.0000000000000000E+00     0.0000000000000000E+00 
    7.9687499999989997E-01     0.0000000000000000E+00     0.0000000000000000E+00 
    8.1249999999996247E-01     0.0000000000000000E+00     0.0000000000000000E+00 
    8.2812499999999578E-01     0.0000000000000000E+00     0.0000000000000000E+00 
    8.4374999999999556E-01     0.0000000000000000E+00     0.0000000000000000E+00 
    8.5937500000000111E-01     0.0000000000000000E+00     0.0000000000000000E+00 
    8.7499999999997691E-01     0.0000000000000000E+00     0.0000000000000000E+00 
    8.9062500000000921E-01     0.0000000000000000E+00     0.0000000000000000E+00 
    9.0625000000004452E-01     0.0000000000000000E+00     0.0000000000000000E+00 
    9.2187500000005529E-01     0.0000000000000000E+00     0.0000000000000000E+00 
    9.3750000000012723E-01     0.0000000000000000E+00     0.0000000000000000E+00 
    9.5312500000011835E-01     0.0000000000000000E+00     0.0000000000000000E+00 
    9.6875000000005151E-01     0.0000000000000000E+00     0.0000000000000000E+00 
    9.8437500000003086E-01     0.0000000000000000E+00     0.0000000000000000E+00 
    1.0000000000000000E+00     1.5624999999971041E-02     0.0000000000000000E+00 
    1.0000000000000000E+00     3.1249999999936742E-02     0.0000000000000000E+00 
    1.0000000000000000E+00     4.6874999999913257E-02     0.0000000000000000E+00 
    1.0000000000000000E+00     6.2499999999889783E-02     0.0000000000000000E+00 
    1.0000000000000000E+00     7.8124999999844805E-02     0.0000000000000000E+00 
    1.0000000000000000E+00     9.3749999999799827E-02     0.0000000000000000E+00 
    1.0000000000000000E+00     1.0937499999975490E-01     0.0000000000000000E+00 
    1.0000000000000000E+00     1.2499999999970990E-01     0.0000000000000000E+00 
    1.0000000000000000E+00     1.4062499999966460E-01     0.0000000000000000E+00 
    1.0000000000000000E+00     1.5624999999961930E-01     0.0000000000000000E+00 
    1.0000000000000000E+00     1.7187499999957390E-01     0.0000000000000000E+00 
    1.0000000000000000E+00     1.8749999999952860E-01     0.0000000000000000E+00 
    1.0000000000000000E+00     2.0312499999948330E-01     0.0000000000000000E+00 
    1.0000000000000000E+00     2.1874999999943801E-01     0.0000000000000000E+00 
    1.0000000000000000E+00     2.3437499999939271E-01     0.0000000000000000E+00 
    1.0000000000000000E+00     2.4999999999934730E-01     0.0000000000000000E+00 
    1.0000000000000000E+00     2.6562499999938810E-01     0.0000000000000000E+00 
    1.0000000000000000E+00     2.8124999999942890E-01     0.0000000000000000E+00 
    1.0000000000000000E+00     2.9687499999946970E-01     0.0000000000000000E+00 
    1.0000000000000000E+00     3.1249999999951050E-01     0.0000000000000000E+00 
    1.0000000000000000E+00     3.2812499999955130E-01     0.0000000000000000E+00 
    1.0000000000000000E+00     3.4374999999959210E-01     0.0000000000000000E+00 
    1.0000000000000000E+00     3.5937499999963290E-01     0.0000000000000000E+00 
    1.0000000000000000E+00     3.7499999999967371E-01     0.0000000000000000E+00 
    1.0000000000000000E+00     3.9062499999971451E-01     0.0000000000000000E+00 
    1.0000000000000000E+00     4.0624999999975520E-01     0.0000000000000000E+00 
    1.0000000000000000E+00     4.2187499999979600E-01     0.0000000000000000E+00 
    1.0000000000000000E+00     4.3749999999983680E-01     0.0000000000000000E+00 
    1.0000000000000000E+00     4.5312499999987760E-01     0.0000000000000000E+00 
    1.0000000000000000E+00     4.6874999999991840E-01     0.0000000000000000E+00 
    1.0000000000000000E+00     4.8437499999995920E-01     0.0000000000000000E+00 
    1.0000000000000000E+00     5.1562499999992384E-01     0.0000000000000000E+00 
    1.0000000000000000E+00     5.3124999999985478E-01     0.0000000000000000E+00 
    1.0000000000000000E+00     5.4687499999994527E-01     0.0000000000000000E+00 
    1.0000000000000000E+00     5.6249999999998668E-01     0.0000000000000000E+00 
    1.0000000000000000E+00     5.7812499999998068E-01     0.0000000000000000E+00 
    1.0000000000000000E+00     5.9374999999994749E-01     0.0000000000000000E+00 
    1.0000000000000000E+00     6.0937499999997913E-01     0.0000000000000000E+00 
    1.0000000000000000E+00     6.2500000000000000E-01     0.0000000000000000E+00 
    1.0000000000000000E+00     6.4062499999998945E-01     0.0000000000000000E+00 
    1.0000000000000000E+00     6.5624999999996603E-01     0.0000000000000000E+00 
    1.0000000000000000E+00     6.7187499999995337E-01     0.0000000000000000E+00 
    1.0000000000000000E+00     6.8749999999998734E-01     0.0000000000000000E+00 
    1.0000000000000000E+00     7.0312499999998124E-01     0.0000000000000000E+00 
    1.0000000000000000E+00     7.1874999999997025E-01     0.0000000000000000E+00 
    1.0000000000000000E+00     7.3437499999999034E-01     0.0000000000000000E+00 
    1.0000000000000000E+00     7.5000000000000000E-01     0.0000000000000000E+00 
    1.0000000000000000E+00     7.6562499999996902E-01     0.0000000000000000E+00 
    1.0000000000000000E+00     7.8124999999993228E-01     0.0000000000000000E+00 
    1.0000000000000000E+00     7.9687499999989997E-01     0.0000000000000000E+00 
[...]
CELL_DATA 2084 
SCALARS Pressure double 1 
LOOKUP_TABLE default 

    2.6649314873347114E+00 
    2.6775018386477094E+00 
    2.8767705971130639E+00 
    2.6765477699489493E+00 
    2.7929659254242947E+00 
    2.7562898169656309E+00 
    2.6068645836319719E+00 
    2.7420776518622767E+00 
    2.7491142682970384E+00 
    2.7973605696569357E+00 
    2.8698124275961043E+00 
    2.6514296602480729E+00 
    2.7153275736644935E+00 
    2.6983605335110412E+00 
    2.6318496743846427E+00 
    2.6872184737775440E+00 
    2.8378763573466617E+00 
    2.7169258279040438E+00 
    2.8934057090311591E+00 
    2.6465299066121566E+00 
    2.6689295743513135E+00 
    2.7825137095308063E+00 
    2.6855333266911781E+00 
    2.7142692951350540E+00 
    2.6421045610153273E+00 
    2.7311740078616991E+00 
    2.6819595621933932E+00 
    2.6359551729264306E+00 
    2.7328097486698981E+00 
    2.6780250425296757E+00 
    2.5971056740033855E+00 
    2.7300834530805318E+00 
    2.6017999190711105E+00 
    2.6509910029854553E+00 
    2.6546289395727718E+00 
    2.7854014762653638E+00 
    2.7111488123874659E+00 
    2.7076555408549785E+00 
    2.7740171484057830E+00 
    2.7277615661378589E+00 
    2.6126700878998701E+00 
    2.8073715468479015E+00 
    2.6435601133152513E+00 
    2.7574355741151413E+00 
    2.7553671361135001E+00 
    2.6208133137464111E+00 
    2.8005507363207940E+00 
    2.6276051629005948E+00 
    2.6043818923264688E+00 
    2.7115298303096749E+00 
    2.7259777534955139E+00 
    2.6357713467602917E+00 
    2.6503847653175843E+00 
    2.7175977008578842E+00 
    2.7207638700607295E+00 
    2.6402887172646472E+00 
    2.6109477209744854E+00 
    2.7585211768149906E+00 
    2.7707004241227708E+00 
    2.7006659507185988E+00 
    2.7041089353281480E+00 
    2.6791778580042438E+00 
    2.6254338081485931E+00 
    2.6635701854276785E+00 
    2.8056714800102536E+00 
    2.6972826625442137E+00 
    2.7354100753494226E+00 
    2.6187434369204530E+00 
    2.6282635975142949E+00 
    2.6014866035973268E+00 
    2.6404310428946083E+00 
    2.9132364923284881E+00 
    2.7301619798625043E+00 
    2.8577578195479529E+00 
    2.7648216809899213E+00 
    2.8517588057772478E+00 
    2.7249572844817531E+00 
    2.7970796890959897E+00 
    2.6512526600303814E+00 
    2.8140385979726643E+00 
    2.6850487304827944E+00 
    2.7300706996361188E+00 
    2.7545893231061993E+00 
    2.6191344633913394E+00 
    2.7453705859755173E+00 
    2.6511976023153352E+00 
    2.7107881571706427E+00 
    2.7520524236707260E+00 
    2.7749372224530644E+00 
    2.7642484901898281E+00 
    2.7436320535623433E+00 
    2.7330849380210429E+00 
    2.6701164369774082E+00 
    2.7548021521105421E+00 
    2.6909071462954763E+00 
    2.6083152902374516E+00 
    2.7018137627218559E+00 
    2.7166795210495227E+00 
    2.7873487622878024E+00 
    2.6772259015526951E+00 
    2.8003212056457389E+00 
    2.7522650849530854E+00 
    2.7700676311514587E+00 
    2.7801045300570668E+00 
    2.6906984606806157E+00 
    2.7541879620585341E+00 
    2.7321789710531248E+00 
    2.7894103392517708E+00 
    2.6666806620748922E+00 
    2.9414030672137428E+00 
    2.6886090239299971E+00 
    2.7298116294086636E+00 
    2.7621915859229218E+00 
    2.8169789854312954E+00 
    2.8626953212847743E+00 
    2.6956054132521676E+00 
    2.7565945274567056E+00 
    2.7576628596085500E+00 
    2.6786164592858883E+00 
    2.6509808147829794E+00 
    2.7178359817496633E+00 
    2.7691621692124353E+00 
    2.6560958378744228E+00 
    2.8401703924993096E+00 
    2.7396816753553330E+00 
    2.7763183584522624E+00 
    2.7235442980400641E+00 
    2.6531311460621874E+00 
    2.6831194152498328E+00 
    2.6529795551976427E+00 
    2.8615927313749925E+00 
    2.8699856650126914E+00 
    2.6148096321194996E+00 
    2.8012492533011852E+00 
    2.7853669284535716E+00 
    2.7025253047789040E+00 
    2.7673765341407228E+00 
    2.6480260566594631E+00 
    2.7848330079475843E+00 
    2.8451075112199899E+00 
    2.7431858966826645E+00 
    2.8802803007564517E+00 
    2.8539016111142117E+00 
    2.7197636824757514E+00 
    2.6658680557783510E+00 
    2.7201846493879867E+00 
    2.7536403736403914E+00 
    2.7827260448818558E+00 
    2.6917100267512311E+00 
    2.7376026493785348E+00 
    2.7554268916023541E+00 
    2.8471664469785170E+00 
    2.9044226035289440E+00 
    2.6878025216617405E+00 
    2.6974188698467723E+00 
    2.8920512113866956E+00 
    2.6533153254927413E+00 
    2.7537836425786337E+00 
    2.6952794968712390E+00 
    2.8401329437061058E+00 
    3.0173770203602195E+00 
    2.9665293057427848E+00 
    2.9068287468953300E+00 
    2.9288545959583590E+00 
    2.8858097742965527E+00 
    2.9005031497173284E+00 
    2.7520326175056211E+00 
    2.9328745925405588E+00 
    2.7398847142312932E+00 
    2.8933169751927110E+00 
    2.7408114219975483E+00 
    2.8338198089397553E+00 
    2.8519017020103856E+00 
    2.7862833915418346E+00 
    2.8259181301419125E+00 
    2.7019284075142629E+00 
    2.8285775698022184E+00 
    2.7369293669448895E+00 
    2.7401523982809524E+00 
    2.7406389909150306E+00 
    2.7707565243746881E+00 
    2.6900801130285878E+00 
    2.8351039836923406E+00 
    2.7697758659876555E+00 
    2.7683329266794856E+00 
    2.5861104910503991E+00 
    2.7959836239400375E+00 
    2.8561519622159195E+00 
    2.6896399796063375E+00 
    2.8189153826654425E+00 
    2.8673887260923809E+00 
    2.8853233130523326E+00 
    2.7683303911338837E+00 
    2.7168194805226387E+00 
    2.6940997762436401E+00 
    2.6904929213259181E+00 
    2.8066118482680991E+00 
    2.7687236338559074E+00 
    2.7158756466459071E+00 
    2.8079910870099933E+00 
    2.7434932851526272E+00 
    2.6916984896890628E+00 
    2.7708676033666619E+00 
    2.6528202257680893E+00 
    2.6862771627430910E+00 
    2.8718538435981529E+00 
    2.8035028342989130E+00 
    2.7015421210581203E+00 
    2.8239044346429845E+00 
    2.8177041094998754E+00 
    2.6936478456893171E+00 
    2.7198068708884304E+00 
    2.7234246203770049E+00 
    2.7948951527825723E+00 
    2.7904809515989393E+00 
    2.8506845795661047E+00 
    2.7158788423720055E+00 
    2.7858446903644722E+00 
    2.8016458025082684E+00 
    2.6978415249623322E+00 
    2.7054152381473702E+00 
    2.5947180218884283E+00 
    2.7114070020933321E+00 
    2.8777234255407125E+00 
    2.7678935269043516E+00 
    2.7900758603199036E+00 
    2.7418497384624163E+00 
    2.7831013704470995E+00 
    2.7015410446839172E+00 
    2.6699502301358020E+00 
    2.6720481936547338E+00 
    2.7033215663991594E+00 
    2.6757169247952239E+00 
    2.7125529488650333E+00 
    2.7751957694063010E+00 
    2.6887053861794610E+00 
    2.8182006046967238E+00 
    2.8272249385560904E+00 
    2.7108238522643848E+00 
    2.6758791667568271E+00 
    2.7774853415627057E+00 
    2.6921876867377605E+00 
    2.6577360275764108E+00 
    2.6850324942665207E+00 
    2.6569191349068437E+00 
    2.6392922359092732E+00 
    2.7041109498217435E+00 
    2.7587228989231805E+00 
    2.8393993499301402E+00 
    2.6272005995663084E+00 
    2.7020279320416356E+00 
    2.6572568289646030E+00 
    2.6817037380481210E+00 
    2.9141612452013215E+00 
    2.6685370109882323E+00 
    2.7432244056035966E+00 
    2.6805966321721399E+00 
    2.7025039566551707E+00 
    2.6911896717581176E+00 
    2.7097815912281815E+00 
    2.6624124214852629E+00 
    2.7070877627942722E+00 
    2.6698967153417836E+00 
    2.7326861215085461E+00 
    2.6659410218588953E+00 
    2.6890578607492750E+00 
    2.6374549712608397E+00 
    2.6488504472770420E+00 
    2.8214233290208797E+00 
    2.6411329377004908E+00 
    2.6257615587556877E+00 
    2.6798755605595255E+00 
    2.6620672129140770E+00 
    2.9776986008720145E+00 
    2.6833902198208022E+00 
    2.7884917121071213E+00 
    2.6739857568604521E+00 
    2.6357083625094790E+00 
    2.6970224934525899E+00 
    2.6760416009288894E+00 
    2.7167211210830864E+00 
    2.6672094972522604E+00 
    2.6967832204441966E+00 
    2.6787221429840367E+00 
    2.6447001247165511E+00 
    2.6947145849299292E+00 
    2.6875276479163270E+00 
    2.6431783503646376E+00 
    2.6560739737377004E+00 
    2.6857585889114404E+00 
    2.6748416547633935E+00 
    2.6075109434378709E+00 
    2.6670555718904678E+00 
    2.6767839685857928E+00 
    2.7127468974141826E+00 
    2.6448615346622071E+00 
    2.6298526345487487E+00 
    2.8017536240875223E+00 
    2.6753709042078357E+00 
    2.7436378657978873E+00 
    2.9761477535087804E+00 
    2.8112482805509575E+00 
    2.7546501940808392E+00 
    2.8353694762302775E+00 
    2.6615863344836757E+00 
    2.6558904972274706E+00 
    2.6576851605140459E+00 
    2.6343735954895853E+00 
    2.6643406561086858E+00 
    2.6263865044641301E+00 
    2.8395379925454054E+00 
    2.6545739449793748E+00 
    2.7226188508096509E+00 
    2.8204016904993812E+00 
    2.7223158772610176E+00 
    2.6750574730098999E+00 
    2.7794304600900950E+00 
    2.6247189244479783E+00 
    2.6524257923085890E+00 
    2.6630180403725863E+00 
    2.9433002731742341E+00 
    2.7659888326068396E+00 
    2.8303837793278008E+00 
    2.8327063533451202E+00 
    2.7257061170209922E+00 
    2.8016892186342068E+00 
    2.6680700435839610E+00 
    2.5665299168484141E+00 
    3.1265069322529433E+00 
    2.5960686993018247E+00 
    2.6151590388165253E+00 
    2.6402705935215760E+00 
    2.7453385651697202E+00 
    2.8146012902989845E+00 
    2.5827591639508549E+00 
    2.8641273239664820E+00 
    2.8812181639787200E+00 
    2.7291326119333741E+00 
    2.6678877578914499E+00 
    2.8560896242657510E+00 
    2.7265709736713464E+00 
    2.6355808649157928E+00 
    2.8272346404902757E+00 
    2.6050502840446232E+00 
    2.6283006607221466E+00 
    2.7405588058505344E+00 
    2.6785754562024811E+00 
    2.5766968329190418E+00 
    2.6661655053754081E+00 
    2.6094452022323962E+00 
    2.8463518181822840E+00 
    2.5955998768926261E+00 
    2.6544278003346604E+00 
    2.8144847756585731E+00 
    2.6871197529602640E+00 
    2.7280161478284914E+00 
    2.6161246394311592E+00 
    2.7071166829720226E+00 
    2.7311639518697763E+00 
    2.6648210294325652E+00 
    2.7058286140393211E+00 
    2.8202777818145504E+00 
    2.5872222591772074E+00 
    2.7027683568395027E+00 
    2.6570734122060848E+00 
    2.6427465603523141E+00 
    2.7027411084629445E+00 
    2.6362940968682840E+00 
    2.7115073292606797E+00 
    2.8348494092003436E+00 
    2.8474948663552091E+00 
    2.6042588924869379E+00 
    2.9904294419590798E+00 
    2.7142113314099170E+00 
    2.6591138987235854E+00 
    2.8718227982226527E+00 
    2.7353130425070038E+00 
    2.7534073310335878E+00 
    2.6685910539414857E+00 
    2.6634691240734769E+00 
    2.7806339477791560E+00 
    2.7438598741894822E+00 
    2.5774125860371604E+00 
    2.6418547399420218E+00 
    2.8925132569530163E+00 
    2.7268312128885706E+00 
    2.8066649936497745E+00 
    2.7428375107174996E+00 
    2.8252417921373167E+00 
    2.7800994072067420E+00 
    2.5939007424362179E+00 
    2.6180433305516124E+00 
    2.6719087428724975E+00 
    2.8477117074574516E+00 
    2.8104883401802581E+00 
    2.6746118800189085E+00 
    2.6646589619445935E+00 
    2.6788904655623424E+00 
    2.6751353019987825E+00 
    2.7927550384047981E+00 
    2.6409683043759200E+00 
    2.7505126499429586E+00 
    2.9261221520915175E+00 
    2.6323444400522593E+00 
    2.8969881714051779E+00 
    2.6902178578885998E+00 
    2.9098172083862899E+00 
    2.8173812434651135E+00 
    3.0421559865694667E+00 
    2.6595468664269215E+00 
    2.8052740745769902E+00 
    2.7120457978698358E+00 
    2.6508954732162584E+00 
    2.8316351639178987E+00 
    2.7025968195132077E+00 
    2.8413699100139649E+00 
    2.6315754402004576E+00 
    2.8092823756402812E+00 
    2.6998394935229739E+00 
    2.7317110457277902E+00 
    2.5938294463692202E+00 
    2.6555760839005265E+00 
    2.6458259004898372E+00 
    2.8664510465717541E+00 
    2.6647462674436309E+00 
    2.9210941503696572E+00 
    2.8798118740740333E+00 
    2.6458376398804715E+00 
    2.7135248198132125E+00 
    2.6824416160285707E+00 
    2.6142559416395708E+00 
    2.7064305513975824E+00 
    2.8230878733963256E+00 
    2.6753299854198040E+00 
    2.6271382716681133E+00 
    2.9460217911018387E+00 
    2.7929888209877389E+00 
    2.5663645708705256E+00 
    2.5831001589765483E+00 
    2.6159859273991226E+00 
    2.6237648323564571E+00 
    2.6242057086161870E+00 
    2.5873483057284687E+00 
    2.6665942508115572E+00 
    2.6558003055207680E+00 
    2.5571615117487552E+00 
    2.5729678430824361E+00 
    2.5210776939133623E+00 
    2.4182766402511771E+00 
    2.4054942650079272E+00 
    2.4455877575870799E+00 
    2.4447505562386422E+00 
    2.4628853961914117E+00 
    2.5409570398032568E+00 
    2.3846357660943385E+00 
    2.5241617700833214E+00 
    2.3915817639804273E+00 
    2.4831474642107585E+00 
    2.4344520719073159E+00 
    2.4507865205550972E+00 
    2.4294903962503556E+00 
    2.3946096368982945E+00 
    2.5842449417827722E+00 
    2.5410049877051950E+00 
    2.5671486543274256E+00 
    2.5187658177320258E+00 
    2.4714468523085129E+00 
    2.4071446846297437E+00 
    2.3755381827292030E+00 
    2.5851696845856762E+00 
    2.4879363835875381E+00 
    2.3731332802476062E+00 
    2.4524128219130548E+00 
    2.5621253645483328E+00 
    2.5473485184771079E+00 
    2.3524791387163559E+00 
    2.3825551044653439E+00 
    2.4900388266296010E+00 
    2.5608329136807457E+00 
    2.5305894170597525E+00 
    2.4716601380689731E+00 
    2.4146653838144481E+00 
    2.5948277083944622E+00 
    2.5782709824205270E+00 
    2.5622483978973092E+00 
    2.6303550415018049E+00 
    2.4136328656325290E+00 
    2.4471829461541037E+00 
    2.4380663044573940E+00 
    2.5762956550084692E+00 
    2.4468958923741182E+00 
    2.5544973641571334E+00 
    2.5094370683439942E+00 
    2.4965020785367056E+00 
    2.4865201416618898E+00 
    2.4889462835901668E+00 
    2.5647069506611486E+00 
    2.5731947157149380E+00 
    2.4995668759907481E+00 
    2.4028184273708035E+00 
    2.4764402004270250E+00 
    2.4699203980175666E+00 
    2.3827134754042563E+00 
    2.5457209829223997E+00 
    2.3876892768546139E+00 
    2.5655854220619605E+00 
    2.3985545115879296E+00 
    2.5110623648312460E+00 
    2.4332896076052331E+00 
    2.3498919949372761E+00 
    2.3572653233419172E+00 
    2.3633616410962732E+00 
    2.3714092926085359E+00 
    2.4737449332882830E+00 
    2.3724929556522962E+00 
    2.4088682749123684E+00 
    2.4184777826285724E+00 
    2.6086538594890518E+00 
    2.4935280564465501E+00 
    2.3914045452158144E+00 
    2.5663692992197698E+00 
    2.4479785800489369E+00 
    2.4436412566708610E+00 
    2.5371874605477003E+00 
    2.6016967279051602E+00 
    2.5191250955814053E+00 
    2.5222763636940289E+00 
    2.4983869433307628E+00 
    2.5087651080574593E+00 
    2.5478646189929188E+00 
    2.5479382589868282E+00 
    2.5530491916081410E+00 
    2.5566818453520659E+00 
    2.4984185354552104E+00 
    2.5728183401879918E+00 
    2.5558539830702784E+00 
    2.5147744042343412E+00 
    2.5266585331540634E+00 
    2.5930742682242158E+00 
    2.5480306058726216E+00 
    2.5657578843402913E+00 
    2.5989401653728601E+00 
    2.4579780957845170E+00 
    2.4266119329842764E+00 
    2.5152593061669664E+00 
    2.5817258706120709E+00 
    2.6038788596970135E+00 
    2.5671440315626737E+00 
    2.3607609695956246E+00 
    2.4281131623298084E+00 
    2.5199989332718435E+00 
    2.4765778755071839E+00 
    2.4184323547824169E+00 
    2.5603753846922195E+00 
    2.5232757313320557E+00 
    2.3945137088388626E+00 
    2.5468701926171686E+00 
    2.4169205272831951E+00 
    2.4365688781129862E+00 
    2.4283101759570855E+00 
    2.5273648490571188E+00 
    2.5728185998718280E+00 
    2.5986628448822890E+00 
    2.5541745567259988E+00 
    2.5835839588750971E+00 
    2.4092456330501060E+00 
    2.4017977465875804E+00 
    2.5821931486491141E+00 
    2.5510819240216742E+00 
    2.3587001611456211E+00 
    2.3513838192604681E+00 
    2.6146229501960354E+00 
    2.4979144892176990E+00 
    2.5479816971766263E+00 
    2.5128298585256328E+00 
    2.4596043408596602E+00 
    2.5155447080876403E+00 
    2.5316394367612411E+00 
    2.5079053773813942E+00 
    2.4868522619846658E+00 
    2.4863375491300226E+00 
    2.3763108081412652E+00 
    2.5809914599811150E+00 
    2.6201308993682142E+00 
    2.3785430113801538E+00 
    2.3783982384260178E+00 
    2.3749948765076581E+00 
    2.3743418488054595E+00 
    2.3649704478372566E+00 
    2.5481796177056046E+00 
    2.4693348128021988E+00 
    2.3684286787345727E+00 
    2.5280628944687344E+00 
    2.5300301948434627E+00 
    2.4665657786262156E+00 
    2.4807590063803144E+00 
    2.4641905870994423E+00 
    2.5020287971421942E+00 
    2.5756053284234768E+00 
    2.3780282384982732E+00 
    2.3774232834039548E+00 
    2.4115273725563138E+00 
    2.4828521043103642E+00 
    2.5672068518770943E+00 
    2.4095283257289801E+00 
    2.5794754681276357E+00 
    2.3583598046201311E+00 
    2.4640454487087213E+00 
    2.3553163937218971E+00 
    2.3478269930479083E+00 
    2.3698314846992132E+00 
    2.5813824687518649E+00 
    2.5241268231924296E+00 
    2.4679304669912323E+00 
    2.4980323960314523E+00 
    2.5291708629890031E+00 
    2.3551388535248741E+00 
    2.4608208038104662E+00 
    2.5100932237858324E+00 
    2.5862429741134330E+00 
    2.5846090605079133E+00 
    2.5813689964734832E+00 
    2.5838005414137237E+00 
    2.6050537601978809E+00 
    2.5034796780308066E+00 
    2.4164866714057691E+00 
    2.5288242280520454E+00 
    2.5282698472012703E+00 
    2.4668149076599395E+00 
    2.3575070364678710E+00 
    2.5266160601599288E+00 
    2.5468851475103280E+00 
    2.5610669921166083E+00 
    2.5434156701238733E+00 
    2.3529832317583259E+00 
    2.5388093447863467E+00 
    2.5334829432872241E+00 
    2.3648502254890040E+00 
    2.4165381237902896E+00 
    2.5234910405380653E+00 
    2.5446643766031811E+00 
    2.5376047008056424E+00 
    2.5370673653325189E+00 
    2.5367026252205522E+00 
    2.5961390993930773E+00 
    2.5306738380278166E+00 
    2.5532509877997898E+00 
    2.5026919049776581E+00 
    2.5237296441319890E+00 
    2.3713331428955331E+00 
    2.5963057053150496E+00 
    2.5880636646121045E+00 
    2.5983684990225271E+00 
    2.4615296902224761E+00 
    2.4316489658674385E+00 
    2.4326324034435354E+00 
    2.5450627930277787E+00 
    2.5259350290637901E+00 
    2.5486950363716940E+00 
    2.4531284111098417E+00 
    2.3749878659409891E+00 
    2.3991567820197894E+00 
    2.5815029458789707E+00 
    2.3955081513216383E+00 
    2.4905956110036165E+00 
    2.4424487367384393E+00 
    2.5616216891694736E+00 
    2.5109027401056685E+00 
    2.5016619477802813E+00 
    2.5892028903419670E+00 
    2.5812590880998436E+00 
    2.4685856339091505E+00 
    2.4518355853616320E+00 
    2.4249456401175560E+00 
    2.4783553282938549E+00 
    2.5641638918480849E+00 
    2.3613070058619612E+00 
    2.5732112131174207E+00 
    2.5887206367238429E+00 
    2.4653032326526083E+00 
    2.4565209649565518E+00 
    2.3831466948019635E+00 
    2.3663525286970750E+00 
    2.6059353642556200E+00 
    2.4553595193416822E+00 
    2.5276342657670954E+00 
    2.4806597979343765E+00 
    2.5369702566008656E+00 
    2.3928953671398250E+00 
    2.4963081066731361E+00 
    2.6045788512436707E+00 
    2.4382736713529618E+00 
    2.4858349631267167E+00 
    2.4135765953068438E+00 
    2.4813761214642698E+00 
    2.6144373536340400E+00 
    2.4429992939938594E+00 
    2.5218226390218637E+00 
    2.4391326100998452E+00 
    2.3695714351088717E+00 
    2.5498292087288155E+00 
    2.5360897037326144E+00 
    2.5305322034591389E+00 
    2.4364396674064626E+00 
    2.4438021593487504E+00 
    2.3786248630815208E+00 
    2.5131208548990021E+00 
    2.5501097711460918E+00 
    2.4933710215870066E+00 
    2.4062043746484889E+00 
    2.4252814727228080E+00 