# vtk DataFile Version 2.0
Pressure Field Data 
ASCII 
DATASET UNSTRUCTURED_GRID 

POINTS 2213 double 

    0.0000000000000000E+00     0.0000000000000000E+00     0.0000000000000000E+00 
    5.0000000000000000E-01     0.0000000000000000E+00     0.0000000000000000E+00 
    1.0000000000000000E+00     0.0000000000000000E+00     0.0000000000000000E+00 
    1.0000000000000000E+00     5.0000000000000000E-01     0.0000000000000000E+00 
    1.0000000000000000E+00     1.0000000000000000E+00     0.0000000000000000E+00 
    5.0000000000000000E-01     1.0000000000000000E+00     0.0000000000000000E+00 
    0.0000000000000000E+00     1.0000000000000000E+00     0.0000000000000000E+00 
    0.0000000000000000E+00     5.0000000000000000E-01     0.0000000000000000E+00 
    1.5624999999971041E-02     0.0000000000000000E+00     0.0000000000000000E+00 
    3.1249999999936742E-02     0.0000000000000000E+00     0.0000000000000000E+00 
    4.6874999999913257E-02     0.0000000000000000E+00     0.0000000000000000E+00 
    6.2499999999889783E-02     0.0000000000000000E+00     0.0000000000000000E+00 
    7.8124999999844805E-02     0.0000000000000000E+00     0.0000000000000000E+00 
    9.3749999999799827E-02     0.0000000000000000E+00     0.0000000000000000E+00 
    1.0937499999975490E-01     0.0000000000000000E+00     0.0000000000000000E+00 
    1.2499999999970990E-01     0.0000000000000000E+00     0.0000000000000000E+00 
    1.4062499999966460E-01     0.0000000000000000E+00     0.0000000000000000E+00 
    1.5624999999961930E-01     0.0000000000000000E+00     0.0000000000000000E+00 
    1.7187499999957390E-01     0.0000000000000000E+00     0.0000000000000000E+00 
    1.8749999999952860E-01     0.0000000000000000E+00     0.0000000000000000E+00 
    2.0312499999948330E-01     0.0000000000000000E+00     0.0000000000000000E+00 
    2.1874999999943801E-01     0.0000000000000000E+00     0.0000000000000000E+00 
    2.3437499999939271E-01     0.0000000000000000E+00     0.0000000000000000E+00 
    2.4999999999934730E-01     0.0000000000000000E+00     0.0000000000000000E+00 
    2.6562499999938810E-01     0.0000000000000000E+00     0.0000000000000000E+00 
    2.8124999999942890E-01     0.0000000000000000E+00     0.0000000000000000E+00 
    2.9687499999946970E-01     0.0000000000000000E+00     0.0000000000000000E+00 
    3.1249999999951050E-01     0.0000000000000000E+00     0.0000000000000000E+00 
    3.2812499999955130E-01     0.0000000000000000E+00     0.0000000000000000E+00 
    3.4374999999959210E-01     0.0000000000000000E+00     0.0000000000000000E+00 
    3.5937499999963290E-01     0.0000000000000000E+00     0.0000000000000000E+00 
    3.7499999999967371E-01     0.0000000000000000E+00     0.0000000000000000E+00 
    3.9062499999971451E-01     0.0000000000000000E+00     0.0000000000000000E+00 
    4.0624999999975520E-01     0.0000000000000000E+00     0.0000000000000000E+00 
    4.2187499999979600E-01     0.0000000000000000E+00     0.0000000000000000E+00 
    4.3749999999983680E-01     0.0000000000000000E+00     0.0000000000000000E+00 
    4.5312499999987760E-01     0.0000000000000000E+00     0.0000000000000000E+00 
    4.6874999999991840E-01     0.0000000000000000E+00     0.0000000000000000E+00 
    4.8437499999995920E-01     0.0000000000000000E+00     0.0000000000000000E+00 
    5.1562499999992384E-01     0.0000000000000000E+00     0.0000000000000000E+00 
    5.3124999999985478E-01     0.0000000000000000E+00     0.0000000000000000E+00 
    5.4687499999994527E-01     0.0000000000000000E+00     0.0000000000000000E+00 
    5.6249999999998668E-01     0.0000000000000000E+00     0.0000000000000000E+00 
    5.7812499999998068E-01     0.0000000000000000E+00     0.0000000000000000E+00 
    5.9374999999994749E-01     0.0000000000000000E+00     0.0000000000000000E+00 
    6.0937499999997913E-01     0.0000000000000000E+00     0.0000000000000000E+00 
    6.2500000000000000E-01     0.0000000000000000E+00     0.0000000000000000E+00 
    6.4062499999998945E-01     0.0000000000000000E+00     0.0000000000000000E+00 
    6.5624999999996603E-01     0.0000000000000000E+00     0.0000000000000000E+00 
    6.7187499999995337E-01     0.0000000000000000E+00     0.0000000000000000E+00 
    6.8749999999998734E-01     0.0000000000000000E+00     0.0000000000000000E+00 
    7.0312499999998124E-01     0.0000000000000000E+00     0.0000000000000000E+00 
    7.1874999999997025E-01     0.0000000000000000E+00     0.0000000000000000E+00 
    7.3437499999999034E-01     0.0000000000000000E+00     0.0000000000000000E+00 
    7.5000000000000000E-01     0.0000000000000000E+00     0.0000000000000000E+00 
    7.6562499999996902E-01     0.0000000000000000E+00     0.0000000000000000E+00 
    7.8124999999993228E-01     0.0000000000000000E+00     0.0000000000000000E+00 
    7.9687499999989997E-01     0.0000000000000000E+00     0.0000000000000000E+00 
    8.1249999999996247E-01     0.0000000000000000E+00     0.0000000000000000E+00 
    8.2812499999999578E-01     0.0000000000000000E+00     0.0000000000000000E+00 
    8.4374999999999556E-01     0.0000000000000000E+00     0.0000000000000000E+00 
    8.5937500000000111E-01     0.0000000000000000E+00     0.0000000000000000E+00 
    8.7499999999997691E-01     0.0000000000000000E+00     0.0000000000000000E+00 
    8.9062500000000921E-01     0.0000000000000000E+00     0.0000000000000000E+00 
    9.0625000000004452E-01     0.0000000000000000E+00     0.0000000000000000E+00 
    9.2187500000005529E-01     0.0000000000000000E+00     0.0000000000000000E+00 
    9.3750000000012723E-01     0.0000000000000000E+00     0.0000000000000000E+00 
    9.5312500000011835E-01     0.0000000000000000E+00     0.0000000000000000E+00 
    9.6875000000005151E-01     0.0000000000000000E+00     0.0000000000000000E+00 
    9.8437500000003086E-01     0.0000000000000000E+00     0.0000000000000000E+00 
    1.0000000000000000E+00     1.5624999999971041E-02     0.0000000000000000E+00 
    1.0000000000000000E+00     3.1249999999936742E-02     0.0000000000000000E+00 
    1.0000000000000000E+00     4.6874999999913257E-02     0.0000000000000000E+00 
    1.0000000000000000E+00     6.2499999999889783E-02     0.0000000000000000E+00 
    1.0000000000000000E+00     7.8124999999844805E-02     0.0000000000000000E+00 
    1.0000000000000000E+00     9.3749999999799827E-02     0.0000000000000000E+00 
    1.0000000000000000E+00     1.0937499999975490E-01     0.0000000000000000E+00 
    1.0000000000000000E+00     1.2499999999970990E-01     0.0000000000000000E+00 
    1.0000000000000000E+00     1.4062499999966460E-01     0.0000000000000000E+00 
    1.0000000000000000E+00     1.5624999999961930E-01     0.0000000000000000E+00 
    1.0000000000000000E+00     1.7187499999957390E-01     0.0000000000000000E+00 
    1.0000000000000000E+00     1.8749999999952860E-01     0.0000000000000000E+00 
    1.0000000000000000E+00     2.0312499999948330E-01     0.0000000000000000E+00 
    1.0000000000000000E+00     2.1874999999943801E-01     0.0000000000000000E+00 
    1.0000000000000000E+00     2.3437499999939271E-01     0.0000000000000000E+00 
    1.0000000000000000E+00     2.4999999999934730E-01     0.0000000000000000E+00 
    1.0000000000000000E+00     2.6562499999938810E-01     0.0000000000000000E+00 
    1.0000000000000000E+00     2.8124999999942890E-01     0.0000000000000000E+00 
    1.0000000000000000E+00     2.9687499999946970E-01     0.0000000000000000E+00 
    1.0000000000000000E+00     3.1249999999951050E-01     0.0000000000000000E+00 
    1.0000000000000000E+00     3.2812499999955130E-01     0.0000000000000000E+00 
    1.0000000000000000E+00     3.4374999999959210E-01     0.0000000000000000E+00 
    1.0000000000000000E+00     3.5937499999963290E-01     0.0000000000000000E+00 
    1.0000000000000000E+00     3.7499999999967371E-01     0.0000000000000000E+00 
    1.0000000000000000E+00     3.9062499999971451E-01     0.0000000000000000E+00 
    1.0000000000000000E+00     4.0624999999975520E-01     0.0000000000000000E+00 
    1.0000000000000000E+00     4.2187499999979600E-01     0.0000000000000000E+00 
    1.0000000000000000E+00     4.3749999999983680E-01     0.0000000000000000E+00 
    1.0000000000000000E+00     4.5312499999987760E-01     0.0000000000000000E+00 
    1.0000000000000000E+00     4.6874999999991840E-01     0.0000000000000000E+00 
    1.0000000000000000E+00     4.8437499999995920E-01     0.0000000000000000E+00 
    1.0000000000000000E+00     5.1562499999992384E-01     0.0000000000000000E+00 
    1.0000000000000000E+00     5.3124999999985478E-01     0.0000000000000000E+00 
    1.0000000000000000E+00     5.4687499999994527E-01     0.0000000000000000E+00 
    1.0000000000000000E+00     5.6249999999998668E-01     0.0000000000000000E+00 
    1.0000000000000000E+00     5.7812499999998068E-01     0.0000000000000000E+00 
    1.0000000000000000E+00     5.9374999999994749E-01     0.0000000000000000E+00 
    1.0000000000000000E+00     6.0937499999997913E-01     0.0000000000000000E+00 
    1.0000000000000000E+00     6.2500000000000000E-01     0.0000000000000000E+00 
    1.0000000000000000E+00     6.4062499999998945E-01     0.0000000000000000E+00 
    1.0000000000000000E+00     6.5624999999996603E-01     0.0000000000000000E+00 
    1.0000000000000000E+00     6.7187499999995337E-01     0.0000000000000000E+00 
    1.0000000000000000E+00     6.8749999999998734E-01     0.0000000000000000E+00 
    1.0000000000000000E+00     7.0312499999998124E-01     0.0000000000000000E+00 
    1.0000000000000000E+00     7.1874999999997025E-01     0.0000000000000000E+00 
    1.0000000000000000E+00     7.3437499999999034E-01     0.0000000000000000E+00 
    1.0000000000000000E+00     7.5000000000000000E-01     0.0000000000000000E+00 
    1.0000000000000000E+00     7.6562499999996902E-01     0.0000000000000000E+00 
    1.0000000000000000E+00     7.8124999999993228E-01     0.0000000000000000E+00 
    1.0000000000000000E+00     7.9687499999989997E-01     0.0000000000000000E+00 
[...]
CELL_DATA 2084 
SCALARS Pressure double 1 
LOOKUP_TABLE default 

    2.5413139517565222E+00 
    2.5483425309532346E+00 
    2.7219065212839313E+00 
    2.5470320809707450E+00 
    2.6452924356837975E+00 
    2.6138561796575206E+00 
    2.4935151687646591E+00 
    2.6017795711110741E+00 
    2.6072359741493125E+00 
    2.6491291627862674E+00 
    2.7151988978884241E+00 
    2.5311931215584842E+00 
    2.5780785600942249E+00 
    2.5680330477669266E+00 
    2.5104293546444962E+00 
    2.5593474493494273E+00 
    2.6860571145278951E+00 
    2.5820647615304946E+00 
    2.7375705346703585E+00 
    2.5221636435767492E+00 
    2.5435801971825200E+00 
    2.6367623769754336E+00 
    2.5580910127964236E+00 
    2.5779923066402377E+00 
    2.5185905665564325E+00 
    2.5932625503535487E+00 
    2.5539757405910017E+00 
    2.5188781337788528E+00 
    2.5936429987120286E+00 
    2.5470838578659873E+00 
    2.4860380009235832E+00 
    2.5913306256875988E+00 
    2.4923577808966546E+00 
    2.5259199881106942E+00 
    2.5335512061127363E+00 
    2.6388330821104220E+00 
    2.5775280809890062E+00 
    2.5749739987447917E+00 
    2.6285050646604744E+00 
    2.5894593462155746E+00 
    2.4968363971099827E+00 
    2.6588356684775354E+00 
    2.5202509698733526E+00 
    2.6149616330505281E+00 
    2.6130821348260338E+00 
    2.5022048727462272E+00 
    2.6519727409581217E+00 
    2.5124893674065150E+00 
    2.4910045469513409E+00 
    2.5750246592325259E+00 
    2.5882716271779254E+00 
    2.5189002804902918E+00 
    2.5306071042514295E+00 
    2.5821706683143262E+00 
    2.5851661858593888E+00 
    2.5225095840425569E+00 
    2.4993654404332868E+00 
    2.6146153299720156E+00 
    2.6262900614249931E+00 
    2.5653857895864243E+00 
    2.5690098001316977E+00 
    2.5532029273128902E+00 
    2.5061872727373471E+00 
    2.5351722118142939E+00 
    2.6570133566018121E+00 
    2.5625686500120279E+00 
    2.5956320491317388E+00 
    2.5008094362153312E+00 
    2.5128845748334334E+00 
    2.4884153240224025E+00 
    2.5175909841365627E+00 
    2.7564813184622752E+00 
    2.5919999665431961E+00 
    2.7041661215312951E+00 
    2.6204779804528235E+00 
    2.6984980119283377E+00 
    2.5878926318853055E+00 
    2.6496193085383664E+00 
    2.5311365410313638E+00 
    2.6644676704580887E+00 
    2.5576390096459907E+00 
    2.5913361016097149E+00 
    2.6119047053364830E+00 
    2.5057114279288606E+00 
    2.6031681500314257E+00 
    2.5254914185236177E+00 
    2.5768271142368269E+00 
    2.6093980393774090E+00 
    2.6297201169000486E+00 
    2.6200721547605381E+00 
    2.6021017776020035E+00 
    2.5935331222783122E+00 
    2.5435740090975898E+00 
    2.6121885310942550E+00 
    2.5578345271157246E+00 
    2.4931271556781289E+00 
    2.5703736131019483E+00 
    2.5790865639656695E+00 
    2.6406849075182497E+00 
    2.5464172578166311E+00 
    2.6523607071953581E+00 
    2.6091554235607686E+00 
    2.6252318003203925E+00 
    2.6346968485266671E+00 
    2.5576105331500991E+00 
    2.6110651181113762E+00 
    2.5927432268474009E+00 
    2.6428170416877506E+00 
    2.5433759474622515E+00 
    2.7838552662939104E+00 
    2.5601094614539819E+00 
    2.5913055695126381E+00 
    2.6185262157592835E+00 
    2.6669949620019784E+00 
    2.7085660464164012E+00 
    2.5656484516961382E+00 
    2.6127571658133566E+00 
    2.6142192056667919E+00 
    2.5472181151563600E+00 
    2.5275022514282117E+00 
    2.5821020468821763E+00 
    2.6241377766516050E+00 
    2.5325051883325185E+00 
    2.6879576563197776E+00 
    2.5999809498106869E+00 
    2.6307537149081819E+00 
    2.5870528474749168E+00 
    2.5293612726028400E+00 
    2.5508117770392498E+00 
    2.5268162331014317E+00 
    2.7080310871082953E+00 
    2.7156648672915433E+00 
    2.4977724572552380E+00 
    2.6531215642489134E+00 
    2.6391645384768734E+00 
    2.5675220431514316E+00 
    2.6236529466348246E+00 
    2.5245884531262539E+00 
    2.6387683347947353E+00 
    2.6923301056639324E+00 
    2.6013107219249330E+00 
    2.7252057955320881E+00 
    2.7006505977670185E+00 
    2.5815527550215673E+00 
    2.5371529896315028E+00 
    2.5825574366274129E+00 
    2.6114043507384528E+00 
    2.6363351136847477E+00 
    2.5585880473693785E+00 
    2.5970731134031273E+00 
    2.6124922792248575E+00 
    2.6946050958615753E+00 
    2.7480480377666585E+00 
    2.5546206034573209E+00 
    2.5624805576278740E+00 
    2.7361872532198581E+00 
    2.5275469382573807E+00 
    2.6118986909569593E+00 
    2.5612735244012277E+00 
    2.6877541728833672E+00 
    2.8586202028168888E+00 
    2.8083353918323626E+00 
    2.7501004750046301E+00 
    2.7715744121507555E+00 
    2.7300420169203652E+00 
    2.7443263355487222E+00 
    2.6098632774667441E+00 
    2.7752714089940627E+00 
    2.5989214119661121E+00 
    2.7374324962597547E+00 
    2.5996220065040689E+00 
    2.6823141758648887E+00 
    2.6985591309889077E+00 
    2.6396511556072122E+00 
    2.6749350161537908E+00 
    2.5701133545956032E+00 
    2.6772760568356504E+00 
    2.5967576387194669E+00 
    2.5990928989877013E+00 
    2.5992862190758466E+00 
    2.6256087881175278E+00 
    2.5598512027910920E+00 
    2.6832347544874615E+00 
    2.6253662446001904E+00 
    2.6243106474614968E+00 
    2.4777186707753933E+00 
    2.6482065489945055E+00 
    2.7024995053966259E+00 
    2.5578302499433287E+00 
    2.6691823120202907E+00 
    2.7130140175559716E+00 
    2.7297793594483175E+00 
    2.6240405572056380E+00 
    2.5808866028293846E+00 
    2.5645031731440846E+00 
    2.5580600299949467E+00 
    2.6580011997999193E+00 
    2.6245666297099972E+00 
    2.5804120626161309E+00 
    2.6591061089018160E+00 
    2.6027269880124417E+00 
    2.5590635202249952E+00 
    2.6265993837456083E+00 
    2.5322632907649569E+00 
    2.5536563541270074E+00 
    2.7175763441070151E+00 
    2.6551789018210381E+00 
    2.5695617472061341E+00 
    2.6730540146141211E+00 
    2.6676313933142723E+00 
    2.5598748057411140E+00 
    2.5823535554483454E+00 
    2.5846153656838480E+00 
    2.6476860678418994E+00 
    2.6436196790200315E+00 
    2.6975053867131078E+00 
    2.5791277838053408E+00 
    2.6393768526808001E+00 
    2.6533201498826164E+00 
    2.5631688246979802E+00 
    2.5691368183972112E+00 
    2.4868886418503378E+00 
    2.5759202266942780E+00 
    2.7226301279738592E+00 
    2.6237453854921675E+00 
    2.6432574950483647E+00 
    2.6014125356414546E+00 
    2.6364146970001627E+00 
    2.5686342965465827E+00 
    2.5403428283613341E+00 
    2.5474442616309543E+00 
    2.5706991517262336E+00 
    2.5500450612031891E+00 
    2.5754943139075581E+00 
    2.6302699296828331E+00 
    2.5598733991430094E+00 
    2.6680096366064809E+00 
    2.6765366891369591E+00 
    2.5745843414469043E+00 
    2.5463807325942724E+00 
    2.6321742639240835E+00 
    2.5583269151554999E+00 
    2.5356852902644094E+00 
    2.5526774285438907E+00 
    2.5340699755678497E+00 
    2.5165578931968002E+00 
    2.5694720602270578E+00 
    2.6159879533204524E+00 
    2.6876663565133816E+00 
    2.5079188278959905E+00 
    2.5693301048617330E+00 
    2.5303753087005845E+00 
    2.5497694371269199E+00 
    2.7572554781463747E+00 
    2.5438413350084113E+00 
    2.6032059844150015E+00 
    2.5531926981675137E+00 
    2.5675588062884578E+00 
    2.5613510799547718E+00 
    2.5730964522888673E+00 
    2.5358680610916466E+00 
    2.5711045584055845E+00 
    2.5405292139253817E+00 
    2.5947056697517392E+00 
    2.5377447500124837E+00 
    2.5598488931485752E+00 
    2.5148741471015290E+00 
    2.5236452879044902E+00 
    2.6713991004377831E+00 
    2.5227661291334633E+00 
    2.5059777926798295E+00 
    2.5490237985465449E+00 
    2.5344771161780804E+00 
    2.8193099154635064E+00 
    2.5518760812220855E+00 
    2.6411942383852560E+00 
    2.5440947573546526E+00 
    2.5187343851722055E+00 
    2.5628666178326238E+00 
    2.5497745823235411E+00 
    2.5797722366591378E+00 
    2.5389629513005936E+00 
    2.5666412377922900E+00 
    2.5475866711472608E+00 
    2.5216452304784522E+00 
    2.5628112628927822E+00 
    2.5581853405000960E+00 
    2.5246840603423681E+00 
    2.5301377583544191E+00 
    2.5580706692993420E+00 
    2.5444743604885911E+00 
    2.4934669301191819E+00 
    2.5401820437525782E+00 
    2.5464820052664141E+00 
    2.5758822852098375E+00 
    2.5214998388240613E+00 
    2.5091785204488342E+00 
    2.6532090995658244E+00 
    2.5499844672948933E+00 
    2.6029614602068247E+00 
    2.8176456017452884E+00 
    2.6615716437829176E+00 
    2.6126919082552265E+00 
    2.6840538751999681E+00 
    2.5338919721507285E+00 
    2.5299473354451534E+00 
    2.5360922972861450E+00 
    2.5136128218119911E+00 
    2.5412690670602638E+00 
    2.5065936890459546E+00 
    2.6875143367908434E+00 
    2.5327856363237782E+00 
    2.5866514973085710E+00 
    2.6701973876682135E+00 
    2.5849271694607783E+00 
    2.5498865432723554E+00 
    2.6329715928513271E+00 
    2.5064357108952220E+00 
    2.5318191975870086E+00 
    2.5401439776663697E+00 
    2.7854958200979665E+00 
    2.6222519922472052E+00 
    2.6791305133101924E+00 
    2.6814242115392206E+00 
    2.5873019107263486E+00 
    2.6531275186847538E+00 
    2.5430162888027144E+00 
    2.4633874070852335E+00 
    2.9669782392519273E+00 
    2.4854576988287276E+00 
    2.4994100279780493E+00 
    2.5222623788097049E+00 
    2.6045132667856614E+00 
    2.6645602688943892E+00 
    2.4777754410652983E+00 
    2.7102188006085890E+00 
    2.7261818043157291E+00 
    2.5901903522352949E+00 
    2.5395754581326773E+00 
    2.7025699272751704E+00 
    2.5874932731277354E+00 
    2.5135144144243360E+00 
    2.6764684879151628E+00 
    2.4919340791519597E+00 
    2.5128893408764510E+00 
    2.6003144524583415E+00 
    2.5481409758606897E+00 
    2.4707299324710488E+00 
    2.5376105690615494E+00 
    2.4982686037005180E+00 
    2.6935887638593612E+00 
    2.4850150767811967E+00 
    2.5283364311432166E+00 
    2.6647695352420011E+00 
    2.5563152235961528E+00 
    2.5889439564954788E+00 
    2.5034262739198616E+00 
    2.5720549914978692E+00 
    2.5933144050303842E+00 
    2.5413929023531918E+00 
    2.5735366987177359E+00 
    2.6699001326696101E+00 
    2.4788544720717924E+00 
    2.5710428297110663E+00 
    2.5334362381305984E+00 
    2.5190579467085183E+00 
    2.5687155144530203E+00 
    2.5145808886802463E+00 
    2.5779093908629611E+00 
    2.6830295921745622E+00 
    2.6950264691647665E+00 
    2.4943238044002527E+00 
    2.8317249817356061E+00 
    2.5785722093614942E+00 
    2.5322569686167591E+00 
    2.7171507249790792E+00 
    2.5955381532242359E+00 
    2.6113458590625296E+00 
    2.5440815664080243E+00 
    2.5406771047555252E+00 
    2.6349287325035258E+00 
    2.6037630710102100E+00 
    2.4714548906113567E+00 
    2.5184872177289792E+00 
    2.7367529325666031E+00 
    2.5886944529438365E+00 
    2.6574401490677704E+00 
    2.6022488098798071E+00 
    2.6746553033556806E+00 
    2.6343727675269721E+00 
    2.4863546154873579E+00 
    2.5012488112347486E+00 
    2.5429334669142465E+00 
    2.6949376901119821E+00 
    2.6615157292859122E+00 
    2.5461069721825864E+00 
    2.5414745562497405E+00 
    2.5508975706047656E+00 
    2.5492319841411590E+00 
    2.6455946169667275E+00 
    2.5184822341935038E+00 
    2.6085126247430921E+00 
    2.7688770524600654E+00 
    2.5119110264362625E+00 
    2.7409049936744054E+00 
    2.5575937747274478E+00 
    2.7531371837839500E+00 
    2.6675909573113774E+00 
    2.8830086369663710E+00 
    2.5332722415047231E+00 
    2.6566680265345148E+00 
    2.5755591551845498E+00 
    2.5300699700275340E+00 
    2.6802296728373176E+00 
    2.5678544031577886E+00 
    2.6891843591086566E+00 
    2.5107599462103938E+00 
    2.6603545446603380E+00 
    2.5665353821125270E+00 
    2.5924958739036255E+00 
    2.4830671642901931E+00 
    2.5331728353900909E+00 
    2.5261820779719550E+00 
    2.7120918315701066E+00 
    2.5378280869754208E+00 
    2.7639680961224729E+00 
    2.7246860727034421E+00 
    2.5216125080007354E+00 
    2.5795065257057459E+00 
    2.5528916632354433E+00 
    2.5020262558243322E+00 
    2.5721664532221400E+00 
    2.6727417305278962E+00 
    2.5498603935534376E+00 
    2.5119892565550366E+00 
    2.7881137128956350E+00 
    2.6457630678197654E+00 
    2.4630252735528524E+00 
    2.4780101748162333E+00 
    2.4998132445639878E+00 
    2.5055171653670083E+00 
    2.5097165408161111E+00 
    2.4785774939290031E+00 
    2.5385144823523835E+00 
    2.5301068708975309E+00 
    2.4561136162937851E+00 
    2.4702574094661918E+00 
    2.4319886530616799E+00 
    2.3696291409002885E+00 
    2.3550577569858420E+00 
    2.3702680845139006E+00 
    2.3807263278560176E+00 
    2.3874118413401106E+00 
    2.4464117494159612E+00 
    2.3442364704886738E+00 
    2.4338209079159285E+00 
    2.3450616930039723E+00 
    2.4019037576363216E+00 
    2.3752418784105709E+00 
    2.3809762493419684E+00 
    2.3566288950984977E+00 
    2.3468365672760929E+00 
    2.4754945854011439E+00 
    2.4463598884113056E+00 
    2.4619456753295048E+00 
    2.4274838901221640E+00 
    2.3899959314444232E+00 
    2.3423335790018007E+00 
    2.3358562549975290E+00 
    2.4758269799632751E+00 
    2.4021937004727931E+00 
    2.3362170961736353E+00 
    2.3895827558882088E+00 
    2.4621260199488524E+00 
    2.4486780719704706E+00 
    2.3187280084378252E+00 
    2.3424016582780616E+00 
    2.4040460194385811E+00 
    2.4587135894126497E+00 
    2.4359138774120206E+00 
    2.3974249052056242E+00 
    2.3638829623940900E+00 
    2.4828500849097388E+00 
    2.4723401610604037E+00 
    2.4622742867280007E+00 
    2.5131933064182985E+00 
    2.3630655782314451E+00 
    2.3860348049493734E+00 
    2.3813755057871111E+00 
    2.4699307051249324E+00 
    2.3841295311926016E+00 
    2.4538406342053447E+00 
    2.4236550207685474E+00 
    2.4112000929027326E+00 
    2.4010523244763040E+00 
    2.4097489452747149E+00 
    2.4601961550150628E+00 
    2.4685410161013239E+00 
    2.4168642103735909E+00 
    2.3565876635420033E+00 
    2.3979827767608128E+00 
    2.3935719805144871E+00 
    2.3421825292495946E+00 
    2.4500165490786618E+00 
    2.3460562419389941E+00 
    2.4606945510089049E+00 
    2.3531082787085822E+00 
    2.4217083483378734E+00 
    2.3756069440390917E+00 
    2.3166486735443850E+00 
    2.3226879135894456E+00 
    2.3291193111756532E+00 
    2.3194484581417982E+00 
    2.3960614336280135E+00 
    2.3241456042167981E+00 
    2.3464945044134962E+00 
    2.3485481406373272E+00 
    2.4948125483797456E+00 
    2.4110962956933877E+00 
    2.3464023527988385E+00 
    2.4611500762079550E+00 
    2.3824823543886593E+00 
    2.3736380651722064E+00 
    2.4409083019936517E+00 
    2.4885439865948524E+00 
    2.4275362792858557E+00 
    2.4299094894352051E+00 
    2.4158965343794057E+00 
    2.4201127600125187E+00 
    2.4471823902752758E+00 
    2.4468799723067769E+00 
    2.4536776139562386E+00 
    2.4553401062058349E+00 
    2.4123651480696005E+00 
    2.4702885950852576E+00 
    2.4549062222846882E+00 
    2.4243140953866398E+00 
    2.4330593027943790E+00 
    2.4826764300904474E+00 
    2.4470518798251129E+00 
    2.4613383886366740E+00 
    2.4875739093765179E+00 
    2.3891947853930708E+00 
    2.3696081650483141E+00 
    2.4243195727851310E+00 
    2.4755114805313116E+00 
    2.4905724773772788E+00 
    2.4618905857298010E+00 
    2.3272442585734194E+00 
    2.3757104303463485E+00 
    2.4311322838124871E+00 
    2.4020712623416078E+00 
    2.3565990948198885E+00 
    2.4590206726426200E+00 
    2.4326019352863133E+00 
    2.3515565264812555E+00 
    2.4496308215742202E+00 
    2.3650689984113811E+00 
    2.3792679163647992E+00 
    2.3751293643379889E+00 
    2.4365170094174746E+00 
    2.4689566475225657E+00 
    2.4888175576537130E+00 
    2.4563958524797815E+00 
    2.4752953361886485E+00 
    2.3628616837376040E+00 
    2.3490008637266766E+00 
    2.4733040555124264E+00 
    2.4512041129049220E+00 
    2.3246148625238505E+00 
    2.3181108534058299E+00 
    2.5018280830011559E+00 
    2.4124595915347564E+00 
    2.4476462122717573E+00 
    2.4219585974959634E+00 
    2.3923702702191925E+00 
    2.4248433039164827E+00 
    2.4368011838238197E+00 
    2.4216370372306848E+00 
    2.4046993681126310E+00 
    2.4047070855253367E+00 
    2.3201907949679761E+00 
    2.4738303062238338E+00 
    2.5030809001620069E+00 
    2.3225422121723693E+00 
    2.3219644631644538E+00 
    2.3233375199278266E+00 
    2.3195637460386065E+00 
    2.3288326506777524E+00 
    2.4482036645610075E+00 
    2.3948972760012590E+00 
    2.3319961429700142E+00 
    2.4342634903516251E+00 
    2.4342278172195178E+00 
    2.3873000626583654E+00 
    2.4040800805121005E+00 
    2.3954512653665314E+00 
    2.4182670326436781E+00 
    2.4688779315814164E+00 
    2.3212139663996583E+00 
    2.3230810147158620E+00 
    2.3598811085705109E+00 
    2.4016025644179666E+00 
    2.4640065435957816E+00 
    2.3423678873491802E+00 
    2.4715270632049524E+00 
    2.3198782617591145E+00 
    2.3836390762702253E+00 
    2.3210022106568888E+00 
    2.3148536686842149E+00 
    2.3330511185587595E+00 
    2.4727641843973487E+00 
    2.4328152250448136E+00 
    2.3916785580313236E+00 
    2.4122559291039960E+00 
    2.4331603028813360E+00 
    2.3211918545902055E+00 
    2.3891364262633963E+00 
    2.4209922264935919E+00 
    2.4767390918259142E+00 
    2.4791647021207690E+00 
    2.4765068285534118E+00 
    2.4744926747782592E+00 
    2.4936568723729748E+00 
    2.4179108199593866E+00 
    2.3473861744603313E+00 
    2.4326119327483671E+00 
    2.4319915300209276E+00 
    2.3860825528075971E+00 
    2.3213454884660689E+00 
    2.4305196085384946E+00 
    2.4460765834685687E+00 
    2.4580107331164034E+00 
    2.4435142153206719E+00 
    2.3198451513108171E+00 
    2.4408856545379725E+00 
    2.4371426946303960E+00 
    2.3289109881637717E+00 
    2.3517785307556127E+00 
    2.4330651844637501E+00 
    2.4465158645975804E+00 
    2.4415720214077585E+00 
    2.4408978901272729E+00 
    2.4406317938837989E+00 
    2.4879983741864291E+00 
    2.4368731608892591E+00 
    2.4529089756634992E+00 
    2.4155422553614110E+00 
    2.4310506897321109E+00 
    2.3263950414522498E+00 
    2.4839562035977263E+00 
    2.4802231307635583E+00 
    2.4874190117184893E+00 
    2.3925300584441866E+00 
    2.3710028355424759E+00 
    2.3641832271361576E+00 
    2.4466570211483991E+00 
    2.4336848572882674E+00 
    2.4495270923475054E+00 
    2.3764846013720557E+00 
    2.3376272515828513E+00 
    2.3541154068642007E+00 
    2.4759329629559814E+00 
    2.3502486354067265E+00 
    2.4072062280088971E+00 
    2.3662726131064145E+00 
    2.4586073636509314E+00 
    2.4199840859037276E+00 
    2.4161497682123021E+00 
    2.4789623068235840E+00 
    2.4738480835193362E+00 
    2.3932754992103900E+00 
    2.3845539987313265E+00 
    2.3715582495236176E+00 
    2.3991463624708311E+00 
    2.4637456205985258E+00 
    2.3176787339120883E+00 
    2.4678907611684973E+00 
    2.4790869750570836E+00 
    2.3916489312775941E+00 
    2.3868730924190880E+00 
    2.3362097292653941E+00 
    2.3280840146002064E+00 
    2.4954738561987462E+00 
    2.3807262867353192E+00 
    2.4330661232053212E+00 
    2.4017109549580433E+00 
    2.4436716167944499E+00 
    2.3503937053463630E+00 
    2.4102908078154632E+00 
    2.4937031240469714E+00 
    2.3638344285083464E+00 
    2.4001649459496397E+00 
    2.3638957190134526E+00 
    2.3999959639709485E+00 
    2.5020353192218270E+00 
    2.3683082179867712E+00 
    2.4268946474882553E+00 
    2.3775616407630356E+00 
    2.3329293678371865E+00 
    2.4530380816616537E+00 
    2.4401162040778992E+00 
    2.4389145949057931E+00 
    2.3762618878256889E+00 
    2.3807146863749855E+00 
    2.3406704662671505E+00 
    2.4231931536209075E+00 
    2.4533736664835395E+00 
    2.4074389081997136E+00 
    2.3472952495600454E+00 
    2.3699354032778204E+00 