# vtk DataFile Version 2.0
Pressure Field Data 
ASCII 
DATASET UNSTRUCTURED_GRID 

POINTS 2213 double 

    0.0000000000000000E+00     0.0000000000000000E+00     0.0000000000000000E+00 
    5.0000000000000000E-01     0.0000000000000000E+00     0.0000000000000000E+00 
    1.0000000000000000E+00     0.0000000000000000E+00     0.0000000000000000E+00 
    1.0000000000000000E+00     5.0000000000000000E-01     0.0000000000000000E+00 
    1.0000000000000000E+00     1.0000000000000000E+00     0.0000000000000000E+00 
    5.0000000000000000E-01     1.0000000000000000E+00     0.0000000000000000E+00 
    0.0000000000000000E+00     1.0000000000000000E+00     0.0000000000000000E+00 
    0.0000000000000000E+00     5.0000000000000000E-01     0.0000000000000000E+00 
    1.5624999999971041E-02     0.0000000000000000E+00     0.0000000000000000E+00 
    3.1249999999936742E-02     0.0000000000000000E+00     0.0000000000000000E+00 
    4.6874999999913257E-02     0.0000000000000000E+00     0.0000000000000000E+00 
    6.2499999999889783E-02     0.0000000000000000E+00     0.0000000000000000E+00 
    7.8124999999844805E-02     0.0000000000000000E+00     0.0000000000000000E+00 
    9.3749999999799827E-02     0.0000000000000000E+00     0.0000000000000000E+00 
    1.0937499999975490E-01     0.0000000000000000E+00     0.0000000000000000E+00 
    1.2499999999970990E-01     0.0000000000000000E+00     0.0000000000000000E+00 
    1.4062499999966460E-01     0.0000000000000000E+00     0.0000000000000000E+00 
    1.5624999999961930E-01     0.0000000000000000E+00     0.0000000000000000E+00 
    1.7187499999957390E-01     0.0000000000000000E+00     0.0000000000000000E+00 
    1.8749999999952860E-01     0.0000000000000000E+00     0.0000000000000000E+00 
    2.0312499999948330E-01     0.0000000000000000E+00     0.0000000000000000E+00 
    2.1874999999943801E-01     0.0000000000000000E+00     0.0000000000000000E+00 
    2.3437499999939271E-01     0.0000000000000000E+00     0.0000000000000000E+00 
    2.4999999999934730E-01     0.0000000000000000E+00     0.0000000000000000E+00 
    2.6562499999938810E-01     0.0000000000000000E+00     0.0000000000000000E+00 
    2.8124999999942890E-01     0.0000000000000000E+00     0.0000000000000000E+00 
    2.9687499999946970E-01     0.0000000000000000E+00     0.0000000000000000E+00 
    3.1249999999951050E-01     0.0000000000000000E+00     0.0000000000000000E+00 
    3.2812499999955130E-01     0.0000000000000000E+00     0.0000000000000000E+00 
    3.4374999999959210E-01     0.0000000000000000E+00     0.0000000000000000E+00 
    3.5937499999963290E-01     0.0000000000000000E+00     0.0000000000000000E+00 
    3.7499999999967371E-01     0.0000000000000000E+00     0.0000000000000000E+00 
    3.9062499999971451E-01     0.0000000000000000E+00     0.0000000000000000E+00 
    4.0624999999975520E-01     0.0000000000000000E+00     0.0000000000000000E+00 
    4.2187499999979600E-01     0.0000000000000000E+00     0.0000000000000000E+00 
    4.3749999999983680E-01     0.0000000000000000E+00     0.0000000000000000E+00 
    4.5312499999987760E-01     0.0000000000000000E+00     0.0000000000000000E+00 
    4.6874999999991840E-01     0.0000000000000000E+00     0.0000000000000000E+00 
    4.8437499999995920E-01     0.0000000000000000E+00     0.0000000000000000E+00 
    5.1562499999992384E-01     0.0000000000000000E+00     0.0000000000000000E+00 
    5.3124999999985478E-01     0.0000000000000000E+00     0.0000000000000000E+00 
    5.4687499999994527E-01     0.0000000000000000E+00     0.0000000000000000E+00 
    5.6249999999998668E-01     0.0000000000000000E+00     0.0000000000000000E+00 
    5.7812499999998068E-01     0.0000000000000000E+00     0.0000000000000000E+00 
    5.9374999999994749E-01     0.0000000000000000E+00     0.0000000000000000E+00 
    6.0937499999997913E-01     0.0000000000000000E+00     0.0000000000000000E+00 
    6.2500000000000000E-01     0.0000000000000000E+00     0.0000000000000000E+00 
    6.4062499999998945E-01     0.0000000000000000E+00     0.0000000000000000E+00 
    6.5624999999996603E-01     0.0000000000000000E+00     0.0000000000000000E+00 
    6.7187499999995337E-01     0.0000000000000000E+00     0.0000000000000000E+00 
    6.8749999999998734E-01     0.0000000000000000E+00     0.0000000000000000E+00 
    7.0312499999998124E-01     0.0000000000000000E+00     0.0000000000000000E+00 
    7.1874999999997025E-01     0.0000000000000000E+00     0.0000000000000000E+00 
    7.3437499999999034E-01     0.0000000000000000E+00     0.0000000000000000E+00 
    7.5000000000000000E-01     0.0000000000000000E+00     0.0000000000000000E+00 
    7.6562499999996902E-01     0.0000000000000000E+00     0.0000000000000000E+00 
    7.8124999999993228E-01     0.0000000000000000E+00     0.0000000000000000E+00 
    7.9687499999989997E-01     0.0000000000000000E+00     0.0000000000000000E+00 
    8.1249999999996247E-01     0.0000000000000000E+00     0.0000000000000000E+00 
    8.2812499999999578E-01     0.0000000000000000E+00     0.0000000000000000E+00 
    8.4374999999999556E-01     0.0000000000000000E+00     0.0000000000000000E+00 
    8.5937500000000111E-01     0.0000000000000000E+00     0.0000000000000000E+00 
    8.7499999999997691E-01     0.0000000000000000E+00     0.0000000000000000E+00 
    8.9062500000000921E-01     0.0000000000000000E+00     0.0000000000000000E+00 
    9.0625000000004452E-01     0.0000000000000000E+00     0.0000000000000000E+00 
    9.2187500000005529E-01     0.0000000000000000E+00     0.0000000000000000E+00 
    9.3750000000012723E-01     0.0000000000000000E+00     0.0000000000000000E+00 
    9.5312500000011835E-01     0.0000000000000000E+00     0.0000000000000000E+00 
    9.6875000000005151E-01     0.0000000000000000E+00     0.0000000000000000E+00 
    9.8437500000003086E-01     0.0000000000000000E+00     0.0000000000000000E+00 
    1.0000000000000000E+00     1.5624999999971041E-02     0.0000000000000000E+00 
    1.0000000000000000E+00     3.1249999999936742E-02     0.0000000000000000E+00 
    1.0000000000000000E+00     4.6874999999913257E-02     0.0000000000000000E+00 
    1.0000000000000000E+00     6.2499999999889783E-02     0.0000000000000000E+00 
    1.0000000000000000E+00     7.8124999999844805E-02     0.0000000000000000E+00 
    1.0000000000000000E+00     9.3749999999799827E-02     0.0000000000000000E+00 
    1.0000000000000000E+00     1.0937499999975490E-01     0.0000000000000000E+00 
    1.0000000000000000E+00     1.2499999999970990E-01     0.0000000000000000E+00 
    1.0000000000000000E+00     1.4062499999966460E-01     0.0000000000000000E+00 
    1.0000000000000000E+00     1.5624999999961930E-01     0.0000000000000000E+00 
    1.0000000000000000E+00     1.7187499999957390E-01     0.0000000000000000E+00 
    1.0000000000000000E+00     1.8749999999952860E-01     0.0000000000000000E+00 
    1.0000000000000000E+00     2.0312499999948330E-01     0.0000000000000000E+00 
    1.0000000000000000E+00     2.1874999999943801E-01     0.0000000000000000E+00 
    1.0000000000000000E+00     2.3437499999939271E-01     0.0000000000000000E+00 
    1.0000000000000000E+00     2.4999999999934730E-01     0.0000000000000000E+00 
    1.0000000000000000E+00     2.6562499999938810E-01     0.0000000000000000E+00 
    1.0000000000000000E+00     2.8124999999942890E-01     0.0000000000000000E+00 
    1.0000000000000000E+00     2.9687499999946970E-01     0.0000000000000000E+00 
    1.0000000000000000E+00     3.1249999999951050E-01     0.0000000000000000E+00 
    1.0000000000000000E+00     3.2812499999955130E-01     0.0000000000000000E+00 
    1.0000000000000000E+00     3.4374999999959210E-01     0.0000000000000000E+00 
    1.0000000000000000E+00     3.5937499999963290E-01     0.0000000000000000E+00 
    1.0000000000000000E+00     3.7499999999967371E-01     0.0000000000000000E+00 
    1.0000000000000000E+00     3.9062499999971451E-01     0.0000000000000000E+00 
    1.0000000000000000E+00     4.0624999999975520E-01     0.0000000000000000E+00 
    1.0000000000000000E+00     4.2187499999979600E-01     0.0000000000000000E+00 
    1.0000000000000000E+00     4.3749999999983680E-01     0.0000000000000000E+00 
    1.0000000000000000E+00     4.5312499999987760E-01     0.0000000000000000E+00 
    1.0000000000000000E+00     4.6874999999991840E-01     0.0000000000000000E+00 
    1.0000000000000000E+00     4.8437499999995920E-01     0.0000000000000000E+00 
    1.0000000000000000E+00     5.1562499999992384E-01     0.0000000000000000E+00 
    1.0000000000000000E+00     5.3124999999985478E-01     0.0000000000000000E+00 
    1.0000000000000000E+00     5.4687499999994527E-01     0.0000000000000000E+00 
    1.0000000000000000E+00     5.6249999999998668E-01     0.0000000000000000E+00 
    1.0000000000000000E+00     5.7812499999998068E-01     0.0000000000000000E+00 
    1.0000000000000000E+00     5.9374999999994749E-01     0.0000000000000000E+00 
    1.0000000000000000E+00     6.0937499999997913E-01     0.0000000000000000E+00 
    1.0000000000000000E+00     6.2500000000000000E-01     0.0000000000000000E+00 
    1.0000000000000000E+00     6.4062499999998945E-01     0.0000000000000000E+00 
    1.0000000000000000E+00     6.5624999999996603E-01     0.0000000000000000E+00 
    1.0000000000000000E+00     6.7187499999995337E-01     0.0000000000000000E+00 
    1.0000000000000000E+00     6.8749999999998734E-01     0.0000000000000000E+00 
    1.0000000000000000E+00     7.0312499999998124E-01     0.0000000000000000E+00 
    1.0000000000000000E+00     7.1874999999997025E-01     0.0000000000000000E+00 
    1.0000000000000000E+00     7.3437499999999034E-01     0.0000000000000000E+00 
    1.0000000000000000E+00     7.5000000000000000E-01     0.0000000000000000E+00 
    1.0000000000000000E+00     7.6562499999996902E-01     0.0000000000000000E+00 
    1.0000000000000000E+00     7.8124999999993228E-01     0.0000000000000000E+00 
    1.0000000000000000E+00     7.9687499999989997E-01     0.0000000000000000E+00 
[...]
CELL_DATA 2084 
SCALARS Pressure double 1 
LOOKUP_TABLE default 

    2.6402412625344245E+00 
    2.6505538086406464E+00 
    2.8400919998009679E+00 
    2.6494740871204510E+00 
    2.7591969539179142E+00 
    2.7246188547231625E+00 
    2.5858120362031332E+00 
    2.7112406081260394E+00 
    2.7176619461845006E+00 
    2.7633650764974913E+00 
    2.8332335207568518E+00 
    2.6280979590814493E+00 
    2.6855218523944293E+00 
    2.6712853143991522E+00 
    2.6076486347341485E+00 
    2.6610811372247576E+00 
    2.8024335764054129E+00 
    2.6881275095639450E+00 
    2.8563135980725867E+00 
    2.6212611911147849E+00 
    2.6435011110911915E+00 
    2.7493961767352140E+00 
    2.6595612851130257E+00 
    2.6848205702291530E+00 
    2.6171440229928029E+00 
    2.7012387493710692E+00 
    2.6555787071726527E+00 
    2.6137995223720378E+00 
    2.7023775825362235E+00 
    2.6503602955513830E+00 
    2.5769200783999922E+00 
    2.6995382198397779E+00 
    2.5826495893516528E+00 
    2.6254883222514334E+00 
    2.6309304706058132E+00 
    2.7520121864372524E+00 
    2.6828009516866023E+00 
    2.6796778131393495E+00 
    2.7411171818628195E+00 
    2.6973499013574060E+00 
    2.5905970618387246E+00 
    2.7733133752896739E+00 
    2.6187154301789981E+00 
    2.7255327936347395E+00 
    2.7237630887137882E+00 
    2.5976644235637707E+00 
    2.7664088382565710E+00 
    2.6062611943181140E+00 
    2.5832825758918014E+00 
    2.6817506066116548E+00 
    2.6960743338679918E+00 
    2.6137536746991414E+00 
    2.6272800227034825E+00 
    2.6885601140524908E+00 
    2.6916946427418877E+00 
    2.6179418343829557E+00 
    2.5909335450575912E+00 
    2.7262067083845745E+00 
    2.7380908077947663E+00 
    2.6713515873675906E+00 
    2.6748966357321660E+00 
    2.6537528252860341E+00 
    2.6020855128225469E+00 
    2.6368419697378167E+00 
    2.7714649861874832E+00 
    2.6681843965619074E+00 
    2.7044575315469674E+00 
    2.5958727562662429E+00 
    2.6067835711799296E+00 
    2.5804831433549089E+00 
    2.6157640238849456E+00 
    2.8757436246544206E+00 
    2.7001261501032210E+00 
    2.8215995937193559E+00 
    2.7322954876606249E+00 
    2.8157952275886147E+00 
    2.6953207448261622E+00 
    2.7633127737693828E+00 
    2.6280057636136500E+00 
    2.7794832540185710E+00 
    2.6590484467513922E+00 
    2.6995203168493198E+00 
    2.7226226111005212E+00 
    2.5984073040357263E+00 
    2.7137106370180590E+00 
    2.6254594172949641E+00 
    2.6822766410328800E+00 
    2.7202627577555401E+00 
    2.7421697569346373E+00 
    2.7318776117259636E+00 
    2.7122597839100506E+00 
    2.7022045373861157E+00 
    2.6441798615286873E+00 
    2.7228461300329738E+00 
    2.6624420078788100E+00 
    2.5865005445125222E+00 
    2.6742744098998150E+00 
    2.6865182625887840E+00 
    2.7540208294360786E+00 
    2.6495965141017344E+00 
    2.7663803830428209E+00 
    2.7201944222152914E+00 
    2.7372982394925622E+00 
    2.7471176711586129E+00 
    2.6622150740193322E+00 
    2.7220923523783940E+00 
    2.7015926706548243E+00 
    2.7559806080826514E+00 
    2.6422427138513784E+00 
    2.9035909088309060E+00 
    2.6621655265106350E+00 
    2.6995908037771286E+00 
    2.7300377918377876E+00 
    2.7822689735753539E+00 
    2.8263575234926530E+00 
    2.6686365957065559E+00 
    2.7242921892631737E+00 
    2.7255665633636648E+00 
    2.6507580756293669E+00 
    2.6261063203864858E+00 
    2.6886667869370533E+00 
    2.7363596766771865E+00 
    2.6312287629873055E+00 
    2.8046350075834017E+00 
    2.7090790056562097E+00 
    2.7434176125267364E+00 
    2.6941381806103628E+00 
    2.6281651856029851E+00 
    2.6549336838897521E+00 
    2.6270770431790895E+00 
    2.8255206915742970E+00 
    2.8335851066731630E+00 
    2.5922783241406462E+00 
    2.7672455671919511E+00 
    2.7520788105399827E+00 
    2.6733239544090184E+00 
    2.7350104775354787E+00 
    2.6231545227252373E+00 
    2.7515927346593485E+00 
    2.8093264988003543E+00 
    2.7116466003555488E+00 
    2.8435508652375816E+00 
    2.8179431597869424E+00 
    2.6893889683380450E+00 
    2.6390268265182732E+00 
    2.6902139211604421E+00 
    2.7218106802473252E+00 
    2.7494936901164739E+00 
    2.6632418876055683E+00 
    2.7063894700181663E+00 
    2.7235615416122139E+00 
    2.8114992407941934E+00 
    2.8671171347711506E+00 
    2.6593076643414451E+00 
    2.6683371176818769E+00 
    2.8549595555899567E+00 
    2.6275860299195544E+00 
    2.7220880935533636E+00 
    2.6665746659783771E+00 
    2.8045025177570602E+00 
    2.9790585578130009E+00 
    2.9284727800909107E+00 
    2.8693573927682832E+00 
    2.8911863330955136E+00 
    2.8487552350784009E+00 
    2.8633083074487633E+00 
    2.7202113125376113E+00 
    2.8950238000420119E+00 
    2.7085477584297140E+00 
    2.8562342159915945E+00 
    2.7094269079199087E+00 
    2.7985708687852262E+00 
    2.8158382830862054E+00 
    2.7528442161432620E+00 
    2.7908619888564790E+00 
    2.6742231775726415E+00 
    2.7933840607181195E+00 
    2.7060597168199449E+00 
    2.7088759996848779E+00 
    2.7093043991494774E+00 
    2.7380154918982984E+00 
    2.6628315037649823E+00 
    2.7996654205510874E+00 
    2.7371450188501196E+00 
    2.7358428995251334E+00 
    2.5669308906563040E+00 
    2.7622171395737363E+00 
    2.8199997490854067E+00 
    2.6617530511440446E+00 
    2.7843791051510229E+00 
    2.8309515950756792E+00 
    2.8483796438200772E+00 
    2.7357317156632517E+00 
    2.6875299910021786E+00 
    2.6672782712280334E+00 
    2.6623909491030044E+00 
    2.7723979524726716E+00 
    2.7363803848960853E+00 
    2.6867905069067528E+00 
    2.7737910456135624E+00 
    2.7124721653501775E+00 
    2.6635138464639958E+00 
    2.7382880607481139E+00 
    2.6294299369084868E+00 
    2.6580410462540200E+00 
    2.8354679921694412E+00 
    2.7695201598994967E+00 
    2.6737568470227133E+00 
    2.7888806753916446E+00 
    2.7829633932801392E+00 
    2.6649138904901877E+00 
    2.6896984676525415E+00 
    2.6928714985503617E+00 
    2.7612258565638261E+00 
    2.7569346616680201E+00 
    2.8147157069456523E+00 
    2.6860592392505978E+00 
    2.7524530222054233E+00 
    2.7675645957533388E+00 
    2.6688551480563314E+00 
    2.6757759936163401E+00 
    2.5761290120630131E+00 
    2.6822442203646046E+00 
    2.8409775260601253E+00 
    2.7355575283148097E+00 
    2.7566901469030083E+00 
    2.7109157491681990E+00 
    2.7496957800734565E+00 
    2.6733305910778937E+00 
    2.6427697234562713E+00 
    2.6470945615828829E+00 
    2.6752771883434137E+00 
    2.6503319127823519E+00 
    2.6827140804861118E+00 
    2.7423804395423899E+00 
    2.6621121924571662E+00 
    2.7834183726126347E+00 
    2.7922158795530030E+00 
    2.6813208183490627E+00 
    2.6488092766100979E+00 
    2.7446933246305418E+00 
    2.6634714391420977E+00 
    2.6336379606898945E+00 
    2.6568861779683965E+00 
    2.6324116854925950E+00 
    2.6146765219677959E+00 
    2.6752302909624861E+00 
    2.7267162265752449E+00 
    2.8040709516256168E+00 
    2.6038770905127415E+00 
    2.6739311274591748E+00 
    2.6310823599613324E+00 
    2.6537086628479520E+00 
    2.8766272585833357E+00 
    2.6434154529883949E+00 
    2.7124857296154286E+00 
    2.6544731723460160E+00 
    2.6733432317590320E+00 
    2.6641709561545452E+00 
    2.6800364121381515E+00 
    2.6364080741104603E+00 
    2.6775263197476891E+00 
    2.6428289659958568E+00 
    2.7027192431954199E+00 
    2.6393029963850752E+00 
    2.6622999103493594E+00 
    2.6128430487476368E+00 
    2.6232824974213487E+00 
    2.7867743552251185E+00 
    2.6184474412455661E+00 
    2.6022150109651387E+00 
    2.6522519307819912E+00 
    2.6356538527080358E+00 
    2.9395439392410401E+00 
    2.6555750947033694E+00 
    2.7548919779921799E+00 
    2.6467402704286735E+00 
    2.6136538270648635E+00 
    2.6682143595876018E+00 
    2.6503654046968586E+00 
    2.6868176114114912E+00 
    2.6405446441538132E+00 
    2.6697743916007592E+00 
    2.6510050476666365E+00 
    2.6199590848604295E+00 
    2.6668343484473773E+00 
    2.6606605265532091E+00 
    2.6205136351604579E+00 
    2.6302672895848151E+00 
    2.6596788433375727E+00 
    2.6473852223244263E+00 
    2.5861681198114810E+00 
    2.6409468981805158E+00 
    2.6493935351680258E+00 
    2.6829541179883880E+00 
    2.6200174302053276E+00 
    2.6059899188994717E+00 
    2.7676660400632187E+00 
    2.6501600476413625E+00 
    2.7123802700996635E+00 
    2.9379362410188752E+00 
    2.7766882058146325E+00 
    2.7231632661262779E+00 
    2.8001984445635220E+00 
    2.6351147916717919E+00 
    2.6300896465290311E+00 
    2.6338546454485456E+00 
    2.6104999946577090E+00 
    2.6400129835983313E+00 
    2.6028053679946090E+00 
    2.8040002862790687E+00 
    2.6305237982256457E+00 
    2.6934128301544571E+00 
    2.7855701535489210E+00 
    2.6924724004914906E+00 
    2.6499253174719004E+00 
    2.7461539429233248E+00 
    2.6017865507034963E+00 
    2.6290409034346847E+00 
    2.6386775571629286E+00 
    2.9053727648387588E+00 
    2.7338160918346759E+00 
    2.7951749100930376E+00 
    2.7975429365299269E+00 
    2.6953997854195779E+00 
    2.7675278526298817E+00 
    2.6427682660060978E+00 
    2.5494423191013245E+00 
    3.0879039269501627E+00 
    2.5760793799253650E+00 
    2.5931941810991530E+00 
    2.6178588849913158E+00 
    2.7140234682088269E+00 
    2.7798947259272309E+00 
    2.5652151036342938E+00 
    2.8278925967585020E+00 
    2.8445056863303515E+00 
    2.6987180115230900E+00 
    2.6411882368652457E+00 
    2.8199696988392566E+00 
    2.6959543308617273E+00 
    2.6111932809641738E+00 
    2.7922842268177708E+00 
    2.5841019586599838E+00 
    2.6068552909036495E+00 
    2.7094381956278082E+00 
    2.6510927117011707E+00 
    2.5584523868809566E+00 
    2.6393773886494469E+00 
    2.5895893307566902E+00 
    2.8105433732092484E+00 
    2.5756317979892174E+00 
    2.6285464210250922E+00 
    2.7799408207150904E+00 
    2.6596077886050944E+00 
    2.6974342636324433E+00 
    2.5957094506854288E+00 
    2.6780446227116093E+00 
    2.7012566796645716E+00 
    2.6402428814451060E+00 
    2.6780066835159304E+00 
    2.7854605026664987E+00 
    2.5681095668821929E+00 
    2.6751397311885077E+00 
    2.6322316706917093E+00 
    2.6177512977495692E+00 
    2.6740776820140830E+00 
    2.6120055957912633E+00 
    2.6831905080290559E+00 
    2.7993891453773325E+00 
    2.8118536119079645E+00 
    2.5848893338393037E+00 
    2.9521476240782909E+00 
    2.6850147779055384E+00 
    2.6329613258905047E+00 
    2.8352319746840680E+00 
    2.7045512858884471E+00 
    2.7216256574630413E+00 
    2.6435883854701774E+00 
    2.6392210245713152E+00 
    2.7476872221015016E+00 
    2.7130949452807647E+00 
    2.5592200969379051E+00 
    2.6170013387248567E+00 
    2.8554875394428230E+00 
    2.6966937843168139E+00 
    2.7722826041137028E+00 
    2.7116039725349550E+00 
    2.7902852415529655E+00 
    2.7471443784575382E+00 
    2.5754285077311518E+00 
    2.5956635078298178E+00 
    2.6450125415238981E+00 
    2.8119474917606437E+00 
    2.7761497214079598E+00 
    2.6479343908471469E+00 
    2.6402852680647872E+00 
    2.6524466769065329E+00 
    2.6496354256217405E+00 
    2.7592342989422511E+00 
    2.6164243663962417E+00 
    2.7187467100197567E+00 
    2.8884533943781086E+00 
    2.6085951651924075E+00 
    2.8598308324989299E+00 
    2.6619275219418523E+00 
    2.8723999590527112E+00 
    2.7828162708980426E+00 
    3.0037130433501398E+00 
    2.6336400830576965E+00 
    2.7711776944662021E+00 
    2.6823072039736666E+00 
    2.6272279343955640E+00 
    2.7963670079876328E+00 
    2.6735190200167134E+00 
    2.8057824970813532E+00 
    2.6076146199977845E+00 
    2.7749478926634774E+00 
    2.6714498511703080E+00 
    2.7009650115191328E+00 
    2.5737320303875029E+00 
    2.6312623323178954E+00 
    2.6226312836381154E+00 
    2.8299975854427979E+00 
    2.6386303157952242E+00 
    2.8834954553424845E+00 
    2.8430705616225294E+00 
    2.6206561302743387E+00 
    2.6850520041426575E+00 
    2.6554106013148395E+00 
    2.5940059770570549E+00 
    2.6777269191040598E+00 
    2.7882129295477345E+00 
    2.6500873066259327E+00 
    2.6057807216207021E+00 
    2.9080818253332854E+00 
    2.7594415971675859E+00 
    2.5491738961804837E+00 
    2.5655143086592660E+00 
    2.5938528175783651E+00 
    2.6008494956946944E+00 
    2.6030950947860294E+00 
    2.5680415106967001E+00 
    2.6400146409331375E+00 
    2.6300993505733716E+00 
    2.5408871117633942E+00 
    2.5562428890341122E+00 
    2.5092210931596166E+00 
    2.4210894856457403E+00 
    2.4101131695985418E+00 
    2.4384796603386176E+00 
    2.4454782696704704E+00 
    2.4565566557034808E+00 
    2.5272207909055036E+00 
    2.3896247762279526E+00 
    2.5117002674349407E+00 
    2.3970326791156489E+00 
    2.4741199365155220E+00 
    2.4373781319282433E+00 
    2.4478888491455582E+00 
    2.4230579418371456E+00 
    2.4020810608060623E+00 
    2.5648833141465461E+00 
    2.5269918766491140E+00 
    2.5488570921959597E+00 
    2.5063016583098046E+00 
    2.4614633329820563E+00 
    2.4051014791352450E+00 
    2.3803730252125277E+00 
    2.5653457571046854E+00 
    2.4765711143001532E+00 
    2.3776335942132878E+00 
    2.4536410722174389E+00 
    2.5463958578270360E+00 
    2.5320231215453277E+00 
    2.3577077767181254E+00 
    2.3880486263563929E+00 
    2.4785779530436693E+00 
    2.5441047875299785E+00 
    2.5164648990026190E+00 
    2.4659555218591525E+00 
    2.4175926407089081E+00 
    2.5741477908822934E+00 
    2.5599252149604514E+00 
    2.5465229962905491E+00 
    2.6079502948788922E+00 
    2.4165306107266225E+00 
    2.4489382106485893E+00 
    2.4402881189206838E+00 
    2.5578605190592465E+00 
    2.4479867253706540E+00 
    2.5382504205909493E+00 
    2.4987280538171914E+00 
    2.4858525177167392E+00 
    2.4752802166455843E+00 
    2.4807371339328701E+00 
    2.5467560335320951E+00 
    2.5553251181477687E+00 
    2.4900001780273726E+00 
    2.4061504743361342E+00 
    2.4688577303126746E+00 
    2.4635698536804576E+00 
    2.3873058991803910E+00 
    2.5315489818441823E+00 
    2.3920575618648097E+00 
    2.5474385136395248E+00 
    2.4035473555802520E+00 
    2.4992402894155932E+00 
    2.4372320631403146E+00 
    2.3552501310830647E+00 
    2.3628727942693426E+00 
    2.3694548487286626E+00 
    2.3773698346237273E+00 
    2.4665083510587440E+00 
    2.3807409987361301E+00 
    2.4083943671535044E+00 
    2.4135274365553481E+00 
    2.5873233806001146E+00 
    2.4840073354097503E+00 
    2.3979409517051535E+00 
    2.5480688779527192E+00 
    2.4480743050646101E+00 
    2.4399165222648547E+00 
    2.5227727467375858E+00 
    2.5805220392688146E+00 
    2.5063626328254389E+00 
    2.5093388396888905E+00 
    2.4889134733253999E+00 
    2.4972601669263277E+00 
    2.5312833085359561E+00 
    2.5312308956445637E+00 
    2.5373123667040356E+00 
    2.5399737343241227E+00 
    2.4873700514306711E+00 
    2.5561419262761818E+00 
    2.5395983729863785E+00 
    2.5024525204687187E+00 
    2.5132116392091683E+00 
    2.5729822803203426E+00 
    2.5313351895469438E+00 
    2.5479042298674965E+00 
    2.5785522388803432E+00 
    2.4557512293580159E+00 
    2.4297482365991891E+00 
    2.5023483661647536E+00 
    2.5633961917658867E+00 
    2.5826795602769566E+00 
    2.5489171979551122E+00 
    2.3665638156848505E+00 
    2.4304804067691408E+00 
    2.5082214104075553E+00 
    2.4709078166192566E+00 
    2.4192634273554274E+00 
    2.5438257806565439E+00 
    2.5106974399421937E+00 
    2.3985998611941830E+00 
    2.5319397036839342E+00 
    2.4221882534493311E+00 
    2.4395659721018896E+00 
    2.4310620804902028E+00 
    2.5149149843549661E+00 
    2.5554297602282885E+00 
    2.5790330094335854E+00 
    2.5392072066755067E+00 
    2.5643110934067694E+00 
    2.4126023104772742E+00 
    2.4081233021709880E+00 
    2.5625665160713749E+00 
    2.5349601921932545E+00 
    2.3643680375291294E+00 
    2.3567481298009922E+00 
    2.5940321403707793E+00 
    2.4875822594377146E+00 
    2.5315632137764137E+00 
    2.4998126826885243E+00 
    2.4584589090531677E+00 
    2.5027851033923216E+00 
    2.5177002899074714E+00 
    2.4969372087293102E+00 
    2.4776915074864800E+00 
    2.4774191379916135E+00 
    2.3789647241631742E+00 
    2.5621685930359384E+00 
    2.5976112387072492E+00 
    2.3828060111277916E+00 
    2.3819836792663973E+00 
    2.3812999882734363E+00 
    2.3780732000666731E+00 
    2.3717238602798933E+00 
    2.5319376064140982E+00 
    2.4636886092269936E+00 
    2.3730389562835090E+00 
    2.5146236337307175E+00 
    2.5152336331749385E+00 
    2.4581329382513477E+00 
    2.4738211984103495E+00 
    2.4624295058627919E+00 
    2.4920801599117746E+00 
    2.5569551462259721E+00 
    2.3806252980964127E+00 
    2.3825352480055773E+00 
    2.4151435280773890E+00 
    2.4737701581516571E+00 
    2.5499144814127090E+00 
    2.4056839948870352E+00 
    2.5603070388496438E+00 
    2.3652028464868340E+00 
    2.4544725090173469E+00 
    2.3609404448895868E+00 
    2.3532031687256292E+00 
    2.3746256885614940E+00 
    2.5619046257809082E+00 
    2.5113425311608064E+00 
    2.4614286052242371E+00 
    2.4871530608822567E+00 
    2.5142633848634723E+00 
    2.3606271132867858E+00 
    2.4570115926930121E+00 
    2.4981028354794463E+00 
    2.5664156508995415E+00 
    2.5668659728288707E+00 
    2.5637872082097015E+00 
    2.5639969994737095E+00 
    2.5848027370828279E+00 
    2.4928071304251249E+00 
    2.4117363806139704E+00 
    2.5138449152114024E+00 
    2.5132973488722965E+00 
    2.4570998485115441E+00 
    2.3634133428957598E+00 
    2.5117915856079374E+00 
    2.5303301984005664E+00 
    2.5437408700482900E+00 
    2.5272270593257287E+00 
    2.3583755479477775E+00 
    2.5233133843417588E+00 
    2.5185889785198294E+00 
    2.3695583445730666E+00 
    2.4155367597074533E+00 
    2.5109395093034266E+00 
    2.5292336813818399E+00 
    2.5229959920484397E+00 
    2.5227165288104949E+00 
    2.5222458062325401E+00 
    2.5773898826097108E+00 
    2.5169226798876951E+00 
    2.5372301842242262E+00 
    2.4915363238645574E+00 
    2.5104614816102857E+00 
    2.3812814730487979E+00 
    2.5754423964408848E+00 
    2.5690921803467570E+00 
    2.5781747623339806E+00 
    2.4591851644798597E+00 
    2.4343346702286630E+00 
    2.4290966819574726E+00 
    2.5295369469566573E+00 
    2.5127841481496422E+00 
    2.5330486536340966E+00 
    2.4451317395243279E+00 
    2.3801596695946001E+00 
    2.4036188327020889E+00 
    2.5635621852119850E+00 
    2.4011955291351397E+00 
    2.4808121088609623E+00 
    2.4346919938096825E+00 
    2.5443450884173235E+00 
    2.4977985013969208E+00 
    2.4910463965489140E+00 
    2.5692338729495603E+00 
    2.5624336696509711E+00 
    2.4624194530754768E+00 
    2.4511035715207088E+00 
    2.4293417374088597E+00 
    2.4703441966241941E+00 
    2.5482197510297548E+00 
    2.3713387901099727E+00 
    2.5551703705376148E+00 
    2.5690193619649908E+00 
    2.4604956276425085E+00 
    2.4537423859283347E+00 
    2.3904573112859633E+00 
    2.3744284083284168E+00 
    2.5863164809332329E+00 
    2.4490810334848145E+00 
    2.5134424038802621E+00 
    2.4727268732030154E+00 
    2.5236215172759509E+00 
    2.3966070720175310E+00 
    2.4850820113827781E+00 
    2.5846492912290455E+00 
    2.4310158397882660E+00 
    2.4746364218644663E+00 
    2.4181479284497609E+00 
    2.4720456946721208E+00 
    2.5940629056875455E+00 
    2.4357856317237325E+00 
    2.5074457653138431E+00 
    2.4414260697030890E+00 
    2.3741090779991079E+00 
    2.5352806736498334E+00 
    2.5218045048494746E+00 
    2.5177501937712425E+00 
    2.4391084343280074E+00 
    2.4455014939220847E+00 
    2.3828636309506193E+00 
    2.5007517010445648E+00 
    2.5354598418148804E+00 
    2.4820481928918978E+00 
    2.4083838562958308E+00 
    2.4285812215373643E+00 