# vtk DataFile Version 2.0
Pressure Field Data 
ASCII 
DATASET UNSTRUCTURED_GRID 

POINTS 2213 double 

    0.0000000000000000E+00     0.0000000000000000E+00     0.0000000000000000E+00 
    5.0000000000000000E-01     0.0000000000000000E+00     0.0000000000000000E+00 
    1.0000000000000000E+00     0.0000000000000000E+00     0.0000000000000000E+00 
    1.0000000000000000E+00     5.0000000000000000E-01     0.0000000000000000E+00 
    1.0000000000000000E+00     1.0000000000000000E+00     0.0000000000000000E+00 
    5.0000000000000000E-01     1.0000000000000000E+00     0.0000000000000000E+00 
    0.0000000000000000E+00     1.0000000000000000E+00     0.0000000000000000E+00 
    0.0000000000000000E+00     5.0000000000000000E-01     0.0000000000000000E+00 
    1.5624999999971041E-02     0.0000000000000000E+00     0.0000000000000000E+00 
    3.1249999999936742E-02     0.0000000000000000E+00     0.0000000000000000E+00 
    4.6874999999913257E-02     0.0000000000000000E+00     0.0000000000000000E+00 
    6.2499999999889783E-02     0.0000000000000000E+00     0.0000000000000000E+00 
    7.8124999999844805E-02     0.0000000000000000E+00     0.0000000000000000E+00 
    9.3749999999799827E-02     0.0000000000000000E+00     0.0000000000000000E+00 
    1.0937499999975490E-01     0.0000000000000000E+00     0.0000000000000000E+00 
    1.2499999999970990E-01     0.0000000000000000E+00     0.0000000000000000E+00 
    1.4062499999966460E-01     0.0000000000000000E+00     0.0000000000000000E+00 
    1.5624999999961930E-01     0.0000000000000000E+00     0.0000000000000000E+00 
    1.7187499999957390E-01     0.0000000000000000E+00     0.0000000000000000E+00 
    1.8749999999952860E-01     0.0000000000000000E+00     0.0000000000000000E+00 
    2.0312499999948330E-01     0.0000000000000000E+00     0.0000000000000000E+00 
    2.1874999999943801E-01     0.0000000000000000E+00     0.0000000000000000E+00 
    2.3437499999939271E-01     0.0000000000000000E+00     0.0000000000000000E+00 
    2.4999999999934730E-01     0.0000000000000000E+00     0.0000000000000000E+00 
    2.6562499999938810E-01     0.0000000000000000E+00     0.0000000000000000E+00 
    2.8124999999942890E-01     0.0000000000000000E+00     0.0000000000000000E+00 
    2.9687499999946970E-01     0.0000000000000000E+00     0.0000000000000000E+00 
    3.1249999999951050E-01     0.0000000000000000E+00     0.0000000000000000E+00 
    3.2812499999955130E-01     0.0000000000000000E+00     0.0000000000000000E+00 
    3.4374999999959210E-01     0.0000000000000000E+00     0.0000000000000000E+00 
    3.5937499999963290E-01     0.0000000000000000E+00     0.0000000000000000E+00 
    3.7499999999967371E-01     0.0000000000000000E+00     0.0000000000000000E+00 
    3.9062499999971451E-01     0.0000000000000000E+00     0.0000000000000000E+00 
    4.0624999999975520E-01     0.0000000000000000E+00     0.0000000000000000E+00 
    4.2187499999979600E-01     0.0000000000000000E+00     0.0000000000000000E+00 
    4.3749999999983680E-01     0.0000000000000000E+00     0.0000000000000000E+00 
    4.5312499999987760E-01     0.0000000000000000E+00     0.0000000000000000E+00 
    4.6874999999991840E-01     0.0000000000000000E+00     0.0000000000000000E+00 
    4.8437499999995920E-01     0.0000000000000000E+00     0.0000000000000000E+00 
    5.1562499999992384E-01     0.0000000000000000E+00     0.0000000000000000E+00 
    5.3124999999985478E-01     0.0000000000000000E+00     0.0000000000000000E+00 
    5.4687499999994527E-01     0.0000000000000000E+00     0.0000000000000000E+00 
    5.6249999999998668E-01     0.0000000000000000E+00     0.0000000000000000E+00 
    5.7812499999998068E-01     0.0000000000000000E+00     0.0000000000000000E+00 
    5.9374999999994749E-01     0.0000000000000000E+00     0.0000000000000000E+00 
    6.0937499999997913E-01     0.0000000000000000E+00     0.0000000000000000E+00 
    6.2500000000000000E-01     0.0000000000000000E+00     0.0000000000000000E+00 
    6.4062499999998945E-01     0.0000000000000000E+00     0.0000000000000000E+00 
    6.5624999999996603E-01     0.0000000000000000E+00     0.0000000000000000E+00 
    6.7187499999995337E-01     0.0000000000000000E+00     0.0000000000000000E+00 
    6.8749999999998734E-01     0.0000000000000000E+00     0.0000000000000000E+00 
    7.0312499999998124E-01     0.0000000000000000E+00     0.0000000000000000E+00 
    7.1874999999997025E-01     0.0000000000000000E+00     0.0000000000000000E+00 
    7.3437499999999034E-01     0.0000000000000000E+00     0.0000000000000000E+00 
    7.5000000000000000E-01     0.0000000000000000E+00     0.0000000000000000E+00 
    7.6562499999996902E-01     0.0000000000000000E+00     0.0000000000000000E+00 
    7.8124999999993228E-01     0.0000000000000000E+00     0.0000000000000000E+00 
    7.9687499999989997E-01     0.0000000000000000E+00     0.0000000000000000E+00 
    8.1249999999996247E-01     0.0000000000000000E+00     0.0000000000000000E+00 
    8.2812499999999578E-01     0.0000000000000000E+00     0.0000000000000000E+00 
    8.4374999999999556E-01     0.0000000000000000E+00     0.0000000000000000E+00 
    8.5937500000000111E-01     0.0000000000000000E+00     0.0000000000000000E+00 
    8.7499999999997691E-01     0.0000000000000000E+00     0.0000000000000000E+00 
    8.9062500000000921E-01     0.0000000000000000E+00     0.0000000000000000E+00 
    9.0625000000004452E-01     0.0000000000000000E+00     0.0000000000000000E+00 
    9.2187500000005529E-01     0.0000000000000000E+00     0.0000000000000000E+00 
    9.3750000000012723E-01     0.0000000000000000E+00     0.0000000000000000E+00 
    9.5312500000011835E-01     0.0000000000000000E+00     0.0000000000000000E+00 
    9.6875000000005151E-01     0.0000000000000000E+00     0.0000000000000000E+00 
    9.8437500000003086E-01     0.0000000000000000E+00     0.0000000000000000E+00 
    1.0000000000000000E+00     1.5624999999971041E-02     0.0000000000000000E+00 
    1.0000000000000000E+00     3.1249999999936742E-02     0.0000000000000000E+00 
    1.0000000000000000E+00     4.6874999999913257E-02     0.0000000000000000E+00 
    1.0000000000000000E+00     6.2499999999889783E-02     0.0000000000000000E+00 
    1.0000000000000000E+00     7.8124999999844805E-02     0.0000000000000000E+00 
    1.0000000000000000E+00     9.3749999999799827E-02     0.0000000000000000E+00 
    1.0000000000000000E+00     1.0937499999975490E-01     0.0000000000000000E+00 
    1.0000000000000000E+00     1.2499999999970990E-01     0.0000000000000000E+00 
    1.0000000000000000E+00     1.4062499999966460E-01     0.0000000000000000E+00 
    1.0000000000000000E+00     1.5624999999961930E-01     0.0000000000000000E+00 
    1.0000000000000000E+00     1.7187499999957390E-01     0.0000000000000000E+00 
    1.0000000000000000E+00     1.8749999999952860E-01     0.0000000000000000E+00 
    1.0000000000000000E+00     2.0312499999948330E-01     0.0000000000000000E+00 
    1.0000000000000000E+00     2.1874999999943801E-01     0.0000000000000000E+00 
    1.0000000000000000E+00     2.3437499999939271E-01     0.0000000000000000E+00 
    1.0000000000000000E+00     2.4999999999934730E-01     0.0000000000000000E+00 
    1.0000000000000000E+00     2.6562499999938810E-01     0.0000000000000000E+00 
    1.0000000000000000E+00     2.8124999999942890E-01     0.0000000000000000E+00 
    1.0000000000000000E+00     2.9687499999946970E-01     0.0000000000000000E+00 
    1.0000000000000000E+00     3.1249999999951050E-01     0.0000000000000000E+00 
    1.0000000000000000E+00     3.2812499999955130E-01     0.0000000000000000E+00 
    1.0000000000000000E+00     3.4374999999959210E-01     0.0000000000000000E+00 
    1.0000000000000000E+00     3.5937499999963290E-01     0.0000000000000000E+00 
    1.0000000000000000E+00     3.7499999999967371E-01     0.0000000000000000E+00 
    1.0000000000000000E+00     3.9062499999971451E-01     0.0000000000000000E+00 
    1.0000000000000000E+00     4.0624999999975520E-01     0.0000000000000000E+00 
    1.0000000000000000E+00     4.2187499999979600E-01     0.0000000000000000E+00 
    1.0000000000000000E+00     4.3749999999983680E-01     0.0000000000000000E+00 
    1.0000000000000000E+00     4.5312499999987760E-01     0.0000000000000000E+00 
    1.0000000000000000E+00     4.6874999999991840E-01     0.0000000000000000E+00 
    1.0000000000000000E+00     4.8437499999995920E-01     0.0000000000000000E+00 
    1.0000000000000000E+00     5.1562499999992384E-01     0.0000000000000000E+00 
    1.0000000000000000E+00     5.3124999999985478E-01     0.0000000000000000E+00 
    1.0000000000000000E+00     5.4687499999994527E-01     0.0000000000000000E+00 
    1.0000000000000000E+00     5.6249999999998668E-01     0.0000000000000000E+00 
    1.0000000000000000E+00     5.7812499999998068E-01     0.0000000000000000E+00 
    1.0000000000000000E+00     5.9374999999994749E-01     0.0000000000000000E+00 
    1.0000000000000000E+00     6.0937499999997913E-01     0.0000000000000000E+00 
    1.0000000000000000E+00     6.2500000000000000E-01     0.0000000000000000E+00 
    1.0000000000000000E+00     6.4062499999998945E-01     0.0000000000000000E+00 
    1.0000000000000000E+00     6.5624999999996603E-01     0.0000000000000000E+00 
    1.0000000000000000E+00     6.7187499999995337E-01     0.0000000000000000E+00 
    1.0000000000000000E+00     6.8749999999998734E-01     0.0000000000000000E+00 
    1.0000000000000000E+00     7.0312499999998124E-01     0.0000000000000000E+00 
    1.0000000000000000E+00     7.1874999999997025E-01     0.0000000000000000E+00 
    1.0000000000000000E+00     7.3437499999999034E-01     0.0000000000000000E+00 
    1.0000000000000000E+00     7.5000000000000000E-01     0.0000000000000000E+00 
    1.0000000000000000E+00     7.6562499999996902E-01     0.0000000000000000E+00 
    1.0000000000000000E+00     7.8124999999993228E-01     0.0000000000000000E+00 
    1.0000000000000000E+00     7.9687499999989997E-01     0.0000000000000000E+00 
[...]
CELL_DATA 2084 
SCALARS Pressure double 1 
LOOKUP_TABLE default 

    2.7094213714455249E+00 
    2.7294362524555029E+00 
    2.9624915671212455E+00 
    2.7286338425568379E+00 
    2.8679926433169647E+00 
    2.8239053529684304E+00 
    2.6395562967409978E+00 
    2.8066745789509375E+00 
    2.8157985897041811E+00 
    2.8731309698822298E+00 
    2.9551293373179823E+00 
    2.6915618379880430E+00 
    2.7763120373598515E+00 
    2.7507354289459860E+00 
    2.6733511190933532E+00 
    2.7364601221770357E+00 
    2.9187252870746327E+00 
    2.7749089078648526E+00 
    2.9808619158025178E+00 
    2.6919181408455302E+00 
    2.7159160651781042E+00 
    2.8547760977496313E+00 
    2.7342123725775838E+00 
    2.7743346796874628E+00 
    2.6862872586119448E+00 
    2.7928438463846295E+00 
    2.7321334402290200E+00 
    2.6723885299590457E+00 
    2.7959881610533306E+00 
    2.7310748103682601E+00 
    2.6271114063915655E+00 
    2.7933829244515080E+00 
    2.6288103363743645E+00 
    2.6974139147388057E+00 
    2.6959679475470284E+00 
    2.8591376807641771E+00 
    2.7676629346191040E+00 
    2.7629869970316379E+00 
    2.8463060593510585E+00 
    2.7910708184262156E+00 
    2.6478653281102225E+00 
    2.8835265291142544E+00 
    2.6873596865239784E+00 
    2.8254602137949392E+00 
    2.8226593002846236E+00 
    2.6588980208343647E+00 
    2.8768817454485323E+00 
    2.6613351345976750E+00 
    2.6368677538113108E+00 
    2.7726090112906263E+00 
    2.7874693089670335E+00 
    2.6716798673802531E+00 
    2.6897886810057026E+00 
    2.7763149421105693E+00 
    2.7796338278241968E+00 
    2.6772016254830771E+00 
    2.6404179663641503E+00 
    2.8286612324619469E+00 
    2.8417463039683706E+00 
    2.7599917378511041E+00 
    2.7627008051748687E+00 
    2.7260848771956248E+00 
    2.6644977476375509E+00 
    2.7133580900477527E+00 
    2.8818873165449510E+00 
    2.7556209077232632E+00 
    2.8007887759486407E+00 
    2.6561444233906584E+00 
    2.6625513297918455E+00 
    2.6333187907344744E+00 
    2.6835926742488172E+00 
    3.0024154133866423E+00 
    2.7920486816668673E+00 
    2.9414008070441211E+00 
    2.8358137902952949E+00 
    2.9347289970057044E+00 
    2.7855380827185572E+00 
    2.8717316824505614E+00 
    2.6911107012686366E+00 
    2.8915610342452189E+00 
    2.7338972864996083E+00 
    2.7935036422369679E+00 
    2.8234904798359226E+00 
    2.6509641368183785E+00 
    2.8128510525562191E+00 
    2.6976926901095712E+00 
    2.7678067854370272E+00 
    2.8200644226482421E+00 
    2.8464738877547306E+00 
    2.8343408474211387E+00 
    2.8101241990205295E+00 
    2.7980872514534805E+00 
    2.7187192269445770E+00 
    2.8236269139639312E+00 
    2.7468642620687675E+00 
    2.6424076856308960E+00 
    2.7556901779875438E+00 
    2.7790271464723859E+00 
    2.8608451619326605E+00 
    2.7302871539955116E+00 
    2.8756769888580145E+00 
    2.8213764780815045E+00 
    2.8416782539783414E+00 
    2.8519694607892836E+00 
    2.7468306568144025E+00 
    2.8233349016325926E+00 
    2.7960051891658666E+00 
    2.8629070789568809E+00 
    2.7104201682524045E+00 
    3.0320226277566311E+00 
    2.7389207341433841E+00 
    2.7924361336139127E+00 
    2.8314378687654767E+00 
    2.8951247711219739E+00 
    2.9471171481953737E+00 
    2.7476563836931702E+00 
    2.8264605856128329E+00 
    2.8267730887626175E+00 
    2.7324706861626717E+00 
    2.6959868246201735E+00 
    2.7769640316844830E+00 
    2.8407418905334252E+00 
    2.7011606390842395E+00 
    2.9215135641324905E+00 
    2.8034166469803194E+00 
    2.8482697903834140E+00 
    2.7834018302810812E+00 
    2.6983915397678393E+00 
    2.7381015407564986E+00 
    2.7000184914771115E+00 
    2.9450753899547228E+00 
    2.9547386906980817E+00 
    2.6510271660853109E+00 
    2.8769217846417190E+00 
    2.8585845366297997E+00 
    2.7612352009547632E+00 
    2.8370891567916647E+00 
    2.6928904505281008E+00 
    2.8578138343801722E+00 
    2.9273717391850580E+00 
    2.8101286082780432E+00 
    2.9663340236393640E+00 
    2.9368993637350704E+00 
    2.7829154540165275E+00 
    2.7161345061283191E+00 
    2.7817611156124138E+00 
    2.8220063852855715E+00 
    2.8559097927794697E+00 
    2.7476050179899238E+00 
    2.8038184643488453E+00 
    2.8235525936433117E+00 
    2.9290733141209833E+00 
    2.9928374693683426E+00 
    2.7438773050490224E+00 
    2.7558589012668167E+00 
    2.9795154908372048E+00 
    2.6998147672404427E+00 
    2.8212829483926516E+00 
    2.7523846219124071E+00 
    2.9218065955693251E+00 
    3.1100244219485300E+00 
    3.0580695384467980E+00 
    2.9958304710646728E+00 
    3.0188044573983599E+00 
    2.9730389747525456E+00 
    2.9885065301775828E+00 
    2.8202846245932016E+00 
    3.0235369261437444E+00 
    2.8064453430455547E+00 
    2.9808024167667053E+00 
    2.8074613287630168E+00 
    2.9141402489758947E+00 
    2.9351614821438972E+00 
    2.8601891308019018E+00 
    2.9054886441245085E+00 
    2.7563226778734604E+00 
    2.9086673575087327E+00 
    2.8017060739670558E+00 
    2.8062919791019980E+00 
    2.8068378801574911E+00 
    2.8421955179367937E+00 
    2.7431898605935756E+00 
    2.9160334368090286E+00 
    2.8408572706273292E+00 
    2.8387480508627507E+00 
    2.6129955054288390E+00 
    2.8709763495621496E+00 
    2.9398224229506886E+00 
    2.7445324054882794E+00 
    2.8968208388168106E+00 
    2.9522346597608391E+00 
    2.9721811665663211E+00 
    2.8392299638186000E+00 
    2.7764547514705478E+00 
    2.7456594347280534E+00 
    2.7457991446363970E+00 
    2.8829180837698445E+00 
    2.8387369713528297E+00 
    2.7747525664032415E+00 
    2.8845538240470563E+00 
    2.8086464019338475E+00 
    2.7472198094954705E+00 
    2.8415077555470263E+00 
    2.6931379517665817E+00 
    2.7417181378254440E+00 
    2.9566517276896822E+00 
    2.8794181411880180E+00 
    2.7561881345674002E+00 
    2.9033593875304438E+00 
    2.8960528461550501E+00 
    2.7506298692241264E+00 
    2.7818679606227978E+00 
    2.7870869380114307E+00 
    2.8692408112315744E+00 
    2.8643294898747444E+00 
    2.9336233196486794E+00 
    2.7766573061212974E+00 
    2.8595262352616415E+00 
    2.8777113225991413E+00 
    2.7558286260216227E+00 
    2.7656839850798289E+00 
    2.6198651309533871E+00 
    2.7706363158671627E+00 
    2.9637931981667562E+00 
    2.8378190488047532E+00 
    2.8638336531418891E+00 
    2.8068818269067002E+00 
    2.8568865890376243E+00 
    2.7577019142221300E+00 
    2.7214453317269882E+00 
    2.7174878356723671E+00 
    2.7588435952938948E+00 
    2.7225653703407069E+00 
    2.7736000350560039E+00 
    2.8464097618991953E+00 
    2.7394706406873266E+00 
    2.8967870894354091E+00 
    2.9064645479110189E+00 
    2.7707357388297238E+00 
    2.7278128074198755E+00 
    2.8490949911168562E+00 
    2.7490335775549868E+00 
    2.7003669978992813E+00 
    2.7400651686251991E+00 
    2.7008371348774616E+00 
    2.6822186171678108E+00 
    2.7620625836441790E+00 
    2.8271378675390695E+00 
    2.9200750036057768E+00 
    2.6663162773206741E+00 
    2.7577261402502899E+00 
    2.7053490176888326E+00 
    2.7360847333997684E+00 
    3.0034864452174235E+00 
    2.7144734672796895E+00 
    2.8076399544827524E+00 
    2.7298681897241868E+00 
    2.7609577109252523E+00 
    2.7433754256579066E+00 
    2.7704063495124354E+00 
    2.7109244288757091E+00 
    2.7670463997707326E+00 
    2.7211942491704701E+00 
    2.7945086680462263E+00 
    2.7155811162308074E+00 
    2.7403467587920414E+00 
    2.6803715985328074E+00 
    2.6949344252641332E+00 
    2.8996808633468651E+00 
    2.6791738032725538E+00 
    2.6652083775108339E+00 
    2.7328805462087735E+00 
    2.7113637018066821E+00 
    3.0696385571704412E+00 
    2.7374948329511035E+00 
    2.8629240050884377E+00 
    2.7260111299844434E+00 
    2.6716836913735582E+00 
    2.7543511377498975E+00 
    2.7238422491933605E+00 
    2.7778637389229721E+00 
    2.7169902202813301E+00 
    2.7489208925222286E+00 
    2.7321620614794497E+00 
    2.6889980018372008E+00 
    2.7497472136176424E+00 
    2.7392777658093745E+00 
    2.6812197531526412E+00 
    2.7030214785941076E+00 
    2.7348185958568045E+00 
    2.7273982798803607E+00 
    2.6408577295570392E+00 
    2.7160894558901236E+00 
    2.7294218714832912E+00 
    2.7736540408441832E+00 
    2.6887583789294123E+00 
    2.6703476238137522E+00 
    2.8778427480069739E+00 
    2.7216009247572264E+00 
    2.8094864333756169E+00 
    3.0682869549274545E+00 
    2.8890438451759572E+00 
    2.8216321977267502E+00 
    2.9155602744598252E+00 
    2.7107800626581233E+00 
    2.7028112658553911E+00 
    2.6994747900457439E+00 
    2.6753047167148902E+00 
    2.7076990494313371E+00 
    2.6659671722204878E+00 
    2.9208080182080862E+00 
    2.6969587665663628E+00 
    2.7819330232239716E+00 
    2.8990063466822882E+00 
    2.7837888430378914E+00 
    2.7210870391205786E+00 
    2.8528668385432314E+00 
    2.6628440710525441E+00 
    2.6927399343398548E+00 
    2.7064774231134621E+00 
    3.0343052047073180E+00 
    2.8353484071672219E+00 
    2.9103597821511236E+00 
    2.9129095054408332E+00 
    2.7885607303156346E+00 
    2.8781076432129846E+00 
    2.7146945001781675E+00 
    2.5872167345884787E+00 
    3.2201323313030725E+00 
    2.6256704426773418E+00 
    2.6504679676745546E+00 
    2.6773653980868302E+00 
    2.8114957803199285E+00 
    2.8929567915070939E+00 
    2.6045031753027237E+00 
    2.9483767330428581E+00 
    2.9672797112746649E+00 
    2.7923259189251723E+00 
    2.7179366819248769E+00 
    2.9395812423117746E+00 
    2.7904283246823605E+00 
    2.6777361585026092E+00 
    2.9065128444214006E+00 
    2.6374017746345446E+00 
    2.6621771163348686E+00 
    2.8062270477903128E+00 
    2.7312336398861716E+00 
    2.6008117749666475E+00 
    2.7165153500601535E+00 
    2.6384930033715834E+00 
    2.9286438778506265E+00 
    2.6251093805096333E+00 
    2.7016949746948269E+00 
    2.8922654653867563E+00 
    2.7408253765193233E+00 
    2.7917496410970282E+00 
    2.6468704395818246E+00 
    2.7657762097601135E+00 
    2.7926711527462800E+00 
    2.7090425359815029E+00 
    2.7606195325839997E+00 
    2.8990256797462686E+00 
    2.6142245471675833E+00 
    2.7569394700730054E+00 
    2.7019484361691570E+00 
    2.6869028586620503E+00 
    2.7601985408086813E+00 
    2.6785557993609652E+00 
    2.7679155725804447E+00 
    2.9157856021975692E+00 
    2.9294513077520414E+00 
    2.6320125802219159E+00 
    3.0828344351289179E+00 
    2.7735385275133031E+00 
    2.7074207488031155E+00 
    2.9572216678044847E+00 
    2.7997868238267007E+00 
    2.8213684623299433E+00 
    2.7141806143160041E+00 
    2.7065991095031703E+00 
    2.8527890622365022E+00 
    2.8083081023437475E+00 
    2.6015632044140964E+00 
    2.6855315416220691E+00 
    2.9798155806618420E+00 
    2.7893704670617443E+00 
    2.8838134759455532E+00 
    2.8086724777426544E+00 
    2.9042864039176566E+00 
    2.8522533911542829E+00 
    2.6188494488433935E+00 
    2.6544326760174846E+00 
    2.7231262284131779E+00 
    2.9301266479226027E+00 
    2.8872451135827446E+00 
    2.7253896862859808E+00 
    2.7081553078688541E+00 
    2.7293066561452450E+00 
    2.7223429589031589E+00 
    2.8669557536511379E+00 
    2.6843886027029127E+00 
    2.8184702810987305E+00 
    3.0160601481655158E+00 
    2.6728305297178236E+00 
    2.9848246698860406E+00 
    2.7456194013996797E+00 
    2.9987010883131298E+00 
    2.8953204182820587E+00 
    3.1351220453478450E+00 
    2.7075965284776440E+00 
    2.8815389812834011E+00 
    2.7725975352469598E+00 
    2.6920528383929079E+00 
    2.9119150338341004E+00 
    2.7607508017823963E+00 
    2.9228197966795846E+00 
    2.6725646531986551E+00 
    2.8860689303688010E+00 
    2.7564085891701153E+00 
    2.7959271052187931E+00 
    2.6231918718079643E+00 
    2.6988495776165968E+00 
    2.6854240873003428E+00 
    2.9513157954153679E+00 
    2.7135411516650607E+00 
    3.0107214102918056E+00 
    2.9659839244610016E+00 
    2.6906506355646336E+00 
    2.7704403764851069E+00 
    2.7345052162806791E+00 
    2.6445707157061746E+00 
    2.7640840912016449E+00 
    2.9018756896132194E+00 
    2.7216816699969826E+00 
    2.6608138800841417E+00 
    3.0370048813504802E+00 
    2.8672976562506198E+00 
    2.5871727891150611E+00 
    2.6048961970755347E+00 
    2.6517196669836456E+00 
    2.6617717733362758E+00 
    2.6571715948463743E+00 
    2.6147749456335077E+00 
    2.7166474587128504E+00 
    2.7030789846334011E+00 
    2.5745386618408248E+00 
    2.5911240982270258E+00 
    2.5108750744559405E+00 
    2.3918819861021006E+00 
    2.3796025185979417E+00 
    2.4132521239932179E+00 
    2.4200926358292136E+00 
    2.4333916749135840E+00 
    2.5402139495789515E+00 
    2.3573424347414558E+00 
    2.5145649791289579E+00 
    2.3651279196344186E+00 
    2.4622842899665764E+00 
    2.4095511615045058E+00 
    2.4204933764844503E+00 
    2.3927884608590646E+00 
    2.3652196980013853E+00 
    2.6108122617170157E+00 
    2.5406629561445011E+00 
    2.5876787469010885E+00 
    2.5138116466540774E+00 
    2.4485881732186239E+00 
    2.3716864482862245E+00 
    2.3489904777434671E+00 
    2.6115713844780477E+00 
    2.4718838922793811E+00 
    2.3468483511719107E+00 
    2.4266526742406258E+00 
    2.5741065690521854E+00 
    2.5592832012549103E+00 
    2.3258580434350882E+00 
    2.3548371741870158E+00 
    2.4742061640707220E+00 
    2.5795959513023452E+00 
    2.5327423148671482E+00 
    2.4448323138354131E+00 
    2.3891722189158808E+00 
    2.6250261437099605E+00 
    2.6022120005618907E+00 
    2.5743971980991938E+00 
    2.6671367636907206E+00 
    2.3881554837045460E+00 
    2.4211614792477776E+00 
    2.4119493058298174E+00 
    2.6003284767536545E+00 
    2.4203337000027045E+00 
    2.5709470065067803E+00 
    2.4942536331065601E+00 
    2.4806974063372635E+00 
    2.4701130170194241E+00 
    2.4661469030273304E+00 
    2.5858326120420529E+00 
    2.5954559405405306E+00 
    2.4804414138591397E+00 
    2.3770868156993705E+00 
    2.4538029287018168E+00 
    2.4461316978584016E+00 
    2.3561582317668335E+00 
    2.5473034345481200E+00 
    2.3611432151236933E+00 
    2.5866636366117843E+00 
    2.3710518496172961E+00 
    2.5021026061325746E+00 
    2.4065340293994972E+00 
    2.3231529914230831E+00 
    2.3299639567626929E+00 
    2.3354112304696546E+00 
    2.3365097730579536E+00 
    2.4502025101778999E+00 
    2.3389282683130266E+00 
    2.3726343892304582E+00 
    2.3811240893500258E+00 
    2.6415487124926060E+00 
    2.4716133713696902E+00 
    2.3628359297268640E+00 
    2.5873373044904393E+00 
    2.4234613147517399E+00 
    2.4111484857152816E+00 
    2.5421644464626061E+00 
    2.6334052567186408E+00 
    2.5138168757957509E+00 
    2.5187339972021774E+00 
    2.4787151781989358E+00 
    2.4986785253058765E+00 
    2.5631529078456712E+00 
    2.5624422519652601E+00 
    2.5640740490366420E+00 
    2.5732275981805603E+00 
    2.4846279890659502E+00 
    2.5904278078985916E+00 
    2.5726030851001784E+00 
    2.5072245737262739E+00 
    2.5252548287942331E+00 
    2.6212693432227714E+00 
    2.5629908534258994E+00 
    2.5850024693172622E+00 
    2.6286670302078332E+00 
    2.4306316313801362E+00 
    2.4015878247065006E+00 
    2.5097694424896311E+00 
    2.6043724658349658E+00 
    2.6360307369971685E+00 
    2.5872899464316252E+00 
    2.3331874582231169E+00 
    2.4018517550319332E+00 
    2.5090175776534260E+00 
    2.4511879287699880E+00 
    2.3844249490134013E+00 
    2.5757598163065345E+00 
    2.5147181144830175E+00 
    2.3679722454529992E+00 
    2.5543127115471504E+00 
    2.3896882050981039E+00 
    2.4102661128383915E+00 
    2.4019810868368880E+00 
    2.5196230105060282E+00 
    2.5918506602113864E+00 
    2.6258372911638088E+00 
    2.5611026335888250E+00 
    2.6090342990326567E+00 
    2.3827403039255892E+00 
    2.3705078882681669E+00 
    2.6083009842448792E+00 
    2.5641418486640366E+00 
    2.3312853460368910E+00 
    2.3246341679958609E+00 
    2.6457324051873252E+00 
    2.4828634167377581E+00 
    2.5633000354501312E+00 
    2.5065153887046812E+00 
    2.4334049560405404E+00 
    2.5095671736738807E+00 
    2.5330842857441809E+00 
    2.4912740249258345E+00 
    2.4672216355637184E+00 
    2.4666269967211996E+00 
    2.3382611603871317E+00 
    2.6057855029650021E+00 
    2.6571935467625534E+00 
    2.3409726172899434E+00 
    2.3406664906734829E+00 
    2.3397077680650922E+00 
    2.3374228956420047E+00 
    2.3364165258389011E+00 
    2.5630766095999422E+00 
    2.4418807842926489E+00 
    2.3421638083044782E+00 
    2.5277712703952004E+00 
    2.5347807371451681E+00 
    2.4395343046719828E+00 
    2.4557660307237397E+00 
    2.4384240717077450E+00 
    2.4835680358638115E+00 
    2.5997971657749814E+00 
    2.3398194603646090E+00 
    2.3409275017750009E+00 
    2.3859762344656916E+00 
    2.4624098699790600E+00 
    2.5865046699705596E+00 
    2.3724206955960998E+00 
    2.6050620327444789E+00 
    2.3305591352956050E+00 
    2.4395210660225279E+00 
    2.3280052609151549E+00 
    2.3211499549012595E+00 
    2.3433505785393498E+00 
    2.6075105392093452E+00 
    2.5175247598718027E+00 
    2.4436494933970931E+00 
    2.4833944631034655E+00 
    2.5340101495268312E+00 
    2.3282314565635867E+00 
    2.4360720396386588E+00 
    2.5003510900987691E+00 
    2.6128946223138683E+00 
    2.6065702950433445E+00 
    2.6024478868861163E+00 
    2.6102001404653441E+00 
    2.6346182173512558E+00 
    2.4855108427832007E+00 
    2.3796154365635545E+00 
    2.5339400406071673E+00 
    2.5331669661945528E+00 
    2.4427330791660329E+00 
    2.3302525026625207E+00 
    2.5302208787072860E+00 
    2.5600253143116554E+00 
    2.5796067037784658E+00 
    2.5541986568239756E+00 
    2.3262100920023148E+00 
    2.5462116666863106E+00 
    2.5359827362252543E+00 
    2.3385956584273830E+00 
    2.3846333244767317E+00 
    2.5140631148087169E+00 
    2.5530730570020164E+00 
    2.5408082742450020E+00 
    2.5420706206008070E+00 
    2.5418251588519061E+00 
    2.6215118384658109E+00 
    2.5293036376075562E+00 
    2.5687088803218909E+00 
    2.4893075205880941E+00 
    2.5208432391036726E+00 
    2.3395189948021908E+00 
    2.6268825537922416E+00 
    2.6135176536774023E+00 
    2.6278371226477968E+00 
    2.4348366483768298E+00 
    2.4064422473214786E+00 
    2.3983785283905923E+00 
    2.5568517941768842E+00 
    2.5214779818613606E+00 
    2.5619783774565534E+00 
    2.4246396679500304E+00 
    2.3477169788364947E+00 
    2.3719753616410584E+00 
    2.6025152820461832E+00 
    2.3675091466485800E+00 
    2.4719473839403094E+00 
    2.4088479550852924E+00 
    2.5816159735923332E+00 
    2.5038902598722061E+00 
    2.4836469648075958E+00 
    2.6175600345991712E+00 
    2.6067542819997200E+00 
    2.4440144471235539E+00 
    2.4275281681115084E+00 
    2.3983017810870817E+00 
    2.4557363165586308E+00 
    2.5769561913204311E+00 
    2.3314072940607855E+00 
    2.5964220028932306E+00 
    2.6166888476826848E+00 
    2.4410666209806879E+00 
    2.4315200997369097E+00 
    2.3555654342086023E+00 
    2.3371711218164037E+00 
    2.6342739798801187E+00 
    2.4248544560764036E+00 
    2.5257658498216804E+00 
    2.4549822128237699E+00 
    2.5336866288124233E+00 
    2.3669854175884368E+00 
    2.4820696588379225E+00 
    2.6327611813304728E+00 
    2.4064586234169605E+00 
    2.4651847157918478E+00 
    2.3866213487824823E+00 
    2.4607108552902202E+00 
    2.6453904872957708E+00 
    2.4121749235556549E+00 
    2.5222768268437559E+00 
    2.4145003499284119E+00 
    2.3433619484623760E+00 
    2.5536037287824849E+00 
    2.5403789784363267E+00 
    2.5241480177418159E+00 
    2.4116778515851784E+00 
    2.4165626747079600E+00 
    2.3524851616748128E+00 
    2.5053195773350478E+00 
    2.5544394741420366E+00 
    2.4781540849612620E+00 
    2.3715417787294366E+00 
    2.4001461265536927E+00 