# vtk DataFile Version 2.0
Pressure Field Data 
ASCII 
DATASET UNSTRUCTURED_GRID 

POINTS 2213 double 

    0.0000000000000000E+00     0.0000000000000000E+00     0.0000000000000000E+00 
    5.0000000000000000E-01     0.0000000000000000E+00     0.0000000000000000E+00 
    1.0000000000000000E+00     0.0000000000000000E+00     0.0000000000000000E+00 
    1.0000000000000000E+00     5.0000000000000000E-01     0.0000000000000000E+00 
    1.0000000000000000E+00     1.0000000000000000E+00     0.0000000000000000E+00 
    5.0000000000000000E-01     1.0000000000000000E+00     0.0000000000000000E+00 
    0.0000000000000000E+00     1.0000000000000000E+00     0.0000000000000000E+00 
    0.0000000000000000E+00     5.0000000000000000E-01     0.0000000000000000E+00 
    1.5624999999971041E-02     0.0000000000000000E+00     0.0000000000000000E+00 
    3.1249999999936742E-02     0.0000000000000000E+00     0.0000000000000000E+00 
    4.6874999999913257E-02     0.0000000000000000E+00     0.0000000000000000E+00 
    6.2499999999889783E-02     0.0000000000000000E+00     0.0000000000000000E+00 
    7.8124999999844805E-02     0.0000000000000000E+00     0.0000000000000000E+00 
    9.3749999999799827E-02     0.0000000000000000E+00     0.0000000000000000E+00 
    1.0937499999975490E-01     0.0000000000000000E+00     0.0000000000000000E+00 
    1.2499999999970990E-01     0.0000000000000000E+00     0.0000000000000000E+00 
    1.4062499999966460E-01     0.0000000000000000E+00     0.0000000000000000E+00 
    1.5624999999961930E-01     0.0000000000000000E+00     0.0000000000000000E+00 
    1.7187499999957390E-01     0.0000000000000000E+00     0.0000000000000000E+00 
    1.8749999999952860E-01     0.0000000000000000E+00     0.0000000000000000E+00 
    2.0312499999948330E-01     0.0000000000000000E+00     0.0000000000000000E+00 
    2.1874999999943801E-01     0.0000000000000000E+00     0.0000000000000000E+00 
    2.3437499999939271E-01     0.0000000000000000E+00     0.0000000000000000E+00 
    2.4999999999934730E-01     0.0000000000000000E+00     0.0000000000000000E+00 
    2.6562499999938810E-01     0.0000000000000000E+00     0.0000000000000000E+00 
    2.8124999999942890E-01     0.0000000000000000E+00     0.0000000000000000E+00 
    2.9687499999946970E-01     0.0000000000000000E+00     0.0000000000000000E+00 
    3.1249999999951050E-01     0.0000000000000000E+00     0.0000000000000000E+00 
    3.2812499999955130E-01     0.0000000000000000E+00     0.0000000000000000E+00 
    3.4374999999959210E-01     0.0000000000000000E+00     0.0000000000000000E+00 
    3.5937499999963290E-01     0.0000000000000000E+00     0.0000000000000000E+00 
    3.7499999999967371E-01     0.0000000000000000E+00     0.0000000000000000E+00 
    3.9062499999971451E-01     0.0000000000000000E+00     0.0000000000000000E+00 
    4.0624999999975520E-01     0.0000000000000000E+00     0.0000000000000000E+00 
    4.2187499999979600E-01     0.0000000000000000E+00     0.0000000000000000E+00 
    4.3749999999983680E-01     0.0000000000000000E+00     0.0000000000000000E+00 
    4.5312499999987760E-01     0.0000000000000000E+00     0.0000000000000000E+00 
    4.6874999999991840E-01     0.0000000000000000E+00     0.0000000000000000E+00 
    4.8437499999995920E-01     0.0000000000000000E+00     0.0000000000000000E+00 
    5.1562499999992384E-01     0.0000000000000000E+00     0.0000000000000000E+00 
    5.3124999999985478E-01     0.0000000000000000E+00     0.0000000000000000E+00 
    5.4687499999994527E-01     0.0000000000000000E+00     0.0000000000000000E+00 
    5.6249999999998668E-01     0.0000000000000000E+00     0.0000000000000000E+00 
    5.7812499999998068E-01     0.0000000000000000E+00     0.0000000000000000E+00 
    5.9374999999994749E-01     0.0000000000000000E+00     0.0000000000000000E+00 
    6.0937499999997913E-01     0.0000000000000000E+00     0.0000000000000000E+00 
    6.2500000000000000E-01     0.0000000000000000E+00     0.0000000000000000E+00 
    6.4062499999998945E-01     0.0000000000000000E+00     0.0000000000000000E+00 
    6.5624999999996603E-01     0.0000000000000000E+00     0.0000000000000000E+00 
    6.7187499999995337E-01     0.0000000000000000E+00     0.0000000000000000E+00 
    6.8749999999998734E-01     0.0000000000000000E+00     0.0000000000000000E+00 
    7.0312499999998124E-01     0.0000000000000000E+00     0.0000000000000000E+00 
    7.1874999999997025E-01     0.0000000000000000E+00     0.0000000000000000E+00 
    7.3437499999999034E-01     0.0000000000000000E+00     0.0000000000000000E+00 
    7.5000000000000000E-01     0.0000000000000000E+00     0.0000000000000000E+00 
    7.6562499999996902E-01     0.0000000000000000E+00     0.0000000000000000E+00 
    7.8124999999993228E-01     0.0000000000000000E+00     0.0000000000000000E+00 
    7.9687499999989997E-01     0.0000000000000000E+00     0.0000000000000000E+00 
    8.1249999999996247E-01     0.0000000000000000E+00     0.0000000000000000E+00 
    8.2812499999999578E-01     0.0000000000000000E+00     0.0000000000000000E+00 
    8.4374999999999556E-01     0.0000000000000000E+00     0.0000000000000000E+00 
    8.5937500000000111E-01     0.0000000000000000E+00     0.0000000000000000E+00 
    8.7499999999997691E-01     0.0000000000000000E+00     0.0000000000000000E+00 
    8.9062500000000921E-01     0.0000000000000000E+00     0.0000000000000000E+00 
    9.0625000000004452E-01     0.0000000000000000E+00     0.0000000000000000E+00 
    9.2187500000005529E-01     0.0000000000000000E+00     0.0000000000000000E+00 
    9.3750000000012723E-01     0.0000000000000000E+00     0.0000000000000000E+00 
    9.5312500000011835E-01     0.0000000000000000E+00     0.0000000000000000E+00 
    9.6875000000005151E-01     0.0000000000000000E+00     0.0000000000000000E+00 
    9.8437500000003086E-01     0.0000000000000000E+00     0.0000000000000000E+00 
    1.0000000000000000E+00     1.5624999999971041E-02     0.0000000000000000E+00 
    1.0000000000000000E+00     3.1249999999936742E-02     0.0000000000000000E+00 
    1.0000000000000000E+00     4.6874999999913257E-02     0.0000000000000000E+00 
    1.0000000000000000E+00     6.2499999999889783E-02     0.0000000000000000E+00 
    1.0000000000000000E+00     7.8124999999844805E-02     0.0000000000000000E+00 
    1.0000000000000000E+00     9.3749999999799827E-02     0.0000000000000000E+00 
    1.0000000000000000E+00     1.0937499999975490E-01     0.0000000000000000E+00 
    1.0000000000000000E+00     1.2499999999970990E-01     0.0000000000000000E+00 
    1.0000000000000000E+00     1.4062499999966460E-01     0.0000000000000000E+00 
    1.0000000000000000E+00     1.5624999999961930E-01     0.0000000000000000E+00 
    1.0000000000000000E+00     1.7187499999957390E-01     0.0000000000000000E+00 
    1.0000000000000000E+00     1.8749999999952860E-01     0.0000000000000000E+00 
    1.0000000000000000E+00     2.0312499999948330E-01     0.0000000000000000E+00 
    1.0000000000000000E+00     2.1874999999943801E-01     0.0000000000000000E+00 
    1.0000000000000000E+00     2.3437499999939271E-01     0.0000000000000000E+00 
    1.0000000000000000E+00     2.4999999999934730E-01     0.0000000000000000E+00 
    1.0000000000000000E+00     2.6562499999938810E-01     0.0000000000000000E+00 
    1.0000000000000000E+00     2.8124999999942890E-01     0.0000000000000000E+00 
    1.0000000000000000E+00     2.9687499999946970E-01     0.0000000000000000E+00 
    1.0000000000000000E+00     3.1249999999951050E-01     0.0000000000000000E+00 
    1.0000000000000000E+00     3.2812499999955130E-01     0.0000000000000000E+00 
    1.0000000000000000E+00     3.4374999999959210E-01     0.0000000000000000E+00 
    1.0000000000000000E+00     3.5937499999963290E-01     0.0000000000000000E+00 
    1.0000000000000000E+00     3.7499999999967371E-01     0.0000000000000000E+00 
    1.0000000000000000E+00     3.9062499999971451E-01     0.0000000000000000E+00 
    1.0000000000000000E+00     4.0624999999975520E-01     0.0000000000000000E+00 
    1.0000000000000000E+00     4.2187499999979600E-01     0.0000000000000000E+00 
    1.0000000000000000E+00     4.3749999999983680E-01     0.0000000000000000E+00 
    1.0000000000000000E+00     4.5312499999987760E-01     0.0000000000000000E+00 
    1.0000000000000000E+00     4.6874999999991840E-01     0.0000000000000000E+00 
    1.0000000000000000E+00     4.8437499999995920E-01     0.0000000000000000E+00 
    1.0000000000000000E+00     5.1562499999992384E-01     0.0000000000000000E+00 
    1.0000000000000000E+00     5.3124999999985478E-01     0.0000000000000000E+00 
    1.0000000000000000E+00     5.4687499999994527E-01     0.0000000000000000E+00 
    1.0000000000000000E+00     5.6249999999998668E-01     0.0000000000000000E+00 
    1.0000000000000000E+00     5.7812499999998068E-01     0.0000000000000000E+00 
    1.0000000000000000E+00     5.9374999999994749E-01     0.0000000000000000E+00 
    1.0000000000000000E+00     6.0937499999997913E-01     0.0000000000000000E+00 
    1.0000000000000000E+00     6.2500000000000000E-01     0.0000000000000000E+00 
    1.0000000000000000E+00     6.4062499999998945E-01     0.0000000000000000E+00 
    1.0000000000000000E+00     6.5624999999996603E-01     0.0000000000000000E+00 
    1.0000000000000000E+00     6.7187499999995337E-01     0.0000000000000000E+00 
    1.0000000000000000E+00     6.8749999999998734E-01     0.0000000000000000E+00 
    1.0000000000000000E+00     7.0312499999998124E-01     0.0000000000000000E+00 
    1.0000000000000000E+00     7.1874999999997025E-01     0.0000000000000000E+00 
    1.0000000000000000E+00     7.3437499999999034E-01     0.0000000000000000E+00 
    1.0000000000000000E+00     7.5000000000000000E-01     0.0000000000000000E+00 
    1.0000000000000000E+00     7.6562499999996902E-01     0.0000000000000000E+00 
    1.0000000000000000E+00     7.8124999999993228E-01     0.0000000000000000E+00 
    1.0000000000000000E+00     7.9687499999989997E-01     0.0000000000000000E+00 
[...]
CELL_DATA 2084 
SCALARS Pressure double 1 
LOOKUP_TABLE default 

    2.5565304694534139E+00 
    2.5638434338412597E+00 
    2.7389129814208877E+00 
    2.5625563396081028E+00 
    2.6619245498650694E+00 
    2.6302034996409369E+00 
    2.5081108924158340E+00 
    2.6180082550118877E+00 
    2.6235540327187201E+00 
    2.6657948633442681E+00 
    2.7321921056817904E+00 
    2.5462303675065034E+00 
    2.5941062878731058E+00 
    2.5836744764761259E+00 
    2.5254492135675126E+00 
    2.5748472827524362E+00 
    2.7029185146452424E+00 
    2.5979694173490326E+00 
    2.7546138166363172E+00 
    2.5373616489579880E+00 
    2.5588772247123632E+00 
    2.6532898146308290E+00 
    2.5735674655314424E+00 
    2.5939606730827407E+00 
    2.5337373198826989E+00 
    2.6093502716012544E+00 
    2.5694401866993442E+00 
    2.5337241221708622E+00 
    2.6098013766360673E+00 
    2.5627098814694165E+00 
    2.5004978113219773E+00 
    2.6074313139499190E+00 
    2.5068146846232735E+00 
    2.5411639181163381E+00 
    2.5486267494956500E+00 
    2.6554011443681036E+00 
    2.5933567173489336E+00 
    2.5907509494060967E+00 
    2.6450152609958848E+00 
    2.6055237201277377E+00 
    2.5115452209087272E+00 
    2.6755202927156225E+00 
    2.5354188959306638E+00 
    2.6312924809109512E+00 
    2.6294252285147612E+00 
    2.5170540869350067E+00 
    2.6686571229410330E+00 
    2.5272381168150564E+00 
    2.5055856304644437E+00 
    2.5909682623757591E+00 
    2.6043408906142624E+00 
    2.5337494626950647E+00 
    2.5456252658424474E+00 
    2.5981034361299833E+00 
    2.6011166932003889E+00 
    2.5374075504446552E+00 
    2.5139139226935261E+00 
    2.6310358116646202E+00 
    2.6427270710137991E+00 
    2.5812524495828182E+00 
    2.5848852807429683E+00 
    2.5685927887455597E+00 
    2.5211031812054858E+00 
    2.5506398641512713E+00 
    2.6737079001358559E+00 
    2.5784047273942328E+00 
    2.6117810666240797E+00 
    2.5156366145907372E+00 
    2.5276398336297650E+00 
    2.5029673890411850E+00 
    2.5327296250303548E+00 
    2.7735578078196803E+00 
    2.6081016559118204E+00 
    2.7211138909197579E+00 
    2.6369100354132127E+00 
    2.7154329800479169E+00 
    2.6039286120658218E+00 
    2.6662424065002743E+00 
    2.5461750805224979E+00 
    2.6812113184176543E+00 
    2.5731057799913439E+00 
    2.6074329021798603E+00 
    2.6282332246390352E+00 
    2.5203592596112840E+00 
    2.6194994689802469E+00 
    2.5407952317814897E+00 
    2.5926690212481480E+00 
    2.6257554265838978E+00 
    2.6462206183339476E+00 
    2.6365149620888473E+00 
    2.6183972868962733E+00 
    2.6096671740728232E+00 
    2.5589268035765591E+00 
    2.6285130555348353E+00 
    2.5735869448433202E+00 
    2.5077971842694389E+00 
    2.5860717415153704E+00 
    2.5950973206979939E+00 
    2.6572671298606401E+00 
    2.5620294040029785E+00 
    2.6690124659197312E+00 
    2.6255157168261634E+00 
    2.6416902836193281E+00 
    2.6512030853483251E+00 
    2.5733585145441804E+00 
    2.6274240071363644E+00 
    2.6089095309762502E+00 
    2.6593912784303306E+00 
    2.5586049509608979E+00 
    2.8009666723350812E+00 
    2.5756329088249506E+00 
    2.6074200517278969E+00 
    2.6349433747961855E+00 
    2.6837597959687609E+00 
    2.7255408272100952E+00 
    2.5812619818213451E+00 
    2.6291719680576477E+00 
    2.6306236856001624E+00 
    2.5628593252442085E+00 
    2.5426538267907444E+00 
    2.5980525385448257E+00 
    2.6406120173614673E+00 
    2.5476734929844920E+00 
    2.7048394728462490E+00 
    2.6161796076908592E+00 
    2.6472749909845223E+00 
    2.6030561918257513E+00 
    2.5445333459278840E+00 
    2.5665065446720003E+00 
    2.5421459576175716E+00 
    2.7249771047616398E+00 
    2.7326450939787943E+00 
    2.5125399253790004E+00 
    2.6697802038489447E+00 
    2.6557098050479913E+00 
    2.5833841171584515E+00 
    2.6400570677482134E+00 
    2.5397338354585921E+00 
    2.6553067090264140E+00 
    2.7092400574662698E+00 
    2.6176195441182646E+00 
    2.7422184723959764E+00 
    2.7175819834756716E+00 
    2.5976019958409662E+00 
    2.5526386414245934E+00 
    2.5986065097142994E+00 
    2.6277070312279616E+00 
    2.6528994764116400E+00 
    2.5743470591805302E+00 
    2.6132672057201538E+00 
    2.6288718578365806E+00 
    2.7115029233511962E+00 
    2.7651133819854090E+00 
    2.5703690606876610E+00 
    2.5783411421254332E+00 
    2.7532338140711921E+00 
    2.5428671255102975E+00 
    2.6281904519090507E+00 
    2.5770840439130462E+00 
    2.7046442078623043E+00 
    2.8757884695558795E+00 
    2.8254872724558036E+00 
    2.7671801423493618E+00 
    2.7886845744449276E+00 
    2.7470851126935063E+00 
    2.7613877219254515E+00 
    2.6261600929406015E+00 
    2.7923841076985481E+00 
    2.6151455187128549E+00 
    2.7544798476920938E+00 
    2.6158643849992447E+00 
    2.6991576888950486E+00 
    2.7154911941798643E+00 
    2.6562185862670975E+00 
    2.6917516968891579E+00 
    2.5858279543049405E+00 
    2.6941087414318563E+00 
    2.6129668694860708E+00 
    2.6153381768277537E+00 
    2.6155606250336452E+00 
    2.6421062459286380E+00 
    2.5754457071059882E+00 
    2.7000976365495402E+00 
    2.6418001164936848E+00 
    2.6407259387873001E+00 
    2.4920226023383747E+00 
    2.6648502737086859E+00 
    2.7194511816089482E+00 
    2.5735065367254286E+00 
    2.6859302845423638E+00 
    2.7299976824442123E+00 
    2.7468143874719653E+00 
    2.6404658479639100E+00 
    2.5968395452877604E+00 
    2.5800979960805708E+00 
    2.5737771850573989E+00 
    2.6746849143787306E+00 
    2.6410104080816819E+00 
    2.5963439445966228E+00 
    2.6758102092990153E+00 
    2.6189865508151273E+00 
    2.5747931954178696E+00 
    2.6430310483522383E+00 
    2.5473267920828553E+00 
    2.5693746314893446E+00 
    2.7345514908543231E+00 
    2.6718504239291696E+00 
    2.5852829073091388E+00 
    2.6898627963103161E+00 
    2.6843981191770858E+00 
    2.5756618575493588E+00 
    2.5983637834010631E+00 
    2.6007082070051823E+00 
    2.6642938668414060E+00 
    2.6602038856812817E+00 
    2.7144335977778509E+00 
    2.5951028680678507E+00 
    2.6559333820611086E+00 
    2.6699858283445552E+00 
    2.5790165777054481E+00 
    2.5850717127522036E+00 
    2.5012356086154934E+00 
    2.5918379642115550E+00 
    2.7396456854039695E+00 
    2.6401905570229953E+00 
    2.6598480380202907E+00 
    2.6176465687936536E+00 
    2.6529897757719327E+00 
    2.5843970364542868E+00 
    2.5558769690229632E+00 
    2.5627439715762166E+00 
    2.5864558654394760E+00 
    2.5654008709535487E+00 
    2.5914913155522914E+00 
    2.6467433842174692E+00 
    2.5754104578386356E+00 
    2.6847804904674097E+00 
    2.6933371022472898E+00 
    2.5905395918179059E+00 
    2.5619064257363728E+00 
    2.6486827511894524E+00 
    2.5741222425846697E+00 
    2.5508092735283423E+00 
    2.5683801505837431E+00 
    2.5492122146477900E+00 
    2.5316897105733989E+00 
    2.5853379213517460E+00 
    2.6323295979655077E+00 
    2.7045216565170498E+00 
    2.5228498902274761E+00 
    2.5850872752070266E+00 
    2.5457445867379813E+00 
    2.5654480459813391E+00 
    2.7743447803423082E+00 
    2.5591142215750531E+00 
    2.6194170202050215E+00 
    2.5686301571268140E+00 
    2.5834222242989053E+00 
    2.5769373524295003E+00 
    2.5890654320929967E+00 
    2.5512068108932096E+00 
    2.5870234636697935E+00 
    2.5560468386787436E+00 
    2.6107972369073216E+00 
    2.5532086431785395E+00 
    2.5754027297127027E+00 
    2.5299669640517375E+00 
    2.5389041069023373E+00 
    2.6881633094112996E+00 
    2.5376776203398430E+00 
    2.5209146303518306E+00 
    2.5646483266190394E+00 
    2.5498811266552264E+00 
    2.8364656587106118E+00 
    2.5675291321782838E+00 
    2.6578061961713826E+00 
    2.5596452932069189E+00 
    2.5335899194531644E+00 
    2.5786835338385852E+00 
    2.5651493851162579E+00 
    2.5957564215938493E+00 
    2.5544300734566301E+00 
    2.5822711889736736E+00 
    2.5632159245025581E+00 
    2.5367655946447307E+00 
    2.5785072405129159E+00 
    2.5737348774406139E+00 
    2.5396208671310032E+00 
    2.5454676990628360E+00 
    2.5735569106112051E+00 
    2.5600538209202881E+00 
    2.5080929676833414E+00 
    2.5555422874580551E+00 
    2.5620568622112607E+00 
    2.5918648872102810E+00 
    2.5366777819483746E+00 
    2.5241789726211912E+00 
    2.6698922448681652E+00 
    2.5653379266582363E+00 
    2.6191764725786366E+00 
    2.8348039044799078E+00 
    2.6783152344651469E+00 
    2.6290135307919824E+00 
    2.7008844282033309E+00 
    2.5493087426325967E+00 
    2.5452789815440386E+00 
    2.5512120511114027E+00 
    2.5286363271487180E+00 
    2.5564904719484636E+00 
    2.5215145272083168E+00 
    2.7043803328981024E+00 
    2.5478792542968427E+00 
    2.6026248524761275E+00 
    2.6869652245300553E+00 
    2.6009608822389554E+00 
    2.5652269528048399E+00 
    2.6495347256954362E+00 
    2.5213159700808121E+00 
    2.5468912232431618E+00 
    2.5553330158401564E+00 
    2.8026197982603440E+00 
    2.6386748752735874E+00 
    2.6959628161594420E+00 
    2.6982522440884660E+00 
    2.6033880940204770E+00 
    2.6698061535936666E+00 
    2.5582991002415052E+00 
    2.4774033210068009E+00 
    2.9841964822993026E+00 
    2.4999010972653872E+00 
    2.5141449634632336E+00 
    2.5371766981057822E+00 
    2.6207381049922067E+00 
    2.6813234251927236E+00 
    2.4919526669879066E+00 
    2.7271775094434823E+00 
    2.7431907393192070E+00 
    2.6063246652726257E+00 
    2.5550428403965446E+00 
    2.7195149050192096E+00 
    2.6036083306991666E+00 
    2.5285928668995554E+00 
    2.6932722967082632E+00 
    2.5065211072030329E+00 
    2.5276678138366049E+00 
    2.6164980534072226E+00 
    2.5637361595253827E+00 
    2.4848955739090188E+00 
    2.5530770303217558E+00 
    2.5128055295122467E+00 
    2.7104962091004228E+00 
    2.4994609840886972E+00 
    2.5436501212281888E+00 
    2.6815161608707765E+00 
    2.5719327621430574E+00 
    2.6050646155012425E+00 
    2.5180672801514912E+00 
    2.5879389150863816E+00 
    2.6094017257931359E+00 
    2.5566077751069685E+00 
    2.5892929846054580E+00 
    2.6866817020008118E+00 
    2.4931745992479502E+00 
    2.5867616473261892E+00 
    2.5486159165966376E+00 
    2.5342302114226221E+00 
    2.5845425272587725E+00 
    2.5296154926502310E+00 
    2.5937420389429522E+00 
    2.6998824626188744E+00 
    2.7119150777261218E+00 
    2.5088068883862040E+00 
    2.8488974494876040E+00 
    2.5945031962783136E+00 
    2.5476176345637431E+00 
    2.7341473246456922E+00 
    2.6117155695732053E+00 
    2.6276403653219229E+00 
    2.5593554773974114E+00 
    2.5558751001506232E+00 
    2.6514589116123211E+00 
    2.6199804488434579E+00 
    2.4856342910107512E+00 
    2.5336527357018257E+00 
    2.7537932839850572E+00 
    2.6047705448493477E+00 
    2.6741568533700066E+00 
    2.6184563997081431E+00 
    2.6914507990583663E+00 
    2.6509044436050750E+00 
    2.5006945072523914E+00 
    2.5160368145347456E+00 
    2.5584246696527222E+00 
    2.7118429856493029E+00 
    2.6782236268127058E+00 
    2.5615749317488961E+00 
    2.5567019516932592E+00 
    2.5663486772489876E+00 
    2.5645948545021473E+00 
    2.6622040824044175E+00 
    2.5335675886083142E+00 
    2.6247987523432599E+00 
    2.7859818493846755E+00 
    2.5269137598559333E+00 
    2.7579623253145500E+00 
    2.5733206236535944E+00 
    2.7702201204287991E+00 
    2.6843414111304260E+00 
    2.9002099116546196E+00 
    2.5485946361052414E+00 
    2.6733547143393950E+00 
    2.5915127317741669E+00 
    2.5451124338739040E+00 
    2.6970661865892365E+00 
    2.5837073784784317E+00 
    2.7060609847296395E+00 
    2.5257406883181170E+00 
    2.6770542904576851E+00 
    2.5823199277064424E+00 
    2.6086148508055809E+00 
    2.4974998225895311E+00 
    2.5482939581222079E+00 
    2.5411622447513915E+00 
    2.7290741130638780E+00 
    2.5531940620630920E+00 
    2.7810738999759117E+00 
    2.7417031686723816E+00 
    2.5368238699535595E+00 
    2.5953649401091665E+00 
    2.5684368111527531E+00 
    2.5166335143119669E+00 
    2.5880142169952962E+00 
    2.6895206792434192E+00 
    2.5652192249497876E+00 
    2.5267501459986277E+00 
    2.8052529574386504E+00 
    2.6623757673880952E+00 
    2.4770512630485131E+00 
    2.4921937849570410E+00 
    2.5145694794600524E+00 
    2.5203946296071953E+00 
    2.5244370185457861E+00 
    2.4929091485976058E+00 
    2.5539493471833317E+00 
    2.5453930268584077E+00 
    2.4700079695243033E+00 
    2.4842937938724905E+00 
    2.4452210068610323E+00 
    2.3802816248146565E+00 
    2.3666005147372218E+00 
    2.3824444834654943E+00 
    2.3928783700392846E+00 
    2.3997789781911134E+00 
    2.4599810944655403E+00 
    2.3550791241640678E+00 
    2.4470399009911139E+00 
    2.3563772435918082E+00 
    2.4146025176454606E+00 
    2.3871630884042099E+00 
    2.3931496559668233E+00 
    2.3685628405556178E+00 
    2.3582443829787678E+00 
    2.4897880591886548E+00 
    2.4598316853827935E+00 
    2.4759423072669025E+00 
    2.4409028115232525E+00 
    2.4025371069998620E+00 
    2.3538098857687770E+00 
    2.3466820655476686E+00 
    2.4900874828195780E+00 
    2.4150282452913672E+00 
    2.3459637034322558E+00 
    2.4017648794956923E+00 
    2.4760060161505928E+00 
    2.4624408214096714E+00 
    2.3280854063018142E+00 
    2.3533876154582654E+00 
    2.4168963072075274E+00 
    2.4726583902727750E+00 
    2.4494067050830903E+00 
    2.4098053464928846E+00 
    2.3753820403481538E+00 
    2.4972975642813893E+00 
    2.4864228220033811E+00 
    2.4761483805748754E+00 
    2.5279873205925414E+00 
    2.3745737085786240E+00 
    2.3980948544741860E+00 
    2.3932363304956277E+00 
    2.4840976440667517E+00 
    2.3961054255602279E+00 
    2.4676879560618392E+00 
    2.4366696218289965E+00 
    2.4241860276300922E+00 
    2.4138766551637318E+00 
    2.4224235647861665E+00 
    2.4741821306995697E+00 
    2.4825421925653028E+00 
    2.4297190134110225E+00 
    2.3678551399871335E+00 
    2.4107466038182754E+00 
    2.4060572041277282E+00 
    2.3522161537167730E+00 
    2.4636437279493211E+00 
    2.3561131295883708E+00 
    2.4746840297512724E+00 
    2.3642084209344469E+00 
    2.4350310402950646E+00 
    2.3873089390166076E+00 
    2.3259552100045968E+00 
    2.3322863241263216E+00 
    2.3395779004191262E+00 
    2.3305153236063689E+00 
    2.4087782295266762E+00 
    2.3354321679905676E+00 
    2.3581835097592729E+00 
    2.3602672989401041E+00 
    2.5093703558356535E+00 
    2.4238404291318232E+00 
    2.3576715941119870E+00 
    2.4751524754180099E+00 
    2.3946852080113419E+00 
    2.3857531084245664E+00 
    2.4545572039946362E+00 
    2.5030476520120457E+00 
    2.4409540885444336E+00 
    2.4433733721049600E+00 
    2.4287336182576040E+00 
    2.4334037478175947E+00 
    2.4609196621940148E+00 
    2.4606334812076662E+00 
    2.4674071106118167E+00 
    2.4691288793828439E+00 
    2.4253254370687225E+00 
    2.4843087952094920E+00 
    2.4687876973724197E+00 
    2.4376799371304365E+00 
    2.4465791171764928E+00 
    2.4970173065076708E+00 
    2.4608051193595455E+00 
    2.4753029122418315E+00 
    2.5019836715437940E+00 
    2.4013706481258867E+00 
    2.3814635451368500E+00 
    2.4375457843973436E+00 
    2.4896407851198741E+00 
    2.5050885741240125E+00 
    2.4759015543251701E+00 
    2.3371691128795060E+00 
    2.3871140316661021E+00 
    2.4443339339791317E+00 
    2.4145528888087142E+00 
    2.3683905351866579E+00 
    2.4728527942339258E+00 
    2.4458112994241561E+00 
    2.3616332714867019E+00 
    2.4632347426951382E+00 
    2.3764473903456009E+00 
    2.3910270176210471E+00 
    2.3865557598368565E+00 
    2.4498560037850239E+00 
    2.4829619986718958E+00 
    2.5031802654432376E+00 
    2.4701277944753830E+00 
    2.4895083444692276E+00 
    2.3731821093181433E+00 
    2.3605564673670374E+00 
    2.4875422719094855E+00 
    2.4649109654481092E+00 
    2.3341976342963227E+00 
    2.3273326674093795E+00 
    2.5164059385339250E+00 
    2.4255854372448118E+00 
    2.4613837787069435E+00 
    2.4351469120685110E+00 
    2.4046134548442688E+00 
    2.4380878158136232E+00 
    2.4503791476271535E+00 
    2.4346052592130318E+00 
    2.4176263430607090E+00 
    2.4176191943707841E+00 
    2.3313288237866816E+00 
    2.4879802098447055E+00 
    2.5178327376887166E+00 
    2.3338721340252273E+00 
    2.3332561108427585E+00 
    2.3346313448995395E+00 
    2.3306622121694991E+00 
    2.3395903744821163E+00 
    2.4619421238561738E+00 
    2.4072620728984062E+00 
    2.3414919031079191E+00 
    2.4477912758218001E+00 
    2.4476923412621687E+00 
    2.3997568764634498E+00 
    2.4166229923607796E+00 
    2.4077860739101866E+00 
    2.4311645462087412E+00 
    2.4830354074313443E+00 
    2.3324244269010554E+00 
    2.3344092221299868E+00 
    2.3715059538909449E+00 
    2.4142638233200535E+00 
    2.4779303940931272E+00 
    2.3538707786983442E+00 
    2.4857421189960864E+00 
    2.3306465788253070E+00 
    2.3960910089299552E+00 
    2.3305529092398900E+00 
    2.3241663655684102E+00 
    2.3432658655130068E+00 
    2.4870022686248299E+00 
    2.4460553636413103E+00 
    2.4041232797301353E+00 
    2.4252266255772255E+00 
    2.4466281932238654E+00 
    2.3311910047455062E+00 
    2.4015635317054618E+00 
    2.4342396297042295E+00 
    2.4910177324234120E+00 
    2.4933564015124974E+00 
    2.4906294710824017E+00 
    2.4887544541050395E+00 
    2.5081015414003733E+00 
    2.4308194904327642E+00 
    2.3590060624883038E+00 
    2.4460880492670336E+00 
    2.4454789136564483E+00 
    2.3985716684697729E+00 
    2.3318791188924095E+00 
    2.4440170801501582E+00 
    2.4598342213567732E+00 
    2.4719014434411966E+00 
    2.4572375584054855E+00 
    2.3291810190945337E+00 
    2.4544891054145785E+00 
    2.4506443616178144E+00 
    2.3384227126088359E+00 
    2.3634756808394708E+00 
    2.4462635001386883E+00 
    2.4601376553984950E+00 
    2.4550836655292185E+00 
    2.4545344884914435E+00 
    2.4542583630395374E+00 
    2.5023423441008061E+00 
    2.4502495841417815E+00 
    2.4667581396184048E+00 
    2.4287164068309441E+00 
    2.4444934724344738E+00 
    2.3376119763824383E+00 
    2.4984147992788408E+00 
    2.4944395926988436E+00 
    2.5018105568150832E+00 
    2.4047795326540582E+00 
    2.3829798261163466E+00 
    2.3761582705970925E+00 
    2.4603558488343991E+00 
    2.4469723795786313E+00 
    2.4633024108438151E+00 
    2.3887347193671364E+00 
    2.3479682555746475E+00 
    2.3649993308185122E+00 
    2.4900623306820222E+00 
    2.3614794224227373E+00 
    2.4201476536231081E+00 
    2.3783780641461107E+00 
    2.4725518806526940E+00 
    2.4331593646593306E+00 
    2.4290507374432777E+00 
    2.4933315231652911E+00 
    2.4880883432452423E+00 
    2.4058567946298535E+00 
    2.3968042629040922E+00 
    2.3829466762251932E+00 
    2.4118736378434265E+00 
    2.4776159263283981E+00 
    2.3286118383649717E+00 
    2.4820098036688858E+00 
    2.4934418333853321E+00 
    2.4041259633228136E+00 
    2.3992094932405665E+00 
    2.3474264444534825E+00 
    2.3390042181959467E+00 
    2.5099475173444361E+00 
    2.3930119319256726E+00 
    2.4464635968247861E+00 
    2.4142708142763905E+00 
    2.4571434691972471E+00 
    2.3614099117067786E+00 
    2.4232042329356229E+00 
    2.5081502357287331E+00 
    2.3758342526965199E+00 
    2.4129496933871262E+00 
    2.3749773791296303E+00 
    2.4126498257576170E+00 
    2.5166126705517571E+00 
    2.3803992911416421E+00 
    2.4403577769103539E+00 
    2.3895874601311471E+00 
    2.3424558221579290E+00 
    2.4667376998974819E+00 
    2.4537358037826675E+00 
    2.4522685943757656E+00 
    2.3882218600149474E+00 
    2.3926822285644893E+00 
    2.3506586822922797E+00 
    2.4364366565451649E+00 
    2.4670197975098378E+00 
    2.4203209884258654E+00 
    2.3589273989003781E+00 
    2.3816745183577268E+00 