# vtk DataFile Version 2.0
Pressure Field Data 
ASCII 
DATASET UNSTRUCTURED_GRID 

POINTS 2213 double 

    0.0000000000000000E+00     0.0000000000000000E+00     0.0000000000000000E+00 
    5.0000000000000000E-01     0.0000000000000000E+00     0.0000000000000000E+00 
    1.0000000000000000E+00     0.0000000000000000E+00     0.0000000000000000E+00 
    1.0000000000000000E+00     5.0000000000000000E-01     0.0000000000000000E+00 
    1.0000000000000000E+00     1.0000000000000000E+00     0.0000000000000000E+00 
    5.0000000000000000E-01     1.0000000000000000E+00     0.0000000000000000E+00 
    0.0000000000000000E+00     1.0000000000000000E+00     0.0000000000000000E+00 
    0.0000000000000000E+00     5.0000000000000000E-01     0.0000000000000000E+00 
    1.5624999999971041E-02     0.0000000000000000E+00     0.0000000000000000E+00 
    3.1249999999936742E-02     0.0000000000000000E+00     0.0000000000000000E+00 
    4.6874999999913257E-02     0.0000000000000000E+00     0.0000000000000000E+00 
    6.2499999999889783E-02     0.0000000000000000E+00     0.0000000000000000E+00 
    7.8124999999844805E-02     0.0000000000000000E+00     0.0000000000000000E+00 
    9.3749999999799827E-02     0.0000000000000000E+00     0.0000000000000000E+00 
    1.0937499999975490E-01     0.0000000000000000E+00     0.0000000000000000E+00 
    1.2499999999970990E-01     0.0000000000000000E+00     0.0000000000000000E+00 
    1.4062499999966460E-01     0.0000000000000000E+00     0.0000000000000000E+00 
    1.5624999999961930E-01     0.0000000000000000E+00     0.0000000000000000E+00 
    1.7187499999957390E-01     0.0000000000000000E+00     0.0000000000000000E+00 
    1.8749999999952860E-01     0.0000000000000000E+00     0.0000000000000000E+00 
    2.0312499999948330E-01     0.0000000000000000E+00     0.0000000000000000E+00 
    2.1874999999943801E-01     0.0000000000000000E+00     0.0000000000000000E+00 
    2.3437499999939271E-01     0.0000000000000000E+00     0.0000000000000000E+00 
    2.4999999999934730E-01     0.0000000000000000E+00     0.0000000000000000E+00 
    2.6562499999938810E-01     0.0000000000000000E+00     0.0000000000000000E+00 
    2.8124999999942890E-01     0.0000000000000000E+00     0.0000000000000000E+00 
    2.9687499999946970E-01     0.0000000000000000E+00     0.0000000000000000E+00 
    3.1249999999951050E-01     0.0000000000000000E+00     0.0000000000000000E+00 
    3.2812499999955130E-01     0.0000000000000000E+00     0.0000000000000000E+00 
    3.4374999999959210E-01     0.0000000000000000E+00     0.0000000000000000E+00 
    3.5937499999963290E-01     0.0000000000000000E+00     0.0000000000000000E+00 
    3.7499999999967371E-01     0.0000000000000000E+00     0.0000000000000000E+00 
    3.9062499999971451E-01     0.0000000000000000E+00     0.0000000000000000E+00 
    4.0624999999975520E-01     0.0000000000000000E+00     0.0000000000000000E+00 
    4.2187499999979600E-01     0.0000000000000000E+00     0.0000000000000000E+00 
    4.3749999999983680E-01     0.0000000000000000E+00     0.0000000000000000E+00 
    4.5312499999987760E-01     0.0000000000000000E+00     0.0000000000000000E+00 
    4.6874999999991840E-01     0.0000000000000000E+00     0.0000000000000000E+00 
    4.8437499999995920E-01     0.0000000000000000E+00     0.0000000000000000E+00 
    5.1562499999992384E-01     0.0000000000000000E+00     0.0000000000000000E+00 
    5.3124999999985478E-01     0.0000000000000000E+00     0.0000000000000000E+00 
    5.4687499999994527E-01     0.0000000000000000E+00     0.0000000000000000E+00 
    5.6249999999998668E-01     0.0000000000000000E+00     0.0000000000000000E+00 
    5.7812499999998068E-01     0.0000000000000000E+00     0.0000000000000000E+00 
    5.9374999999994749E-01     0.0000000000000000E+00     0.0000000000000000E+00 
    6.0937499999997913E-01     0.0000000000000000E+00     0.0000000000000000E+00 
    6.2500000000000000E-01     0.0000000000000000E+00     0.0000000000000000E+00 
    6.4062499999998945E-01     0.0000000000000000E+00     0.0000000000000000E+00 
    6.5624999999996603E-01     0.0000000000000000E+00     0.0000000000000000E+00 
    6.7187499999995337E-01     0.0000000000000000E+00     0.0000000000000000E+00 
    6.8749999999998734E-01     0.0000000000000000E+00     0.0000000000000000E+00 
    7.0312499999998124E-01     0.0000000000000000E+00     0.0000000000000000E+00 
    7.1874999999997025E-01     0.0000000000000000E+00     0.0000000000000000E+00 
    7.3437499999999034E-01     0.0000000000000000E+00     0.0000000000000000E+00 
    7.5000000000000000E-01     0.0000000000000000E+00     0.0000000000000000E+00 
    7.6562499999996902E-01     0.0000000000000000E+00     0.0000000000000000E+00 
    7.8124999999993228E-01     0.0000000000000000E+00     0.0000000000000000E+00 
    7.9687499999989997E-01     0.0000000000000000E+00     0.0000000000000000E+00 
    8.1249999999996247E-01     0.0000000000000000E+00     0.0000000000000000E+00 
    8.2812499999999578E-01     0.0000000000000000E+00     0.0000000000000000E+00 
    8.4374999999999556E-01     0.0000000000000000E+00     0.0000000000000000E+00 
    8.5937500000000111E-01     0.0000000000000000E+00     0.0000000000000000E+00 
    8.7499999999997691E-01     0.0000000000000000E+00     0.0000000000000000E+00 
    8.9062500000000921E-01     0.0000000000000000E+00     0.0000000000000000E+00 
    9.0625000000004452E-01     0.0000000000000000E+00     0.0000000000000000E+00 
    9.2187500000005529E-01     0.0000000000000000E+00     0.0000000000000000E+00 
    9.3750000000012723E-01     0.0000000000000000E+00     0.0000000000000000E+00 
    9.5312500000011835E-01     0.0000000000000000E+00     0.0000000000000000E+00 
    9.6875000000005151E-01     0.0000000000000000E+00     0.0000000000000000E+00 
    9.8437500000003086E-01     0.0000000000000000E+00     0.0000000000000000E+00 
    1.0000000000000000E+00     1.5624999999971041E-02     0.0000000000000000E+00 
    1.0000000000000000E+00     3.1249999999936742E-02     0.0000000000000000E+00 
    1.0000000000000000E+00     4.6874999999913257E-02     0.0000000000000000E+00 
    1.0000000000000000E+00     6.2499999999889783E-02     0.0000000000000000E+00 
    1.0000000000000000E+00     7.8124999999844805E-02     0.0000000000000000E+00 
    1.0000000000000000E+00     9.3749999999799827E-02     0.0000000000000000E+00 
    1.0000000000000000E+00     1.0937499999975490E-01     0.0000000000000000E+00 
    1.0000000000000000E+00     1.2499999999970990E-01     0.0000000000000000E+00 
    1.0000000000000000E+00     1.4062499999966460E-01     0.0000000000000000E+00 
    1.0000000000000000E+00     1.5624999999961930E-01     0.0000000000000000E+00 
    1.0000000000000000E+00     1.7187499999957390E-01     0.0000000000000000E+00 
    1.0000000000000000E+00     1.8749999999952860E-01     0.0000000000000000E+00 
    1.0000000000000000E+00     2.0312499999948330E-01     0.0000000000000000E+00 
    1.0000000000000000E+00     2.1874999999943801E-01     0.0000000000000000E+00 
    1.0000000000000000E+00     2.3437499999939271E-01     0.0000000000000000E+00 
    1.0000000000000000E+00     2.4999999999934730E-01     0.0000000000000000E+00 
    1.0000000000000000E+00     2.6562499999938810E-01     0.0000000000000000E+00 
    1.0000000000000000E+00     2.8124999999942890E-01     0.0000000000000000E+00 
    1.0000000000000000E+00     2.9687499999946970E-01     0.0000000000000000E+00 
    1.0000000000000000E+00     3.1249999999951050E-01     0.0000000000000000E+00 
    1.0000000000000000E+00     3.2812499999955130E-01     0.0000000000000000E+00 
    1.0000000000000000E+00     3.4374999999959210E-01     0.0000000000000000E+00 
    1.0000000000000000E+00     3.5937499999963290E-01     0.0000000000000000E+00 
    1.0000000000000000E+00     3.7499999999967371E-01     0.0000000000000000E+00 
    1.0000000000000000E+00     3.9062499999971451E-01     0.0000000000000000E+00 
    1.0000000000000000E+00     4.0624999999975520E-01     0.0000000000000000E+00 
    1.0000000000000000E+00     4.2187499999979600E-01     0.0000000000000000E+00 
    1.0000000000000000E+00     4.3749999999983680E-01     0.0000000000000000E+00 
    1.0000000000000000E+00     4.5312499999987760E-01     0.0000000000000000E+00 
    1.0000000000000000E+00     4.6874999999991840E-01     0.0000000000000000E+00 
    1.0000000000000000E+00     4.8437499999995920E-01     0.0000000000000000E+00 
    1.0000000000000000E+00     5.1562499999992384E-01     0.0000000000000000E+00 
    1.0000000000000000E+00     5.3124999999985478E-01     0.0000000000000000E+00 
    1.0000000000000000E+00     5.4687499999994527E-01     0.0000000000000000E+00 
    1.0000000000000000E+00     5.6249999999998668E-01     0.0000000000000000E+00 
    1.0000000000000000E+00     5.7812499999998068E-01     0.0000000000000000E+00 
    1.0000000000000000E+00     5.9374999999994749E-01     0.0000000000000000E+00 
    1.0000000000000000E+00     6.0937499999997913E-01     0.0000000000000000E+00 
    1.0000000000000000E+00     6.2500000000000000E-01     0.0000000000000000E+00 
    1.0000000000000000E+00     6.4062499999998945E-01     0.0000000000000000E+00 
    1.0000000000000000E+00     6.5624999999996603E-01     0.0000000000000000E+00 
    1.0000000000000000E+00     6.7187499999995337E-01     0.0000000000000000E+00 
    1.0000000000000000E+00     6.8749999999998734E-01     0.0000000000000000E+00 
    1.0000000000000000E+00     7.0312499999998124E-01     0.0000000000000000E+00 
    1.0000000000000000E+00     7.1874999999997025E-01     0.0000000000000000E+00 
    1.0000000000000000E+00     7.3437499999999034E-01     0.0000000000000000E+00 
    1.0000000000000000E+00     7.5000000000000000E-01     0.0000000000000000E+00 
    1.0000000000000000E+00     7.6562499999996902E-01     0.0000000000000000E+00 
    1.0000000000000000E+00     7.8124999999993228E-01     0.0000000000000000E+00 
    1.0000000000000000E+00     7.9687499999989997E-01     0.0000000000000000E+00 
[...]
CELL_DATA 2084 
SCALARS Pressure double 1 
LOOKUP_TABLE default 

    3.1346454512416946E+00 
    3.2035106505327802E+00 
    3.9610748985077691E+00 
    3.2045374056011373E+00 
    3.5906779885530362E+00 
    3.4282219674849106E+00 
    3.0308333530214884E+00 
    3.3750096168965369E+00 
    3.4087143852985591E+00 
    3.6081310510646891E+00 
    3.9333455054168724E+00 
    3.0976168002252971E+00 
    3.3232959790871504E+00 
    3.2189202473904883E+00 
    3.0962445160506959E+00 
    3.1864218801552471E+00 
    3.7513362876703114E+00 
    3.2811077902687322E+00 
    4.0847930097300233E+00 
    3.1318649088377826E+00 
    3.1583951939875581E+00 
    3.5209528786644464E+00 
    3.1813630659985450E+00 
    3.3118265898910395E+00 
    3.1210953498678533E+00 
    3.3313182576089102E+00 
    3.1913562530515027E+00 
    3.0638599112347285E+00 
    3.3503340631367728E+00 
    3.2192129255778625E+00 
    3.0096605547420427E+00 
    3.3612875398312410E+00 
    2.9948015052991872E+00 
    3.1417935392039151E+00 
    3.1067333990712642E+00 
    3.5640633246133042E+00 
    3.2630025285893551E+00 
    3.2503255748805802E+00 
    3.5227786616300967E+00 
    3.3633854895472268E+00 
    3.0467956527072921E+00 
    3.6286160300817687E+00 
    3.1226130614727508E+00 
    3.4418985969107583E+00 
    3.4242222720274142E+00 
    3.0676329796550212E+00 
    3.6204599454476605E+00 
    3.0453693387279381E+00 
    3.0269157054587281E+00 
    3.3200754400009802E+00 
    3.3279159780545311E+00 
    3.0624765602526463E+00 
    3.0942773960806429E+00 
    3.2883390114323174E+00 
    3.2939454835130109E+00 
    3.0726184410807873E+00 
    3.0118301095778293E+00 
    3.4701905669758402E+00 
    3.5095860780373238E+00 
    3.2919864970691832E+00 
    3.2895912570877770E+00 
    3.1639678816913168E+00 
    3.0778737685952615E+00 
    3.1810453772844345E+00 
    3.6096557082700134E+00 
    3.2783396364913955E+00 
    3.3938198083794320E+00 
    3.0627771229200400E+00 
    3.0470355284998725E+00 
    3.0212405412593730E+00 
    3.1154836077456229E+00 
    4.2290051284782164E+00 
    3.3322282947467445E+00 
    3.8567655910001823E+00 
    3.4973768311894311E+00 
    3.8441105520222996E+00 
    3.3158744485919338E+00 
    3.5762260816633522E+00 
    3.0969205317324602E+00 
    3.6479364873716627E+00 
    3.1817113338260290E+00 
    3.3630459618950299E+00 
    3.4606403409573034E+00 
    3.0283414318987720E+00 
    3.4205713496262500E+00 
    3.1460540527746215E+00 
    3.2680291616178341E+00 
    3.4323737222717550E+00 
    3.5067855939592825E+00 
    3.4731234006088290E+00 
    3.4062841115065945E+00 
    3.3838188671585172E+00 
    3.1707740919341214E+00 
    3.4583986253117081E+00 
    3.2542239008405893E+00 
    3.0375821297553083E+00 
    3.2330114020810452E+00 
    3.3365513113768914E+00 
    3.5539783182690661E+00 
    3.2184139784565331E+00 
    3.5981779559940690E+00 
    3.4528303555270337E+00 
    3.5118031538948475E+00 
    3.5166688514963025E+00 
    3.2552024990701058E+00 
    3.4582050348853981E+00 
    3.3646174197425509E+00 
    3.5528044055456274E+00 
    3.1330311210540565E+00 
    4.3906141670758876E+00 
    3.1946948490914937E+00 
    3.3471674234294704E+00 
    3.4568479249985034E+00 
    3.6672991342885681E+00 
    3.9049541339561800E+00 
    3.2138630161483501E+00 
    3.4631911659869741E+00 
    3.4535617446107527E+00 
    3.2247536186326147E+00 
    3.1305793626863450E+00 
    3.2957766639986263E+00 
    3.5079345217877513E+00 
    3.1355437773525590E+00 
    3.7867058856634004E+00 
    3.3661728845097767E+00 
    3.5140565975509359E+00 
    3.3059269191612399E+00 
    3.1337297761830420E+00 
    3.2376787244042791E+00 
    3.1515542865372468E+00 
    3.8855401529151292E+00 
    3.9448987888495401E+00 
    3.0532955312125352E+00 
    3.6088950114032787E+00 
    3.5509534246171861E+00 
    3.2880709710553457E+00 
    3.4763714365795684E+00 
    3.1265717377160880E+00 
    3.5445196684993991E+00 
    3.8130784394694173E+00 
    3.4138207815381358E+00 
    4.0115990639910208E+00 
    3.8574005982036002E+00 
    3.3484861293747490E+00 
    3.1869174904136370E+00 
    3.3387190545861727E+00 
    3.4508206412312412E+00 
    3.5434529795271721E+00 
    3.2545995012246558E+00 
    3.4031957260025987E+00 
    3.4349892186305588E+00 
    3.8164562405457985E+00 
    4.1682959158507780E+00 
    3.2509758293480826E+00 
    3.2820911309604517E+00 
    4.0851108934006559E+00 
    3.1495774356578088E+00 
    3.4355959480752825E+00 
    3.2680264616237120E+00 
    3.7855882361105850E+00 
    4.7525177904966025E+00 
    4.4738457759267654E+00 
    4.1814928425299671E+00 
    4.2816432600351693E+00 
    4.0466203510893335E+00 
    4.1262044780165006E+00 
    3.4428890826361704E+00 
    4.3473259774681177E+00 
    3.4106453668931631E+00 
    4.0939161306997249E+00 
    3.4129386984230088E+00 
    3.7555968369904980E+00 
    3.8367836331691536E+00 
    3.5651770260252640E+00 
    3.7232514129846819E+00 
    3.2376088520470341E+00 
    3.7367145803175248E+00 
    3.3843899299130484E+00 
    3.4071610972748494E+00 
    3.4052086515695583E+00 
    3.4999010103193711E+00 
    3.2216070980906335E+00 
    3.7592424278418335E+00 
    3.5033883132882400E+00 
    3.4888897549273907E+00 
    2.9863743412297157E+00 
    3.5898206157251678E+00 
    3.8667593094571346E+00 
    3.2386577033918242E+00 
    3.6792864809039014E+00 
    3.9359149105739459E+00 
    4.0420761551662601E+00 
    3.4955884654698459E+00 
    3.3021537909046415E+00 
    3.2090872765426375E+00 
    3.2450332747646664E+00 
    3.6164520765444435E+00 
    3.4756770299989146E+00 
    3.2929149156871063E+00 
    3.6369053381413683E+00 
    3.3888548480187488E+00 
    3.2509957550518589E+00 
    3.4939887261656288E+00 
    3.1011123258602868E+00 
    3.2450228683361368E+00 
    3.9518722454668080E+00 
    3.6170906200990625E+00 
    3.2400093802728760E+00 
    3.7145985373788588E+00 
    3.6804304184913055E+00 
    3.2641980663783987E+00 
    3.3381050805505628E+00 
    3.3583840249524450E+00 
    3.5723471723831004E+00 
    3.5574059442808235E+00 
    3.8349888747033081E+00 
    3.3216729932602744E+00 
    3.5597146145296445E+00 
    3.6194194453403310E+00 
    3.2799932181592264E+00 
    3.3045811475783613E+00 
    2.9810479881765297E+00 
    3.2973449128580303E+00 
    3.9973660283398114E+00 
    3.4737247936351228E+00 
    3.5602907912049848E+00 
    3.3876157788966084E+00 
    3.5568954055559980E+00 
    3.2560151357453941E+00 
    3.1992884094355878E+00 
    3.1477544452281223E+00 
    3.2505451862922841E+00 
    3.1597097129896650E+00 
    3.3228465967450624E+00 
    3.5013844831334699E+00 
    3.1981132586040997E+00 
    3.6900182999071967E+00 
    3.6992061900013513E+00 
    3.3122627860141023E+00 
    3.2046900828986828E+00 
    3.5092787608882809E+00 
    3.2627530676559835E+00 
    3.1167996319377118E+00 
    3.2409948662308783E+00 
    3.1271531778476471E+00 
    3.1132443009869659E+00 
    3.2841296439224923E+00 
    3.4483476411132830E+00 
    3.7731852631687817E+00 
    3.0808585337353338E+00 
    3.2520478985729335E+00 
    3.1627105959902297E+00 
    3.2327813300459587E+00 
    4.2269579007048312E+00 
    3.1480134712233299E+00 
    3.3757727733495067E+00 
    3.1816297787788188E+00 
    3.2860398801537083E+00 
    3.2123699837111648E+00 
    3.3147066253262869E+00 
    3.1648720320460937E+00 
    3.3023803361054198E+00 
    3.1969149089795748E+00 
    3.3355923289882288E+00 
    3.1838759874675033E+00 
    3.2028239034166917E+00 
    3.1097584645728293E+00 
    3.1405168548535718E+00 
    3.6908607780496050E+00 
    3.0767173500101737E+00 
    3.0801984432145706E+00 
    3.2213499724748895E+00 
    3.1731328069628559E+00 
    4.5847690369851417E+00 
    3.2314152308386186E+00 
    3.5693524978147559E+00 
    3.2061561712791349E+00 
    3.0632955744628836E+00 
    3.2732669442967985E+00 
    3.1667098032064165E+00 
    3.3255763364155873E+00 
    3.1858809454964692E+00 
    3.2156651764139599E+00 
    3.2231137928869398E+00 
    3.1204738557671354E+00 
    3.2416410774249318E+00 
    3.2067801605310371E+00 
    3.0796018695048231E+00 
    3.1551413362021035E+00 
    3.1838944806978167E+00 
    3.2119489699613286E+00 
    3.0339710668814344E+00 
    3.1715158285728555E+00 
    3.2131429913353222E+00 
    3.3218135181724975E+00 
    3.1251511067631790E+00 
    3.0899894771630141E+00 
    3.6176351579779236E+00 
    3.1560078331606793E+00 
    3.4023600597455537E+00 
    4.5462760911462938E+00 
    3.6628355726312019E+00 
    3.4185709636480701E+00 
    3.7569515624182435E+00 
    3.1741412742910056E+00 
    3.1552991891544004E+00 
    3.1130740236987013E+00 
    3.0979399430914509E+00 
    3.1286486146258321E+00 
    3.0804857253550977E+00 
    3.7710905888239377E+00 
    3.1130388233471882E+00 
    3.3005526158356795E+00 
    3.6810574639888332E+00 
    3.3305297443135751E+00 
    3.1546422649755184E+00 
    3.5426577698633173E+00 
    3.0738662664016378E+00 
    3.1008783451307336E+00 
    3.1272987364978575E+00 
    4.4020293459617452E+00 
    3.4628508879225914E+00 
    3.7240891522952286E+00 
    3.7503517765720287E+00 
    3.3573165100033497E+00 
    3.6245891764649092E+00 
    3.1532598507257434E+00 
    2.9456099322548543E+00 
    4.9499051754648669E+00 
    3.0071747859586706E+00 
    3.0508448746679449E+00 
    3.0734538426966220E+00 
    3.4091885329276845E+00 
    3.6780443484992555E+00 
    2.9590412293201966E+00 
    3.9155371504999028E+00 
    4.0176169969188029E+00 
    3.3633383078436934E+00 
    3.1880033818071731E+00 
    3.8543448740254296E+00 
    3.3652958975293266E+00 
    3.1048665256578638E+00 
    3.7229386888643456E+00 
    3.0276181847350347E+00 
    3.0476071828154967E+00 
    3.3995016916982261E+00 
    3.2170685667167520E+00 
    2.9667802937861008E+00 
    3.1864443271434832E+00 
    3.0091292349218621E+00 
    3.8091636491317362E+00 
    3.0064346243084135E+00 
    3.1533779842978973E+00 
    3.6702111539955959E+00 
    3.2250838595257068E+00 
    3.3669709453741161E+00 
    3.0227927800403576E+00 
    3.2956728713941255E+00 
    3.3314794652095356E+00 
    3.1331898052336946E+00 
    3.2446716444724322E+00 
    3.6985686535305247E+00 
    2.9883642428175072E+00 
    3.2365934008537636E+00 
    3.1341044349371874E+00 
    3.1231632572867012E+00 
    3.2753634329350425E+00 
    3.1028618029878028E+00 
    3.2632216742954938E+00 
    3.7539132421611918E+00 
    3.8219484384694438E+00 
    2.9996469945165121E+00 
    4.6196156522358987E+00 
    3.2982979323184614E+00 
    3.1646444793458213E+00 
    3.9544732369142932E+00 
    3.3844523528499360E+00 
    3.4397808591325250E+00 
    3.1450572404546824E+00 
    3.1263776732730886E+00 
    3.5222896297609503E+00 
    3.3769526743594742E+00 
    2.9680928240224187E+00 
    3.1203320697858210E+00 
    4.0882944466688640E+00 
    3.3497142395953521E+00 
    3.6428286519434572E+00 
    3.4015926504278244E+00 
    3.7000419398997160E+00 
    3.5216827194240832E+00 
    2.9799672581846326E+00 
    3.0585579354755379E+00 
    3.1956983851831939E+00 
    3.8296015613212262E+00 
    3.6322169583690598E+00 
    3.1904114200062819E+00 
    3.1296661839627444E+00 
    3.1906751171166214E+00 
    3.1616088196574066E+00 
    3.5726658820250359E+00 
    3.1129292907237782E+00 
    3.4350604283040083E+00 
    4.2892906176755883E+00 
    3.0935285361760050E+00 
    4.1126302397984515E+00 
    3.2493611688106725E+00 
    4.1868250279576094E+00 
    3.6791002956066436E+00 
    4.7869694659864868E+00 
    3.1592298962803462E+00 
    3.6268146774723791E+00 
    3.3139090772406878E+00 
    3.1021719781200146E+00 
    3.7424328792942370E+00 
    3.2841802119559635E+00 
    3.7834956102480586E+00 
    3.0922688806499714E+00 
    3.6344606242489048E+00 
    3.2616691711191010E+00 
    3.3713942673309556E+00 
    3.0036990001548984E+00 
    3.1203952230991874E+00 
    3.0889499644234570E+00 
    3.9285101745114783E+00 
    3.1683626579612501E+00 
    4.2418025812563060E+00 
    4.0083072477333452E+00 
    3.1308795494568633E+00 
    3.2700873143537126E+00 
    3.2066635086745965E+00 
    3.0189667026077993E+00 
    3.2755795750613106E+00 
    3.6941410249057984E+00 
    3.1566994432422795E+00 
    3.0452339743549164E+00 
    4.3850028738427183E+00 
    3.5735791684300322E+00 
    2.9460335861795564E+00 
    2.9596527133464816E+00 
    3.0535456535970171E+00 
    3.0723823000883130E+00 
    3.0390533708562977E+00 
    2.9896314209956065E+00 
    3.1823692178092897E+00 
    3.1511663857581125E+00 
    2.9280337675049735E+00 
    2.9405938538093905E+00 
    2.8500552866491984E+00 
    2.7168010032500574E+00 
    2.7065633075445827E+00 
    2.7427077303329144E+00 
    2.7527147995050010E+00 
    2.7643219142511710E+00 
    2.8836921045280359E+00 
    2.6780612535348776E+00 
    2.8555958843628089E+00 
    2.6900031362545254E+00 
    2.8008705148074764E+00 
    2.7407522620334688E+00 
    2.7497022600274343E+00 
    2.7199038924009797E+00 
    2.6875899008412145E+00 
    2.9835815562118788E+00 
    2.8843428107342657E+00 
    2.9437327801083493E+00 
    2.8588896635432217E+00 
    2.7847184804287082E+00 
    2.6975750590870198E+00 
    2.6717184859288818E+00 
    2.9800604612133039E+00 
    2.8108695683197422E+00 
    2.6693086106895767E+00 
    2.7551620810412953E+00 
    2.9208949007395266E+00 
    2.9095298592018524E+00 
    2.6453653984237264E+00 
    2.6754698775314227E+00 
    2.8136498770633493E+00 
    2.9353799310271715E+00 
    2.8802699615039167E+00 
    2.7760643367496018E+00 
    2.7176122104572893E+00 
    3.0065649732391373E+00 
    2.9567209115464816E+00 
    2.9210500525161169E+00 
    3.0638536133153864E+00 
    2.7164957700964152E+00 
    2.7492309662123779E+00 
    2.7390234289331414E+00 
    2.9667143852433111E+00 
    2.7485716398406779E+00 
    2.9236195481342566E+00 
    2.8311567413526753E+00 
    2.8216885685975313E+00 
    2.8084209524229307E+00 
    2.7990932816006100E+00 
    2.9434310676172690E+00 
    2.9465483294001973E+00 
    2.8153715128516237E+00 
    2.7038705563689103E+00 
    2.7910551660345768E+00 
    2.7824494347666096E+00 
    2.6763946984981706E+00 
    2.8918830750954387E+00 
    2.6820054038488466E+00 
    2.9441262425575951E+00 
    2.6936554267828745E+00 
    2.8457110842129185E+00 
    2.7334160726122012E+00 
    2.6424173188270648E+00 
    2.6470415736723054E+00 
    2.6536184441939787E+00 
    2.6576239465956957E+00 
    2.7869872533417781E+00 
    2.6581631397092003E+00 
    2.6963358754870961E+00 
    2.7072904427028845E+00 
    3.0260914543197139E+00 
    2.8067794984921832E+00 
    2.6847305130975401E+00 
    2.9446160685493998E+00 
    2.7566232159489208E+00 
    2.7394668535248097E+00 
    2.8910281989181885E+00 
    3.0159393752583208E+00 
    2.8592707097766348E+00 
    2.8645859533056233E+00 
    2.8136743011750500E+00 
    2.8418042069581362E+00 
    2.9112040546820745E+00 
    2.9087643757459545E+00 
    2.9069211455624049E+00 
    2.9178283546122836E+00 
    2.8261234786516085E+00 
    2.9399264716582221E+00 
    2.9257046551852213E+00 
    2.8516558982085574E+00 
    2.8721498292851431E+00 
    2.9919514400557303E+00 
    2.9104736017058297E+00 
    2.9365306520891776E+00 
    3.0025040918354349E+00 
    2.7603596360729652E+00 
    2.7317374864151693E+00 
    2.8544925026889953E+00 
    2.9591279020347625E+00 
    3.0190377391874170E+00 
    2.9421703174201168E+00 
    2.6508496231673480E+00 
    2.7278073026749401E+00 
    2.8483582635129170E+00 
    2.7824623361612586E+00 
    2.7094816497061660E+00 
    2.9207096353232496E+00 
    2.8554408540132572E+00 
    2.6898008816667023E+00 
    2.8957402705699713E+00 
    2.7146362155314274E+00 
    2.7373615094247574E+00 
    2.7280096143516013E+00 
    2.8604654881450702E+00 
    2.9420153670637941E+00 
    2.9914797218724476E+00 
    2.9064190733378670E+00 
    2.9719834012620021E+00 
    2.7064873997430174E+00 
    2.6936618708672486E+00 
    2.9773400931194782E+00 
    2.9070231655014585E+00 
    2.6486013679312710E+00 
    2.6441361103997663E+00 
    3.0206641396550222E+00 
    2.8239465203212855E+00 
    2.9121537921094562E+00 
    2.8506777482442582E+00 
    2.7629007029214359E+00 
    2.8543294623524020E+00 
    2.8810176984794538E+00 
    2.8291810613118407E+00 
    2.8062827898217555E+00 
    2.8056234811640612E+00 
    2.6592349871173986E+00 
    2.9643773839830105E+00 
    3.0564943766807389E+00 
    2.6612951537340579E+00 
    2.6613407984823865E+00 
    2.6592522670641161E+00 
    2.6584583178908940E+00 
    2.6549647775325345E+00 
    2.9126781484556168E+00 
    2.7731525085417319E+00 
    2.6638126032510963E+00 
    2.8747317937446590E+00 
    2.8802237217041053E+00 
    2.7720096500121785E+00 
    2.7878657222536529E+00 
    2.7684422309233323E+00 
    2.8194166024778422E+00 
    2.9657600103794155E+00 
    2.6607025696769155E+00 
    2.6609871998967969E+00 
    2.7139104238044855E+00 
    2.8009587694320057E+00 
    2.9343821158491847E+00 
    2.6980713726976697E+00 
    2.9737195917524830E+00 
    2.6506836134617595E+00 
    2.7740471683883907E+00 
    2.6448655254612667E+00 
    2.6399081638043631E+00 
    2.6653412884589240E+00 
    2.9770591643970894E+00 
    2.8575697885132496E+00 
    2.7795610859939672E+00 
    2.8247154325637456E+00 
    2.8781283151771766E+00 
    2.6480690771318685E+00 
    2.7710115596498386E+00 
    2.8440209970555990E+00 
    2.9810432148077601E+00 
    2.9614489563734163E+00 
    2.9553221188267207E+00 
    2.9794425006234713E+00 
    3.0063399742074384E+00 
    2.8228628652323651E+00 
    2.7058055562233458E+00 
    2.8767213170986365E+00 
    2.8748048683445355E+00 
    2.7778075131004227E+00 
    2.6503049650476576E+00 
    2.8704704031305335E+00 
    2.9052016731652537E+00 
    2.9270917518585118E+00 
    2.8972676631452403E+00 
    2.6458057985672454E+00 
    2.8875471961942960E+00 
    2.8778109066915754E+00 
    2.6595873958869722E+00 
    2.7120926547669222E+00 
    2.8547985449961266E+00 
    2.8948808857408825E+00 
    2.8819768282438929E+00 
    2.8907698382496845E+00 
    2.8903648022401338E+00 
    2.9828414437657877E+00 
    2.8697156077312131E+00 
    2.9209322340066750E+00 
    2.8313340574518837E+00 
    2.8673510602759067E+00 
    2.6588409727884472E+00 
    3.0087298933691589E+00 
    2.9738043926720388E+00 
    2.9995589224758086E+00 
    2.7648346371570618E+00 
    2.7371665431607033E+00 
    2.7252758982576899E+00 
    2.9064165103188988E+00 
    2.8611072071077608E+00 
    2.9126588387580288E+00 
    2.7574646845209942E+00 
    2.6671386947345459E+00 
    2.6945439635800681E+00 
    2.9570098098134934E+00 
    2.6898225476430553E+00 
    2.8116960713970185E+00 
    2.7384392151525101E+00 
    2.9379929521329209E+00 
    2.8474391255265776E+00 
    2.8208288522504716E+00 
    2.9945704424891590E+00 
    2.9767690223177858E+00 
    2.7800024990726038E+00 
    2.7613027008420774E+00 
    2.7240917815018357E+00 
    2.7933446590686737E+00 
    2.9240002666887368E+00 
    2.6517787006870157E+00 
    2.9604040779654666E+00 
    2.9933287451853916E+00 
    2.7767118588736288E+00 
    2.7657974579607920E+00 
    2.6790517446947915E+00 
    2.6559280026045995E+00 
    3.0017656125876888E+00 
    2.7549435619263134E+00 
    2.8672933960786975E+00 
    2.7881911522510721E+00 
    2.8766535856376647E+00 
    2.6922764569028153E+00 
    2.8231249053942222E+00 
    3.0014686452037749E+00 
    2.7366787419785839E+00 
    2.8017173636903334E+00 
    2.7109853775388015E+00 
    2.7989174773699772E+00 
    3.0188573235808569E+00 
    2.7432119202724565E+00 
    2.8612543575741149E+00 
    2.7464450061219412E+00 
    2.6650523131121329E+00 
    2.8989334767429820E+00 
    2.8889743989154861E+00 
    2.8658341502985154E+00 
    2.7432206952720124E+00 
    2.7447974170100498E+00 
    2.6756672021464989E+00 
    2.8496248677207441E+00 
    2.8994171037414507E+00 
    2.8184745762247410E+00 
    2.6949887980490250E+00 
    2.7300852599206520E+00 