# vtk DataFile Version 2.0
Pressure Field Data 
ASCII 
DATASET UNSTRUCTURED_GRID 

POINTS 7441 double 

    0.0000000000000000E+00     0.0000000000000000E+00     0.0000000000000000E+00 
    1.0000000000000000E+00     0.0000000000000000E+00     0.0000000000000000E+00 
    1.0000000000000000E+00     1.0000000000000000E+00     0.0000000000000000E+00 
    0.0000000000000000E+00     1.0000000000000000E+00     0.0000000000000000E+00 
    2.6388888888826079E-01     0.0000000000000000E+00     0.0000000000000000E+00 
    4.8611111110983568E-01     0.0000000000000000E+00     0.0000000000000000E+00 
    4.5833333333213888E-01     0.0000000000000000E+00     0.0000000000000000E+00 
    4.3055555555444203E-01     0.0000000000000000E+00     0.0000000000000000E+00 
    4.0277777777674523E-01     0.0000000000000000E+00     0.0000000000000000E+00 
    3.7499999999904832E-01     0.0000000000000000E+00     0.0000000000000000E+00 
    3.4722222222135152E-01     0.0000000000000000E+00     0.0000000000000000E+00 
    3.1944444444365461E-01     0.0000000000000000E+00     0.0000000000000000E+00 
    2.9166666666595781E-01     0.0000000000000000E+00     0.0000000000000000E+00 
    5.1388888888760953E-01     0.0000000000000000E+00     0.0000000000000000E+00 
    2.3611111111056399E-01     0.0000000000000000E+00     0.0000000000000000E+00 
    2.0833333333286691E-01     0.0000000000000000E+00     0.0000000000000000E+00 
    1.8055555555516931E-01     0.0000000000000000E+00     0.0000000000000000E+00 
    1.5277777777747251E-01     0.0000000000000000E+00     0.0000000000000000E+00 
    1.2499999999976660E-01     0.0000000000000000E+00     0.0000000000000000E+00 
    9.7222222222041035E-02     0.0000000000000000E+00     0.0000000000000000E+00 
    6.9444444444307585E-02     0.0000000000000000E+00     0.0000000000000000E+00 
    4.1666666666583550E-02     0.0000000000000000E+00     0.0000000000000000E+00 
    7.6388888888826756E-01     0.0000000000000000E+00     0.0000000000000000E+00 
    9.8611111111107452E-01     0.0000000000000000E+00     0.0000000000000000E+00 
    9.5833333333322368E-01     0.0000000000000000E+00     0.0000000000000000E+00 
    9.3055555555537284E-01     0.0000000000000000E+00     0.0000000000000000E+00 
    9.0277777777752188E-01     0.0000000000000000E+00     0.0000000000000000E+00 
    8.7499999999967093E-01     0.0000000000000000E+00     0.0000000000000000E+00 
    8.4722222222182020E-01     0.0000000000000000E+00     0.0000000000000000E+00 
    8.1944444444396924E-01     0.0000000000000000E+00     0.0000000000000000E+00 
    7.9166666666611840E-01     0.0000000000000000E+00     0.0000000000000000E+00 
    1.3888888888862600E-02     0.0000000000000000E+00     0.0000000000000000E+00 
    7.3611111111041660E-01     0.0000000000000000E+00     0.0000000000000000E+00 
    7.0833333333256565E-01     0.0000000000000000E+00     0.0000000000000000E+00 
    6.8055555555471492E-01     0.0000000000000000E+00     0.0000000000000000E+00 
    6.5277777777686397E-01     0.0000000000000000E+00     0.0000000000000000E+00 
    6.2499999999901323E-01     0.0000000000000000E+00     0.0000000000000000E+00 
    5.9722222222116228E-01     0.0000000000000000E+00     0.0000000000000000E+00 
    5.6944444444331144E-01     0.0000000000000000E+00     0.0000000000000000E+00 
    5.4166666666546048E-01     0.0000000000000000E+00     0.0000000000000000E+00 
    2.7777777777710932E-01     0.0000000000000000E+00     0.0000000000000000E+00 
    4.9999999999868411E-01     0.0000000000000000E+00     0.0000000000000000E+00 
    4.7222222222098731E-01     0.0000000000000000E+00     0.0000000000000000E+00 
    4.4444444444329051E-01     0.0000000000000000E+00     0.0000000000000000E+00 
    4.1666666666559360E-01     0.0000000000000000E+00     0.0000000000000000E+00 
    3.8888888888789669E-01     0.0000000000000000E+00     0.0000000000000000E+00 
    3.6111111111019989E-01     0.0000000000000000E+00     0.0000000000000000E+00 
    3.3333333333250298E-01     0.0000000000000000E+00     0.0000000000000000E+00 
    3.0555555555480618E-01     0.0000000000000000E+00     0.0000000000000000E+00 
    5.2777777777653501E-01     0.0000000000000000E+00     0.0000000000000000E+00 
    2.4999999999941239E-01     0.0000000000000000E+00     0.0000000000000000E+00 
    2.2222222222171559E-01     0.0000000000000000E+00     0.0000000000000000E+00 
    1.9444444444401809E-01     0.0000000000000000E+00     0.0000000000000000E+00 
    1.6666666666632060E-01     0.0000000000000000E+00     0.0000000000000000E+00 
    1.3888888888862441E-01     0.0000000000000000E+00     0.0000000000000000E+00 
    1.1111111111090879E-01     0.0000000000000000E+00     0.0000000000000000E+00 
    8.3333333333173276E-02     0.0000000000000000E+00     0.0000000000000000E+00 
    5.5555555555441907E-02     0.0000000000000000E+00     0.0000000000000000E+00 
    7.4999999999934208E-01     0.0000000000000000E+00     0.0000000000000000E+00 
    9.7222222222214916E-01     0.0000000000000000E+00     0.0000000000000000E+00 
    9.4444444444429820E-01     0.0000000000000000E+00     0.0000000000000000E+00 
    9.1666666666644736E-01     0.0000000000000000E+00     0.0000000000000000E+00 
    8.8888888888859641E-01     0.0000000000000000E+00     0.0000000000000000E+00 
    8.6111111111074556E-01     0.0000000000000000E+00     0.0000000000000000E+00 
    8.3333333333289472E-01     0.0000000000000000E+00     0.0000000000000000E+00 
    8.0555555555504388E-01     0.0000000000000000E+00     0.0000000000000000E+00 
    7.7777777777719292E-01     0.0000000000000000E+00     0.0000000000000000E+00 
    2.7777777777725190E-02     0.0000000000000000E+00     0.0000000000000000E+00 
    7.2222222222149113E-01     0.0000000000000000E+00     0.0000000000000000E+00 
    6.9444444444364029E-01     0.0000000000000000E+00     0.0000000000000000E+00 
    6.6666666666578944E-01     0.0000000000000000E+00     0.0000000000000000E+00 
    6.3888888888793860E-01     0.0000000000000000E+00     0.0000000000000000E+00 
    6.1111111111008776E-01     0.0000000000000000E+00     0.0000000000000000E+00 
    5.8333333333223691E-01     0.0000000000000000E+00     0.0000000000000000E+00 
    5.5555555555438596E-01     0.0000000000000000E+00     0.0000000000000000E+00 
    1.0000000000000000E+00     2.6388888888826079E-01     0.0000000000000000E+00 
    1.0000000000000000E+00     4.8611111110983568E-01     0.0000000000000000E+00 
    1.0000000000000000E+00     4.5833333333213888E-01     0.0000000000000000E+00 
    1.0000000000000000E+00     4.3055555555444203E-01     0.0000000000000000E+00 
    1.0000000000000000E+00     4.0277777777674523E-01     0.0000000000000000E+00 
    1.0000000000000000E+00     3.7499999999904832E-01     0.0000000000000000E+00 
    1.0000000000000000E+00     3.4722222222135152E-01     0.0000000000000000E+00 
    1.0000000000000000E+00     3.1944444444365461E-01     0.0000000000000000E+00 
    1.0000000000000000E+00     2.9166666666595781E-01     0.0000000000000000E+00 
    1.0000000000000000E+00     5.1388888888760953E-01     0.0000000000000000E+00 
    1.0000000000000000E+00     2.3611111111056399E-01     0.0000000000000000E+00 
    1.0000000000000000E+00     2.0833333333286691E-01     0.0000000000000000E+00 
    1.0000000000000000E+00     1.8055555555516931E-01     0.0000000000000000E+00 
    1.0000000000000000E+00     1.5277777777747251E-01     0.0000000000000000E+00 
    1.0000000000000000E+00     1.2499999999976660E-01     0.0000000000000000E+00 
    1.0000000000000000E+00     9.7222222222041035E-02     0.0000000000000000E+00 
    1.0000000000000000E+00     6.9444444444307585E-02     0.0000000000000000E+00 
    1.0000000000000000E+00     4.1666666666583550E-02     0.0000000000000000E+00 
    1.0000000000000000E+00     7.6388888888826756E-01     0.0000000000000000E+00 
    1.0000000000000000E+00     9.8611111111107452E-01     0.0000000000000000E+00 
    1.0000000000000000E+00     9.5833333333322368E-01     0.0000000000000000E+00 
    1.0000000000000000E+00     9.3055555555537284E-01     0.0000000000000000E+00 
    1.0000000000000000E+00     9.0277777777752188E-01     0.0000000000000000E+00 
    1.0000000000000000E+00     8.7499999999967093E-01     0.0000000000000000E+00 
    1.0000000000000000E+00     8.4722222222182020E-01     0.0000000000000000E+00 
    1.0000000000000000E+00     8.1944444444396924E-01     0.0000000000000000E+00 
    1.0000000000000000E+00     7.9166666666611840E-01     0.0000000000000000E+00 
    1.0000000000000000E+00     1.3888888888862600E-02     0.0000000000000000E+00 
    1.0000000000000000E+00     7.3611111111041660E-01     0.0000000000000000E+00 
    1.0000000000000000E+00     7.0833333333256565E-01     0.0000000000000000E+00 
    1.0000000000000000E+00     6.8055555555471492E-01     0.0000000000000000E+00 
    1.0000000000000000E+00     6.5277777777686397E-01     0.0000000000000000E+00 
    1.0000000000000000E+00     6.2499999999901323E-01     0.0000000000000000E+00 
    1.0000000000000000E+00     5.9722222222116228E-01     0.0000000000000000E+00 
    1.0000000000000000E+00     5.6944444444331144E-01     0.0000000000000000E+00 
    1.0000000000000000E+00     5.4166666666546048E-01     0.0000000000000000E+00 
    1.0000000000000000E+00     2.7777777777710932E-01     0.0000000000000000E+00 
    1.0000000000000000E+00     4.9999999999868411E-01     0.0000000000000000E+00 
    1.0000000000000000E+00     4.7222222222098731E-01     0.0000000000000000E+00 
    1.0000000000000000E+00     4.4444444444329051E-01     0.0000000000000000E+00 
    1.0000000000000000E+00     4.1666666666559360E-01     0.0000000000000000E+00 
    1.0000000000000000E+00     3.8888888888789669E-01     0.0000000000000000E+00 
    1.0000000000000000E+00     3.6111111111019989E-01     0.0000000000000000E+00 
    1.0000000000000000E+00     3.3333333333250298E-01     0.0000000000000000E+00 
[...]
CELL_DATA 14592 
SCALARS Pressure double 1 
LOOKUP_TABLE default 

    9.0096701812006597E-01 
    8.9482246778778551E-01 
    8.9181549567859109E-01 
    8.9167632276061537E-01 
    8.8519971100046169E-01 
    8.8173259551538208E-01 
    8.7477301414894726E-01 
    8.8522060711107886E-01 
    8.8207330889004676E-01 
    8.7491800589409097E-01 
    8.7159984952335556E-01 
    8.7107025013728068E-01 
    8.8221344194933304E-01 
    8.7548051522629211E-01 
    8.7150895206070378E-01 
    8.7264624534189528E-01 
    8.6437253686082027E-01 
    8.5977647136533741E-01 
    8.5130655637760966E-01 
    8.6356432962720575E-01 
    8.4731751798020305E-01 
    8.5201245660011782E-01 
    8.4877601525734403E-01 
    8.5993508108262429E-01 
    8.3863841117992832E-01 
    8.3508766319946681E-01 
    8.2605977203420433E-01 
    8.4056675163273020E-01 
    8.6423837640801549E-01 
    8.6123124612992696E-01 
    8.5369957948966380E-01 
    8.6567812375117636E-01 
    8.5840415627737587E-01 
    8.5058709374365105E-01 
    8.4407682735525047E-01 
    8.4672998620486706E-01 
    8.3578368469072029E-01 
    8.3426015304271173E-01 
    8.2591547588447001E-01 
    8.3809789059116890E-01 
    8.0739292218484326E-01 
    7.9976827856251331E-01 
    7.7077836622916074E-01 
    8.1836866577216716E-01 
    8.3354319017525436E-01 
    8.2413641010166228E-01 
    8.1921300885333070E-01 
    8.1998100878445535E-01 
    8.6304537735934250E-01 
    8.5589586434216447E-01 
    8.5100222492868538E-01 
    8.5348491844413843E-01 
    8.4328403874498981E-01 
    8.4093151486774331E-01 
    8.3311171057149647E-01 
    8.4621842658411406E-01 
    8.3777541827402346E-01 
    8.2936661511121368E-01 
    8.2310968826717812E-01 
    8.2708502758504943E-01 
    8.4403781505367848E-01 
    8.3672566761320333E-01 
    8.3111892559554812E-01 
    8.3477392246713700E-01 
    3.4279440332495070E-01 
    3.4220522013157323E-01 
    3.5293772853592631E-01 
    3.3096964091648240E-01 
    3.5247211615088586E-01 
    3.4103858901853024E-01 
    3.4044771742692559E-01 
    3.3033024830230684E-01 
    3.6356522281829123E-01 
    3.6325312240952912E-01 
    3.7476564171349047E-01 
    3.5147871666271935E-01 
    3.1910602623956985E-01 
    3.1838294550177287E-01 
    3.2897460696764841E-01 
    3.0720199679624371E-01 
    3.7590407014391602E-01 
    3.6270759854256185E-01 
    3.6073721392261798E-01 
    3.5096376853134870E-01 
    3.4895756013633217E-01 
    3.3816447803182081E-01 
    3.2656198776442402E-01 
    3.3906817231326497E-01 
    3.4784543409806090E-01 
    3.3622246607624640E-01 
    3.3524529750855825E-01 
    3.2562933182349996E-01 
    3.2824149258983704E-01 
    3.1683301701561351E-01 
    3.1599047022983318E-01 
    3.0640038136116399E-01 
    3.7737182857991769E-01 
    3.7853969783821928E-01 
    3.8007653889396453E-01 
    3.6994282373896437E-01 
    3.8123876214378866E-01 
    3.8088187062691059E-01 
    3.8203450113265758E-01 
    3.6963447335400434E-01 
    3.8943631182776772E-01 
    3.8965838729516533E-01 
    3.9647553957113812E-01 
    3.8358497243054923E-01 
    3.5831217408029620E-01 
    3.5763903679034248E-01 
    3.6906782679686778E-01 
    3.4587404869021032E-01 
    2.9530097872385291E-01 
    2.9443791036398026E-01 
    3.0470200309881756E-01 
    2.8344582648142980E-01 
    3.0380288848560388E-01 
    2.9263680952293192E-01 
    2.9169967723684659E-01 
    2.8253628956193522E-01 
    3.1419219448368052E-01 
    3.1324735967102268E-01 
    3.2371598480461172E-01 
    3.0193615081607461E-01 
    2.7166617684993150E-01 
    2.7071638289938371E-01 
    2.8065433604912560E-01 
    2.5997790491806594E-01 
    7.4019224214096091E-01 
    7.4646847933015414E-01 
    7.5226174984235905E-01 
    7.4699690554393761E-01 
    7.5816784616229083E-01 
    7.5848007742944112E-01 
    7.6419798523683102E-01 
    7.5315209058975119E-01 
    7.6380883461362514E-01 
    7.6929985033018289E-01 
    7.7481859906653527E-01 
    7.6931614112820923E-01 
    7.5405875528285948E-01 
    7.6015535494798803E-01 
    7.6488776926086510E-01 
    7.6165632467893252E-01 
    7.8192350480528561E-01 
    7.8195828211809826E-01 
    7.8916867180291161E-01 
    7.7453284009884960E-01 
    7.8870916400933533E-01 
    7.7984104949846178E-01 
    7.8063505583224735E-01 
    7.7489585765210589E-01 
    7.9711937915726583E-01 
    7.9823142178027395E-01 
    8.0742929441500966E-01 
    7.9041731220298639E-01 
    7.7044668776293723E-01 
    7.7171642059204681E-01 
    7.7714841796543199E-01 
    7.6780648635695359E-01 
    7.8900063822187660E-01 
    7.9608887667820372E-01 
    8.0268957982537836E-01 
    7.9643610523004071E-01 
    8.0963015086646584E-01 
    8.1043895951303002E-01 
    8.1772881669211406E-01 
    8.0384321472110642E-01 
    8.1563280237188829E-01 
    8.2241674894442873E-01 
    8.2781494056271088E-01 
    8.2366261859644030E-01 
    8.0450720238658635E-01 
    8.1255326042292331E-01 
    8.1899311448550183E-01 
    8.1419049340721972E-01 
    7.7028653169279326E-01 
    7.7671836907840253E-01 
    7.7939841901512286E-01 
    7.8091397476665370E-01 
    7.8478266201132452E-01 
    7.8867398223252150E-01 
    8.0161142677415242E-01 
    7.8793900476245393E-01 
    7.9288870209576645E-01 
    8.0348821597201825E-01 
    8.1009752018236336E-01 
    8.0790023611186701E-01 
    7.9504519398241702E-01 
    8.0183823891021100E-01 
    8.1007571376511800E-01 
    7.6827359497468262E-01 
    2.8029124974057673E-01 
    2.8516189005440407E-01 
    2.7678896518528867E-01 
    2.9852861189087621E-01 
    2.8164886499052133E-01 
    2.9492083038906691E-01 
    2.9980304890956810E-01 
    3.0342004743843953E-01 
    2.7336396054364154E-01 
    2.7820979689574954E-01 
    2.7001218835567048E-01 
    2.9138569861745262E-01 
    3.1691534335843619E-01 
    3.2181247284976694E-01 
    3.1321055716601620E-01 
    3.3539682575544322E-01 
    2.7483883277425336E-01 
    2.8791758825053054E-01 
    2.9277621540555598E-01 
    2.9625819237962814E-01 
    3.0602648025484686E-01 
    3.1448212395862662E-01 
    3.2792656771583484E-01 
    3.0958444029474680E-01 
    3.1092215207377805E-01 
    3.2432588630641718E-01 
    3.2927833360832359E-01 
    3.3286038033486703E-01 
    3.1810497041600844E-01 
    3.3160498866746235E-01 
    3.3649492176144497E-01 
    3.4027416948669414E-01 
    2.6672556105172984E-01 
    2.7152614555557691E-01 
    2.6349381686142309E-01 
    2.8450520085501779E-01 
    2.6825982724776876E-01 
    2.8113404949851684E-01 
    2.8593810852458534E-01 
    2.8934190753849781E-01 
    2.6030575325698413E-01 
    2.6502709733933116E-01 
    2.5714929163612993E-01 
    2.7778909095711007E-01 
    3.0251609176311456E-01 
    3.0739659876027442E-01 
    2.9903022169582183E-01 
    3.2075792963595740E-01 
    3.5388438975079511E-01 
    3.5864505499574306E-01 
    3.4999994484144636E-01 
    3.7210347503415930E-01 
    3.5482127802987096E-01 
    3.6796290496243822E-01 
    3.7269375602293547E-01 
    3.7576685552952427E-01 
    3.4639152103577808E-01 
    3.5146642816574886E-01 
    3.4283792928846463E-01 
    3.6522180776831348E-01 
    3.8675287699474298E-01 
    3.8596893540243543E-01 
    3.8456892016254257E-01 
    3.9476741318217096E-01 
    4.4095180768518333E-01 
    4.4822345711359096E-01 
    4.5632737807206541E-01 
    4.4731850152684549E-01 
    4.6376847590586234E-01 
    4.6240723258869199E-01 
    4.6931684332002310E-01 
    4.5419914847440246E-01 
    4.7231474536525231E-01 
    4.7976111740441740E-01 
    4.8850372710441509E-01 
    4.7760380272322173E-01 
    4.5286206825427289E-01 
    4.5967417923048481E-01 
    4.6800664276921522E-01 
    4.5805584028911484E-01 
    4.9386144451871661E-01 
    4.9150709542145787E-01 
    4.9689537487776109E-01 
    4.8392927305944256E-01 
    4.9623587459031049E-01 
    4.8944159031028150E-01 
    4.8925080075211042E-01 
    4.8278295103539592E-01 
    5.0235405888523754E-01 
    5.0351576511223017E-01 
    5.1122694349998810E-01 
    4.9664093288387512E-01 
    4.7497956195225260E-01 
    4.7410088400734368E-01 
    4.8145926130306538E-01 
    4.6501216496018138E-01 
    5.0173017290144850E-01 
    5.0550399800093371E-01 
    5.1218138717658557E-01 
    5.0307353213795802E-01 
    5.1868645177203010E-01 
    5.1098585524476192E-01 
    5.1972823379101918E-01 
    5.0704418257438078E-01 
    5.3340897839036394E-01 
    5.4066731298508375E-01 
    5.5325748421422538E-01 
    5.3490145166422987E-01 
    5.0723738462081069E-01 
    5.1233794717775238E-01 
    5.1444121828364398E-01 
    5.1533421156100956E-01 
    4.5709305146860157E-01 
    4.6247254580952069E-01 
    4.7960646861599843E-01 
    4.5047955328108558E-01 
    4.8703249203316246E-01 
    4.7108296010840750E-01 
    4.7313497442641766E-01 
    4.5347238817330304E-01 
    4.9678713426473742E-01 
    5.0485179473258579E-01 
    5.1458366163574354E-01 
    4.9195670257577456E-01 
    4.3934852864633644E-01 
    4.3988613963901957E-01 
    4.5623889935360173E-01 
    4.2461638249915046E-01 
    6.6681627283512535E-01 
    6.6824678215044542E-01 
    6.5862253620665467E-01 
    6.7918327470012929E-01 
    6.6035154487274905E-01 
    6.7147246013935080E-01 
    6.7318082464223050E-01 
    6.8079883661962048E-01 
    6.5106313871965504E-01 
    6.5159885298182174E-01 
    6.5212986502669201E-01 
    6.6360756878254568E-01 
    6.9166772701862700E-01 
    6.9337602684305144E-01 
    6.8425780538957881E-01 
    7.0413996066273044E-01 
    6.5269293741455048E-01 
    6.6002673157109726E-01 
    6.6167050801437011E-01 
    6.6674177201703710E-01 
    6.7122070882268758E-01 
    6.7944711282917047E-01 
    6.8996793122059730E-01 
    6.7735775895214045E-01 
    6.7265800473155068E-01 
    6.8297736468509729E-01 
    6.8449379822258127E-01 
    6.9174966091202528E-01 
    6.8617677865874172E-01 
    6.9694484824811109E-01 
    6.9877438510006118E-01 
    7.0588667822998574E-01 
    6.5324616267780855E-01 
    6.5382511612720584E-01 
    6.4408248862885720E-01 
    6.5385763872746150E-01 
    6.4527009282498315E-01 
    6.5503057896085215E-01 
    6.5564158268870443E-01 
    6.5444965740647321E-01 
    6.3590384605045347E-01 
    6.3683370874343015E-01 
    6.2848510007325542E-01 
    6.4630617574796223E-01 
    6.6369711772094586E-01 
    6.6486534320607993E-01 
    6.5567491545201706E-01 
    6.7535958032518228E-01 
    7.1653064129322341E-01 
    7.1827162924942967E-01 
    7.0941744832924136E-01 
    7.2881213421752000E-01 
    7.1117978034155671E-01 
    7.2175961989480608E-01 
    7.2349722830899588E-01 
    7.3054405561946534E-01 
    7.0232754455093782E-01 
    7.0403385440822663E-01 
    6.9508786617430951E-01 
    7.1464658455604213E-01 
    7.4098629491917389E-01 
    7.4271925999059318E-01 
    7.3401945863769524E-01 
    7.5305705676507295E-01 
    5.9597179786176825E-02 
    6.4517195645262287E-02 
    6.7483354062503692E-02 
    6.6241667148678851E-02 
    7.2843719101686702E-02 
    7.5257608337837775E-02 
    8.1087363407893021E-02 
    7.1644206980545327E-02 
    7.5564925529736676E-02 
    8.1504665692251288E-02 
    8.4297830237061180E-02 
    8.4550199717057198E-02 
    7.3247339953989105E-02 
    7.9063000859336680E-02 
    8.3271115090787787E-02 
    8.0522395911611311E-02 
    8.9894243528300583E-02 
    9.4065871586936842E-02 
    1.0169935525928286E-01 
    9.0846232989126918E-02 
    1.0471838234712433E-01 
    1.0041246676014945E-01 
    1.0276923129599679E-01 
    9.3639431470038156E-02 
    1.1206618845759862E-01 
    1.1469484787568753E-01 
    1.2215357119258258E-01 
    1.0979508582596445E-01 
    8.9498494242392895E-02 
    9.1431086417622265E-02 
    9.7994224456752238E-02 
    8.6670744772813724E-02 
    9.8642509573289697E-02 
    1.0478986171639834E-01 
    1.1368234986142584E-01 
    1.0660727982832489E-01 
    1.2019858617433817E-01 
    1.1780574894481967E-01 
    1.2457328494755353E-01 
    1.1378883873704708E-01 
    1.3139845203159903E-01 
    1.3810186352350992E-01 
    1.4886957376924284E-01 
    1.3411147997086875E-01 
    1.1676777744587619E-01 
    1.2429976865835254E-01 
    1.2868110535311517E-01 
    1.2721657760279431E-01 
    8.7946394069545547E-02 
    9.4371192386402056E-02 
    9.9663281220528935E-02 
    9.5404045487782335E-02 
    1.0651156851703111E-01 
    1.0793303981197100E-01 
    1.1506548662698833E-01 
    1.0210065045617785E-01 
    1.1182811990961217E-01 
    1.1908097368064527E-01 
    1.2447222742578726E-01 
    1.2085298553639570E-01 
    1.0281833833263530E-01 
    1.0997018179265920E-01 
    1.1629461941682054E-01 
    1.1052884093535936E-01 
    7.4735882990398206E-01 
    7.4170544902858382E-01 
    7.4815856296102368E-01 
    7.2948971571073928E-01 
    7.4252337976235894E-01 
    7.3029404493637629E-01 
    7.2455363137757267E-01 
    7.2370738629807274E-01 
    7.4901614553514428E-01 
    7.4337393113794936E-01 
    7.4985854120955653E-01 
    7.3116743783135907E-01 
    7.1123974313801808E-01 
    7.0537348880185402E-01 
    7.1210137652916627E-01 
    6.9269100829970554E-01 
    7.4411729572158403E-01 
    7.3209180316535860E-01 
    7.2650502793763860E-01 
    7.2547093039166288E-01 
    7.1400822188637292E-01 
    7.0727644436504578E-01 
    6.9462896860218248E-01 
    7.1304139993126581E-01 
    7.0879284008596677E-01 
    6.9621975673706760E-01 
    6.9103996845276083E-01 
    6.8873772779756659E-01 
    7.0629463711625351E-01 
    6.9366632254464622E-01 
    6.8786142815033913E-01 
    6.8683577648114724E-01 
    7.5117996882340954E-01 
    7.4598814007943681E-01 
    7.5297961045379436E-01 
    7.3369098006296207E-01 
    7.4781426726116340E-01 
    7.3560437764856512E-01 
    7.3041895199878770E-01 
    7.2848774273148853E-01 
    7.5474248196806648E-01 
    7.4960611432693924E-01 
    7.5648157024866736E-01 
    7.3747413333431566E-01 
    7.1607958751727985E-01 
    7.1088851436908462E-01 
    7.1809062847250182E-01 
    6.9843290955750648E-01 
    6.7405546019424656E-01 
    6.6909680798417293E-01 
    6.7532340454296336E-01 
    6.5836862682979713E-01 
    6.6951625616924326E-01 
    6.5729344813722368E-01 
    6.5678583241338462E-01 
    6.5785150942836790E-01 
    6.7591515785353573E-01 
    6.7040144854654238E-01 
    6.7837171311064370E-01 
    6.5623634786956797E-01 
    6.4734193159811626E-01 
    6.4261785700041185E-01 
    6.4812953233498727E-01 
    6.3183418408725367E-01 
    2.1364415446386725E-01 
    2.0590100823313434E-01 
    1.9912505312165832E-01 
    2.0490333879091205E-01 
    1.9143965734854673E-01 
    1.9043743866504786E-01 
    1.8271420737889776E-01 
    1.9710039534358612E-01 
    1.8469704959755856E-01 
    1.7714090137206917E-01 
    1.7045976213650127E-01 
    1.7617056646547782E-01 
    1.9591426013912891E-01 
    1.8799499347823412E-01 
    1.8146705399038754E-01 
    1.8655223550720376E-01 
    1.6311257719583080E-01 
    1.6217953526321763E-01 
    1.5475014264654208E-01 
    1.6857522758027940E-01 
    1.5342897481681914E-01 
    1.5957626478931919E-01 
    1.5787774782189165E-01 
    1.6728887142974927E-01 
    1.4616309498585844E-01 
    1.4444457684603160E-01 
    1.3710161584719746E-01 
    1.4993847993391343E-01 
    1.7362941844509266E-01 
    1.7206300036391181E-01 
    1.6403625000625555E-01 
    1.7846960568175488E-01 
    1.5655286079842623E-01 
    1.4958420123491090E-01 
    1.4335124981217506E-01 
    1.4872371130806888E-01 
    1.3661737374264155E-01 
    1.3583254695861791E-01 
    1.2905805352837468E-01 
    1.4172122766611978E-01 
    1.3059736406173264E-01 
    1.2393349787236024E-01 
    1.1800894250460892E-01 
    1.2327512510725833E-01 
    1.4049344869309363E-01 
    1.3347025310573249E-01 
    1.2795978878419631E-01 
    1.3182406491067136E-01 
    1.7675208983216248E-01 
    1.6846808321261347E-01 
    1.6211300274986729E-01 
    1.6654699487233576E-01 
    1.5380358460891505E-01 
    1.5144437050162121E-01 
    1.4274684897587603E-01 
    1.5791165686792094E-01 
    1.4775093111778892E-01 
    1.3998412953587272E-01 
    1.3489547184563155E-01 
    1.3715458583008483E-01 
    1.5560834289055261E-01 
    1.4956187442998320E-01 
    1.4030220837144661E-01 
    1.5510343831492257E-01 
    6.0610945790712345E-01 
    5.9200582773996702E-01 
    5.8056828387584014E-01 
    5.9305356036627865E-01 
    5.7290373006792461E-01 
    5.7436369794548847E-01 
    5.6694663687811486E-01 
    5.8214947481774837E-01 
    5.2449456359380653E-01 
    5.2511152846765941E-01 
    4.9225657748303520E-01 
    5.5808267483100815E-01 
    5.8081272271159534E-01 
    5.6860595943033709E-01 
    5.5041259277413945E-01 
    5.7352235997619250E-01 
    4.9447867789451194E-01 
    5.2324551173186951E-01 
    5.2125088458154378E-01 
    5.5146717274983570E-01 
    5.3868994958222494E-01 
    5.4687837819573193E-01 
    5.3626936298634975E-01 
    5.5313659171651441E-01 
    5.3278360056655305E-01 
    5.3029648041735200E-01 
    5.2479886867765346E-01 
    5.3074168392968113E-01 
    5.4616872177583398E-01 
    5.5079444813142531E-01 
    5.4339048770648357E-01 
    5.6421650951677449E-01 
    4.6994224677666685E-01 
    4.7255359489440391E-01 
    4.5191523447814141E-01 
    4.9768634349696650E-01 
    4.5398232418494178E-01 
    4.7537216342807492E-01 
    4.7533133833184282E-01 
    4.9870328743292203E-01 
    4.3653882102966157E-01 
    4.3812804262250726E-01 
    4.2311362573566103E-01 
    4.5617142613826711E-01 
    5.2413473478536476E-01 
    5.1874269693291408E-01 
    4.9598721180376337E-01 
    5.2154454498459402E-01 
    5.6679849979136532E-01 
    5.5846197417039367E-01 
    5.4599763295908144E-01 
    5.6214084844201195E-01 
    5.3716549667673008E-01 
    5.4215364467233351E-01 
    5.3431522911920593E-01 
    5.5499718205643545E-01 
    5.2428232990647983E-01 
    5.2087918816387990E-01 
    5.2095257641360404E-01 
    5.1727037729441483E-01 
    5.6000490446828743E-01 
    5.5421004883170977E-01 
    5.4214817457057207E-01 
    5.5955287964333567E-01 
    6.3289609149450754E-01 
    6.3184560112322985E-01 
    6.3103712903413400E-01 
    6.3100020849376470E-01 
    6.3232587120567729E-01 
    6.3317081766996353E-01 
    6.3235211767619215E-01 
    6.3033323665438457E-01 
    6.3242751587713397E-01 
    6.3566480069944264E-01 
    6.3837348951950923E-01 
    6.3615490532746888E-01 
    6.2629177566230787E-01 
    6.2384244804683675E-01 
    6.2666417326126200E-01 
    6.1866410992711907E-01 
    6.4512478702021769E-01 
    6.4059874107764858E-01 
    6.3444415425099288E-01 
    6.3583939010442325E-01 
    6.2584702008018611E-01 
    6.2361947829600928E-01 
    6.1762415023709127E-01 
    6.2765976767664489E-01 
    6.1975343796315696E-01 
    6.1428802577122654E-01 
    6.0918740500617019E-01 
    6.1390909723529719E-01 
    6.2412980258297623E-01 
    6.1838602458231184E-01 
    6.1537147919483681E-01 
    6.1573884600926554E-01 
    6.5005800607498387E-01 
    6.5119750904086349E-01 
    6.5839993444963341E-01 
    6.3706947929802327E-01 
    6.4387547023666747E-01 
    6.2566308621320488E-01 
    6.1376391500687422E-01 
    6.2723319565901570E-01 
    6.4848289818641758E-01 
    6.3672325232394789E-01 
    6.4003041797718307E-01 
    6.2093295654945380E-01 
    6.1927004071592839E-01 
    6.1086502810924359E-01 
    6.0666140207958530E-01 