# vtk DataFile Version 2.0
Pressure Field Data 
ASCII 
DATASET UNSTRUCTURED_GRID 

POINTS 13481 double 

    0.0000000000000000E+00     0.0000000000000000E+00     0.0000000000000000E+00 
    1.0000000000000000E+00     0.0000000000000000E+00     0.0000000000000000E+00 
    1.0000000000000000E+00     1.0000000000000000E+00     0.0000000000000000E+00 
    0.0000000000000000E+00     1.0000000000000000E+00     0.0000000000000000E+00 
    4.5454545454459132E-03     0.0000000000000000E+00     0.0000000000000000E+00 
    9.0909090908918525E-03     0.0000000000000000E+00     0.0000000000000000E+00 
    1.3636363636337859E-02     0.0000000000000000E+00     0.0000000000000000E+00 
    1.8181818181783872E-02     0.0000000000000000E+00     0.0000000000000000E+00 
    2.2727272727229870E-02     0.0000000000000000E+00     0.0000000000000000E+00 
    2.7272727272675549E-02     0.0000000000000000E+00     0.0000000000000000E+00 
    3.1818181818121058E-02     0.0000000000000000E+00     0.0000000000000000E+00 
    3.6363636363565877E-02     0.0000000000000000E+00     0.0000000000000000E+00 
    4.0909090909010543E-02     0.0000000000000000E+00     0.0000000000000000E+00 
    4.5454545454454973E-02     0.0000000000000000E+00     0.0000000000000000E+00 
    4.9999999999899403E-02     0.0000000000000000E+00     0.0000000000000000E+00 
    5.4545454545343833E-02     0.0000000000000000E+00     0.0000000000000000E+00 
    5.9090909090789019E-02     0.0000000000000000E+00     0.0000000000000000E+00 
    6.3636363636234636E-02     0.0000000000000000E+00     0.0000000000000000E+00 
    6.8181818181681425E-02     0.0000000000000000E+00     0.0000000000000000E+00 
    7.2727272727128645E-02     0.0000000000000000E+00     0.0000000000000000E+00 
    7.7272727272576225E-02     0.0000000000000000E+00     0.0000000000000000E+00 
    8.1818181818023805E-02     0.0000000000000000E+00     0.0000000000000000E+00 
    8.6363636363471386E-02     0.0000000000000000E+00     0.0000000000000000E+00 
    9.0909090908918966E-02     0.0000000000000000E+00     0.0000000000000000E+00 
    9.5454545454366560E-02     0.0000000000000000E+00     0.0000000000000000E+00 
    9.9999999999814140E-02     0.0000000000000000E+00     0.0000000000000000E+00 
    1.0454545454526171E-01     0.0000000000000000E+00     0.0000000000000000E+00 
    1.0909090909070930E-01     0.0000000000000000E+00     0.0000000000000000E+00 
    1.1363636363615690E-01     0.0000000000000000E+00     0.0000000000000000E+00 
    1.1818181818160410E-01     0.0000000000000000E+00     0.0000000000000000E+00 
    1.2272727272705020E-01     0.0000000000000000E+00     0.0000000000000000E+00 
    1.2727272727249461E-01     0.0000000000000000E+00     0.0000000000000000E+00 
    1.3181818181793739E-01     0.0000000000000000E+00     0.0000000000000000E+00 
    1.3636363636337900E-01     0.0000000000000000E+00     0.0000000000000000E+00 
    1.4090909090882031E-01     0.0000000000000000E+00     0.0000000000000000E+00 
    1.4545454545426159E-01     0.0000000000000000E+00     0.0000000000000000E+00 
    1.4999999999970290E-01     0.0000000000000000E+00     0.0000000000000000E+00 
    1.5454545454514421E-01     0.0000000000000000E+00     0.0000000000000000E+00 
    1.5909090909058540E-01     0.0000000000000000E+00     0.0000000000000000E+00 
    1.6363636363602671E-01     0.0000000000000000E+00     0.0000000000000000E+00 
    1.6818181818146799E-01     0.0000000000000000E+00     0.0000000000000000E+00 
    1.7272727272690930E-01     0.0000000000000000E+00     0.0000000000000000E+00 
    1.7727272727235049E-01     0.0000000000000000E+00     0.0000000000000000E+00 
    1.8181818181779180E-01     0.0000000000000000E+00     0.0000000000000000E+00 
    1.8636363636323311E-01     0.0000000000000000E+00     0.0000000000000000E+00 
    1.9090909090867439E-01     0.0000000000000000E+00     0.0000000000000000E+00 
    1.9545454545411561E-01     0.0000000000000000E+00     0.0000000000000000E+00 
    1.9999999999955689E-01     0.0000000000000000E+00     0.0000000000000000E+00 
    2.0454545454499820E-01     0.0000000000000000E+00     0.0000000000000000E+00 
    2.0909090909043951E-01     0.0000000000000000E+00     0.0000000000000000E+00 
    2.1363636363588079E-01     0.0000000000000000E+00     0.0000000000000000E+00 
    2.1818181818132210E-01     0.0000000000000000E+00     0.0000000000000000E+00 
    2.2272727272676340E-01     0.0000000000000000E+00     0.0000000000000000E+00 
    2.2727272727220460E-01     0.0000000000000000E+00     0.0000000000000000E+00 
    2.3181818181764591E-01     0.0000000000000000E+00     0.0000000000000000E+00 
    2.3636363636308719E-01     0.0000000000000000E+00     0.0000000000000000E+00 
    2.4090909090852841E-01     0.0000000000000000E+00     0.0000000000000000E+00 
    2.4545454545396969E-01     0.0000000000000000E+00     0.0000000000000000E+00 
    2.4999999999941100E-01     0.0000000000000000E+00     0.0000000000000000E+00 
    2.5454545454485222E-01     0.0000000000000000E+00     0.0000000000000000E+00 
    2.5909090909029348E-01     0.0000000000000000E+00     0.0000000000000000E+00 
    2.6363636363573478E-01     0.0000000000000000E+00     0.0000000000000000E+00 
    2.6818181818117609E-01     0.0000000000000000E+00     0.0000000000000000E+00 
    2.7272727272661729E-01     0.0000000000000000E+00     0.0000000000000000E+00 
    2.7727272727205871E-01     0.0000000000000000E+00     0.0000000000000000E+00 
    2.8181818181749990E-01     0.0000000000000000E+00     0.0000000000000000E+00 
    2.8636363636294121E-01     0.0000000000000000E+00     0.0000000000000000E+00 
    2.9090909090838252E-01     0.0000000000000000E+00     0.0000000000000000E+00 
    2.9545454545382382E-01     0.0000000000000000E+00     0.0000000000000000E+00 
    2.9999999999926502E-01     0.0000000000000000E+00     0.0000000000000000E+00 
    3.0454545454470627E-01     0.0000000000000000E+00     0.0000000000000000E+00 
    3.0909090909014758E-01     0.0000000000000000E+00     0.0000000000000000E+00 
    3.1363636363558878E-01     0.0000000000000000E+00     0.0000000000000000E+00 
    3.1818181818103008E-01     0.0000000000000000E+00     0.0000000000000000E+00 
    3.2272727272647139E-01     0.0000000000000000E+00     0.0000000000000000E+00 
    3.2727272727191270E-01     0.0000000000000000E+00     0.0000000000000000E+00 
    3.3181818181735401E-01     0.0000000000000000E+00     0.0000000000000000E+00 
    3.3636363636279532E-01     0.0000000000000000E+00     0.0000000000000000E+00 
    3.4090909090823651E-01     0.0000000000000000E+00     0.0000000000000000E+00 
    3.4545454545367782E-01     0.0000000000000000E+00     0.0000000000000000E+00 
    3.4999999999911913E-01     0.0000000000000000E+00     0.0000000000000000E+00 
    3.5454545454456032E-01     0.0000000000000000E+00     0.0000000000000000E+00 
    3.5909090909000158E-01     0.0000000000000000E+00     0.0000000000000000E+00 
    3.6363636363544288E-01     0.0000000000000000E+00     0.0000000000000000E+00 
    3.6818181818088419E-01     0.0000000000000000E+00     0.0000000000000000E+00 
    3.7272727272632539E-01     0.0000000000000000E+00     0.0000000000000000E+00 
    3.7727272727176681E-01     0.0000000000000000E+00     0.0000000000000000E+00 
    3.8181818181720800E-01     0.0000000000000000E+00     0.0000000000000000E+00 
    3.8636363636264931E-01     0.0000000000000000E+00     0.0000000000000000E+00 
    3.9090909090809062E-01     0.0000000000000000E+00     0.0000000000000000E+00 
    3.9545454545353192E-01     0.0000000000000000E+00     0.0000000000000000E+00 
    3.9999999999897312E-01     0.0000000000000000E+00     0.0000000000000000E+00 
    4.0454545454441437E-01     0.0000000000000000E+00     0.0000000000000000E+00 
    4.0909090908985568E-01     0.0000000000000000E+00     0.0000000000000000E+00 
    4.1363636363529688E-01     0.0000000000000000E+00     0.0000000000000000E+00 
    4.1818181818073819E-01     0.0000000000000000E+00     0.0000000000000000E+00 
    4.2272727272617949E-01     0.0000000000000000E+00     0.0000000000000000E+00 
    4.2727272727162080E-01     0.0000000000000000E+00     0.0000000000000000E+00 
    4.3181818181706211E-01     0.0000000000000000E+00     0.0000000000000000E+00 
    4.3636363636250342E-01     0.0000000000000000E+00     0.0000000000000000E+00 
    4.4090909090794472E-01     0.0000000000000000E+00     0.0000000000000000E+00 
    4.4545454545338597E-01     0.0000000000000000E+00     0.0000000000000000E+00 
    4.4999999999882723E-01     0.0000000000000000E+00     0.0000000000000000E+00 
    4.5454545454426848E-01     0.0000000000000000E+00     0.0000000000000000E+00 
    4.5909090908970979E-01     0.0000000000000000E+00     0.0000000000000000E+00 
    4.6363636363515098E-01     0.0000000000000000E+00     0.0000000000000000E+00 
    4.6818181818059240E-01     0.0000000000000000E+00     0.0000000000000000E+00 
    4.7272727272603360E-01     0.0000000000000000E+00     0.0000000000000000E+00 
    4.7727272727147491E-01     0.0000000000000000E+00     0.0000000000000000E+00 
    4.8181818181691621E-01     0.0000000000000000E+00     0.0000000000000000E+00 
    4.8636363636235752E-01     0.0000000000000000E+00     0.0000000000000000E+00 
    4.9090909090779872E-01     0.0000000000000000E+00     0.0000000000000000E+00 
    4.9545454545324458E-01     0.0000000000000000E+00     0.0000000000000000E+00 
    4.9999999999869221E-01     0.0000000000000000E+00     0.0000000000000000E+00 
    5.0454545454415234E-01     0.0000000000000000E+00     0.0000000000000000E+00 
    5.0909090908961430E-01     0.0000000000000000E+00     0.0000000000000000E+00 
    5.1363636363508092E-01     0.0000000000000000E+00     0.0000000000000000E+00 
    5.1818181818054743E-01     0.0000000000000000E+00     0.0000000000000000E+00 
    5.2272727272601394E-01     0.0000000000000000E+00     0.0000000000000000E+00 
[...]
CELL_DATA 13200 
SCALARS Pressure double 1 
LOOKUP_TABLE default 

    4.1839903982583673E+00 
    3.9971405651777232E+00 
    3.8199504020113251E+00 
    3.6567028948980900E+00 
    3.5097231140040765E+00 
    3.3807428030267350E+00 
    3.2720665472112094E+00 
    3.1894709680937137E+00 
    3.1509418419984363E+00 
    3.1427491766924249E+00 
    3.1179369821285583E+00 
    3.0850644451829212E+00 
    3.0457145012269571E+00 
    3.0003667721268243E+00 
    2.9492909792559070E+00 
    2.8929051787273119E+00 
    2.8325119571848987E+00 
    2.7999370114922879E+00 
    2.7660047113184825E+00 
    2.7320795711588000E+00 
    2.6998349348794566E+00 
    2.6703968250767129E+00 
    2.6446233576445142E+00 
    2.6240507927584513E+00 
    2.6119707427963843E+00 
    2.6067176275199491E+00 
    2.5954540250234164E+00 
    2.5806214587014940E+00 
    2.5629642675773532E+00 
    2.5427060213977937E+00 
    2.5199297159393392E+00 
    2.4947642329551529E+00 
    2.4677503626340798E+00 
    2.4532026918786420E+00 
    2.4374724510014572E+00 
    2.4213892674952868E+00 
    2.4059171568121505E+00 
    2.3916680184109489E+00 
    2.3790177546758673E+00 
    2.3682976742994488E+00 
    2.3601305585136716E+00 
    2.3563197649495495E+00 
    2.3535587210308648E+00 
    2.3488547702460361E+00 
    2.3429438150935233E+00 
    2.3361243022020695E+00 
    2.3284791282597368E+00 
    2.3200572808254289E+00 
    2.3109459257101559E+00 
    2.3013411049928663E+00 
    2.2955355727448663E+00 
    2.2900071085778242E+00 
    2.2848807308430210E+00 
    2.2802263387949768E+00 
    2.2760912151878241E+00 
    2.2725170041711822E+00 
    2.2695510547008402E+00 
    2.2672558581092961E+00 
    2.2657213915299423E+00 
    2.2654324343883001E+00 
    4.1428696483851741E+00 
    3.9668559142837312E+00 
    3.7983116386878715E+00 
    3.6417723191021314E+00 
    3.4998301150023079E+00 
    3.3744123477362220E+00 
    3.2678306064512017E+00 
    3.1854035867522890E+00 
    3.1509418419984363E+00 
    3.1419784371075625E+00 
    3.1149659606730911E+00 
    3.0808590140560184E+00 
    3.0408050591547591E+00 
    2.9952081049797181E+00 
    2.9443199378465081E+00 
    2.8885492069475682E+00 
    2.8291647799864776E+00 
    2.7981102405600748E+00 
    2.7653207480609412E+00 
    2.7322222218709689E+00 
    2.7004888199349129E+00 
    2.6712313565879722E+00 
    2.6452639933070587E+00 
    2.6240707117825086E+00 
    2.6119707427963843E+00 
    2.6063524204391864E+00 
    2.5942754013789031E+00 
    2.5789396763263235E+00 
    2.5610039335232151E+00 
    2.5406640810225083E+00 
    2.5179976029867492E+00 
    2.4931301290677688E+00 
    2.4665860921467933E+00 
    2.4526987419706310E+00 
    2.4374397950713602E+00 
    2.4217063137046355E+00 
    2.4064650353259140E+00 
    2.3923185008881283E+00 
    2.3796364647611612E+00 
    2.3687331004618670E+00 
    2.3601734292601027E+00 
    2.3563197649495495E+00 
    2.3533109358673991E+00 
    2.3482383760017278E+00 
    2.3420602723432666E+00 
    2.3350596429107400E+00 
    2.3273078938088068E+00 
    2.3188518143475734E+00 
    2.3097776928858695E+00 
    2.3002707145913184E+00 
    2.2947657529119003E+00 
    2.2894739097434651E+00 
    2.2845299897409426E+00 
    2.2800123529270602E+00 
    2.2759746642371361E+00 
    2.2724632021000075E+00 
    2.2695287452974311E+00 
    2.2672366303235449E+00 
    2.2656542252462888E+00 
    2.2654324343883001E+00 
    4.1018435477599553E+00 
    3.9359999493164599E+00 
    3.7757610477872481E+00 
    3.6257366813337262E+00 
    3.4886909873237122E+00 
    3.3666682016368954E+00 
    3.2617907707452560E+00 
    3.1777663080654106E+00 
    3.1509418419984363E+00 
    3.1425502743210894E+00 
    3.1125242210282109E+00 
    3.0770992034656444E+00 
    3.0363124937039512E+00 
    2.9904480257031487E+00 
    2.9397163215193016E+00 
    2.8844642171676238E+00 
    2.8258322362742829E+00 
    2.7964094507734787E+00 
    2.7646550796882101E+00 
    2.7322579209887152E+00 
    2.7009533840161257E+00 
    2.6718170915564712E+00 
    2.6455470516720334E+00 
    2.6234134151362216E+00 
    2.6119707427963843E+00 
    2.6064677594634400E+00 
    2.5933399556159284E+00 
    2.5774527989566609E+00 
    2.5592244746708861E+00 
    2.5387974150473323E+00 
    2.5162310708521600E+00 
    2.4916217069623601E+00 
    2.4654268644015374E+00 
    2.4522954090865978E+00 
    2.4374401970876836E+00 
    2.4219840680644049E+00 
    2.4069287978875504E+00 
    2.3928577463268463E+00 
    2.3801212232171700E+00 
    2.3689933126269831E+00 
    2.3598660491129375E+00 
    2.3563197649495495E+00 
    2.3532168923261940E+00 
    2.3477049345013121E+00 
    2.3412391039326224E+00 
    2.3340523526047354E+00 
    2.3261905772917588E+00 
    2.3176935355382851E+00 
    2.3086422187765101E+00 
    2.2992038103582555E+00 
    2.2939798174379629E+00 
    2.2889146428007021E+00 
    2.2841474178807362E+00 
    2.2797625987757573E+00 
    2.2758189441343037E+00 
    2.2723664831362296E+00 
    2.2694586770074272E+00 
    2.2671646386222184E+00 
    2.2654858732648626E+00 
    2.2654324343883001E+00 
    4.0609837103055950E+00 
    3.9047036429385207E+00 
    3.7524263498598565E+00 
    3.6087126930776456E+00 
    3.4764151236139060E+00 
    3.3576348687421094E+00 
    3.2541921541902630E+00 
    3.1658724417979531E+00 
    3.1509418419984363E+00 
    3.1447307291737538E+00 
    3.1104847705402756E+00 
    3.0737403359910878E+00 
    3.0322008751072005E+00 
    2.9860535917755664E+00 
    2.9354518279069923E+00 
    2.8806316395928535E+00 
    2.8225255529281710E+00 
    2.7948785569842340E+00 
    2.7640324074185498E+00 
    2.7322070639676062E+00 
    2.7012517899007942E+00 
    2.6721858909150895E+00 
    2.6455202912866880E+00 
    2.6219603618707539E+00 
    2.6119707427963843E+00 
    2.6071500946841937E+00 
    2.5926101264401975E+00 
    2.5761410369292523E+00 
    2.5576100030514008E+00 
    2.5370914528279398E+00 
    2.5146177697835879E+00 
    2.4902316969815708E+00 
    2.4642766387621560E+00 
    2.4520187419327630E+00 
    2.4374830757243036E+00 
    2.4222294697382525E+00 
    2.4073168920749008E+00 
    2.3932956857666037E+00 
    2.3804849397803407E+00 
    2.3691040513578101E+00 
    2.3591435156465668E+00 
    2.3563197649495495E+00 
    2.3533021465670960E+00 
    2.3472429719148118E+00 
    2.3404724950546387E+00 
    2.3330964560672416E+00 
    2.3251216848214566E+00 
    2.3165773254553961E+00 
    2.3075357307080089E+00 
    2.2981428116122551E+00 
    2.2931815493880627E+00 
    2.2883328379510735E+00 
    2.2837361510380192E+00 
    2.2794798843738171E+00 
    2.2756266266244563E+00 
    2.2722292518858085E+00 
    2.2693429935167608E+00 
    2.2670469317524149E+00 
    2.2655124336417702E+00 
    2.2653204483231333E+00 
    4.0203451635257519E+00 
    3.8730785282291076E+00 
    3.7284249354383574E+00 
    3.5908129436551999E+00 
    3.4631122617306587E+00 
    3.3474456347895152E+00 
    3.2454605878225911E+00 
    3.1485183185097432E+00 
    3.1509418419984363E+00 
    3.1427026716201181E+00 
    3.1086309648101618E+00 
    3.0707391135570732E+00 
    3.0284339381759580E+00 
    2.9819927290045412E+00 
    2.9315026791905057E+00 
    2.8770433546689582E+00 
    2.8192538908209248E+00 
    2.7935816186842790E+00 
    2.7634776098111109E+00 
    2.7320863105376914E+00 
    2.7014050428301841E+00 
    2.6723727456146804E+00 
    2.6452607243394435E+00 
    2.6194977597455016E+00 
    2.6119707427963843E+00 
    2.6085548806876391E+00 
    2.5920237299136852E+00 
    2.5749830839387995E+00 
    2.5561442041628197E+00 
    2.5355318770483337E+00 
    2.5131474052085752E+00 
    2.4889583981450061E+00 
    2.4631387424504738E+00 
    2.4519097999807551E+00 
    2.4375771455878019E+00 
    2.4224471060864845E+00 
    2.4076364458274506E+00 
    2.3936418114125648E+00 
    2.3807411771479812E+00 
    2.3691087171626655E+00 
    2.3578903299983702E+00 
    2.3563197649495495E+00 
    2.3536135859151175E+00 
    2.3468342484372693E+00 
    2.3397516099665285E+00 
    2.3321859706501966E+00 
    2.3240959859052870E+00 
    2.3154985800761674E+00 
    2.3064552141078107E+00 
    2.2970894159748352E+00 
    2.2923741410093106E+00 
    2.2877317301396092E+00 
    2.2832991896923325E+00 
    2.2791669758743698E+00 
    2.2754003082074439E+00 
    2.2720540046383091E+00 
    2.2691834690285146E+00 
    2.2668726552228939E+00 
    2.2655390584657376E+00 
    2.2652001809426277E+00 
    3.9799711385579188E+00 
    3.8412205665887447E+00 
    3.7038647363059827E+00 
    3.5721458136914377E+00 
    3.4488905633939275E+00 
    3.3362225875817630E+00 
    3.2363455822202178E+00 
    3.1479281370281234E+00 
    3.1507803069977589E+00 
    3.1406625890267312E+00 
    3.1070601946176986E+00 
    3.0680659905161307E+00 
    3.0249752964176393E+00 
    2.9782339282265897E+00 
    2.9278490754499913E+00 
    2.8737015738441372E+00 
    2.8160253280247378E+00 
    2.7926098445448120E+00 
    2.7630134468278476E+00 
    2.7319076562296631E+00 
    2.7014312776722642E+00 
    2.6724136927788811E+00 
    2.6448993681960635E+00 
    2.6156790599284800E+00 
    2.6119707427963843E+00 
    2.6077229165604381E+00 
    2.5914747350619209E+00 
    2.5739587874008705E+00 
    2.5548105606587410E+00 
    2.5341044736097293E+00 
    2.5118113976871119E+00 
    2.4878059432904460E+00 
    2.4620162055632200E+00 
    2.4520298679043080E+00 
    2.4377283206714320E+00 
    2.4226387187250800E+00 
    2.4078932819422105E+00 
    2.3939050504955715E+00 
    2.3809022345785920E+00 
    2.3690824058912390E+00 
    2.3582730159884107E+00 
    2.3563197649495495E+00 
    2.3542277531756168E+00 
    2.3464482172690495E+00 
    2.3390670806493166E+00 
    2.3313150635875131E+00 
    2.3231085237218920E+00 
    2.3144531396041845E+00 
    2.3053981817152498E+00 
    2.2960448353680376E+00 
    2.2915603046044053E+00 
    2.2871142816777699E+00 
    2.2828394004538182E+00 
    2.2788265938452037E+00 
    2.2751426059070288E+00 
    2.2718433764826713E+00 
    2.2689823947053518E+00 
    2.2666257983722859E+00 
    2.2655657293695541E+00 
    2.2650628095900522E+00 
    3.9398966600158598E+00 
    3.8092132717946612E+00 
    3.6788451561736202E+00 
    3.5528155803204786E+00 
    3.4338556022316391E+00 
    3.3240310127174153E+00 
    3.2263696841229814E+00 
    3.1473326841132603E+00 
    3.1505953118260277E+00 
    3.1386112207125016E+00 
    3.1058884242004012E+00 
    3.0656962423769505E+00 
    3.0217875732375030E+00 
    2.9747457393645509E+00 
    2.9244744297213559E+00 
    2.8706200424969031E+00 
    2.8128476047738609E+00 
    2.7920928719282783E+00 
    2.7626562755973780E+00 
    2.7316771807676368E+00 
    2.7013448879740571E+00 
    2.6723400836654538E+00 
    2.6446638213696061E+00 
    2.6163892175417547E+00 
    2.6119468420310752E+00 
    2.6068838997520314E+00 
    2.5910191031930823E+00 
    2.5730552667793192E+00 
    2.5535924524365363E+00 
    2.5327948844883288E+00 
    2.5106023566065296E+00 
    2.4867853268750730E+00 
    2.4609120152614232E+00 
    2.4524689083861180E+00 
    2.4379359082121779E+00 
    2.4228025914805560E+00 
    2.4080919919903430E+00 
    2.3940937460355407E+00 
    2.3809747281018514E+00 
    2.3689810126038502E+00 
    2.3586584011288796E+00 
    2.3563056205063395E+00 
    2.3538240026235639E+00 
    2.3460324884315433E+00 
    2.3384103205884790E+00 
    2.3304782508170794E+00 
    2.3221546219280800E+00 
    2.3134372243521391E+00 
    2.3043625244080532E+00 
    2.2950099595669076E+00 
    2.2907423681683254E+00 
    2.2864832098608359E+00 
    2.2823595211890728E+00 
    2.2784614111682293E+00 
    2.2748561491147594E+00 
    2.2716001690445680E+00 
    2.2687439151506630E+00 
    2.2662826446652491E+00 
    2.2655924031392454E+00 
    2.2648983314343716E+00 
    3.9001512520833614E+00 
    3.7771302185686468E+00 
    3.6534579583648399E+00 
    3.5329227351513044E+00 
    3.4181134943563229E+00 
    3.3109167954076977E+00 
    3.2149999500457609E+00 
    3.1467323164398424E+00 
    3.1503602498457375E+00 
    3.1365495722743200E+00 
    3.1052692108258890E+00 
    3.0636004435395350E+00 
    3.0188310230407156E+00 
    2.9714961091008592E+00 
    2.9213642189930820E+00 
    2.8678267449932506E+00 
    2.8097286901813563E+00 
    2.7922162621405726E+00 
    2.7624083947716049E+00 
    2.7313936706154807E+00 
    2.7011558868430043E+00 
    2.6721652493098231E+00 
    2.6444720446066912E+00 
    2.6171057071330370E+00 
    2.6119194925559786E+00 
    2.6060383699615279E+00 
    2.5907182185486417E+00 
    2.5722620717342135E+00 
    2.5524727113291101E+00 
    2.5315882585056486E+00 
    2.5095132312124000E+00 
    2.4859163683433585E+00 
    2.4598293010439551E+00 
    2.4533587747188870E+00 
    2.4381859435941342E+00 
    2.4229330068153083E+00 
    2.4082361275960729E+00 
    2.3942160648771442E+00 
    2.3809632354011061E+00 
    2.3687556607471087E+00 
    2.3590461442445725E+00 
    2.3562894315009264E+00 
    2.3534160269465456E+00 
    2.3456039113641505E+00 
    2.3377765534255532E+00 
    2.3296705686290267E+00 
    2.3212298789710228E+00 
    2.3124473782076835E+00 
    2.3033464139608149E+00 
    2.2939854709945839E+00 
    2.2899223557810582E+00 
    2.2858410161628742E+00 
    2.2818621686849587E+00 
    2.2780740524378800E+00 
    2.2745435643750436E+00 
    2.2713272641627436E+00 
    2.2684762012958064E+00 
    2.2658079399147768E+00 
    2.2656189949000671E+00 
    2.2646948491459873E+00 
    3.8607609822271969E+00 
    3.7450370414281560E+00 
    3.6277880318077091E+00 
    3.5125642628342240E+00 
    3.4017758307918884E+00 
    3.2969450220028409E+00 
    3.2015652933251313E+00 
    3.1461274083915627E+00 
    3.1500416001609204E+00 
    3.1344800460613009E+00 
    3.1054186406217541E+00 
    3.0617316264555452E+00 
    3.0160621947959978E+00 
    2.9684516516579418E+00 
    2.9185041281590878E+00 
    2.8653685572093099E+00 
    2.8066771726792612E+00 
    2.7932483406804685E+00 
    2.7622446799773437E+00 
    2.7310475277756430E+00 
    2.7008704988934484E+00 
    2.6718918438231078E+00 
    2.6442555628783939E+00 
    2.6178279634944088E+00 
    2.6118847872190578E+00 
    2.6051868773872831E+00 
    2.5906487484513128E+00 
    2.5715663390917145E+00 
    2.5514329503321749E+00 
    2.5304688443325789E+00 
    2.5085358925838506E+00 
    2.4852309522969787E+00 
    2.4587714362576500E+00 
    2.4548936303823976E+00 
    2.4384397325627480E+00 
    2.4230201714120945E+00 
    2.4083285476065344E+00 
    2.3942806083035260E+00 
    2.3808740055312958E+00 
    2.3683451240898061E+00 
    2.3594358820383508E+00 
    2.3562688798199649E+00 
    2.3530039294950669E+00 
    2.3451760355668601E+00 
    2.3371632190608875E+00 
    2.3288875187961415E+00 
    2.3203301404801375E+00 
    2.3114804188890972E+00 
    2.3023482388695635E+00 
    2.2929719261629793E+00 
    2.2891020539977576E+00 
    2.2851900147786459E+00 
    2.2813498478412226E+00 
    2.2776670953129958E+00 
    2.2742074573008950E+00 
    2.2710272501701532E+00 
    2.2681950743018895E+00 
    2.2658597613690903E+00 
    2.2653052832548015E+00 
    2.2644377305796701E+00 
    3.8217500001195872E+00 
    3.7129930121079395E+00 
    3.6019139794908250E+00 
    3.4918334973435079E+00 
    3.3849642527398096E+00 
    3.2822513008750200E+00 
    3.1851518672756631E+00 
    3.1455187527817259E+00 
    3.1495942527837499E+00 
    3.1324080063798849E+00 
    3.1066507578630569E+00 
    3.0600054582701226E+00 
    3.0134334487315284E+00 
    2.9655769816432844E+00 
    2.9158769189089182E+00 
    2.8633186472987768E+00 
    2.8037024009205478E+00 
    2.7955813393478395E+00 
    2.7620896074143322E+00 
    2.7306207525831949E+00 
    2.7004926062131624E+00 
    2.6715168731553316E+00 
    2.6439491346679653E+00 
    2.6185560276526787E+00 
    2.6118378110987837E+00 
    2.6043305149195115E+00 
    2.5909149527514153E+00 
    2.5709465452718976E+00 
    2.5504529581626874E+00 
    2.5294196205480866E+00 
    2.5076587248543776E+00 
    2.4847781251954792E+00 
    2.4577420019786911E+00 
    2.4573614574636613E+00 
    2.4386143831806324E+00 
    2.4230514262904372E+00 
    2.4083719329106161E+00 
    2.3942970142334410E+00 
    2.3807198030584020E+00 
    2.3676662911890283E+00 
    2.3598269956921274E+00 
    2.3562410468421819E+00 
    2.3525874825380813E+00 
    2.3447613066292412E+00 
    2.3365689198893169E+00 
    2.3281248996366100E+00 
    2.3194514533991422E+00 
    2.3105333943841355E+00 
    2.3013665612912804E+00 
    2.2919698138715701E+00 
    2.2882830659280593E+00 
    2.2845323591177853E+00 
    2.2808249615166849E+00 
    2.2772430746686574E+00 
    2.2738504166147289E+00 
    2.2707014369873377E+00 
    2.2678772189810581E+00 
    2.2659118461447387E+00 
    2.2650148338863052E+00 
    2.2641337872303677E+00 
    3.7831416865252425E+00 
    3.6810522719172840E+00 
    3.5759085099896857E+00 
    3.4708191501763306E+00 
    3.3678115429976976E+00 
    3.2671208731376913E+00 
    3.1644570844304418E+00 
    3.1449081095735170E+00 
    3.1489552883917509E+00 
    3.1303441137484125E+00 
    3.1094301115122942E+00 
    3.0582678892945854E+00 
    3.0108947783738653E+00 
    2.9628342785127399E+00 
    2.9134570568636038E+00 
    2.8617879477038395E+00 
    2.8008141834058873E+00 
    2.7997946576505788E+00 
    2.7617781894305677E+00 
    2.7300895993956389E+00 
    2.7000258905462093E+00 
    2.6710358176967430E+00 
    2.6434812781207437E+00 
    2.6192902824664084E+00 
    2.6117719613100072E+00 
    2.6034716322263072E+00 
    2.5916656970897298E+00 
    2.5703630551001400E+00 
    2.5495105613635727E+00 
    2.5284221319109874E+00 
    2.5068625157790017E+00 
    2.4846319883949493E+00 
    2.4613625770274190E+00 
    2.4563544091383651E+00 
    2.4385499981481260E+00 
    2.4230153312479157E+00 
    2.4083694106923521E+00 
    2.3942762419161601E+00 
    2.3805272709651542E+00 
    2.3666009123937419E+00 
    2.3602182970483674E+00 
    2.3562020078712957E+00 
    2.3521662665218130E+00 
    2.3443730359986930E+00 
    2.3359925997928910E+00 
    2.3273785796937556E+00 
    2.3185900108306772E+00 
    2.3096035456782675E+00 
    2.3004000875705133E+00 
    2.2909795968850784E+00 
    2.2874668547480907E+00 
    2.2838700654234247E+00 
    2.2802898201981363E+00 
    2.2768044891183754E+00 
    2.2734751138516018E+00 
    2.2703515932262492E+00 
    2.2674957633681707E+00 
    2.2659640069178257E+00 
    2.2647230456897356E+00 
    2.2637848624891266E+00 
    3.7449594980921530E+00 
    3.6492647877446593E+00 
    3.5498386707250806E+00 
    3.4496032554205600E+00 
    3.3504535835827491E+00 
    3.2521180505454601E+00 
    3.1375746448616333E+00 
    3.1442990285886254E+00 
    3.1480353743095799E+00 
    3.1271212144909875E+00 
    3.1055678834122658E+00 
    3.0562414209926971E+00 
    3.0084006474020781E+00 
    2.9601832819090719E+00 
    2.9112014767927574E+00 
    2.8609428265553225E+00 
    2.8084293397840754E+00 
    2.7970073264981758E+00 
    2.7609901090965461E+00 
    2.7294330464888774E+00 
    2.6994764859925930E+00 
    2.6704470067814379E+00 
    2.6427639591686800E+00 
    2.6200311749938754E+00 
    2.6116780439677116E+00 
    2.6026148872036701E+00 
    2.5931193482492967E+00 