# vtk DataFile Version 2.0
Pressure Field Data 
ASCII 
DATASET UNSTRUCTURED_GRID 

POINTS 1681 double 

    0.0000000000000000E+00     0.0000000000000000E+00     0.0000000000000000E+00 
    1.0000000000000000E+00     0.0000000000000000E+00     0.0000000000000000E+00 
    1.0000000000000000E+00     1.0000000000000000E+00     0.0000000000000000E+00 
    0.0000000000000000E+00     1.0000000000000000E+00     0.0000000000000000E+00 
    5.2499999999875258E-01     0.0000000000000000E+00     0.0000000000000000E+00 
    7.4999999999856765E-02     0.0000000000000000E+00     0.0000000000000000E+00 
    1.2499999999975850E-01     0.0000000000000000E+00     0.0000000000000000E+00 
    1.7499999999962990E-01     0.0000000000000000E+00     0.0000000000000000E+00 
    2.2499999999948389E-01     0.0000000000000000E+00     0.0000000000000000E+00 
    2.7499999999933789E-01     0.0000000000000000E+00     0.0000000000000000E+00 
    3.2499999999919210E-01     0.0000000000000000E+00     0.0000000000000000E+00 
    3.7499999999904610E-01     0.0000000000000000E+00     0.0000000000000000E+00 
    4.2499999999890020E-01     0.0000000000000000E+00     0.0000000000000000E+00 
    4.7499999999875958E-01     0.0000000000000000E+00     0.0000000000000000E+00 
    2.4999999999949701E-02     0.0000000000000000E+00     0.0000000000000000E+00 
    5.7499999999887907E-01     0.0000000000000000E+00     0.0000000000000000E+00 
    6.2499999999901101E-01     0.0000000000000000E+00     0.0000000000000000E+00 
    6.7499999999914273E-01     0.0000000000000000E+00     0.0000000000000000E+00 
    7.2499999999927467E-01     0.0000000000000000E+00     0.0000000000000000E+00 
    7.7499999999940661E-01     0.0000000000000000E+00     0.0000000000000000E+00 
    8.2499999999953844E-01     0.0000000000000000E+00     0.0000000000000000E+00 
    8.7499999999967026E-01     0.0000000000000000E+00     0.0000000000000000E+00 
    9.2499999999980220E-01     0.0000000000000000E+00     0.0000000000000000E+00 
    9.7499999999993414E-01     0.0000000000000000E+00     0.0000000000000000E+00 
    5.4999999999881310E-01     0.0000000000000000E+00     0.0000000000000000E+00 
    9.9999999999814140E-02     0.0000000000000000E+00     0.0000000000000000E+00 
    1.4999999999970290E-01     0.0000000000000000E+00     0.0000000000000000E+00 
    1.9999999999955689E-01     0.0000000000000000E+00     0.0000000000000000E+00 
    2.4999999999941089E-01     0.0000000000000000E+00     0.0000000000000000E+00 
    2.9999999999926502E-01     0.0000000000000000E+00     0.0000000000000000E+00 
    3.4999999999911913E-01     0.0000000000000000E+00     0.0000000000000000E+00 
    3.9999999999897312E-01     0.0000000000000000E+00     0.0000000000000000E+00 
    4.4999999999882723E-01     0.0000000000000000E+00     0.0000000000000000E+00 
    4.9999999999869210E-01     0.0000000000000000E+00     0.0000000000000000E+00 
    4.9999999999899403E-02     0.0000000000000000E+00     0.0000000000000000E+00 
    5.9999999999894504E-01     0.0000000000000000E+00     0.0000000000000000E+00 
    6.4999999999907687E-01     0.0000000000000000E+00     0.0000000000000000E+00 
    6.9999999999920870E-01     0.0000000000000000E+00     0.0000000000000000E+00 
    7.4999999999934064E-01     0.0000000000000000E+00     0.0000000000000000E+00 
    7.9999999999947247E-01     0.0000000000000000E+00     0.0000000000000000E+00 
    8.4999999999960441E-01     0.0000000000000000E+00     0.0000000000000000E+00 
    8.9999999999973623E-01     0.0000000000000000E+00     0.0000000000000000E+00 
    9.4999999999986817E-01     0.0000000000000000E+00     0.0000000000000000E+00 
    1.0000000000000000E+00     5.2499999999875258E-01     0.0000000000000000E+00 
    1.0000000000000000E+00     7.4999999999856765E-02     0.0000000000000000E+00 
    1.0000000000000000E+00     1.2499999999975850E-01     0.0000000000000000E+00 
    1.0000000000000000E+00     1.7499999999962990E-01     0.0000000000000000E+00 
    1.0000000000000000E+00     2.2499999999948389E-01     0.0000000000000000E+00 
    1.0000000000000000E+00     2.7499999999933789E-01     0.0000000000000000E+00 
    1.0000000000000000E+00     3.2499999999919210E-01     0.0000000000000000E+00 
    1.0000000000000000E+00     3.7499999999904610E-01     0.0000000000000000E+00 
    1.0000000000000000E+00     4.2499999999890020E-01     0.0000000000000000E+00 
    1.0000000000000000E+00     4.7499999999875958E-01     0.0000000000000000E+00 
    1.0000000000000000E+00     2.4999999999949701E-02     0.0000000000000000E+00 
    1.0000000000000000E+00     5.7499999999887907E-01     0.0000000000000000E+00 
    1.0000000000000000E+00     6.2499999999901101E-01     0.0000000000000000E+00 
    1.0000000000000000E+00     6.7499999999914273E-01     0.0000000000000000E+00 
    1.0000000000000000E+00     7.2499999999927467E-01     0.0000000000000000E+00 
    1.0000000000000000E+00     7.7499999999940661E-01     0.0000000000000000E+00 
    1.0000000000000000E+00     8.2499999999953844E-01     0.0000000000000000E+00 
    1.0000000000000000E+00     8.7499999999967026E-01     0.0000000000000000E+00 
    1.0000000000000000E+00     9.2499999999980220E-01     0.0000000000000000E+00 
    1.0000000000000000E+00     9.7499999999993414E-01     0.0000000000000000E+00 
    1.0000000000000000E+00     5.4999999999881310E-01     0.0000000000000000E+00 
    1.0000000000000000E+00     9.9999999999814140E-02     0.0000000000000000E+00 
    1.0000000000000000E+00     1.4999999999970290E-01     0.0000000000000000E+00 
    1.0000000000000000E+00     1.9999999999955689E-01     0.0000000000000000E+00 
    1.0000000000000000E+00     2.4999999999941089E-01     0.0000000000000000E+00 
    1.0000000000000000E+00     2.9999999999926502E-01     0.0000000000000000E+00 
    1.0000000000000000E+00     3.4999999999911913E-01     0.0000000000000000E+00 
    1.0000000000000000E+00     3.9999999999897312E-01     0.0000000000000000E+00 
    1.0000000000000000E+00     4.4999999999882723E-01     0.0000000000000000E+00 
    1.0000000000000000E+00     4.9999999999869210E-01     0.0000000000000000E+00 
    1.0000000000000000E+00     4.9999999999899403E-02     0.0000000000000000E+00 
    1.0000000000000000E+00     5.9999999999894504E-01     0.0000000000000000E+00 
    1.0000000000000000E+00     6.4999999999907687E-01     0.0000000000000000E+00 
    1.0000000000000000E+00     6.9999999999920870E-01     0.0000000000000000E+00 
    1.0000000000000000E+00     7.4999999999934064E-01     0.0000000000000000E+00 
    1.0000000000000000E+00     7.9999999999947247E-01     0.0000000000000000E+00 
    1.0000000000000000E+00     8.4999999999960441E-01     0.0000000000000000E+00 
    1.0000000000000000E+00     8.9999999999973623E-01     0.0000000000000000E+00 
    1.0000000000000000E+00     9.4999999999986817E-01     0.0000000000000000E+00 
    4.7500000000196618E-01     1.0000000000000000E+00     0.0000000000000000E+00 
    9.2499999999968763E-01     1.0000000000000000E+00     0.0000000000000000E+00 
    8.7499999999961831E-01     1.0000000000000000E+00     0.0000000000000000E+00 
    8.2499999999982654E-01     1.0000000000000000E+00     0.0000000000000000E+00 
    7.7500000000017355E-01     1.0000000000000000E+00     0.0000000000000000E+00 
    7.2500000000052045E-01     1.0000000000000000E+00     0.0000000000000000E+00 
    6.7500000000086724E-01     1.0000000000000000E+00     0.0000000000000000E+00 
    6.2500000000121403E-01     1.0000000000000000E+00     0.0000000000000000E+00 
    5.7500000000156093E-01     1.0000000000000000E+00     0.0000000000000000E+00 
    5.2500000000189684E-01     1.0000000000000000E+00     0.0000000000000000E+00 
    9.7499999999989595E-01     1.0000000000000000E+00     0.0000000000000000E+00 
    4.2500000000176902E-01     1.0000000000000000E+00     0.0000000000000000E+00 
    3.7500000000156092E-01     1.0000000000000000E+00     0.0000000000000000E+00 
    3.2500000000135282E-01     1.0000000000000000E+00     0.0000000000000000E+00 
    2.7500000000114472E-01     1.0000000000000000E+00     0.0000000000000000E+00 
    2.2500000000093659E-01     1.0000000000000000E+00     0.0000000000000000E+00 
    1.7500000000072849E-01     1.0000000000000000E+00     0.0000000000000000E+00 
    1.2500000000052039E-01     1.0000000000000000E+00     0.0000000000000000E+00 
    7.5000000000312261E-02     1.0000000000000000E+00     0.0000000000000000E+00 
    2.5000000000104109E-02     1.0000000000000000E+00     0.0000000000000000E+00 
    4.5000000000187301E-01     1.0000000000000000E+00     0.0000000000000000E+00 
    8.9999999999958358E-01     1.0000000000000000E+00     0.0000000000000000E+00 
    8.4999999999965303E-01     1.0000000000000000E+00     0.0000000000000000E+00 
    8.0000000000000004E-01     1.0000000000000000E+00     0.0000000000000000E+00 
    7.5000000000034706E-01     1.0000000000000000E+00     0.0000000000000000E+00 
    7.0000000000069384E-01     1.0000000000000000E+00     0.0000000000000000E+00 
    6.5000000000104063E-01     1.0000000000000000E+00     0.0000000000000000E+00 
    6.0000000000138742E-01     1.0000000000000000E+00     0.0000000000000000E+00 
    5.5000000000173432E-01     1.0000000000000000E+00     0.0000000000000000E+00 
    5.0000000000205946E-01     1.0000000000000000E+00     0.0000000000000000E+00 
    9.4999999999979179E-01     1.0000000000000000E+00     0.0000000000000000E+00 
    4.0000000000166491E-01     1.0000000000000000E+00     0.0000000000000000E+00 
    3.5000000000145681E-01     1.0000000000000000E+00     0.0000000000000000E+00 
    3.0000000000124871E-01     1.0000000000000000E+00     0.0000000000000000E+00 
    2.5000000000104061E-01     1.0000000000000000E+00     0.0000000000000000E+00 
    2.0000000000083251E-01     1.0000000000000000E+00     0.0000000000000000E+00 
    1.5000000000062441E-01     1.0000000000000000E+00     0.0000000000000000E+00 
    1.0000000000041630E-01     1.0000000000000000E+00     0.0000000000000000E+00 
[...]
CELL_DATA 1600 
SCALARS Pressure double 1 
LOOKUP_TABLE default 

    8.0059368820010768E-01 
    7.8328924653193444E-01 
    7.8320802257580124E-01 
    7.9875388527672042E-01 
    7.9708765263909309E-01 
    7.8306282166522778E-01 
    7.8286739403582073E-01 
    7.9557564283859150E-01 
    7.9420226639101643E-01 
    7.8263383175027412E-01 
    7.8237175534895609E-01 
    7.9295485107883901E-01 
    7.9182220494486455E-01 
    7.8208982747639011E-01 
    7.8179488174740519E-01 
    7.9079453425408319E-01 
    7.8986298856829917E-01 
    7.8149298226966679E-01 
    7.8118883400321970E-01 
    7.8901996077132264E-01 
    7.8825892943281717E-01 
    7.8088721972456976E-01 
    7.8059180181994914E-01 
    7.8757418075029628E-01 
    7.8696035028080147E-01 
    7.8030598188913891E-01 
    7.8003199493937647E-01 
    7.8641247139647796E-01 
    7.8592579632239057E-01 
    7.7977167091111332E-01 
    7.7952641572138937E-01 
    7.8549632152036875E-01 
    7.8511970542799159E-01 
    7.7929763689956344E-01 
    7.7908590273100031E-01 
    7.8479183745931502E-01 
    7.8450849645037601E-01 
    7.7889147678699799E-01 
    7.7871419121016794E-01 
    7.8426553851369929E-01 
    7.8405856974675014E-01 
    7.7855325113524043E-01 
    7.7840764830840214E-01 
    7.8388345626168809E-01 
    7.8373635881720605E-01 
    7.7827625379123455E-01 
    7.7815870377420360E-01 
    7.8361523843344094E-01 
    7.8351820172372766E-01 
    7.7805398560332717E-01 
    7.7796133197825756E-01 
    7.8344342196137662E-01 
    7.8338934675198257E-01 
    7.7787928865188527E-01 
    7.7780725642532356E-01 
    7.8335499184590618E-01 
    7.8334150216448206E-01 
    7.7774577779091347E-01 
    7.7769773159341304E-01 
    7.8335051928931387E-01 
    7.8338018082644945E-01 
    7.7767035511851790E-01 
    7.7766389615075304E-01 
    7.8341188979682563E-01 
    7.8343883975396755E-01 
    7.7766554489543438E-01 
    7.7766387639362322E-01 
    7.8345731077793968E-01 
    7.8346575274845598E-01 
    7.7765500874594262E-01 
    7.7764122760029020E-01 
    7.8346166746152901E-01 
    7.8344405417779817E-01 
    7.7762261731036020E-01 
    7.7760002616533153E-01 
    7.8341213775155927E-01 
    7.8336663543242124E-01 
    7.7757343909259846E-01 
    7.7754486909061915E-01 
    7.8330841776900295E-01 
    7.7383747089806976E-01 
    7.6511556659905366E-01 
    7.6509605312263362E-01 
    7.7381203169235802E-01 
    7.7376197076851272E-01 
    7.6505735838359512E-01 
    7.6500014073971490E-01 
    7.7368826611840302E-01 
    7.7359252264870260E-01 
    7.6492489778051986E-01 
    7.6483239909478939E-01 
    7.7347630126443889E-01 
    7.7334169959909604E-01 
    7.6472341488657425E-01 
    7.6459906657358345E-01 
    7.7319073879685818E-01 
    7.7302557627302881E-01 
    7.6446035500812581E-01 
    7.6430846813453535E-01 
    7.7284823637102629E-01 
    7.7266131299962570E-01 
    7.6414480982515232E-01 
    7.6397082218952495E-01 
    7.7246715837706315E-01 
    7.7226816077595861E-01 
    7.6378788200861969E-01 
    7.6359724505229010E-01 
    7.7206623864714885E-01 
    7.7186302525500983E-01 
    7.6340002707942856E-01 
    7.6319739306127299E-01 
    7.7166015141029010E-01 
    7.7145940595348150E-01 
    7.6299093865702550E-01 
    7.6278209990969414E-01 
    7.7126225587404262E-01 
    7.7106995623916885E-01 
    7.6257246772850551E-01 
    7.6236344876603468E-01 
    7.7088359578536569E-01 
    7.7070366317672290E-01 
    7.6215627651870577E-01 
    7.6195170116536193E-01 
    7.7053041355072349E-01 
    7.7036411954361805E-01 
    7.6175086708766415E-01 
    7.6155419286014081E-01 
    7.7020505153743202E-01 
    7.7005294291518822E-01 
    7.6136198384287956E-01 
    7.6117423215242952E-01 
    7.6990752594098266E-01 
    7.6976805713892171E-01 
    7.6099094380295118E-01 
    7.6081212667621312E-01 
    7.6963427621896097E-01 
    7.6950679314813686E-01 
    7.6063828659741795E-01 
    7.6046959836849715E-01 
    7.6938650180839929E-01 
    7.6927675844340315E-01 
    7.6030674987157343E-01 
    7.6015064157769230E-01 
    7.6918283552681621E-01 
    7.6910748409392393E-01 
    7.6000405349662348E-01 
    7.5987559415375971E-01 
    7.6905029002805314E-01 
    7.6900715353418558E-01 
    7.5977509403832499E-01 
    7.5970173086309911E-01 
    7.6897172796197200E-01 
    7.6893940002989547E-01 
    7.5964879313195588E-01 
    7.5961345786202894E-01 
    7.6891210799262155E-01 
    7.6889382660908090E-01 
    7.5959584402644442E-01 
    7.5959836333148600E-01 
    7.6888744622510619E-01 
    7.5601343093973850E-01 
    7.4634302001028274E-01 
    7.4633547708183645E-01 
    7.5599866481385658E-01 
    7.5596943461671573E-01 
    7.4632032367473344E-01 
    7.4629764283613942E-01 
    7.5592592978662221E-01 
    7.5586842616317473E-01 
    7.4626715455009651E-01 
    7.4622871187593143E-01 
    7.5579707745066049E-01 
    7.5571220997823796E-01 
    7.4618186867132175E-01 
    7.4612649840120071E-01 
    7.5561421770186010E-01 
    7.5550370073878903E-01 
    7.4606229055502060E-01 
    7.4598897756859384E-01 
    7.5538103386591571E-01 
    7.5524685971445904E-01 
    7.4590613031482100E-01 
    7.4581331465674883E-01 
    7.5510160740046517E-01 
    7.5494586513666306E-01 
    7.4570994609072139E-01 
    7.4559571686521764E-01 
    7.5478010116413163E-01 
    7.5460497795853410E-01 
    7.4547033243061966E-01 
    7.4533370251294606E-01 
    7.5442104661062015E-01 
    7.5422955885967213E-01 
    7.4518643120018313E-01 
    7.4502938344505831E-01 
    7.5403167802233984E-01 
    7.5382891473803837E-01 
    7.4486367941482279E-01 
    7.4469076884009044E-01 
    7.5362280152262728E-01 
    7.5341486744829522E-01 
    7.4451224990656273E-01 
    7.4432972369603423E-01 
    7.5320639987203097E-01 
    7.5299895716032939E-01 
    7.4414517782850009E-01 
    7.4395960453013044E-01 
    7.5279332541781341E-01 
    7.5258993726859469E-01 
    7.4377374945519403E-01 
    7.4358830818472565E-01 
    7.5238929248166919E-01 
    7.5219180766358551E-01 
    7.4340429262151320E-01 
    7.4322261966755598E-01 
    7.5199810622367791E-01 
    7.5180878285680663E-01 
    7.4304443013180110E-01 
    7.4287054644774442E-01 
    7.5162431139313746E-01 
    7.5144543804619157E-01 
    7.4270224051347877E-01 
    7.4254201150757659E-01 
    7.5127428954829545E-01 
    7.5111249380595202E-01 
    7.4239267095698824E-01 
    7.4225679912568820E-01 
    7.5096358238467276E-01 
    7.5083464219070262E-01 
    7.4213768831980342E-01 
    7.4203831357903438E-01 
    7.5073228995740438E-01 
    7.5065739210653193E-01 
    7.4196073287451891E-01 
    7.4190284204349144E-01 
    7.5060871049213995E-01 
    7.5058605714693671E-01 
    7.4187245920301259E-01 
    7.4187201970303918E-01 
    7.5058927765451722E-01 
    7.3604206954253815E-01 
    7.2504156466327430E-01 
    7.2505091361372520E-01 
    7.3604360037952288E-01 
    7.3604646537957485E-01 
    7.2506937804597871E-01 
    7.2509640455147240E-01 
    7.3605035952910092E-01 
    7.3605466896138239E-01 
    7.2513120183853086E-01 
    7.2517267542546715E-01 
    7.3605865310787000E-01 
    7.3606134101605691E-01 
    7.2521946345515820E-01 
    7.2526978094592232E-01 
    7.3606163802998315E-01 
    7.3605834554064453E-01 
    7.2532151564809744E-01 
    7.2537269601353238E-01 
    7.3605016370039067E-01 
    7.3603593043209847E-01 
    7.2542139651834392E-01 
    7.2546524342061292E-01 
    7.3601395895993260E-01 
    7.3598275803458368E-01 
    7.2550168919415214E-01 
    7.2552827371597706E-01 
    7.3594065826152233E-01 
    7.3588648725077432E-01 
    7.2554233421562109E-01 
    7.2554185682066208E-01 
    7.3581890768948255E-01 
    7.3573822171239167E-01 
    7.2552636083212485E-01 
    7.2549589675956538E-01 
    7.3564448875926802E-01 
    7.3553866568336856E-01 
    7.2545062661965254E-01 
    7.2539148151429733E-01 
    7.3542161353694391E-01 
    7.3529507437986097E-01 
    7.2531966022605887E-01 
    7.2523710951728493E-01 
    7.3516056975527566E-01 
    7.3502048257543395E-01 
    7.2514597705114114E-01 
    7.2504770238502492E-01 
    7.3487580805809805E-01 
    7.3472745479972179E-01 
    7.2494281764468738E-01 
    7.2483221881450655E-01 
    7.3457616362920841E-01 
    7.3442331079587952E-01 
    7.2471701182370063E-01 
    7.2459864203911473E-01 
    7.3427003997734486E-01 
    7.3411788991153326E-01 
    7.2447860230805006E-01 
    7.2435832527314070E-01 
    7.3396799442718708E-01 
    7.3382181499062260E-01 
    7.2423888837709327E-01 
    7.2412303531439859E-01 
    7.3368208287333292E-01 
    7.3355171206240644E-01 
    7.2401351962423910E-01 
    7.2391277875511095E-01 
    7.3343334939601823E-01 
    7.3332972156734755E-01 
    7.2382301044442876E-01 
    7.2374591824560119E-01 
    7.3324300025072375E-01 
    7.3317421877493549E-01 
    7.2368276315711078E-01 
    7.2363177910897347E-01 
    7.3312074064481081E-01 
    7.3308784090659973E-01 
    7.2359363909912344E-01 
    7.2357419735728334E-01 
    7.3308156430263038E-01 
    7.1291241827366036E-01 
    6.9856108895071090E-01 
    6.9855710524921644E-01 
    7.1291929421552991E-01 
    7.1293348365299480E-01 
    6.9854898709387891E-01 
    6.9853696496601825E-01 
    7.1295490312342780E-01 
    7.1298339328090088E-01 
    6.9852126728592334E-01 
    6.9850241208190134E-01 
    7.1301834130835851E-01 
    7.1305906271432296E-01 
    6.9848076951727389E-01 
    6.9845663963441973E-01 
    7.1310427538279941E-01 
    7.1315240578478944E-01 
    6.9842975050982359E-01 
    6.9840044335860096E-01 
    7.1320186742618086E-01 
    7.1325059995772777E-01 
    6.9836941693679044E-01 
    6.9833799260560414E-01 
    7.1329656468247082E-01 
    7.1333784041791592E-01 
    6.9830689725095874E-01 
    6.9827678945108473E-01 
    7.1337223319895859E-01 
    7.1339717922427026E-01 
    6.9824726103196832E-01 
    6.9821838830208471E-01 
    7.1341052873832889E-01 
    7.1341417999598755E-01 
    6.9818993809492691E-01 
    6.9816246683085004E-01 
    7.1340595268934714E-01 
    7.1338587558945743E-01 
    6.9813574190015182E-01 
    6.9810995261935038E-01 
    7.1335438135018647E-01 
    7.1331252599757256E-01 
    6.9808446796642742E-01 
    6.9805926800126206E-01 
    7.1326196181283485E-01 
    7.1320488304847307E-01 
    6.9803334958005259E-01 
    6.9800639749701943E-01 
    7.1314559890014373E-01 
    7.1308208179457055E-01 
    6.9797838185662331E-01 
    6.9794996601098380E-01 
    7.1301429189908538E-01 
    7.1294275627464698E-01 
    6.9792112437462173E-01 
    6.9789257568013841E-01 
    7.1286840159644127E-01 
    7.1279261786076875E-01 
    6.9786452771595142E-01 
    6.9783782957707519E-01 
    7.1271675073103680E-01 
    7.1263914598268452E-01 
    6.9781198011847134E-01 
    6.9778738820156205E-01 
    7.1256173263324774E-01 
    7.1248647074589322E-01 
    6.9776384824940763E-01 
    6.9774179888594534E-01 
    7.1241512141224206E-01 
    7.1234923367526937E-01 
    6.9772120343787847E-01 
    6.9770244342876120E-01 
    7.1228991459345858E-01 
    7.1223799900417861E-01 
    6.9768500508218556E-01 
    6.9766672708450039E-01 
    7.1219206205529706E-01 
    7.1215061062494189E-01 
    6.9764700434869431E-01 
    6.9763257145744584E-01 
    7.1211893105400870E-01 
    6.8282875462430803E-01 
    6.6817166552370832E-01 
    6.6816264568034245E-01 
    6.8281400995960884E-01 
    6.8278500887583726E-01 
    6.6814487518883836E-01 
    6.6811868121323315E-01 
    6.8274254975467408E-01 
    6.8268763943390809E-01 
    6.6808463547742070E-01 
    6.6804338531282004E-01 
    6.8262162894261269E-01 
    6.8254603517475021E-01 
    6.6799591432744776E-01 
    6.6794317501382694E-01 
    6.8246239233972483E-01 
    6.8237217771067282E-01 
    6.6788640432461455E-01 
    6.6782693272636162E-01 
    6.8227742354176746E-01 
    6.8218175593905928E-01 
    6.6776656832070713E-01 
    6.6770668109671738E-01 
    6.8208758853963680E-01 
    6.8199714760769670E-01 
    6.6764925696894162E-01 
    6.6759569979797528E-01 
    6.8191249799080900E-01 
    6.8183518977852586E-01 
    6.6754787153582629E-01 
    6.6750725933444544E-01 
    6.8176748369768525E-01 
    6.8170881720470011E-01 
    6.6747496623731151E-01 
    6.6745084989730941E-01 
    6.8166115532138183E-01 
    6.8162448258529706E-01 
    6.6743549860375040E-01 
    6.6742837432226709E-01 
    6.8159879990342376E-01 
    6.8158322429947171E-01 
    6.6742954963098133E-01 
    6.6743784811469908E-01 
    6.8157684686011821E-01 
    6.8157759045605326E-01 
    6.6745260609637103E-01 
    6.6747259542441173E-01 
    6.8158208835041845E-01 
    6.8159138741967962E-01 
    6.6749713528796928E-01 
    6.6752548807910006E-01 
    6.8160560029014605E-01 
    6.8162407190921037E-01 
    6.6755749812478149E-01 
    6.6759216348007322E-01 
    6.8164650091363888E-01 
    6.8167202268657379E-01 
    6.6762912710110811E-01 
    6.6766762248923284E-01 
    6.8170034790855794E-01 
    6.8173203837149021E-01 
    6.6770755360856782E-01 
    6.6774730786724301E-01 
    6.8176568250112901E-01 
    6.8179966212429888E-01 
    6.6778598393884303E-01 
    6.6782232907263084E-01 
    6.8183298560010752E-01 
    6.8186483795032715E-01 
    6.6785611364652553E-01 
    6.6788699650158467E-01 
    6.8189513149579373E-01 
    6.8192315940627635E-01 
    6.6791489078359645E-01 
    6.6793834098061688E-01 
    6.8194592950280897E-01 
    6.8196095616311880E-01 
    6.6795337421003653E-01 
    6.6796373164248313E-01 
    6.8197559124299167E-01 
    6.5406276456138279E-01 
    6.3972767259123786E-01 
    6.3974630787409759E-01 
    6.5406724106846148E-01 
    6.5407572977475370E-01 
    6.3978286689580077E-01 
    6.3983615745209355E-01 
    6.5408801584310239E-01 
    6.5410348599498702E-01 
    6.3990484529763203E-01 
    6.3998719734624687E-01 
    6.5412180123134855E-01 
    6.5414232952542795E-01 
    6.4008136841774110E-01 
    6.4018526837192036E-01 
    6.5416472067416864E-01 
    6.5418857139654896E-01 
    6.4029694477176480E-01 
    6.4041453033512930E-01 
    6.5421386028980411E-01 
    6.5424034340457959E-01 
    6.4053615343507075E-01 
    6.4065992223525914E-01 
    6.5426792844761028E-01 
    6.5429666447910562E-01 
    6.4078421003407349E-01 
    6.4090759602687830E-01 
    6.5432672965799832E-01 
    6.5435871266230861E-01 
    6.4102928387139824E-01 
    6.4114818942924034E-01 
    6.5439318636775257E-01 
    6.5442978881946412E-01 
    6.4126279018320009E-01 
    6.4137194786172858E-01 
    6.5446802527305470E-01 
    6.5450761355019882E-01 
    6.4147470707565502E-01 
    6.4157019067539633E-01 
    6.5454806354574324E-01 
    6.5458898030873836E-01 
    6.4165771252337334E-01 
    6.4173674864527042E-01 
    6.5462964609563590E-01 
    6.5466962964282305E-01 
    6.4180721320374112E-01 
    6.4186888387453667E-01 
    6.5470833535946804E-01 
    6.5474530502362360E-01 
    6.4192167167929881E-01 
    6.4196602538046921E-01 
    6.5478043479029857E-01 
    6.5481380527909472E-01 
    6.4200238391807596E-01 
    6.4203114001911032E-01 
    6.5484508807595210E-01 
    6.5487422966706066E-01 
    6.4205282834444311E-01 
    6.4206811958042109E-01 
    6.5490112864064443E-01 
    6.5492593873469684E-01 
    6.4207767872552302E-01 
    6.4208202504245671E-01 
    6.5494806730220323E-01 
    6.5496721876688546E-01 
    6.4208172268293384E-01 
    6.4207745590016874E-01 
    6.5498304823476738E-01 
    6.5499577908087026E-01 
    6.4207001758292348E-01 
    6.4205981931434586E-01 
    6.5500544786150328E-01 
    6.5501201077627713E-01 
    6.4204664113216170E-01 
    6.4203023776943968E-01 
    6.5501538020108252E-01 
    6.5501577085507701E-01 
    6.4201431472189052E-01 
    6.4200168844960659E-01 
    6.5501512061731482E-01 
    6.2479901095286960E-01 
    6.0836272251431223E-01 
    6.0838427025185704E-01 
    6.2482733901319465E-01 
    6.2488294186257631E-01 
    6.0842700700213714E-01 
    6.0848974038901638E-01 
    6.2496415509450698E-01 
    6.2506904437388588E-01 
    6.0857115534088047E-01 
    6.0866922617469066E-01 
    6.2519504362658251E-01 
    6.2533955166858701E-01 
    6.0878210723669213E-01 
    6.0890729277143230E-01 
    6.2549941252606334E-01 
    6.2567114646922717E-01 
    6.0904103995080305E-01 
    6.0918171171346081E-01 
    6.2585126450378292E-01 
    6.2603714783315989E-01 
    6.0932628472775807E-01 
    6.0947243646441118E-01 
    6.2622557153774039E-01 
    6.2641428931364163E-01 
    6.0961810253708981E-01 
    6.0976102064587656E-01 
    6.2660041630664498E-01 
    6.2678153495748301E-01 
    6.0989754669700880E-01 
    6.1002536544119290E-01 
    6.2695451166403393E-01 
    6.2711790274564461E-01 
    6.1014489053594489E-01 
    6.1025328109420407E-01 
    6.2726987535641254E-01 
    6.2740947002896608E-01 
    6.1034881533947649E-01 
    6.1043104256219938E-01 
    6.2753502296100139E-01 
    6.2764639159247471E-01 
    6.1049934012899887E-01 
    6.1055409550151429E-01 
    6.2774266777600418E-01 
    6.2782462406358341E-01 
    6.1059547511450818E-01 
    6.1062684978267512E-01 
    6.2789175131522024E-01 
    6.2794493824382813E-01 
    6.1064597426052880E-01 
    6.1065372031860665E-01 
    6.2798437249849004E-01 
    6.2801139747384471E-01 
    6.1065020279409787E-01 
    6.1063664645731675E-01 
    6.2802631309498691E-01 
    6.2803077086220749E-01 
    6.1061382488263638E-01 
    6.1058353458370007E-01 
    6.2802542669264028E-01 
    6.2801194246222303E-01 
    6.1054497152633092E-01 
    6.1050028435768777E-01 
    6.2799118072813187E-01 
    6.2796509971051173E-01 
    6.1045079237047617E-01 
    6.1039858899739941E-01 
    6.2793464186862258E-01 
    6.2790159798552569E-01 
    6.1034476738741827E-01 
    6.1029005865815533E-01 
    6.2786590503932971E-01 
    6.2782732156821663E-01 
    6.1023141986797680E-01 
    6.1016637676960794E-01 
    6.2778393881304806E-01 
    6.2774283590893754E-01 
    6.1010572558419141E-01 
    6.1005649492860292E-01 
    6.2770889489881765E-01 
    5.8850659848416076E-01 
    5.6698979299395791E-01 
    5.6695966301448852E-01 
    5.8850117251549683E-01 
    5.8849033323012256E-01 
    5.6690062345691894E-01 
    5.6681473255560055E-01 
    5.8847436842255518E-01 
    5.8845370563388910E-01 
    5.6670424479996917E-01 
    5.6657216679027977E-01 
    5.8842898602852090E-01 
    5.8840070264884980E-01 
    5.6642124277900652E-01 
    5.6625454692600963E-01 
    5.8836930834934364E-01 
    5.8833466066020246E-01 
    5.6607553062412430E-01 
    5.6588597141739183E-01 
    5.8829707308229873E-01 
    5.8825712017386178E-01 
    5.6569144129094162E-01 
    5.6549534227856979E-01 
    5.8821607355226968E-01 
    5.8817452942114323E-01 
    5.6530062636968648E-01 
    5.6511043078980372E-01 
    5.8813383471353264E-01 
    5.8809369118075727E-01 
    5.6492765384546684E-01 
    5.6475467716429784E-01 
    5.8805417260688730E-01 
    5.8801441222960826E-01 
    5.6459016030784737E-01 
    5.6443847680216908E-01 
    5.8797556399552031E-01 
    5.8793754669730514E-01 
    5.6430152863719074E-01 
    5.6418062044502137E-01 
    5.8790140211301511E-01 
    5.8786669922714652E-01 
    5.6407603906917170E-01 
    5.6398747015954953E-01 
    5.8783422166352350E-01 
    5.8780338145176536E-01 
    5.6391402478477159E-01 
    5.6385204958060642E-01 
    5.8777506478148789E-01 
    5.8774849501300264E-01 
    5.6380397480040279E-01 
    5.6376951682842591E-01 
    5.8772420368522571E-01 
    5.8770131946524606E-01 
    5.6374801180312306E-01 
    5.6373855858972610E-01 
    5.8768034730967855E-01 
    5.8766071087486615E-01 
    5.6373997682595600E-01 
    5.6374881348598871E-01 
    5.8764318478874156E-01 
    5.8762704615926742E-01 
    5.6376657977379696E-01 
    5.6379162819761419E-01 
    5.8761256249951588E-01 
    5.8759889640217688E-01 
    5.6382239637276910E-01 
    5.6385753724124876E-01 
    5.8758675477704692E-01 
    5.8757591352211769E-01 
    5.6389598202944013E-01 
    5.6393666724761959E-01 