# vtk DataFile Version 2.0
Pressure Field Data 
ASCII 
DATASET UNSTRUCTURED_GRID 

POINTS 1681 double 

    0.0000000000000000E+00     0.0000000000000000E+00     0.0000000000000000E+00 
    1.0000000000000000E+00     0.0000000000000000E+00     0.0000000000000000E+00 
    1.0000000000000000E+00     1.0000000000000000E+00     0.0000000000000000E+00 
    0.0000000000000000E+00     1.0000000000000000E+00     0.0000000000000000E+00 
    5.2499999999875258E-01     0.0000000000000000E+00     0.0000000000000000E+00 
    7.4999999999856765E-02     0.0000000000000000E+00     0.0000000000000000E+00 
    1.2499999999975850E-01     0.0000000000000000E+00     0.0000000000000000E+00 
    1.7499999999962990E-01     0.0000000000000000E+00     0.0000000000000000E+00 
    2.2499999999948389E-01     0.0000000000000000E+00     0.0000000000000000E+00 
    2.7499999999933789E-01     0.0000000000000000E+00     0.0000000000000000E+00 
    3.2499999999919210E-01     0.0000000000000000E+00     0.0000000000000000E+00 
    3.7499999999904610E-01     0.0000000000000000E+00     0.0000000000000000E+00 
    4.2499999999890020E-01     0.0000000000000000E+00     0.0000000000000000E+00 
    4.7499999999875958E-01     0.0000000000000000E+00     0.0000000000000000E+00 
    2.4999999999949701E-02     0.0000000000000000E+00     0.0000000000000000E+00 
    5.7499999999887907E-01     0.0000000000000000E+00     0.0000000000000000E+00 
    6.2499999999901101E-01     0.0000000000000000E+00     0.0000000000000000E+00 
    6.7499999999914273E-01     0.0000000000000000E+00     0.0000000000000000E+00 
    7.2499999999927467E-01     0.0000000000000000E+00     0.0000000000000000E+00 
    7.7499999999940661E-01     0.0000000000000000E+00     0.0000000000000000E+00 
    8.2499999999953844E-01     0.0000000000000000E+00     0.0000000000000000E+00 
    8.7499999999967026E-01     0.0000000000000000E+00     0.0000000000000000E+00 
    9.2499999999980220E-01     0.0000000000000000E+00     0.0000000000000000E+00 
    9.7499999999993414E-01     0.0000000000000000E+00     0.0000000000000000E+00 
    5.4999999999881310E-01     0.0000000000000000E+00     0.0000000000000000E+00 
    9.9999999999814140E-02     0.0000000000000000E+00     0.0000000000000000E+00 
    1.4999999999970290E-01     0.0000000000000000E+00     0.0000000000000000E+00 
    1.9999999999955689E-01     0.0000000000000000E+00     0.0000000000000000E+00 
    2.4999999999941089E-01     0.0000000000000000E+00     0.0000000000000000E+00 
    2.9999999999926502E-01     0.0000000000000000E+00     0.0000000000000000E+00 
    3.4999999999911913E-01     0.0000000000000000E+00     0.0000000000000000E+00 
    3.9999999999897312E-01     0.0000000000000000E+00     0.0000000000000000E+00 
    4.4999999999882723E-01     0.0000000000000000E+00     0.0000000000000000E+00 
    4.9999999999869210E-01     0.0000000000000000E+00     0.0000000000000000E+00 
    4.9999999999899403E-02     0.0000000000000000E+00     0.0000000000000000E+00 
    5.9999999999894504E-01     0.0000000000000000E+00     0.0000000000000000E+00 
    6.4999999999907687E-01     0.0000000000000000E+00     0.0000000000000000E+00 
    6.9999999999920870E-01     0.0000000000000000E+00     0.0000000000000000E+00 
    7.4999999999934064E-01     0.0000000000000000E+00     0.0000000000000000E+00 
    7.9999999999947247E-01     0.0000000000000000E+00     0.0000000000000000E+00 
    8.4999999999960441E-01     0.0000000000000000E+00     0.0000000000000000E+00 
    8.9999999999973623E-01     0.0000000000000000E+00     0.0000000000000000E+00 
    9.4999999999986817E-01     0.0000000000000000E+00     0.0000000000000000E+00 
    1.0000000000000000E+00     5.2499999999875258E-01     0.0000000000000000E+00 
    1.0000000000000000E+00     7.4999999999856765E-02     0.0000000000000000E+00 
    1.0000000000000000E+00     1.2499999999975850E-01     0.0000000000000000E+00 
    1.0000000000000000E+00     1.7499999999962990E-01     0.0000000000000000E+00 
    1.0000000000000000E+00     2.2499999999948389E-01     0.0000000000000000E+00 
    1.0000000000000000E+00     2.7499999999933789E-01     0.0000000000000000E+00 
    1.0000000000000000E+00     3.2499999999919210E-01     0.0000000000000000E+00 
    1.0000000000000000E+00     3.7499999999904610E-01     0.0000000000000000E+00 
    1.0000000000000000E+00     4.2499999999890020E-01     0.0000000000000000E+00 
    1.0000000000000000E+00     4.7499999999875958E-01     0.0000000000000000E+00 
    1.0000000000000000E+00     2.4999999999949701E-02     0.0000000000000000E+00 
    1.0000000000000000E+00     5.7499999999887907E-01     0.0000000000000000E+00 
    1.0000000000000000E+00     6.2499999999901101E-01     0.0000000000000000E+00 
    1.0000000000000000E+00     6.7499999999914273E-01     0.0000000000000000E+00 
    1.0000000000000000E+00     7.2499999999927467E-01     0.0000000000000000E+00 
    1.0000000000000000E+00     7.7499999999940661E-01     0.0000000000000000E+00 
    1.0000000000000000E+00     8.2499999999953844E-01     0.0000000000000000E+00 
    1.0000000000000000E+00     8.7499999999967026E-01     0.0000000000000000E+00 
    1.0000000000000000E+00     9.2499999999980220E-01     0.0000000000000000E+00 
    1.0000000000000000E+00     9.7499999999993414E-01     0.0000000000000000E+00 
    1.0000000000000000E+00     5.4999999999881310E-01     0.0000000000000000E+00 
    1.0000000000000000E+00     9.9999999999814140E-02     0.0000000000000000E+00 
    1.0000000000000000E+00     1.4999999999970290E-01     0.0000000000000000E+00 
    1.0000000000000000E+00     1.9999999999955689E-01     0.0000000000000000E+00 
    1.0000000000000000E+00     2.4999999999941089E-01     0.0000000000000000E+00 
    1.0000000000000000E+00     2.9999999999926502E-01     0.0000000000000000E+00 
    1.0000000000000000E+00     3.4999999999911913E-01     0.0000000000000000E+00 
    1.0000000000000000E+00     3.9999999999897312E-01     0.0000000000000000E+00 
    1.0000000000000000E+00     4.4999999999882723E-01     0.0000000000000000E+00 
    1.0000000000000000E+00     4.9999999999869210E-01     0.0000000000000000E+00 
    1.0000000000000000E+00     4.9999999999899403E-02     0.0000000000000000E+00 
    1.0000000000000000E+00     5.9999999999894504E-01     0.0000000000000000E+00 
    1.0000000000000000E+00     6.4999999999907687E-01     0.0000000000000000E+00 
    1.0000000000000000E+00     6.9999999999920870E-01     0.0000000000000000E+00 
    1.0000000000000000E+00     7.4999999999934064E-01     0.0000000000000000E+00 
    1.0000000000000000E+00     7.9999999999947247E-01     0.0000000000000000E+00 
    1.0000000000000000E+00     8.4999999999960441E-01     0.0000000000000000E+00 
    1.0000000000000000E+00     8.9999999999973623E-01     0.0000000000000000E+00 
    1.0000000000000000E+00     9.4999999999986817E-01     0.0000000000000000E+00 
    4.7500000000196618E-01     1.0000000000000000E+00     0.0000000000000000E+00 
    9.2499999999968763E-01     1.0000000000000000E+00     0.0000000000000000E+00 
    8.7499999999961831E-01     1.0000000000000000E+00     0.0000000000000000E+00 
    8.2499999999982654E-01     1.0000000000000000E+00     0.0000000000000000E+00 
    7.7500000000017355E-01     1.0000000000000000E+00     0.0000000000000000E+00 
    7.2500000000052045E-01     1.0000000000000000E+00     0.0000000000000000E+00 
    6.7500000000086724E-01     1.0000000000000000E+00     0.0000000000000000E+00 
    6.2500000000121403E-01     1.0000000000000000E+00     0.0000000000000000E+00 
    5.7500000000156093E-01     1.0000000000000000E+00     0.0000000000000000E+00 
    5.2500000000189684E-01     1.0000000000000000E+00     0.0000000000000000E+00 
    9.7499999999989595E-01     1.0000000000000000E+00     0.0000000000000000E+00 
    4.2500000000176902E-01     1.0000000000000000E+00     0.0000000000000000E+00 
    3.7500000000156092E-01     1.0000000000000000E+00     0.0000000000000000E+00 
    3.2500000000135282E-01     1.0000000000000000E+00     0.0000000000000000E+00 
    2.7500000000114472E-01     1.0000000000000000E+00     0.0000000000000000E+00 
    2.2500000000093659E-01     1.0000000000000000E+00     0.0000000000000000E+00 
    1.7500000000072849E-01     1.0000000000000000E+00     0.0000000000000000E+00 
    1.2500000000052039E-01     1.0000000000000000E+00     0.0000000000000000E+00 
    7.5000000000312261E-02     1.0000000000000000E+00     0.0000000000000000E+00 
    2.5000000000104109E-02     1.0000000000000000E+00     0.0000000000000000E+00 
    4.5000000000187301E-01     1.0000000000000000E+00     0.0000000000000000E+00 
    8.9999999999958358E-01     1.0000000000000000E+00     0.0000000000000000E+00 
    8.4999999999965303E-01     1.0000000000000000E+00     0.0000000000000000E+00 
    8.0000000000000004E-01     1.0000000000000000E+00     0.0000000000000000E+00 
    7.5000000000034706E-01     1.0000000000000000E+00     0.0000000000000000E+00 
    7.0000000000069384E-01     1.0000000000000000E+00     0.0000000000000000E+00 
    6.5000000000104063E-01     1.0000000000000000E+00     0.0000000000000000E+00 
    6.0000000000138742E-01     1.0000000000000000E+00     0.0000000000000000E+00 
    5.5000000000173432E-01     1.0000000000000000E+00     0.0000000000000000E+00 
    5.0000000000205946E-01     1.0000000000000000E+00     0.0000000000000000E+00 
    9.4999999999979179E-01     1.0000000000000000E+00     0.0000000000000000E+00 
    4.0000000000166491E-01     1.0000000000000000E+00     0.0000000000000000E+00 
    3.5000000000145681E-01     1.0000000000000000E+00     0.0000000000000000E+00 
    3.0000000000124871E-01     1.0000000000000000E+00     0.0000000000000000E+00 
    2.5000000000104061E-01     1.0000000000000000E+00     0.0000000000000000E+00 
    2.0000000000083251E-01     1.0000000000000000E+00     0.0000000000000000E+00 
    1.5000000000062441E-01     1.0000000000000000E+00     0.0000000000000000E+00 
    1.0000000000041630E-01     1.0000000000000000E+00     0.0000000000000000E+00 
[...]
CELL_DATA 1600 
SCALARS Pressure double 1 
LOOKUP_TABLE default 

    8.4101685372216839E-01 
    8.2358015508389903E-01 
    8.2349882625550175E-01 
    8.3917623187245960E-01 
    8.3750939651532175E-01 
    8.2335339766763049E-01 
    8.2315756670555762E-01 
    8.3599657953405426E-01 
    8.3462192009359448E-01 
    8.2292334924710098E-01 
    8.2266029671373120E-01 
    8.3337271895177101E-01 
    8.3223785968324215E-01 
    8.2237706984720760E-01 
    8.2208046504485555E-01 
    8.3120758851910126E-01 
    8.3027306369229215E-01 
    8.2177648932822622E-01 
    8.2146985182174947E-01 
    8.2942670326951562E-01 
    8.2866211868037831E-01 
    8.2116546872511875E-01 
    8.2086708322181845E-01 
    8.2797371345334836E-01 
    8.2735620081429373E-01 
    8.2057814479811109E-01 
    8.2030090246003506E-01 
    8.2680466733569524E-01 
    8.2631442191349380E-01 
    8.2003719478240622E-01 
    8.1978846161365515E-01 
    8.2588156307477556E-01 
    8.2550179476611052E-01 
    8.1955618984319933E-01 
    8.1934097839589792E-01 
    8.2517104593798618E-01 
    8.2488510548836014E-01 
    8.1914309849925582E-01 
    8.1896236143083334E-01 
    8.2463980726620745E-01 
    8.2443069902781629E-01 
    8.1879792714319122E-01 
    8.1864874456316705E-01 
    8.2425358419609784E-01 
    8.2410459381283974E-01 
    8.1851366376041512E-01 
    8.1839243348528135E-01 
    8.2398181234072798E-01 
    8.2388347812658702E-01 
    8.1828415359076589E-01 
    8.1818813266239521E-01 
    8.2380782810057906E-01 
    8.2375332864561468E-01 
    8.1810291879591623E-01 
    8.1802806620902868E-01 
    8.2371915981550847E-01 
    8.2370678067876513E-01 
    8.1796444070669472E-01 
    8.1791670526570348E-01 
    8.2371701540805897E-01 
    8.2374276030163041E-01 
    8.1789025859138098E-01 
    8.1788203307589191E-01 
    8.2377073287120062E-01 
    8.2379432899068972E-01 
    8.1787910127215613E-01 
    8.1787242443323649E-01 
    8.2381043700858569E-01 
    8.2381673570112968E-01 
    8.1785995514580567E-01 
    8.1784362858147841E-01 
    8.2381071317516918E-01 
    8.2379135150126048E-01 
    8.1782294225756424E-01 
    8.1779870936588650E-01 
    8.2375783421013515E-01 
    8.2371083017909486E-01 
    8.1777085719280262E-01 
    8.1774134136890764E-01 
    8.2365113529099276E-01 
    8.1394806228867034E-01 
    8.0498307728820828E-01 
    8.0496278552150657E-01 
    8.1392219807958843E-01 
    8.1387128566086187E-01 
    8.0492255205341690E-01 
    8.0486305547532222E-01 
    8.1379628057047537E-01 
    8.1369875296120320E-01 
    8.0478479598229968E-01 
    8.0468855978464859E-01 
    8.1358023290189729E-01 
    8.1344283103338633E-01 
    8.0457515371000055E-01 
    8.0444573736294067E-01 
    8.1328855943232736E-01 
    8.1311955804396840E-01 
    8.0430133819786542E-01 
    8.0414322904511182E-01 
    8.1293790094130680E-01 
    8.1274632600076369E-01 
    8.0397294617992499E-01 
    8.0379198926241824E-01 
    8.1254725933976391E-01 
    8.1234311815517379E-01 
    8.0360175553332014E-01 
    8.0340354055127938E-01 
    8.1213583867246686E-01 
    8.1192705710528557E-01 
    8.0319848483250078E-01 
    8.0298776594359667E-01 
    8.1171842067669508E-01 
    8.1151178057658424E-01 
    8.0277304331194632E-01 
    8.0255584813919822E-01 
    8.1130866427069392E-01 
    8.1111035068115767E-01 
    8.0233783874377940E-01 
    8.0212043674536349E-01 
    8.1091791928408530E-01 
    8.1073182852783188E-01 
    8.0190487222830198E-01 
    8.0169190198855411E-01 
    8.1055231931129490E-01 
    8.1037966993779520E-01 
    8.0148269411658724E-01 
    8.0127774814040376E-01 
    8.1021426654938722E-01 
    8.1005598226296038E-01 
    8.0107748693325997E-01 
    8.0088203345110476E-01 
    8.0990467813718492E-01 
    8.0975968196910342E-01 
    8.0069150404226330E-01 
    8.0050604358485344E-01 
    8.0962091292299299E-01 
    8.0948936876996758E-01 
    8.0032641562748563E-01 
    8.0015308979232125E-01 
    8.0936672170977175E-01 
    8.0925726709871182E-01 
    7.9998678165556258E-01 
    7.9982767166168778E-01 
    8.0916482839134618E-01 
    8.0908937899404254E-01 
    7.9967900013675142E-01 
    7.9955100512636312E-01 
    8.0903013478880237E-01 
    8.0898206006053919E-01 
    7.9945027203111796E-01 
    7.9937316926901336E-01 
    8.0893872546626577E-01 
    8.0889969737835210E-01 
    7.9931554312709197E-01 
    7.9927570211240473E-01 
    8.0886923939706579E-01 
    8.0884966207227771E-01 
    7.9925516663727159E-01 
    7.9925707438589122E-01 
    8.0884272238524701E-01 
    7.9557127499690683E-01 
    7.8552568334119266E-01 
    7.8551760502170209E-01 
    7.9555569021151928E-01 
    7.9552483725197309E-01 
    7.8550137155356126E-01 
    7.8547707248358234E-01 
    7.9547891606014909E-01 
    7.9541821930683820E-01 
    7.8544442338131437E-01 
    7.8540328962753980E-01 
    7.9534291851998262E-01 
    7.9525338147425173E-01 
    7.8535323175974514E-01 
    7.8529413920487490E-01 
    7.9515004682568513E-01 
    7.9503355354607996E-01 
    7.8522569580853652E-01 
    7.8514766167699135E-01 
    7.9490433446404329E-01 
    7.9476312622145662E-01 
    7.8505964082423563E-01 
    7.8496121900971527E-01 
    7.9461040020493157E-01 
    7.9444676873100861E-01 
    7.8485179588297971E-01 
    7.8473106107950086E-01 
    7.9427273913401808E-01 
    7.9408900652420100E-01 
    7.8459871045122886E-01 
    7.8445463339990229E-01 
    7.9389612552322997E-01 
    7.9369539319848748E-01 
    7.8429945305334892E-01 
    7.8413410398249217E-01 
    7.9348806732553212E-01 
    7.9327574888253893E-01 
    7.8395978614943373E-01 
    7.8377800738005055E-01 
    7.9306001498308754E-01 
    7.9284240786372873E-01 
    7.8359039652547513E-01 
    7.8339856995787893E-01 
    7.9262422288571310E-01 
    7.9240703958545455E-01 
    7.8320455026601110E-01 
    7.8300935187104059E-01 
    7.9219167888061037E-01 
    7.9197862589391743E-01 
    7.8281375851306390E-01 
    7.8261851861203957E-01 
    7.9176845671363782E-01 
    7.9156166346838686E-01 
    7.8242471925883639E-01 
    7.8223335186508469E-01 
    7.9135895654435762E-01 
    7.9116102593614035E-01 
    7.8204563733721033E-01 
    7.8186243563610103E-01 
    7.9096841536039453E-01 
    7.9078195644251614E-01 
    7.8168508808631887E-01 
    7.8151617269911366E-01 
    7.9060362971498854E-01 
    7.9043515734248648E-01 
    7.8135877809064902E-01 
    7.8121592021246167E-01 
    7.9028154174168319E-01 
    7.9015042754271569E-01 
    7.8109102427077737E-01 
    7.8098694040859207E-01 
    7.9004712685321898E-01 
    7.8997014380354091E-01 
    7.8090370387251673E-01 
    7.8084145645525604E-01 
    7.8991894204960988E-01 
    7.8989408444986675E-01 
    7.8080924158163700E-01 
    7.8080795887608900E-01 
    7.8989684605652055E-01 
    7.7478013228399645E-01 
    7.6326496304651037E-01 
    7.6327506614542229E-01 
    7.7478171625823222E-01 
    7.7478465767067495E-01 
    7.6329499856973859E-01 
    7.6332415716157775E-01 
    7.7478863341782833E-01 
    7.7479299811619362E-01 
    7.6336169953614130E-01 
    7.6340647181647614E-01 
    7.7479699162700810E-01 
    7.7479960357574562E-01 
    7.6345703513607610E-01 
    7.6351150385518385E-01 
    7.7479969021567441E-01 
    7.7479599792894904E-01 
    7.6356764952654044E-01 
    7.6362338443712618E-01 
    7.7478719779918903E-01 
    7.7477207595979303E-01 
    7.6367662695212646E-01 
    7.6372484863051648E-01 
    7.7474887803498138E-01 
    7.7471602815018525E-01 
    7.6376533101459620E-01 
    7.6379543457202270E-01 
    7.7467176181069697E-01 
    7.7461482697920037E-01 
    7.6381229885116420E-01 
    7.6381376204024076E-01 
    7.7454380493758690E-01 
    7.7445899559026299E-01 
    7.6379928226590743E-01 
    7.6376889135528192E-01 
    7.7436047200704372E-01 
    7.7424924370311343E-01 
    7.6372273029177973E-01 
    7.6366173139152560E-01 
    7.7412619706189489E-01 
    7.7399311831297701E-01 
    7.6358709245702028E-01 
    7.6350079374178714E-01 
    7.7385154519222399E-01 
    7.7370392444493907E-01 
    7.6340503744664912E-01 
    7.6330131202333440E-01 
    7.7355126842359656E-01 
    7.7339453362337740E-01 
    7.6319017630510710E-01 
    7.6307259282518869E-01 
    7.7323451246284880E-01 
    7.7307268099048887E-01 
    7.6294975339903992E-01 
    7.6282321748210324E-01 
    7.7291027011508151E-01 
    7.7274892921388538E-01 
    7.6269459302173004E-01 
    7.6256542061838306E-01 
    7.7258986571429289E-01 
    7.7243465753287222E-01 
    7.6243688330676207E-01 
    7.6231190889880740E-01 
    7.7228618506308810E-01 
    7.7214754082723325E-01 
    7.6219343488157443E-01 
    7.6208409415565415E-01 
    7.7202156414973100E-01 
    7.7191109133255975E-01 
    7.6198640391727324E-01 
    7.6190239959010519E-01 
    7.7181845093082802E-01 
    7.7174351122499452E-01 
    7.6183246798294280E-01 
    7.6177118783764441E-01 
    7.7168151048405342E-01 
    7.7164368150967322E-01 
    7.6172691518744418E-01 
    7.6170660590310146E-01 
    7.7163618368439990E-01 
    7.5054872965052821E-01 
    7.3552161583685982E-01 
    7.3551807209237108E-01 
    7.5055662848484250E-01 
    7.5057282117199553E-01 
    7.3551079397645436E-01 
    7.3549996897088876E-01 
    7.5059718859747326E-01 
    7.5062951478680640E-01 
    7.3548581220343634E-01 
    7.3546882300706773E-01 
    7.5066913504350041E-01 
    7.5071529069976484E-01 
    7.3544937441019631E-01 
    7.3542777310328333E-01 
    7.5076661840721082E-01 
    7.5082139803160786E-01 
    7.3540369892724855E-01 
    7.3537735483819089E-01 
    7.5087787959603880E-01 
    7.5093381883904742E-01 
    7.3534933917565104E-01 
    7.3532092548839634E-01 
    7.5098698648960904E-01 
    7.5103528617560056E-01 
    7.3529280586530799E-01 
    7.3526564909910119E-01 
    7.5107634984071980E-01 
    7.5110736443487247E-01 
    7.3523898857043013E-01 
    7.3521277518821060E-01 
    7.5112596238919482E-01 
    7.5113403295554193E-01 
    7.3518662494507969E-01 
    7.3516107232681449E-01 
    7.5112926341163710E-01 
    7.5111163397573011E-01 
    7.3513580769263032E-01 
    7.3511097686236038E-01 
    7.5108152102630010E-01 
    7.5103995947872781E-01 
    7.3508586132341935E-01 
    7.3506043905200846E-01 
    7.5098860892035391E-01 
    7.5092975450663701E-01 
    7.3503372971996306E-01 
    7.3500551577835971E-01 
    7.5086789865635850E-01 
    7.5080095769993360E-01 
    7.3497574785188979E-01 
    7.3494512568293435E-01 
    7.5072891702299172E-01 
    7.5065238264180356E-01 
    7.3491363573972346E-01 
    7.3488209460357135E-01 
    7.5057237880508909E-01 
    7.5049044446280522E-01 
    7.3485080414826143E-01 
    7.3482076099679827E-01 
    7.5040805057599735E-01 
    7.5032361255819524E-01 
    7.3479157737952394E-01 
    7.3476384387701743E-01 
    7.5023924864761871E-01 
    7.5015713452180166E-01 
    7.3473751462383652E-01 
    7.3471328328416707E-01 
    7.5007924314359353E-01 
    7.5000742392212805E-01 
    7.3469148371474990E-01 
    7.3467296245303859E-01 
    7.4994314349896241E-01 
    7.4988673249066384E-01 
    7.3465719301407650E-01 
    7.3464073855929879E-01 
    7.4983362317993996E-01 
    7.4978741367639812E-01 
    7.3462255178676150E-01 
    7.3460818149578511E-01 
    7.4975484684731353E-01 
    7.1908660439421623E-01 
    7.0379098719038147E-01 
    7.0378022964703357E-01 
    7.1907083628445156E-01 
    7.1903982247670473E-01 
    7.0375902849814365E-01 
    7.0372776127642900E-01 
    7.1899438766127410E-01 
    7.1893560791973643E-01 
    7.0368707344011983E-01 
    7.0363769962598877E-01 
    7.1886490482164012E-01 
    7.1878390285075211E-01 
    7.0358073985620107E-01 
    7.0351730318734773E-01 
    7.1869426569168282E-01 
    7.1859761127135924E-01 
    7.0344881407283721E-01 
    7.0337672820696306E-01 
    7.1849598595732411E-01 
    7.1839315750726251E-01 
    7.0330303400292260E-01 
    7.0322929783739530E-01 
    7.1829166527544464E-01 
    7.1819388186191613E-01 
    7.0315773787214753E-01 
    7.0308998954413282E-01 
    7.1810205689693662E-01 
    7.1801797214676766E-01 
    7.0302820584715287E-01 
    7.0297413357642424E-01 
    7.1794407000390958E-01 
    7.1787964061497000E-01 
    7.0292905839356046E-01 
    7.0289289272988720E-01 
    7.1782669388968667E-01 
    7.1778516504629586E-01 
    7.0286631867326710E-01 
    7.0284884802645853E-01 
    7.1775504098519283E-01 
    7.1773535530492671E-01 
    7.0284063293849630E-01 
    7.0284051769860112E-01 
    7.1772515418326777E-01 
    7.1772227277341094E-01 
    7.0284782530616940E-01 
    7.0286122843193444E-01 
    7.1772314733137332E-01 
    7.1772888500586152E-01 
    7.0287995096506350E-01 
    7.0290319663831369E-01 
    7.1773962800533586E-01 
    7.1775468374245321E-01 
    7.0293076088645401E-01 
    7.0296152359878950E-01 
    7.1777375621257677E-01 
    7.1779593234776162E-01 
    7.0299497289434643E-01 
    7.0303010402643440E-01 
    7.1782087837045638E-01 
    7.1784923217837393E-01 
    7.0306660891583417E-01 
    7.0310253948669899E-01 
    7.1787949027050602E-01 
    7.1790993864758368E-01 
    7.0313672211626577E-01 
    7.0316771520718857E-01 
    7.1793965546714333E-01 
    7.1796806725296314E-01 
    7.0319516020233985E-01 
    7.0321820176703165E-01 
    7.1799519764258624E-01 
    7.1802023671104631E-01 
    7.0323572466727458E-01 
    7.0324897618909243E-01 
    7.1804291802455378E-01 
    7.1806177501695068E-01 
    7.0326204868252074E-01 
    7.0327441163375859E-01 
    7.1807908005345233E-01 
    6.8905837765275568E-01 
    6.7406324687225427E-01 
    6.7407988593350987E-01 
    6.8906089926408820E-01 
    6.8906554028112454E-01 
    6.7411246507139366E-01 
    6.7415982565036381E-01 
    6.8907210363952198E-01 
    6.8908004377605681E-01 
    6.7422062887330225E-01 
    6.7429318608844824E-01 
    6.8908906003776738E-01 
    6.8909864029996781E-01 
    6.7437567635137674E-01 
    6.7446597719448431E-01 
    6.8910852391236621E-01 
    6.8911840127312785E-01 
    6.7456210642387870E-01 
    6.7466253310126556E-01 
    6.8912842648958661E-01 
    6.8913868765077635E-01 
    6.7476580054537416E-01 
    6.7487027080905904E-01 
    6.8914931726371653E-01 
    6.8916064547647427E-01 
    6.7497456746268270E-01 
    6.7507743268859499E-01 
    6.8917310403555532E-01 
    6.8918745969406525E-01 
    6.7517826057628338E-01 
    6.7527657682238795E-01 
    6.8920464324098796E-01 
    6.8922468989268026E-01 
    6.7537144051700337E-01 
    6.7546202448783133E-01 
    6.8924734128794096E-01 
    6.8927249028225168E-01 
    6.7554766103040309E-01 
    6.7562775830970656E-01 
    6.8929982697658776E-01 
    6.8932914497721653E-01 
    6.7570194528447292E-01 
    6.7576984802279116E-01 
    6.8935987015273736E-01 
    6.8939154969936134E-01 
    6.7583144559576291E-01 
    6.7588647262857282E-01 
    6.8942354574453424E-01 
    6.8945529195856181E-01 
    6.7593479095224895E-01 
    6.7597686463104545E-01 
    6.8948668790090573E-01 
    6.8951774772540098E-01 
    6.7601310626227451E-01 
    6.7604371450184508E-01 
    6.8954800862026455E-01 
    6.8957717493147108E-01 
    6.7606900350511279E-01 
    6.7608946597085640E-01 
    6.8960492343726210E-01 
    6.8963115714600154E-01 
    6.7610561752725240E-01 
    6.7611782066338100E-01 
    6.8965498129340830E-01 
    6.8967584384719183E-01 
    6.7612651119386458E-01 
    6.7613212142218526E-01 
    6.8969315199165415E-01 
    6.8970665715885882E-01 
    6.7613505011671204E-01 
    6.7613508132397970E-01 
    6.8971535198432665E-01 
    6.8971738573343377E-01 
    6.7612834287054568E-01 
    6.7611161587831736E-01 
    6.8971385007371477E-01 
    6.8971144584984079E-01 
    6.7609308704932258E-01 
    6.7607814817578527E-01 
    6.8971074955366829E-01 
    6.5840208602833106E-01 
    6.4106801394790514E-01 
    6.4108686763353762E-01 
    6.5842824074164308E-01 
    6.5847958861819689E-01 
    6.4112427043941833E-01 
    6.4117910644952836E-01 
    6.5855440260061560E-01 
    6.5865079933466086E-01 
    6.4125003698143757E-01 
    6.4133502882897087E-01 
    6.5876613449729771E-01 
    6.5889776528110044E-01 
    6.4143199215822455E-01 
    6.4153826873413566E-01 
    6.5904229608349052E-01 
    6.5919634619400491E-01 
    6.4165030929241063E-01 
    6.4176700967938183E-01 
    6.5935679323904639E-01 
    6.5952147685786144E-01 
    6.4188540818807216E-01 
    6.4200308420127716E-01 
    6.5968725762300651E-01 
    6.5985196444216088E-01 
    6.4211776517501873E-01 
    6.4222763620163270E-01 
    6.6001282522763549E-01 
    6.6016801170824124E-01 
    6.4233010847772209E-01 
    6.4242382051676372E-01 
    6.6031519870354027E-01 
    6.6045353343122359E-01 
    6.4250994243374815E-01 
    6.4258592069369724E-01 
    6.6058155411693131E-01 
    6.6069868389867925E-01 
    6.4265045536124632E-01 
    6.4270346448365534E-01 
    6.6080364639617850E-01 
    6.6089662258981940E-01 
    6.4274454442201390E-01 
    6.4277423940183276E-01 
    6.6097687717764819E-01 
    6.6104527425590953E-01 
    6.4279282985812358E-01 
    6.4280383886636905E-01 
    6.6110129077883195E-01 
    6.6114574413084004E-01 
    6.4280494729674842E-01 
    6.4279711113755222E-01 
    6.6117888484944765E-01 
    6.6120203813643386E-01 
    6.4278056136337502E-01 
    6.4275647638452782E-01 
    6.6121530577980481E-01 
    6.6122004061935580E-01 
    6.4272538153725756E-01 
    6.4268878327683376E-01 
    6.6121667908575088E-01 
    6.6120668888862866E-01 
    6.4264543255440243E-01 
    6.4259719406064253E-01 
    6.6119077011041194E-01 
    6.6117066886690223E-01 
    6.4254490676872988E-01 
    6.4248995411967547E-01 
    6.6114691077339571E-01 
    6.6112102202347500E-01 
    6.4243271293558923E-01 
    6.4237310515516566E-01 
    6.6109291101737855E-01 
    6.6105801588982727E-01 
    6.4230583465358704E-01 
    6.4223742140092754E-01 
    6.6101332196887808E-01 
    6.6097073212273572E-01 
    6.4217857700354386E-01 
    6.4212735797036591E-01 
    6.6093374241700253E-01 
    6.1991309104171921E-01 
    5.9663395191918012E-01 
    5.9660579961600468E-01 
    6.1990531890965150E-01 
    6.1988984443013717E-01 
    5.9655061211582039E-01 
    5.9647044869448407E-01 
    6.1986700062840361E-01 
    6.1983719251654390E-01 
    5.9636731317692238E-01 
    5.9624370277130256E-01 
    6.1980088942891243E-01 
    6.1975828998159688E-01 
    5.9610181452995481E-01 
    5.9594484554693561E-01 
    6.1970982182732670E-01 
    6.1965550233116584E-01 
    5.9577571715154654E-01 
    5.9559529278086698E-01 
    6.1959574801369521E-01 
    6.1953099387512656E-01 
    5.9540827710723188E-01 
    5.9521795225008600E-01 
    6.1946245025021407E-01 
    6.1939083655118010E-01 
    5.9502765502664356E-01 
    5.9484102198549071E-01 
    6.1931806668536293E-01 
    6.1924472898945004E-01 
    5.9466061146114713E-01 
    5.9448826502133034E-01 
    6.1917181201699667E-01 
    6.1909911434831533E-01 
    5.9432329681713447E-01 
    5.9417034633556753E-01 
    6.1902821406888275E-01 
    6.1895940832906582E-01 
    5.9403146938074602E-01 
    5.9390781615486177E-01 
    6.1889398914133109E-01 
    6.1883142040179695E-01 
    5.9379939466841258E-01 
    5.9370567627611426E-01 
    6.1877242987799763E-01 
    6.1871633591367525E-01 
    5.9362591975201862E-01 
    5.9355715156881617E-01 
    6.1866392357200184E-01 
    6.1861452342721279E-01 
    5.9350170178393713E-01 
    5.9345917484071653E-01 
    6.1856893373481048E-01 
    6.1852652482753234E-01 
    5.9342896947117785E-01 
    5.9341032108382474E-01 
    6.1848808143350109E-01 
    6.1845301365362848E-01 
    5.9340244945816045E-01 
    5.9340268800038365E-01 
    6.1842205080927770E-01 
    6.1839454543265315E-01 
    5.9341293231737580E-01 
    5.9343240114610285E-01 
    6.1837087157012360E-01 
    6.1834988516311873E-01 
    5.9346016648822097E-01 
    5.9349488196235678E-01 
    6.1833156823315905E-01 
    6.1831424789969192E-01 
    5.9353434895019741E-01 
    5.9357212798767089E-01 