# vtk DataFile Version 2.0
Pressure Field Data 
ASCII 
DATASET UNSTRUCTURED_GRID 

POINTS 1681 double 

    0.0000000000000000E+00     0.0000000000000000E+00     0.0000000000000000E+00 
    1.0000000000000000E+00     0.0000000000000000E+00     0.0000000000000000E+00 
    1.0000000000000000E+00     1.0000000000000000E+00     0.0000000000000000E+00 
    0.0000000000000000E+00     1.0000000000000000E+00     0.0000000000000000E+00 
    5.2499999999875258E-01     0.0000000000000000E+00     0.0000000000000000E+00 
    7.4999999999856765E-02     0.0000000000000000E+00     0.0000000000000000E+00 
    1.2499999999975850E-01     0.0000000000000000E+00     0.0000000000000000E+00 
    1.7499999999962990E-01     0.0000000000000000E+00     0.0000000000000000E+00 
    2.2499999999948389E-01     0.0000000000000000E+00     0.0000000000000000E+00 
    2.7499999999933789E-01     0.0000000000000000E+00     0.0000000000000000E+00 
    3.2499999999919210E-01     0.0000000000000000E+00     0.0000000000000000E+00 
    3.7499999999904610E-01     0.0000000000000000E+00     0.0000000000000000E+00 
    4.2499999999890020E-01     0.0000000000000000E+00     0.0000000000000000E+00 
    4.7499999999875958E-01     0.0000000000000000E+00     0.0000000000000000E+00 
    2.4999999999949701E-02     0.0000000000000000E+00     0.0000000000000000E+00 
    5.7499999999887907E-01     0.0000000000000000E+00     0.0000000000000000E+00 
    6.2499999999901101E-01     0.0000000000000000E+00     0.0000000000000000E+00 
    6.7499999999914273E-01     0.0000000000000000E+00     0.0000000000000000E+00 
    7.2499999999927467E-01     0.0000000000000000E+00     0.0000000000000000E+00 
    7.7499999999940661E-01     0.0000000000000000E+00     0.0000000000000000E+00 
    8.2499999999953844E-01     0.0000000000000000E+00     0.0000000000000000E+00 
    8.7499999999967026E-01     0.0000000000000000E+00     0.0000000000000000E+00 
    9.2499999999980220E-01     0.0000000000000000E+00     0.0000000000000000E+00 
    9.7499999999993414E-01     0.0000000000000000E+00     0.0000000000000000E+00 
    5.4999999999881310E-01     0.0000000000000000E+00     0.0000000000000000E+00 
    9.9999999999814140E-02     0.0000000000000000E+00     0.0000000000000000E+00 
    1.4999999999970290E-01     0.0000000000000000E+00     0.0000000000000000E+00 
    1.9999999999955689E-01     0.0000000000000000E+00     0.0000000000000000E+00 
    2.4999999999941089E-01     0.0000000000000000E+00     0.0000000000000000E+00 
    2.9999999999926502E-01     0.0000000000000000E+00     0.0000000000000000E+00 
    3.4999999999911913E-01     0.0000000000000000E+00     0.0000000000000000E+00 
    3.9999999999897312E-01     0.0000000000000000E+00     0.0000000000000000E+00 
    4.4999999999882723E-01     0.0000000000000000E+00     0.0000000000000000E+00 
    4.9999999999869210E-01     0.0000000000000000E+00     0.0000000000000000E+00 
    4.9999999999899403E-02     0.0000000000000000E+00     0.0000000000000000E+00 
    5.9999999999894504E-01     0.0000000000000000E+00     0.0000000000000000E+00 
    6.4999999999907687E-01     0.0000000000000000E+00     0.0000000000000000E+00 
    6.9999999999920870E-01     0.0000000000000000E+00     0.0000000000000000E+00 
    7.4999999999934064E-01     0.0000000000000000E+00     0.0000000000000000E+00 
    7.9999999999947247E-01     0.0000000000000000E+00     0.0000000000000000E+00 
    8.4999999999960441E-01     0.0000000000000000E+00     0.0000000000000000E+00 
    8.9999999999973623E-01     0.0000000000000000E+00     0.0000000000000000E+00 
    9.4999999999986817E-01     0.0000000000000000E+00     0.0000000000000000E+00 
    1.0000000000000000E+00     5.2499999999875258E-01     0.0000000000000000E+00 
    1.0000000000000000E+00     7.4999999999856765E-02     0.0000000000000000E+00 
    1.0000000000000000E+00     1.2499999999975850E-01     0.0000000000000000E+00 
    1.0000000000000000E+00     1.7499999999962990E-01     0.0000000000000000E+00 
    1.0000000000000000E+00     2.2499999999948389E-01     0.0000000000000000E+00 
    1.0000000000000000E+00     2.7499999999933789E-01     0.0000000000000000E+00 
    1.0000000000000000E+00     3.2499999999919210E-01     0.0000000000000000E+00 
    1.0000000000000000E+00     3.7499999999904610E-01     0.0000000000000000E+00 
    1.0000000000000000E+00     4.2499999999890020E-01     0.0000000000000000E+00 
    1.0000000000000000E+00     4.7499999999875958E-01     0.0000000000000000E+00 
    1.0000000000000000E+00     2.4999999999949701E-02     0.0000000000000000E+00 
    1.0000000000000000E+00     5.7499999999887907E-01     0.0000000000000000E+00 
    1.0000000000000000E+00     6.2499999999901101E-01     0.0000000000000000E+00 
    1.0000000000000000E+00     6.7499999999914273E-01     0.0000000000000000E+00 
    1.0000000000000000E+00     7.2499999999927467E-01     0.0000000000000000E+00 
    1.0000000000000000E+00     7.7499999999940661E-01     0.0000000000000000E+00 
    1.0000000000000000E+00     8.2499999999953844E-01     0.0000000000000000E+00 
    1.0000000000000000E+00     8.7499999999967026E-01     0.0000000000000000E+00 
    1.0000000000000000E+00     9.2499999999980220E-01     0.0000000000000000E+00 
    1.0000000000000000E+00     9.7499999999993414E-01     0.0000000000000000E+00 
    1.0000000000000000E+00     5.4999999999881310E-01     0.0000000000000000E+00 
    1.0000000000000000E+00     9.9999999999814140E-02     0.0000000000000000E+00 
    1.0000000000000000E+00     1.4999999999970290E-01     0.0000000000000000E+00 
    1.0000000000000000E+00     1.9999999999955689E-01     0.0000000000000000E+00 
    1.0000000000000000E+00     2.4999999999941089E-01     0.0000000000000000E+00 
    1.0000000000000000E+00     2.9999999999926502E-01     0.0000000000000000E+00 
    1.0000000000000000E+00     3.4999999999911913E-01     0.0000000000000000E+00 
    1.0000000000000000E+00     3.9999999999897312E-01     0.0000000000000000E+00 
    1.0000000000000000E+00     4.4999999999882723E-01     0.0000000000000000E+00 
    1.0000000000000000E+00     4.9999999999869210E-01     0.0000000000000000E+00 
    1.0000000000000000E+00     4.9999999999899403E-02     0.0000000000000000E+00 
    1.0000000000000000E+00     5.9999999999894504E-01     0.0000000000000000E+00 
    1.0000000000000000E+00     6.4999999999907687E-01     0.0000000000000000E+00 
    1.0000000000000000E+00     6.9999999999920870E-01     0.0000000000000000E+00 
    1.0000000000000000E+00     7.4999999999934064E-01     0.0000000000000000E+00 
    1.0000000000000000E+00     7.9999999999947247E-01     0.0000000000000000E+00 
    1.0000000000000000E+00     8.4999999999960441E-01     0.0000000000000000E+00 
    1.0000000000000000E+00     8.9999999999973623E-01     0.0000000000000000E+00 
    1.0000000000000000E+00     9.4999999999986817E-01     0.0000000000000000E+00 
    4.7500000000196618E-01     1.0000000000000000E+00     0.0000000000000000E+00 
    9.2499999999968763E-01     1.0000000000000000E+00     0.0000000000000000E+00 
    8.7499999999961831E-01     1.0000000000000000E+00     0.0000000000000000E+00 
    8.2499999999982654E-01     1.0000000000000000E+00     0.0000000000000000E+00 
    7.7500000000017355E-01     1.0000000000000000E+00     0.0000000000000000E+00 
    7.2500000000052045E-01     1.0000000000000000E+00     0.0000000000000000E+00 
    6.7500000000086724E-01     1.0000000000000000E+00     0.0000000000000000E+00 
    6.2500000000121403E-01     1.0000000000000000E+00     0.0000000000000000E+00 
    5.7500000000156093E-01     1.0000000000000000E+00     0.0000000000000000E+00 
    5.2500000000189684E-01     1.0000000000000000E+00     0.0000000000000000E+00 
    9.7499999999989595E-01     1.0000000000000000E+00     0.0000000000000000E+00 
    4.2500000000176902E-01     1.0000000000000000E+00     0.0000000000000000E+00 
    3.7500000000156092E-01     1.0000000000000000E+00     0.0000000000000000E+00 
    3.2500000000135282E-01     1.0000000000000000E+00     0.0000000000000000E+00 
    2.7500000000114472E-01     1.0000000000000000E+00     0.0000000000000000E+00 
    2.2500000000093659E-01     1.0000000000000000E+00     0.0000000000000000E+00 
    1.7500000000072849E-01     1.0000000000000000E+00     0.0000000000000000E+00 
    1.2500000000052039E-01     1.0000000000000000E+00     0.0000000000000000E+00 
    7.5000000000312261E-02     1.0000000000000000E+00     0.0000000000000000E+00 
    2.5000000000104109E-02     1.0000000000000000E+00     0.0000000000000000E+00 
    4.5000000000187301E-01     1.0000000000000000E+00     0.0000000000000000E+00 
    8.9999999999958358E-01     1.0000000000000000E+00     0.0000000000000000E+00 
    8.4999999999965303E-01     1.0000000000000000E+00     0.0000000000000000E+00 
    8.0000000000000004E-01     1.0000000000000000E+00     0.0000000000000000E+00 
    7.5000000000034706E-01     1.0000000000000000E+00     0.0000000000000000E+00 
    7.0000000000069384E-01     1.0000000000000000E+00     0.0000000000000000E+00 
    6.5000000000104063E-01     1.0000000000000000E+00     0.0000000000000000E+00 
    6.0000000000138742E-01     1.0000000000000000E+00     0.0000000000000000E+00 
    5.5000000000173432E-01     1.0000000000000000E+00     0.0000000000000000E+00 
    5.0000000000205946E-01     1.0000000000000000E+00     0.0000000000000000E+00 
    9.4999999999979179E-01     1.0000000000000000E+00     0.0000000000000000E+00 
    4.0000000000166491E-01     1.0000000000000000E+00     0.0000000000000000E+00 
    3.5000000000145681E-01     1.0000000000000000E+00     0.0000000000000000E+00 
    3.0000000000124871E-01     1.0000000000000000E+00     0.0000000000000000E+00 
    2.5000000000104061E-01     1.0000000000000000E+00     0.0000000000000000E+00 
    2.0000000000083251E-01     1.0000000000000000E+00     0.0000000000000000E+00 
    1.5000000000062441E-01     1.0000000000000000E+00     0.0000000000000000E+00 
    1.0000000000041630E-01     1.0000000000000000E+00     0.0000000000000000E+00 
[...]
CELL_DATA 1600 
SCALARS Pressure double 1 
LOOKUP_TABLE default 

    9.0373248329043898E-01 
    8.8602333820893098E-01 
    8.8594208103406835E-01 
    9.0189078150161206E-01 
    9.0022356095534084E-01 
    8.8579673908649637E-01 
    8.8560087419520861E-01 
    8.9871015874036231E-01 
    8.9733411449990541E-01 
    8.8536631367361440E-01 
    8.8510245745025884E-01 
    8.9608268813321090E-01 
    8.9494491093189754E-01 
    8.8481793961152966E-01 
    8.8451942189364086E-01 
    8.9391103491940260E-01 
    8.9297218677973045E-01 
    8.8421278973926332E-01 
    8.8390281725794617E-01 
    8.9212089264913974E-01 
    8.9135101285586704E-01 
    8.8359463931253457E-01 
    8.8329206555618633E-01 
    8.9065709775420487E-01 
    8.9003393655563545E-01 
    8.8299857133473669E-01 
    8.8271640582774025E-01 
    8.8947666928793312E-01 
    8.8898069732324869E-01 
    8.8244738955426016E-01 
    8.8219306803071584E-01 
    8.8854233274354577E-01 
    8.8815743959830951E-01 
    8.8195513190464714E-01 
    8.8173424514597187E-01 
    8.8782204356728478E-01 
    8.8753197079544821E-01 
    8.8153067776850558E-01 
    8.8134421784644135E-01 
    8.8728303610726322E-01 
    8.8707073144068094E-01 
    8.8117397548675580E-01 
    8.8101889517798615E-01 
    8.8689086384121041E-01 
    8.8673971513950245E-01 
    8.8087790608354144E-01 
    8.8075103963380985E-01 
    8.8661562465628396E-01 
    8.8651697541553298E-01 
    8.8063753937026157E-01 
    8.8053677525938168E-01 
    8.8644203062031579E-01 
    8.8638944607562387E-01 
    8.8044739095222835E-01 
    8.8036936714442648E-01 
    8.8635855908961891E-01 
    8.8635246882394148E-01 
    8.8030502071227734E-01 
    8.8026191726666914E-01 
    8.8636984785702855E-01 
    8.8639622900857151E-01 
    8.8024072507354212E-01 
    8.8023155830356958E-01 
    8.8642348036345209E-01 
    8.8644623580105508E-01 
    8.8022229573800981E-01 
    8.8020921026483545E-01 
    8.8646168230084554E-01 
    8.8646702314544468E-01 
    8.8019248805814898E-01 
    8.8017308113480963E-01 
    8.8645971599576734E-01 
    8.8643871468468038E-01 
    8.8014970949756910E-01 
    8.8012314207443831E-01 
    8.8640312100768415E-01 
    8.8635353130961037E-01 
    8.8009316210070587E-01 
    8.8006163139869664E-01 
    8.8629061231050110E-01 
    8.7602717678098541E-01 
    8.6659435661083128E-01 
    8.6657256913418446E-01 
    8.7600065060364518E-01 
    8.7594839766398092E-01 
    8.6652938044240235E-01 
    8.6646550154835111E-01 
    8.7587131460078349E-01 
    8.7577088051092467E-01 
    8.6638144115746718E-01 
    8.6627802340762117E-01 
    8.7564855960173849E-01 
    8.7550647057978914E-01 
    8.6615614163109189E-01 
    8.6601702547082615E-01 
    8.7534657960571649E-01 
    8.7517102070521879E-01 
    8.6586178677954717E-01 
    8.6569190610470281E-01 
    8.7498202481498477E-01 
    8.7478253399817119E-01 
    8.6550909819911426E-01 
    8.6531488834285342E-01 
    8.7457500384503783E-01 
    8.7436187315925584E-01 
    8.6511073112705938E-01 
    8.6489798963653730E-01 
    8.7414509587593048E-01 
    8.7392626678816887E-01 
    8.6467779281172497E-01 
    8.6445140654137664E-01 
    8.7370711837371395E-01 
    8.7348970204399012E-01 
    8.6422070982185861E-01 
    8.6398738435414635E-01 
    8.7327563765144822E-01 
    8.7306619258444096E-01 
    8.6375312116541370E-01 
    8.6351931181564889E-01 
    8.7286241074694693E-01 
    8.7266472037180443E-01 
    8.6328717784045306E-01 
    8.6305749351114636E-01 
    8.7247337420341053E-01 
    8.7228872852032080E-01 
    8.6283147694347928E-01 
    8.6260980860702963E-01 
    8.7211144943431973E-01 
    8.7194165029104287E-01 
    8.6239314470589146E-01 
    8.6218179948749285E-01 
    8.7177935874401302E-01 
    8.7162404358733436E-01 
    8.6197602453691513E-01 
    8.6177624583936641E-01 
    8.7147614578280308E-01 
    8.7133763964146405E-01 
    8.6158375805567367E-01 
    8.6139888249813945E-01 
    8.7121093353256607E-01 
    8.7109835508669442E-01 
    8.6122174205785618E-01 
    8.6105574854551159E-01 
    8.7100355336387014E-01 
    8.7092654327660035E-01 
    8.6090620737941570E-01 
    8.6077734878238199E-01 
    8.7086168183655566E-01 
    8.7080218059979286E-01 
    8.6067097708639795E-01 
    8.6058498397207139E-01 
    8.7074818370616114E-01 
    8.7070343803743488E-01 
    8.6051733655816820E-01 
    8.6046990739215101E-01 
    8.7066989934052985E-01 
    8.7064844300451771E-01 
    8.6044591869672726E-01 
    8.6044717901791024E-01 
    8.7064064027587607E-01 
    8.5661248656554723E-01 
    8.4589816053533118E-01 
    8.4588842691768529E-01 
    8.5659508970652032E-01 
    8.5656066128643393E-01 
    8.4586890481490606E-01 
    8.4583974298740783E-01 
    8.5650943683302216E-01 
    8.5644176977078834E-01 
    8.4580070695464626E-01 
    8.4575175680841574E-01 
    8.5635789832989995E-01 
    8.5625831648963369E-01 
    8.4569254683210771E-01 
    8.4562306424880596E-01 
    8.5614356020050530E-01 
    8.5601437922248624E-01 
    8.4554308885680962E-01 
    8.4545257646396477E-01 
    8.5587140306427234E-01 
    8.5571555672994060E-01 
    8.4535127653136488E-01 
    8.4523882522628535E-01 
    8.5554737421116778E-01 
    8.5536754320134478E-01 
    8.4511463340348369E-01 
    8.4497842194456974E-01 
    8.5517664962159801E-01 
    8.5497541466545424E-01 
    8.4482990163348548E-01 
    8.4466902067582017E-01 
    8.5476447966389457E-01 
    8.5454532153161178E-01 
    8.4449650421168410E-01 
    8.4431341297395801E-01 
    8.5431937647615630E-01 
    8.5408833182071919E-01 
    8.4412102975867531E-01 
    8.4392086327363425E-01 
    8.5385376744134878E-01 
    8.5361721333665608E-01 
    8.4371451394496433E-01 
    8.4350355933486842E-01 
    8.5337997231856122E-01 
    8.5314365174164775E-01 
    8.4329002553641719E-01 
    8.4307495302002677E-01 
    8.5290916685007978E-01 
    8.5267717075903338E-01 
    8.4285924812275448E-01 
    8.4264378775685800E-01 
    8.5244841917885794E-01 
    8.5222354658189459E-01 
    8.4242980104387544E-01 
    8.4221839452984082E-01 
    8.5200343257537237E-01 
    8.5178895645897623E-01 
    8.4201090542640311E-01 
    8.4180823798499782E-01 
    8.5158079905828465E-01 
    8.5138006872936756E-01 
    8.4161188479858817E-01 
    8.4142472789076750E-01 
    8.5118937215195789E-01 
    8.5100980372645896E-01 
    8.4124981317170167E-01 
    8.4109047148273652E-01 
    8.5084613625214600E-01 
    8.5070716651853195E-01 
    8.4095084271078813E-01 
    8.4083118016216940E-01 
    8.5059418146957677E-01 
    8.5050555349362267E-01 
    8.4073016563638703E-01 
    8.4065960024975783E-01 
    8.5044563671059437E-01 
    8.5041600716793453E-01 
    8.4062476291039823E-01 
    8.4062348949434751E-01 
    8.5041837014352140E-01 
    8.3437673419719149E-01 
    8.2197003802867319E-01 
    8.2197986849893989E-01 
    8.3437726337488494E-01 
    8.3437812313864834E-01 
    8.2199926592880801E-01 
    8.2202765935432121E-01 
    8.3437901805435710E-01 
    8.3437935542238573E-01 
    8.2206423614201185E-01 
    8.2210789764391656E-01 
    8.3437843770574582E-01 
    8.3437532492035216E-01 
    8.2215724806768187E-01 
    8.2221048031225219E-01 
    8.3436894081133339E-01 
    8.3435813736717068E-01 
    8.2226541351733584E-01 
    8.2231994073558723E-01 
    8.3434169088877463E-01 
    8.3431841473782220E-01 
    8.2237186919049743E-01 
    8.2241853558453903E-01 
    8.3428649566357438E-01 
    8.3424429785248289E-01 
    8.2245708687074559E-01 
    8.2248477733333158E-01 
    8.3418999728323306E-01 
    8.3412230910987328E-01 
    8.2249861565163718E-01 
    8.2249633540184386E-01 
    8.3403979985618637E-01 
    8.3394278818962952E-01 
    8.2247730317394108E-01 
    8.2244148356962377E-01 
    8.3383136747064068E-01 
    8.3370656843894742E-01 
    8.2238890200981996E-01 
    8.2232037013888593E-01 
    8.3356922107232057E-01 
    8.3342106761673607E-01 
    8.2223696408032054E-01 
    8.2214061056559784E-01 
    8.3326357323358535E-01 
    8.3309919456091175E-01 
    8.2203351400103830E-01 
    8.2191718693953608E-01 
    8.3292893082354147E-01 
    8.3275385124259949E-01 
    8.2179226471122568E-01 
    8.2165983255637831E-01 
    8.3257485124551700E-01 
    8.3239356668352460E-01 
    8.2152122575708109E-01 
    8.2137817982410932E-01 
    8.3221135110957334E-01 
    8.3203000152558004E-01 
    8.2123248184638342E-01 
    8.2108584936444229E-01 
    8.3185081567454833E-01 
    8.3167557650837320E-01 
    8.2093971191785831E-01 
    8.2079731276951573E-01 
    8.3150741149145979E-01 
    8.3134984953583657E-01 
    8.2066195845070622E-01 
    8.2053685741995919E-01 
    8.3120648538997777E-01 
    8.3108077992515716E-01 
    8.2042539056768804E-01 
    8.2032898506137586E-01 
    8.3097312436430404E-01 
    8.3087856767364521E-01 
    8.2024461536000481E-01 
    8.2017327358023184E-01 
    8.3080646606196695E-01 
    8.3076771496455715E-01 
    8.2012590557127352E-01 
    8.2010357068316853E-01 
    8.3075971391448555E-01 
    8.0821632658046627E-01 
    7.9193826255107447E-01 
    7.9193416293066132E-01 
    8.0822412208431893E-01 
    8.0824017773572665E-01 
    7.9192577461928537E-01 
    7.9191334635217081E-01 
    8.0826443504948298E-01 
    8.0829675402660894E-01 
    7.9189717070186372E-01 
    7.9187787057743708E-01 
    8.0833654421796530E-01 
    8.0838314624301866E-01 
    7.9185596170933648E-01 
    7.9183195192667299E-01 
    8.0843531058899010E-01 
    8.0849137324061315E-01 
    7.9180560040194636E-01 
    7.9177705628271799E-01 
    8.0854951436312161E-01 
    8.0860729843950829E-01 
    7.9174690497166689E-01 
    7.9171654531014524E-01 
    8.0866235388850816E-01 
    8.0871246376894879E-01 
    7.9168679523118379E-01 
    7.9165853529030050E-01 
    8.0875523442391350E-01 
    8.0878778690079578E-01 
    7.9163149360273144E-01 
    7.9160566502127461E-01 
    8.0880758523240237E-01 
    8.0881661072456557E-01 
    7.9158050818652004E-01 
    7.9155627928184413E-01 
    8.0881217393541716E-01 
    8.0879399038934530E-01 
    7.9153234804016348E-01 
    7.9150860352493280E-01 
    8.0876218477521222E-01 
    8.0871760550114691E-01 
    7.9148402002418738E-01 
    7.9145835700840728E-01 
    8.0866181363593492E-01 
    8.0859712194423194E-01 
    7.9143034736994466E-01 
    7.9139954683228109E-01 
    8.0852825628387315E-01 
    8.0845301265105229E-01 
    7.9136600459297068E-01 
    7.9133061756818479E-01 
    8.0837142419527086E-01 
    8.0828423646755299E-01 
    7.9129347438381137E-01 
    7.9125553837316365E-01 
    8.0819262441367157E-01 
    8.0809834768193956E-01 
    7.9121715379654134E-01 
    7.9117940636278927E-01 
    8.0800307170502561E-01 
    8.0790516022074466E-01 
    7.9114184345814487E-01 
    7.9110505810324072E-01 
    8.0780697960314241E-01 
    8.0771102062275368E-01 
    7.9106898387988533E-01 
    7.9103458012012562E-01 
    8.0761970117855442E-01 
    8.0753557124507114E-01 
    7.9100247775273569E-01 
    7.9097282720126294E-01 
    8.0745992447227499E-01 
    8.0739087560636469E-01 
    7.9094218931111115E-01 
    7.9091035855899428E-01 
    8.0732594975359084E-01 
    8.0727404644693079E-01 
    7.9088652183782893E-01 
    7.9087150505607784E-01 
    8.0723866539246891E-01 
    7.7413744375579929E-01 
    7.5755061401980439E-01 
    7.5753957444596842E-01 
    7.7412035677491364E-01 
    7.7408674313727521E-01 
    7.5751778820898075E-01 
    7.5748557509794789E-01 
    7.7403749040821201E-01 
    7.7397374903102578E-01 
    7.5744350981324016E-01 
    7.5739222989287946E-01 
    7.7389703973160173E-01 
    7.7380911206352010E-01 
    7.5733278222143086E-01 
    7.5726615957435461E-01 
    7.7371182489256496E-01 
    7.7360679172304969E-01 
    7.5719349900735755E-01 
    7.5711607720488805E-01 
    7.7349595930709991E-01 
    7.7338343291323586E-01 
    7.5703605178946076E-01 
    7.5695507155283159E-01 
    7.7327197565640349E-01 
    7.7316418068626802E-01 
    7.5687549711133884E-01 
    7.5679898451618677E-01 
    7.7306256117655414E-01 
    7.7296906148818179E-01 
    7.5672760827716834E-01 
    7.5666325105334886E-01 
    7.7288632584741024E-01 
    7.7281380999882188E-01 
    7.5660772491558326E-01 
    7.5656126073108143E-01 
    7.7275368384373133E-01 
    7.7270590996263355E-01 
    7.5652485915153023E-01 
    7.5649828312918888E-01 
    7.7267056372494425E-01 
    7.7264674190139371E-01 
    7.5648211128949250E-01 
    7.5647544866613958E-01 
    7.7263359693830069E-01 
    7.7262888510199190E-01 
    7.5647775841360654E-01 
    7.5648771773331858E-01 
    7.7262887885342535E-01 
    7.7263476204095383E-01 
    7.5650470820864135E-01 
    7.5652794668866841E-01 
    7.7264669461366553E-01 
    7.7266390748298164E-01 
    7.5655728578851067E-01 
    7.5659149640609158E-01 
    7.7268602835048605E-01 
    7.7271194492077266E-01 
    7.5662995535464805E-01 
    7.5667136582639205E-01 
    7.7274118974249140E-01 
    7.7277414673003797E-01 
    7.5671522945158676E-01 
    7.5675946617156287E-01 
    7.7280914344796892E-01 
    7.7284437239047055E-01 
    7.5680290900255753E-01 
    7.5684392768311104E-01 
    7.7287901401025016E-01 
    7.7291234747380833E-01 
    7.5688173745181531E-01 
    7.5691434374017486E-01 
    7.7294331523333959E-01 
    7.7296746221898083E-01 
    7.5694014766815265E-01 
    7.5695770189664002E-01 
    7.7298262447854349E-01 
    7.7299773713081465E-01 
    7.5697132292496949E-01 
    7.5698339837242146E-01 
    7.7301614710891420E-01 
    7.4152844876746682E-01 
    7.2514689270175670E-01 
    7.2516733744074735E-01 
    7.4153265900170262E-01 
    7.4154052756254751E-01 
    7.2520732960444911E-01 
    7.2526536374221739E-01 
    7.4155167420140511E-01 
    7.4156525507966164E-01 
    7.2533966975324493E-01 
    7.2542792018711533E-01 
    7.4158067329282673E-01 
    7.4159698978306121E-01 
    7.2552740783870040E-01 
    7.2563507200043376E-01 
    7.4161329760217887E-01 
    7.4162863409865343E-01 
    7.2574817263602787E-01 
    7.2586472459339657E-01 
    7.4164293407254112E-01 
    7.4165629727645999E-01 
    7.2598284080890219E-01 
    7.2610010649239631E-01 
    7.4166868241063211E-01 
    7.4168014023620799E-01 
    7.2621428296120349E-01 
    7.2632359076968389E-01 
    7.4169063155473769E-01 
    7.4170063538734610E-01 
    7.2642720176238706E-01 
    7.2652472706796500E-01 
    7.4171124290578894E-01 
    7.4172316951589901E-01 
    7.2661586209885587E-01 
    7.2670041431720300E-01 
    7.4173665574225078E-01 
    7.4175196905291174E-01 
    7.2677818068286326E-01 
    7.2684909652201535E-01 
    7.4176923111102078E-01 
    7.4178875908600139E-01 
    7.2691327889489621E-01 
    7.2697075373877740E-01 
    7.4181031858363844E-01 
    7.4183368441736519E-01 
    7.2702190770270469E-01 
    7.2706686847321755E-01 
    7.4185843144338781E-01 
    7.4188429308035531E-01 
    7.2710597351524742E-01 
    7.2713990360968883E-01 
    7.4191131832630608E-01 
    7.4193966088026264E-01 
    7.2716941330352303E-01 
    7.2719500116384173E-01 
    7.4196894379248890E-01 
    7.4199883256700883E-01 
    7.2721716518447665E-01 
    7.2723610759067725E-01 
    7.4202869520079828E-01 
    7.4205814760056787E-01 
    7.2725206230172790E-01 
    7.2726530028852232E-01 
    7.4208620617942100E-01 
    7.4211211906845354E-01 
    7.2727588467011650E-01 
    7.2728352180585021E-01 
    7.4213476035954784E-01 
    7.4215278795259843E-01 
    7.2728672400670580E-01 
    7.2728016547341900E-01 
    7.4216277874400483E-01 
    7.4216415874239461E-01 
    7.2726144599934894E-01 
    7.2724122351481157E-01 
    7.4216378692966190E-01 
    7.4216408560894520E-01 
    7.2722368951428451E-01 
    7.2720723247359886E-01 
    7.4216272382305482E-01 
    7.0794419397367048E-01 
    6.8877328102439017E-01 
    6.8879871745947396E-01 
    7.0797591019188111E-01 
    7.0803814734436832E-01 
    6.8884925845242850E-01 
    6.8892359250185642E-01 
    7.0812880629797548E-01 
    7.0824542722327299E-01 
    6.8902002490324610E-01 
    6.8913595034394681E-01 
    7.0838451491121457E-01 
    7.0854243655815974E-01 
    6.8926851571737435E-01 
    6.8941393400390860E-01 
    7.0871474620518093E-01 
    7.0889695501951944E-01 
    6.8956632699896314E-01 
    6.8972238621079152E-01 
    7.0908484986697295E-01 
    7.0927517360199588E-01 
    6.8987795878364178E-01 
    6.9003033567247885E-01 
    7.0946354966276159E-01 
    7.0964700754316035E-01 
    6.9017725214365278E-01 
    6.9031616547854424E-01 
    7.0982233847550080E-01 
    7.0998750904773866E-01 
    6.9044227374460165E-01 
    6.9055337572643816E-01 
    7.1014004122622687E-01 
    7.1027963277413420E-01 
    6.9065138087417377E-01 
    6.9073420115861861E-01 
    7.1040540489295689E-01 
    7.1051732039073145E-01 
    6.9080074943037884E-01 
    6.9085066904476278E-01 
    7.1061448942460992E-01 
    7.1069748093024920E-01 
    6.9088288914413720E-01 
    6.9089847887368339E-01 
    7.1076602145879053E-01 
    7.1082159857551175E-01 
    6.9089947913978345E-01 
    6.9089090110657803E-01 
    7.1086420952643692E-01 
    7.1089518375592575E-01 
    6.9087015750366887E-01 
    6.9083798554644094E-01 
    7.1091498930336272E-01 
    7.1092535536082291E-01 
    6.9079443181252176E-01 
    6.9074103221460048E-01 
    7.1092693807753626E-01 
    7.1092164838698546E-01 
    6.9067960517364957E-01 
    6.9061336879777979E-01 
    7.1090998043312814E-01 
    7.1089337624784854E-01 
    6.9054200969339541E-01 
    6.9046811752237192E-01 
    7.1087272687977676E-01 
    7.1084971999336799E-01 
    6.9039319762859142E-01 
    6.9031912405830598E-01 
    7.1082434394238669E-01 
    7.1079617853911947E-01 
    6.9024583929950267E-01 
    6.9017330998718285E-01 
    7.1075973899529699E-01 
    7.1071394434530633E-01 
    6.9010454823605138E-01 
    6.9004022537695908E-01 
    7.1066714103906947E-01 
    7.1062323922223469E-01 
    6.8997938749713328E-01 
    6.8992458899390552E-01 
    7.1058250004585688E-01 
    6.6511507618179355E-01 
    6.3866081513282802E-01 
    6.3863502493632929E-01 
    6.6511332414759261E-01 
    6.6510998974905366E-01 
    6.3858477870636687E-01 
    6.3851262983326340E-01 
    6.6510563353968177E-01 
    6.6510067795728700E-01 
    6.3842112921907712E-01 
    6.3831361864478720E-01 
    6.6509566685339661E-01 
    6.6509098886840767E-01 
    6.3819357151092326E-01 
    6.3806529714913651E-01 
    6.6508681034093819E-01 
    6.6508208144074576E-01 
    6.3793438083337506E-01 
    6.3780398676201155E-01 
    6.6507652693168307E-01 
    6.6507076716263458E-01 
    6.3768001645173833E-01 
    6.3756635247797122E-01 
    6.6506661094676578E-01 
    6.6506462517029241E-01 
    6.3746579528474490E-01 
    6.3738202418582923E-01 
    6.6506520867902996E-01 
    6.6506631808303807E-01 
    6.3731865254198405E-01 
    6.3727632381134192E-01 
    6.6506652181708248E-01 
    6.6506375490200997E-01 
    6.3725080383371469E-01 
    6.3724408140730171E-01 
    6.6505854313003743E-01 
    6.6504910080201485E-01 
    6.3725486433158118E-01 
    6.3728002633975789E-01 
    6.6503314347727138E-01 
    6.6500530247345402E-01 
    6.3731517119751202E-01 
    6.3735324201282340E-01 
    6.6496448283942167E-01 
    6.6491240245996919E-01 
    6.3738504722181122E-01 
    6.3740343840755864E-01 
    6.6485266667788756E-01 
    6.6478515800680138E-01 
    6.3741363654274286E-01 
    6.3741722970711734E-01 
    6.6470990633562843E-01 
    6.6462498826101946E-01 
    6.3741340554700776E-01 
    6.3740196045043696E-01 
    6.6453422214600044E-01 
    6.6444285764612843E-01 
    6.3738438750322712E-01 
    6.3735696165954125E-01 
    6.6435436731279474E-01 
    6.6426810389692681E-01 
    6.3732123503540816E-01 
    6.3727603469917671E-01 
    6.6418465728298859E-01 
    6.6410344986960002E-01 
    6.3722141430086776E-01 
    6.3716370441190751E-01 
    6.6402657147364763E-01 
    6.6395601679680694E-01 
    6.3711113406643849E-01 
    6.3706570370267901E-01 