# vtk DataFile Version 2.0
Pressure Field Data 
ASCII 
DATASET UNSTRUCTURED_GRID 

POINTS 1681 double 

    0.0000000000000000E+00     0.0000000000000000E+00     0.0000000000000000E+00 
    1.0000000000000000E+00     0.0000000000000000E+00     0.0000000000000000E+00 
    1.0000000000000000E+00     1.0000000000000000E+00     0.0000000000000000E+00 
    0.0000000000000000E+00     1.0000000000000000E+00     0.0000000000000000E+00 
    5.2499999999875258E-01     0.0000000000000000E+00     0.0000000000000000E+00 
    7.4999999999856765E-02     0.0000000000000000E+00     0.0000000000000000E+00 
    1.2499999999975850E-01     0.0000000000000000E+00     0.0000000000000000E+00 
    1.7499999999962990E-01     0.0000000000000000E+00     0.0000000000000000E+00 
    2.2499999999948389E-01     0.0000000000000000E+00     0.0000000000000000E+00 
    2.7499999999933789E-01     0.0000000000000000E+00     0.0000000000000000E+00 
    3.2499999999919210E-01     0.0000000000000000E+00     0.0000000000000000E+00 
    3.7499999999904610E-01     0.0000000000000000E+00     0.0000000000000000E+00 
    4.2499999999890020E-01     0.0000000000000000E+00     0.0000000000000000E+00 
    4.7499999999875958E-01     0.0000000000000000E+00     0.0000000000000000E+00 
    2.4999999999949701E-02     0.0000000000000000E+00     0.0000000000000000E+00 
    5.7499999999887907E-01     0.0000000000000000E+00     0.0000000000000000E+00 
    6.2499999999901101E-01     0.0000000000000000E+00     0.0000000000000000E+00 
    6.7499999999914273E-01     0.0000000000000000E+00     0.0000000000000000E+00 
    7.2499999999927467E-01     0.0000000000000000E+00     0.0000000000000000E+00 
    7.7499999999940661E-01     0.0000000000000000E+00     0.0000000000000000E+00 
    8.2499999999953844E-01     0.0000000000000000E+00     0.0000000000000000E+00 
    8.7499999999967026E-01     0.0000000000000000E+00     0.0000000000000000E+00 
    9.2499999999980220E-01     0.0000000000000000E+00     0.0000000000000000E+00 
    9.7499999999993414E-01     0.0000000000000000E+00     0.0000000000000000E+00 
    5.4999999999881310E-01     0.0000000000000000E+00     0.0000000000000000E+00 
    9.9999999999814140E-02     0.0000000000000000E+00     0.0000000000000000E+00 
    1.4999999999970290E-01     0.0000000000000000E+00     0.0000000000000000E+00 
    1.9999999999955689E-01     0.0000000000000000E+00     0.0000000000000000E+00 
    2.4999999999941089E-01     0.0000000000000000E+00     0.0000000000000000E+00 
    2.9999999999926502E-01     0.0000000000000000E+00     0.0000000000000000E+00 
    3.4999999999911913E-01     0.0000000000000000E+00     0.0000000000000000E+00 
    3.9999999999897312E-01     0.0000000000000000E+00     0.0000000000000000E+00 
    4.4999999999882723E-01     0.0000000000000000E+00     0.0000000000000000E+00 
    4.9999999999869210E-01     0.0000000000000000E+00     0.0000000000000000E+00 
    4.9999999999899403E-02     0.0000000000000000E+00     0.0000000000000000E+00 
    5.9999999999894504E-01     0.0000000000000000E+00     0.0000000000000000E+00 
    6.4999999999907687E-01     0.0000000000000000E+00     0.0000000000000000E+00 
    6.9999999999920870E-01     0.0000000000000000E+00     0.0000000000000000E+00 
    7.4999999999934064E-01     0.0000000000000000E+00     0.0000000000000000E+00 
    7.9999999999947247E-01     0.0000000000000000E+00     0.0000000000000000E+00 
    8.4999999999960441E-01     0.0000000000000000E+00     0.0000000000000000E+00 
    8.9999999999973623E-01     0.0000000000000000E+00     0.0000000000000000E+00 
    9.4999999999986817E-01     0.0000000000000000E+00     0.0000000000000000E+00 
    1.0000000000000000E+00     5.2499999999875258E-01     0.0000000000000000E+00 
    1.0000000000000000E+00     7.4999999999856765E-02     0.0000000000000000E+00 
    1.0000000000000000E+00     1.2499999999975850E-01     0.0000000000000000E+00 
    1.0000000000000000E+00     1.7499999999962990E-01     0.0000000000000000E+00 
    1.0000000000000000E+00     2.2499999999948389E-01     0.0000000000000000E+00 
    1.0000000000000000E+00     2.7499999999933789E-01     0.0000000000000000E+00 
    1.0000000000000000E+00     3.2499999999919210E-01     0.0000000000000000E+00 
    1.0000000000000000E+00     3.7499999999904610E-01     0.0000000000000000E+00 
    1.0000000000000000E+00     4.2499999999890020E-01     0.0000000000000000E+00 
    1.0000000000000000E+00     4.7499999999875958E-01     0.0000000000000000E+00 
    1.0000000000000000E+00     2.4999999999949701E-02     0.0000000000000000E+00 
    1.0000000000000000E+00     5.7499999999887907E-01     0.0000000000000000E+00 
    1.0000000000000000E+00     6.2499999999901101E-01     0.0000000000000000E+00 
    1.0000000000000000E+00     6.7499999999914273E-01     0.0000000000000000E+00 
    1.0000000000000000E+00     7.2499999999927467E-01     0.0000000000000000E+00 
    1.0000000000000000E+00     7.7499999999940661E-01     0.0000000000000000E+00 
    1.0000000000000000E+00     8.2499999999953844E-01     0.0000000000000000E+00 
    1.0000000000000000E+00     8.7499999999967026E-01     0.0000000000000000E+00 
    1.0000000000000000E+00     9.2499999999980220E-01     0.0000000000000000E+00 
    1.0000000000000000E+00     9.7499999999993414E-01     0.0000000000000000E+00 
    1.0000000000000000E+00     5.4999999999881310E-01     0.0000000000000000E+00 
    1.0000000000000000E+00     9.9999999999814140E-02     0.0000000000000000E+00 
    1.0000000000000000E+00     1.4999999999970290E-01     0.0000000000000000E+00 
    1.0000000000000000E+00     1.9999999999955689E-01     0.0000000000000000E+00 
    1.0000000000000000E+00     2.4999999999941089E-01     0.0000000000000000E+00 
    1.0000000000000000E+00     2.9999999999926502E-01     0.0000000000000000E+00 
    1.0000000000000000E+00     3.4999999999911913E-01     0.0000000000000000E+00 
    1.0000000000000000E+00     3.9999999999897312E-01     0.0000000000000000E+00 
    1.0000000000000000E+00     4.4999999999882723E-01     0.0000000000000000E+00 
    1.0000000000000000E+00     4.9999999999869210E-01     0.0000000000000000E+00 
    1.0000000000000000E+00     4.9999999999899403E-02     0.0000000000000000E+00 
    1.0000000000000000E+00     5.9999999999894504E-01     0.0000000000000000E+00 
    1.0000000000000000E+00     6.4999999999907687E-01     0.0000000000000000E+00 
    1.0000000000000000E+00     6.9999999999920870E-01     0.0000000000000000E+00 
    1.0000000000000000E+00     7.4999999999934064E-01     0.0000000000000000E+00 
    1.0000000000000000E+00     7.9999999999947247E-01     0.0000000000000000E+00 
    1.0000000000000000E+00     8.4999999999960441E-01     0.0000000000000000E+00 
    1.0000000000000000E+00     8.9999999999973623E-01     0.0000000000000000E+00 
    1.0000000000000000E+00     9.4999999999986817E-01     0.0000000000000000E+00 
    4.7500000000196618E-01     1.0000000000000000E+00     0.0000000000000000E+00 
    9.2499999999968763E-01     1.0000000000000000E+00     0.0000000000000000E+00 
    8.7499999999961831E-01     1.0000000000000000E+00     0.0000000000000000E+00 
    8.2499999999982654E-01     1.0000000000000000E+00     0.0000000000000000E+00 
    7.7500000000017355E-01     1.0000000000000000E+00     0.0000000000000000E+00 
    7.2500000000052045E-01     1.0000000000000000E+00     0.0000000000000000E+00 
    6.7500000000086724E-01     1.0000000000000000E+00     0.0000000000000000E+00 
    6.2500000000121403E-01     1.0000000000000000E+00     0.0000000000000000E+00 
    5.7500000000156093E-01     1.0000000000000000E+00     0.0000000000000000E+00 
    5.2500000000189684E-01     1.0000000000000000E+00     0.0000000000000000E+00 
    9.7499999999989595E-01     1.0000000000000000E+00     0.0000000000000000E+00 
    4.2500000000176902E-01     1.0000000000000000E+00     0.0000000000000000E+00 
    3.7500000000156092E-01     1.0000000000000000E+00     0.0000000000000000E+00 
    3.2500000000135282E-01     1.0000000000000000E+00     0.0000000000000000E+00 
    2.7500000000114472E-01     1.0000000000000000E+00     0.0000000000000000E+00 
    2.2500000000093659E-01     1.0000000000000000E+00     0.0000000000000000E+00 
    1.7500000000072849E-01     1.0000000000000000E+00     0.0000000000000000E+00 
    1.2500000000052039E-01     1.0000000000000000E+00     0.0000000000000000E+00 
    7.5000000000312261E-02     1.0000000000000000E+00     0.0000000000000000E+00 
    2.5000000000104109E-02     1.0000000000000000E+00     0.0000000000000000E+00 
    4.5000000000187301E-01     1.0000000000000000E+00     0.0000000000000000E+00 
    8.9999999999958358E-01     1.0000000000000000E+00     0.0000000000000000E+00 
    8.4999999999965303E-01     1.0000000000000000E+00     0.0000000000000000E+00 
    8.0000000000000004E-01     1.0000000000000000E+00     0.0000000000000000E+00 
    7.5000000000034706E-01     1.0000000000000000E+00     0.0000000000000000E+00 
    7.0000000000069384E-01     1.0000000000000000E+00     0.0000000000000000E+00 
    6.5000000000104063E-01     1.0000000000000000E+00     0.0000000000000000E+00 
    6.0000000000138742E-01     1.0000000000000000E+00     0.0000000000000000E+00 
    5.5000000000173432E-01     1.0000000000000000E+00     0.0000000000000000E+00 
    5.0000000000205946E-01     1.0000000000000000E+00     0.0000000000000000E+00 
    9.4999999999979179E-01     1.0000000000000000E+00     0.0000000000000000E+00 
    4.0000000000166491E-01     1.0000000000000000E+00     0.0000000000000000E+00 
    3.5000000000145681E-01     1.0000000000000000E+00     0.0000000000000000E+00 
    3.0000000000124871E-01     1.0000000000000000E+00     0.0000000000000000E+00 
    2.5000000000104061E-01     1.0000000000000000E+00     0.0000000000000000E+00 
    2.0000000000083251E-01     1.0000000000000000E+00     0.0000000000000000E+00 
    1.5000000000062441E-01     1.0000000000000000E+00     0.0000000000000000E+00 
    1.0000000000041630E-01     1.0000000000000000E+00     0.0000000000000000E+00 
[...]
CELL_DATA 1600 
SCALARS Pressure double 1 
LOOKUP_TABLE default 

    8.3380103214540091E-01 
    8.1639081828451088E-01 
    8.1630949713655088E-01 
    8.3196056938235197E-01 
    8.3029382406898244E-01 
    8.1616408780647132E-01 
    8.1596830138385301E-01 
    8.2878112513594193E-01 
    8.2740667606656793E-01 
    8.1573417248187940E-01 
    8.1547127030832522E-01 
    8.2615778389934480E-01 
    8.2502331546148955E-01 
    8.1518825723771349E-01 
    8.1489194165536716E-01 
    8.2399350989021769E-01 
    8.2305952599670396E-01 
    8.1458834538511804E-01 
    8.1428217690506299E-01 
    8.2221377854419553E-01 
    8.2144985453271269E-01 
    8.1397832412083304E-01 
    8.1368051865927737E-01 
    8.2076213839885104E-01 
    8.2014533382487886E-01 
    8.1339220544069391E-01 
    8.1311563434157907E-01 
    8.1959452184855697E-01 
    8.1910500459753977E-01 
    8.1285264637953114E-01 
    8.1260467723670582E-01 
    8.1867286236113068E-01 
    8.1829379171263994E-01 
    8.1237319988919732E-01 
    8.1215880949679731E-01 
    8.1796371719474592E-01 
    8.1767843038402499E-01 
    8.1196178021320464E-01 
    8.1178193222498274E-01 
    8.1743377587280253E-01 
    8.1722531993234759E-01 
    8.1161843963768754E-01 
    8.1147026446864723E-01 
    8.1704888569049849E-01 
    8.1690061318807305E-01 
    8.1133626400797321E-01 
    8.1121615285387838E-01 
    8.1677854105907222E-01 
    8.1668086225961256E-01 
    8.1110899796831948E-01 
    8.1101408612037162E-01 
    8.1660578576159237E-01 
    8.1655175623929310E-01 
    8.1092995886038022E-01 
    8.1085612475854874E-01 
    8.1651789956909138E-01 
    8.1650556965621079E-01 
    8.1079334666690450E-01 
    8.1074571129074691E-01 
    8.1651578249229750E-01 
    8.1654267338677844E-01 
    8.1071918874262261E-01 
    8.1071156214358475E-01 
    8.1657161539724898E-01 
    8.1659601512053459E-01 
    8.1070984007654534E-01 
    8.1070433015090138E-01 
    8.1661261235431049E-01 
    8.1661930584899989E-01 
    8.1069263028811733E-01 
    8.1067681908394962E-01 
    8.1661360191929977E-01 
    8.1659450597931338E-01 
    8.1065652779075781E-01 
    8.1063259135998944E-01 
    8.1656123138119918E-01 
    8.1651448110135094E-01 
    8.1060496801842596E-01 
    8.1057564542143856E-01 
    8.1645509274455152E-01 
    8.0679426399362952E-01 
    7.9787903353772327E-01 
    7.9785892634791700E-01 
    8.0676849242445803E-01 
    8.0671776546579232E-01 
    7.9781905783433371E-01 
    7.9776010174646184E-01 
    8.0664304442694013E-01 
    8.0654590789754088E-01 
    7.9768255719672843E-01 
    7.9758720569803732E-01 
    8.0642789356613542E-01 
    8.0629110964066442E-01 
    7.9747484475152386E-01 
    7.9734662410371915E-01 
    8.0613757161914434E-01 
    8.0596942300634600E-01 
    7.9720356369510581E-01 
    7.9704691483632939E-01 
    8.0578872498921827E-01 
    8.0559818401817551E-01 
    7.9687818394008048E-01 
    7.9669885965904896E-01 
    8.0540021481908686E-01 
    8.0519723140512878E-01 
    7.9651033345809841E-01 
    7.9631388887262544E-01 
    8.0499116673958637E-01 
    8.0478365926536100E-01 
    7.9611066209917580E-01 
    7.9590182765236739E-01 
    8.0457635459565535E-01 
    8.0437108980326222E-01 
    7.9568902646921613E-01 
    7.9547376778127177E-01 
    8.0416938063790755E-01 
    8.0397250508755069E-01 
    7.9525769865046736E-01 
    7.9504224089605180E-01 
    8.0378154905221000E-01 
    8.0359698046865102E-01 
    7.9482862754093697E-01 
    7.9461761504699713E-01 
    8.0341904636788275E-01 
    8.0324802680401630E-01 
    7.9441036910671348E-01 
    7.9420737039407874E-01 
    8.0308427736582833E-01 
    8.0292763451120963E-01 
    7.9400901356241527E-01 
    7.9381539197485596E-01 
    8.0277792802382675E-01 
    8.0263446746347344E-01 
    7.9362659930119384E-01 
    7.9344274870089737E-01 
    8.0249712183999800E-01 
    8.0236677708263981E-01 
    7.9326453718481360E-01 
    7.9309237321511450E-01 
    8.0224489419584855E-01 
    8.0213576960033783E-01 
    7.9292703902537087E-01 
    7.9276878571654175E-01 
    8.0204351479382063E-01 
    8.0196828281746513E-01 
    7.9262021184945441E-01 
    7.9249161829288628E-01 
    8.0190938441077608E-01 
    8.0186234643547816E-01 
    7.9239119888026877E-01 
    7.9231533004519461E-01 
    8.0182067818752689E-01 
    8.0178290009897391E-01 
    7.9225900685910611E-01 
    7.9222024572890537E-01 
    8.0175300578951114E-01 
    8.0173367269364937E-01 
    7.9220029793697477E-01 
    7.9220232633025500E-01 
    8.0172684721210630E-01 
    7.8853302207087306E-01 
    7.7856936668861199E-01 
    7.7856142799085515E-01 
    7.8851763908891437E-01 
    7.8848718543020702E-01 
    7.7854547515006556E-01 
    7.7852159409208022E-01 
    7.8844185784017062E-01 
    7.8838194322277266E-01 
    7.7848949920988786E-01 
    7.7844904967617445E-01 
    7.8830760719941917E-01 
    7.8821920523656230E-01 
    7.7839980138169773E-01 
    7.7834163704409243E-01 
    7.8811716384005515E-01 
    7.8800211117592811E-01 
    7.7827423894016290E-01 
    7.7819735625228736E-01 
    7.8787446393341043E-01 
    7.8773493356504221E-01 
    7.7811057886244472E-01 
    7.7801348217608735E-01 
    7.8758397914455325E-01 
    7.8742220284723408E-01 
    7.7790546368736402E-01 
    7.7778620762058015E-01 
    7.8725009817796543E-01 
    7.8706835146683285E-01 
    7.7765540783421738E-01 
    7.7751295306448687E-01 
    7.8687751374028858E-01 
    7.8667886417544175E-01 
    7.7735945197603329E-01 
    7.7719582047426972E-01 
    7.8647363629057632E-01 
    7.8626341233670793E-01 
    7.7702324019509372E-01 
    7.7684320779354399E-01 
    7.8604976161728346E-01 
    7.8583422525480373E-01 
    7.7665734701217837E-01 
    7.7646727144322136E-01 
    7.8561809666761961E-01 
    7.8540295191073273E-01 
    7.7627499659264187E-01 
    7.7608154057650158E-01 
    7.8518960722485209E-01 
    7.8497853827414144E-01 
    7.7588768710735023E-01 
    7.7569418226453024E-01 
    7.8477030690303107E-01 
    7.8456539349753374E-01 
    7.7550210784464246E-01 
    7.7531245184884223E-01 
    7.8436449510210593E-01 
    7.8416828557129226E-01 
    7.7512643257157654E-01 
    7.7494491898394058E-01 
    7.8397729986146192E-01 
    7.8379235734107700E-01 
    7.7476924504861011E-01 
    7.7460196628597744E-01 
    7.8361546033199736E-01 
    7.8344815944162594E-01 
    7.7444607893474127E-01 
    7.7430458340790909E-01 
    7.8329544044947785E-01 
    7.8316519912076910E-01 
    7.7418091576065873E-01 
    7.7407794301436927E-01 
    7.8306283629799878E-01 
    7.8298680176236912E-01 
    7.7399584048694192E-01 
    7.7393402521535259E-01 
    7.8293620812731202E-01 
    7.8291174502475358E-01 
    7.7390199491022016E-01 
    7.7390082299589324E-01 
    7.8291453753922280E-01 
    7.6792293336417339E-01 
    7.5652423932712731E-01 
    7.5653417039924165E-01 
    7.6792451824760177E-01 
    7.6792746689830094E-01 
    7.5655376696136389E-01 
    7.5658243476954601E-01 
    7.6793145826900888E-01 
    7.6793585118186525E-01 
    7.5661934071560044E-01 
    7.5666334134819502E-01 
    7.6793988659027668E-01 
    7.6794255957423208E-01 
    7.5671301266480984E-01 
    7.5676648842668237E-01 
    7.6794273384396183E-01 
    7.6793916429219233E-01 
    7.5682156454025562E-01 
    7.5687618012266467E-01 
    7.6793052530045669E-01 
    7.6791560774999190E-01 
    7.5692828301243098E-01 
    7.5697537347919774E-01 
    7.6789266589872895E-01 
    7.6786013653514573E-01 
    7.5701476521698197E-01 
    7.5704385295643539E-01 
    7.6781626998067354E-01 
    7.6775982649116015E-01 
    7.5705981519827448E-01 
    7.5706051927423590E-01 
    7.6768939866413788E-01 
    7.6760527649615085E-01 
    7.5704542743686087E-01 
    7.5701457755351087E-01 
    7.6750752773400632E-01 
    7.6739715026312294E-01 
    7.5696811729189706E-01 
    7.5690698201662443E-01 
    7.6727502579442408E-01 
    7.6714293259748767E-01 
    7.5683237186681218E-01 
    7.5674626070371942E-01 
    7.6700240485596649E-01 
    7.6685587531756449E-01 
    7.5665083653974774E-01 
    7.5654759000623861E-01 
    7.6670436379886497E-01 
    7.6654882868259144E-01 
    7.5643708926235653E-01 
    7.5632029930981481E-01 
    7.6639006439052570E-01 
    7.6622953954009343E-01 
    7.5619841162009427E-01 
    7.5607297991137079E-01 
    7.6606848236468406E-01 
    7.6590853436362816E-01 
    7.5594560729026572E-01 
    7.5581782995537139E-01 
    7.6575090590826500E-01 
    7.6559715076114077E-01 
    7.5569081174088049E-01 
    7.5556742643675823E-01 
    7.6545010669478697E-01 
    7.6531281138555662E-01 
    7.5545055669569383E-01 
    7.5534276313214821E-01 
    7.6518806411305174E-01 
    7.6507861441949421E-01 
    7.5524644809196717E-01 
    7.5516358892113022E-01 
    7.6498672238373422E-01 
    7.6491258682510832E-01 
    7.5509482519431592E-01 
    7.5503567741386790E-01 
    7.6485179296542538E-01 
    7.6481482229256603E-01 
    7.5499287279824256E-01 
    7.5497288132460394E-01 
    7.6480764855175454E-01 
    7.4394175702071241E-01 
    7.2906717198962290E-01 
    7.2906349842411544E-01 
    7.4394940183330693E-01 
    7.4396509570846447E-01 
    7.2905597128840571E-01 
    7.2904478998735045E-01 
    7.4398872613190092E-01 
    7.4402008915142048E-01 
    7.2903017462172626E-01 
    7.2901263252640924E-01 
    7.4405853090481300E-01 
    7.4410330934123781E-01 
    7.2899253992393553E-01 
    7.2897020671542268E-01 
    7.4415307913036921E-01 
    7.4420615600859086E-01 
    7.2894533213217905E-01 
    7.2891816416318000E-01 
    7.4426083350149108E-01 
    7.4431490509549247E-01 
    7.2888931749326458E-01 
    7.2886007168908529E-01 
    7.4436618063320592E-01 
    7.4441259872491750E-01 
    7.2883112314803222E-01 
    7.2880313291771370E-01 
    7.4445182334972304E-01 
    7.4448109294442832E-01 
    7.2877564318688048E-01 
    7.2874863697934777E-01 
    7.4449809022639379E-01 
    7.4450471008146191E-01 
    7.2872177103469593E-01 
    7.2869559266010109E-01 
    7.4449867346050436E-01 
    7.4447997602789129E-01 
    7.2866981370892658E-01 
    7.2864458954155198E-01 
    7.4444901080423143E-01 
    7.4440681960716371E-01 
    7.2861921700025578E-01 
    7.2859366537661618E-01 
    7.4435505970880800E-01 
    7.4429599058610219E-01 
    7.2856693610469869E-01 
    7.2853877890376939E-01 
    7.4423406734801723E-01 
    7.4416724022225289E-01 
    7.2850918454142100E-01 
    7.2847888201134026E-01 
    7.4409551352721803E-01 
    7.4401950018536267E-01 
    7.2844789283674305E-01 
    7.2841704891860870E-01 
    7.4394022968537477E-01 
    7.4385923215060945E-01 
    7.2838667299576421E-01 
    7.2835777366161203E-01 
    7.4377797704865523E-01 
    7.4369484576864964E-01 
    7.2832993693097925E-01 
    7.2830371139572736E-01 
    7.4361189851314702E-01 
    7.4353124196113818E-01 
    7.2827902163510916E-01 
    7.2825650427766520E-01 
    7.4345478343395444E-01 
    7.4338427851662658E-01 
    7.2823641556163343E-01 
    7.2821953905468628E-01 
    7.4332108055921109E-01 
    7.4326562941076679E-01 
    7.2820538157047954E-01 
    7.2819027896073485E-01 
    7.4321415674350422E-01 
    7.4316908941738147E-01 
    7.2817237549248914E-01 
    7.2815792982229821E-01 
    7.4313681735532156E-01 
    7.1279011462173303E-01 
    6.9763350478146213E-01 
    6.9762318234117282E-01 
    7.1277459166421298E-01 
    7.1274406104723487E-01 
    6.9760284173833076E-01 
    6.9757285023527660E-01 
    7.1269934203359553E-01 
    7.1264149419778011E-01 
    6.9753383696402871E-01 
    6.9748651712996323E-01 
    7.1257192261973235E-01 
    7.1249222522647804E-01 
    6.9743196255324780E-01 
    6.9737124537580319E-01 
    7.1240403349558090E-01 
    7.1230893211068724E-01 
    6.9730574760057140E-01 
    6.9723690710203989E-01 
    7.1220896659660859E-01 
    7.1210788278226267E-01 
    6.9716667087806850E-01 
    6.9709655590258013E-01 
    7.1200818576111047E-01 
    7.1191221008576833E-01 
    6.9702872340709232E-01 
    6.9696475704629990E-01 
    7.1182215933367887E-01 
    7.1173975992068350E-01 
    6.9690674950266551E-01 
    6.9685638356509016E-01 
    7.1166740613113855E-01 
    7.1160443236781490E-01 
    6.9681490770489440E-01 
    6.9678223182714871E-01 
    7.1155286145186925E-01 
    7.1151264202128861E-01 
    6.9675900980531691E-01 
    6.9674473583018404E-01 
    7.1148376470012165E-01 
    7.1146528124697050E-01 
    6.9673953533669486E-01 
    6.9674224090083237E-01 
    7.1145624851642764E-01 
    7.1145452867562375E-01 
    6.9675218220331936E-01 
    6.9676803333328974E-01 
    7.1145658939823375E-01 
    7.1146352024249426E-01 
    6.9678901469382648E-01 
    6.9681430522813737E-01 
    7.1147544683587272E-01 
    7.1149167552226311E-01 
    6.9684367110131473E-01 
    6.9687597703937920E-01 
    7.1151189687515404E-01 
    7.1153520395497782E-01 
    6.9691071188120857E-01 
    6.9694692298544536E-01 
    7.1156127822566917E-01 
    7.1159073562609909E-01 
    6.9698434455404279E-01 
    6.9702112661070936E-01 
    7.1162210878070853E-01 
    7.1165372432130136E-01 
    6.9705617687261257E-01 
    6.9708812540755383E-01 
    7.1168465327266273E-01 
    7.1171428603973808E-01 
    6.9711671076204429E-01 
    6.9714131829289439E-01 
    7.1174267963508131E-01 
    7.1176920900772289E-01 
    6.9716125017156771E-01 
    6.9717722723012965E-01 
    7.1179320330565177E-01 
    7.1181215957418009E-01 
    6.9719098884978858E-01 
    6.9720292713397891E-01 
    7.1182909177928166E-01 
    6.8303571400693452E-01 
    6.6818396767300592E-01 
    6.6820111282607342E-01 
    6.8303873099063150E-01 
    6.8304434899942357E-01 
    6.6823470272135499E-01 
    6.6828357358727142E-01 
    6.8305236923031198E-01 
    6.8306223263967969E-01 
    6.6834639143181929E-01 
    6.6842145926392127E-01 
    6.8307363102523588E-01 
    6.8308602321822709E-01 
    6.6850695645521996E-01 
    6.6860077206598401E-01 
    6.8309912927429939E-01 
    6.8311262299106479E-01 
    6.6870093400907538E-01 
    6.6880586336249914E-01 
    6.8312663953233688E-01 
    6.8314119394466510E-01 
    6.6891401893250846E-01 
    6.6902371144340378E-01 
    6.8315636490479204E-01 
    6.8317241717327715E-01 
    6.6913352306454410E-01 
    6.6924216610826670E-01 
    6.8318972693697566E-01 
    6.8320903098623453E-01 
    6.6934900453141388E-01 
    6.6945343089625076E-01 
    6.8323118334524957E-01 
    6.8325613793660078E-01 
    6.6955439041732212E-01 
    6.6965100510326603E-01 
    6.8328359158360685E-01 
    6.8331338239589390E-01 
    6.6974252397956369E-01 
    6.6982827142080648E-01 
    6.8334514785047507E-01 
    6.8337862229540780E-01 
    6.6990778363326975E-01 
    6.6998063794142171E-01 
    6.8341318689215813E-01 
    6.8344839354352094E-01 
    6.7004680109744230E-01 
    6.7010594969332560E-01 
    6.8348357183613007E-01 
    6.8351813129581285E-01 
    6.7015788266882437E-01 
    6.7020296578598038E-01 
    6.8355190461139859E-01 
    6.8358485309687123E-01 
    6.7024150770501945E-01 
    6.7027364173575454E-01 
    6.8361647006998139E-01 
    6.8364645367295707E-01 
    6.7029963363981038E-01 
    6.7031998409101456E-01 
    6.8367450790603279E-01 
    6.8370056977358340E-01 
    6.7033519008664810E-01 
    6.7034564490249093E-01 
    6.8372381312663344E-01 
    6.8374375287923228E-01 
    6.7035180891958657E-01 
    6.7035418048673856E-01 
    6.8375987406115113E-01 
    6.8377208661816291E-01 
    6.7035316466100858E-01 
    6.7034844553015538E-01 
    6.8377968059360272E-01 
    6.8378145187380202E-01 
    6.7033709898339056E-01 
    6.7031816537826538E-01 
    6.8377851952201407E-01 
    6.8377642673730954E-01 
    6.7029973509932883E-01 
    6.7028558836592245E-01 
    6.8377578979328935E-01 
    6.5267887369450983E-01 
    6.3551942330112599E-01 
    6.3553891258862383E-01 
    6.5270557531994067E-01 
    6.5275799987066851E-01 
    6.3557757292327000E-01 
    6.3563427273717077E-01 
    6.5283443271637143E-01 
    6.5293298566525371E-01 
    6.3570768027551239E-01 
    6.3579577040677859E-01 
    6.5305103343003601E-01 
    6.5318595425827819E-01 
    6.3589651338959863E-01 
    6.3600728194614120E-01 
    6.5333440662991860E-01 
    6.5349298622992524E-01 
    6.3612445247785254E-01 
    6.3624680593948424E-01 
    6.5365851412883047E-01 
    6.5382875727954759E-01 
    6.3637143737264945E-01 
    6.3649600721155852E-01 
    6.5400058066779021E-01 
    6.5417183247331934E-01 
    6.3661833636266096E-01 
    6.3673654637216548E-01 
    6.5433973346070695E-01 
    6.5450233685302117E-01 
    6.3684781376039912E-01 
    6.3695056305015718E-01 
    6.5465712166698065E-01 
    6.5480313999498763E-01 
    6.3704582200112070E-01 
    6.3713097361421300E-01 
    6.5493888786630805E-01 
    6.5506368627876732E-01 
    6.3720461949392715E-01 
    6.3726659979991040E-01 
    6.5517615018726461E-01 
    6.5527637725279797E-01 
    6.3731649101311383E-01 
    6.3735483927616210E-01 
    6.5536359300382496E-01 
    6.5543865956581759E-01 
    6.3738192612650180E-01 
    6.3740127729875951E-01 
    6.5550097470670987E-01 
    6.5555129459819128E-01 
    6.3741044455547913E-01 
    6.3741021106368201E-01 
    6.5558974591248242E-01 
    6.5561753298340153E-01 
    6.3740059668229199E-01 
    6.3738259809255826E-01 
    6.5563466376555590E-01 
    6.5564247523624730E-01 
    6.3735661419544942E-01 
    6.3732406265756780E-01 
    6.5564145046854561E-01 
    6.5563312375739058E-01 
    6.3728387389329122E-01 
    6.3723810523773172E-01 
    6.5561831079725419E-01 
    6.5559892311483547E-01 
    6.3718782592447432E-01 
    6.3713475135394260E-01 
    6.5557568068122751E-01 
    6.5555030088247557E-01 
    6.3707974009169721E-01 
    6.3702359639909667E-01 
    6.5552284440871922E-01 
    6.5548865280508184E-01 
    6.3696017208347622E-01 
    6.3689166286720000E-01 
    6.5544354914438774E-01 
    6.5539988100751034E-01 
    6.3683113127177859E-01 
    6.3677956274370229E-01 
    6.5536290464931612E-01 
    6.1458399241039807E-01 
    5.9161000612844949E-01 
    5.9158081356202097E-01 
    6.1457663193965695E-01 
    6.1456195787653156E-01 
    5.9152361636954787E-01 
    5.9144052636061195E-01 
    6.1454028369348912E-01 
    6.1451202778086000E-01 
    5.9133368289403310E-01 
    5.9120580400178446E-01 
    6.1447771995056022E-01 
    6.1443761884533199E-01 
    5.9105921862153443E-01 
    5.9089711574841686E-01 
    6.1439211058485632E-01 
    6.1434119741875459E-01 
    5.9072281658827253E-01 
    5.9053741546122485E-01 
    6.1428534349026631E-01 
    6.1422512355772840E-01 
    5.9034599572552371E-01 
    5.9015173063827409E-01 
    6.1416177334559385E-01 
    6.1409592727201634E-01 
    5.8995771178139067E-01 
    5.8976742768258172E-01 
    6.1402935977940631E-01 
    6.1396254765667768E-01 
    5.8958379970867780E-01 
    5.8940907863181102E-01 
    6.1389641326492239E-01 
    6.1383065566565853E-01 
    5.8924192214825388E-01 
    5.8908705046842513E-01 
    6.1376674041043122E-01 
    6.1370485430359034E-01 
    5.8894658348072126E-01 
    5.8882180515366522E-01 
    6.1364627812358752E-01 
    6.1359057325592425E-01 
    5.8871282008920256E-01 
    5.8861908562107945E-01 
    6.1353857870673589E-01 
    6.1348976774975339E-01 
    5.8853967639017346E-01 
    5.8847109825184063E-01 
    6.1344507181924035E-01 
    6.1340359589328186E-01 
    5.8841609321515054E-01 
    5.8837441182001626E-01 
    6.1336586257023928E-01 
    6.1333099768681587E-01 
    5.8834557002864452E-01 
    5.8832892162475670E-01 
    6.1329955298715388E-01 
    6.1327075290456479E-01 
    5.8832368320034234E-01 
    5.8832675401554713E-01 
    6.1324513551560722E-01 
    6.1322196305614496E-01 
    5.8834019773128665E-01 
    5.8836282496477055E-01 
    6.1320149414615410E-01 
    6.1318254245456072E-01 
    5.8839329082399217E-01 
    5.8842991860165061E-01 
    6.1316521362594167E-01 
    6.1314828018507039E-01 
    5.8847037476171038E-01 
    5.8850894600751091E-01 