# vtk DataFile Version 2.0
Pressure Field Data 
ASCII 
DATASET UNSTRUCTURED_GRID 

POINTS 1681 double 

    0.0000000000000000E+00     0.0000000000000000E+00     0.0000000000000000E+00 
    1.0000000000000000E+00     0.0000000000000000E+00     0.0000000000000000E+00 
    1.0000000000000000E+00     1.0000000000000000E+00     0.0000000000000000E+00 
    0.0000000000000000E+00     1.0000000000000000E+00     0.0000000000000000E+00 
    5.2499999999875258E-01     0.0000000000000000E+00     0.0000000000000000E+00 
    7.4999999999856765E-02     0.0000000000000000E+00     0.0000000000000000E+00 
    1.2499999999975850E-01     0.0000000000000000E+00     0.0000000000000000E+00 
    1.7499999999962990E-01     0.0000000000000000E+00     0.0000000000000000E+00 
    2.2499999999948389E-01     0.0000000000000000E+00     0.0000000000000000E+00 
    2.7499999999933789E-01     0.0000000000000000E+00     0.0000000000000000E+00 
    3.2499999999919210E-01     0.0000000000000000E+00     0.0000000000000000E+00 
    3.7499999999904610E-01     0.0000000000000000E+00     0.0000000000000000E+00 
    4.2499999999890020E-01     0.0000000000000000E+00     0.0000000000000000E+00 
    4.7499999999875958E-01     0.0000000000000000E+00     0.0000000000000000E+00 
    2.4999999999949701E-02     0.0000000000000000E+00     0.0000000000000000E+00 
    5.7499999999887907E-01     0.0000000000000000E+00     0.0000000000000000E+00 
    6.2499999999901101E-01     0.0000000000000000E+00     0.0000000000000000E+00 
    6.7499999999914273E-01     0.0000000000000000E+00     0.0000000000000000E+00 
    7.2499999999927467E-01     0.0000000000000000E+00     0.0000000000000000E+00 
    7.7499999999940661E-01     0.0000000000000000E+00     0.0000000000000000E+00 
    8.2499999999953844E-01     0.0000000000000000E+00     0.0000000000000000E+00 
    8.7499999999967026E-01     0.0000000000000000E+00     0.0000000000000000E+00 
    9.2499999999980220E-01     0.0000000000000000E+00     0.0000000000000000E+00 
    9.7499999999993414E-01     0.0000000000000000E+00     0.0000000000000000E+00 
    5.4999999999881310E-01     0.0000000000000000E+00     0.0000000000000000E+00 
    9.9999999999814140E-02     0.0000000000000000E+00     0.0000000000000000E+00 
    1.4999999999970290E-01     0.0000000000000000E+00     0.0000000000000000E+00 
    1.9999999999955689E-01     0.0000000000000000E+00     0.0000000000000000E+00 
    2.4999999999941089E-01     0.0000000000000000E+00     0.0000000000000000E+00 
    2.9999999999926502E-01     0.0000000000000000E+00     0.0000000000000000E+00 
    3.4999999999911913E-01     0.0000000000000000E+00     0.0000000000000000E+00 
    3.9999999999897312E-01     0.0000000000000000E+00     0.0000000000000000E+00 
    4.4999999999882723E-01     0.0000000000000000E+00     0.0000000000000000E+00 
    4.9999999999869210E-01     0.0000000000000000E+00     0.0000000000000000E+00 
    4.9999999999899403E-02     0.0000000000000000E+00     0.0000000000000000E+00 
    5.9999999999894504E-01     0.0000000000000000E+00     0.0000000000000000E+00 
    6.4999999999907687E-01     0.0000000000000000E+00     0.0000000000000000E+00 
    6.9999999999920870E-01     0.0000000000000000E+00     0.0000000000000000E+00 
    7.4999999999934064E-01     0.0000000000000000E+00     0.0000000000000000E+00 
    7.9999999999947247E-01     0.0000000000000000E+00     0.0000000000000000E+00 
    8.4999999999960441E-01     0.0000000000000000E+00     0.0000000000000000E+00 
    8.9999999999973623E-01     0.0000000000000000E+00     0.0000000000000000E+00 
    9.4999999999986817E-01     0.0000000000000000E+00     0.0000000000000000E+00 
    1.0000000000000000E+00     5.2499999999875258E-01     0.0000000000000000E+00 
    1.0000000000000000E+00     7.4999999999856765E-02     0.0000000000000000E+00 
    1.0000000000000000E+00     1.2499999999975850E-01     0.0000000000000000E+00 
    1.0000000000000000E+00     1.7499999999962990E-01     0.0000000000000000E+00 
    1.0000000000000000E+00     2.2499999999948389E-01     0.0000000000000000E+00 
    1.0000000000000000E+00     2.7499999999933789E-01     0.0000000000000000E+00 
    1.0000000000000000E+00     3.2499999999919210E-01     0.0000000000000000E+00 
    1.0000000000000000E+00     3.7499999999904610E-01     0.0000000000000000E+00 
    1.0000000000000000E+00     4.2499999999890020E-01     0.0000000000000000E+00 
    1.0000000000000000E+00     4.7499999999875958E-01     0.0000000000000000E+00 
    1.0000000000000000E+00     2.4999999999949701E-02     0.0000000000000000E+00 
    1.0000000000000000E+00     5.7499999999887907E-01     0.0000000000000000E+00 
    1.0000000000000000E+00     6.2499999999901101E-01     0.0000000000000000E+00 
    1.0000000000000000E+00     6.7499999999914273E-01     0.0000000000000000E+00 
    1.0000000000000000E+00     7.2499999999927467E-01     0.0000000000000000E+00 
    1.0000000000000000E+00     7.7499999999940661E-01     0.0000000000000000E+00 
    1.0000000000000000E+00     8.2499999999953844E-01     0.0000000000000000E+00 
    1.0000000000000000E+00     8.7499999999967026E-01     0.0000000000000000E+00 
    1.0000000000000000E+00     9.2499999999980220E-01     0.0000000000000000E+00 
    1.0000000000000000E+00     9.7499999999993414E-01     0.0000000000000000E+00 
    1.0000000000000000E+00     5.4999999999881310E-01     0.0000000000000000E+00 
    1.0000000000000000E+00     9.9999999999814140E-02     0.0000000000000000E+00 
    1.0000000000000000E+00     1.4999999999970290E-01     0.0000000000000000E+00 
    1.0000000000000000E+00     1.9999999999955689E-01     0.0000000000000000E+00 
    1.0000000000000000E+00     2.4999999999941089E-01     0.0000000000000000E+00 
    1.0000000000000000E+00     2.9999999999926502E-01     0.0000000000000000E+00 
    1.0000000000000000E+00     3.4999999999911913E-01     0.0000000000000000E+00 
    1.0000000000000000E+00     3.9999999999897312E-01     0.0000000000000000E+00 
    1.0000000000000000E+00     4.4999999999882723E-01     0.0000000000000000E+00 
    1.0000000000000000E+00     4.9999999999869210E-01     0.0000000000000000E+00 
    1.0000000000000000E+00     4.9999999999899403E-02     0.0000000000000000E+00 
    1.0000000000000000E+00     5.9999999999894504E-01     0.0000000000000000E+00 
    1.0000000000000000E+00     6.4999999999907687E-01     0.0000000000000000E+00 
    1.0000000000000000E+00     6.9999999999920870E-01     0.0000000000000000E+00 
    1.0000000000000000E+00     7.4999999999934064E-01     0.0000000000000000E+00 
    1.0000000000000000E+00     7.9999999999947247E-01     0.0000000000000000E+00 
    1.0000000000000000E+00     8.4999999999960441E-01     0.0000000000000000E+00 
    1.0000000000000000E+00     8.9999999999973623E-01     0.0000000000000000E+00 
    1.0000000000000000E+00     9.4999999999986817E-01     0.0000000000000000E+00 
    4.7500000000196618E-01     1.0000000000000000E+00     0.0000000000000000E+00 
    9.2499999999968763E-01     1.0000000000000000E+00     0.0000000000000000E+00 
    8.7499999999961831E-01     1.0000000000000000E+00     0.0000000000000000E+00 
    8.2499999999982654E-01     1.0000000000000000E+00     0.0000000000000000E+00 
    7.7500000000017355E-01     1.0000000000000000E+00     0.0000000000000000E+00 
    7.2500000000052045E-01     1.0000000000000000E+00     0.0000000000000000E+00 
    6.7500000000086724E-01     1.0000000000000000E+00     0.0000000000000000E+00 
    6.2500000000121403E-01     1.0000000000000000E+00     0.0000000000000000E+00 
    5.7500000000156093E-01     1.0000000000000000E+00     0.0000000000000000E+00 
    5.2500000000189684E-01     1.0000000000000000E+00     0.0000000000000000E+00 
    9.7499999999989595E-01     1.0000000000000000E+00     0.0000000000000000E+00 
    4.2500000000176902E-01     1.0000000000000000E+00     0.0000000000000000E+00 
    3.7500000000156092E-01     1.0000000000000000E+00     0.0000000000000000E+00 
    3.2500000000135282E-01     1.0000000000000000E+00     0.0000000000000000E+00 
    2.7500000000114472E-01     1.0000000000000000E+00     0.0000000000000000E+00 
    2.2500000000093659E-01     1.0000000000000000E+00     0.0000000000000000E+00 
    1.7500000000072849E-01     1.0000000000000000E+00     0.0000000000000000E+00 
    1.2500000000052039E-01     1.0000000000000000E+00     0.0000000000000000E+00 
    7.5000000000312261E-02     1.0000000000000000E+00     0.0000000000000000E+00 
    2.5000000000104109E-02     1.0000000000000000E+00     0.0000000000000000E+00 
    4.5000000000187301E-01     1.0000000000000000E+00     0.0000000000000000E+00 
    8.9999999999958358E-01     1.0000000000000000E+00     0.0000000000000000E+00 
    8.4999999999965303E-01     1.0000000000000000E+00     0.0000000000000000E+00 
    8.0000000000000004E-01     1.0000000000000000E+00     0.0000000000000000E+00 
    7.5000000000034706E-01     1.0000000000000000E+00     0.0000000000000000E+00 
    7.0000000000069384E-01     1.0000000000000000E+00     0.0000000000000000E+00 
    6.5000000000104063E-01     1.0000000000000000E+00     0.0000000000000000E+00 
    6.0000000000138742E-01     1.0000000000000000E+00     0.0000000000000000E+00 
    5.5000000000173432E-01     1.0000000000000000E+00     0.0000000000000000E+00 
    5.0000000000205946E-01     1.0000000000000000E+00     0.0000000000000000E+00 
    9.4999999999979179E-01     1.0000000000000000E+00     0.0000000000000000E+00 
    4.0000000000166491E-01     1.0000000000000000E+00     0.0000000000000000E+00 
    3.5000000000145681E-01     1.0000000000000000E+00     0.0000000000000000E+00 
    3.0000000000124871E-01     1.0000000000000000E+00     0.0000000000000000E+00 
    2.5000000000104061E-01     1.0000000000000000E+00     0.0000000000000000E+00 
    2.0000000000083251E-01     1.0000000000000000E+00     0.0000000000000000E+00 
    1.5000000000062441E-01     1.0000000000000000E+00     0.0000000000000000E+00 
    1.0000000000041630E-01     1.0000000000000000E+00     0.0000000000000000E+00 
[...]
CELL_DATA 1600 
SCALARS Pressure double 1 
LOOKUP_TABLE default 

    1.0784135440883151E+00 
    1.0589557788053889E+00 
    1.0588649769934124E+00 
    1.0765539548333380E+00 
    1.0748601366739499E+00 
    1.0587001922325980E+00 
    1.0584738914623935E+00 
    1.0733020034775573E+00 
    1.0718602713416978E+00 
    1.0581967146092874E+00 
    1.0578782276829573E+00 
    1.0705258814212470E+00 
    1.0692916625429481E+00 
    1.0575282706128881E+00 
    1.0571545777039280E+00 
    1.0681505961422706E+00 
    1.0670963452588080E+00 
    1.0567642862571529E+00 
    1.0563635333284682E+00 
    1.0661238333282339E+00 
    1.0652294638306483E+00 
    1.0559593362832860E+00 
    1.0555570480081815E+00 
    1.0644099869916395E+00 
    1.0636622372583153E+00 
    1.0551618568767371E+00 
    1.0547775444164447E+00 
    1.0629832882891830E+00 
    1.0623702699828561E+00 
    1.0544074116525399E+00 
    1.0540543015462682E+00 
    1.0618213834513304E+00 
    1.0613336882114512E+00 
    1.0537214718740373E+00 
    1.0534104834516966E+00 
    1.0609044007552875E+00 
    1.0605301176006523E+00 
    1.0531225326629021E+00 
    1.0528578461481779E+00 
    1.0602071050837636E+00 
    1.0599306522020400E+00 
    1.0526158135569428E+00 
    1.0523956804016497E+00 
    1.0596965434263310E+00 
    1.0595014092027251E+00 
    1.0521972109602369E+00 
    1.0520229917621822E+00 
    1.0593454761929062E+00 
    1.0592215337025337E+00 
    1.0518703162779592E+00 
    1.0517284988842828E+00 
    1.0591189453497039E+00 
    1.0590482133785728E+00 
    1.0516048368710116E+00 
    1.0515078180260797E+00 
    1.0590117639893515E+00 
    1.0590036001282359E+00 
    1.0514306558262037E+00 
    1.0513726437061668E+00 
    1.0590143083071792E+00 
    1.0590363949625092E+00 
    1.0513315946229007E+00 
    1.0513029302744907E+00 
    1.0590626201015145E+00 
    1.0590870409796160E+00 
    1.0512812321933163E+00 
    1.0512631452151326E+00 
    1.0591040227383564E+00 
    1.0591096190962219E+00 
    1.0512443945834020E+00 
    1.0512231609843468E+00 
    1.0591001541831098E+00 
    1.0590739249854717E+00 
    1.0511966118355891E+00 
    1.0511646117808298E+00 
    1.0590294518474310E+00 
    1.0589673814824552E+00 
    1.0511259432323350E+00 
    1.0510821600804516E+00 
    1.0588885292684347E+00 
    1.0467566174637855E+00 
    1.0344094117866398E+00 
    1.0343754700223031E+00 
    1.0467186238238682E+00 
    1.0466434364760620E+00 
    1.0343081631310325E+00 
    1.0342084305701791E+00 
    1.0465314981526099E+00 
    1.0463838713399372E+00 
    1.0340770624609170E+00 
    1.0339158943383624E+00 
    1.0462025545676332E+00 
    1.0459910309165872E+00 
    1.0337269533530367E+00 
    1.0335125688836457E+00 
    1.0457525440818902E+00 
    1.0454903282885797E+00 
    1.0332744195049732E+00 
    1.0330140931942611E+00 
    1.0452073935890125E+00 
    1.0449078970875039E+00 
    1.0327337873772935E+00 
    1.0324359042470195E+00 
    1.0445955412758814E+00 
    1.0442741638667239E+00 
    1.0321229224115478E+00 
    1.0317972073923936E+00 
    1.0439470453055026E+00 
    1.0436168769266065E+00 
    1.0314607030700118E+00 
    1.0311150583184072E+00 
    1.0432862859547820E+00 
    1.0429580891725048E+00 
    1.0307623387233460E+00 
    1.0304043045087643E+00 
    1.0426344963298302E+00 
    1.0423173835679047E+00 
    1.0300430498925541E+00 
    1.0296803678752768E+00 
    1.0420082899236114E+00 
    1.0417079714052622E+00 
    1.0293179730211410E+00 
    1.0289571153014943E+00 
    1.0414172677827609E+00 
    1.0411373166911366E+00 
    1.0285995639267731E+00 
    1.0282477050721333E+00 
    1.0408712933257611E+00 
    1.0406200384969706E+00 
    1.0279040033261397E+00 
    1.0275683381803913E+00 
    1.0403770222195567E+00 
    1.0401412732304955E+00 
    1.0272369615073067E+00 
    1.0269175899083756E+00 
    1.0399282402179779E+00 
    1.0397422440378699E+00 
    1.0266238199027531E+00 
    1.0263533292130518E+00 
    1.0395755569001699E+00 
    1.0394288892851662E+00 
    1.0261074487262165E+00 
    1.0258889678455583E+00 
    1.0393038337737857E+00 
    1.0391975249739547E+00 
    1.0256975281413312E+00 
    1.0255332509995547E+00 
    1.0391079876765810E+00 
    1.0390330758063204E+00 
    1.0253958770667257E+00 
    1.0252853958266572E+00 
    1.0389715292126354E+00 
    1.0389220032066107E+00 
    1.0252018293732965E+00 
    1.0251452624975861E+00 
    1.0388841006848646E+00 
    1.0388573735227968E+00 
    1.0251157711685570E+00 
    1.0251135378918179E+00 
    1.0388423334329571E+00 
    1.0208101587330727E+00 
    1.0058518468222652E+00 
    1.0058397483194574E+00 
    1.0207840831980670E+00 
    1.0207324028298808E+00 
    1.0058153951481745E+00 
    1.0057789046361145E+00 
    1.0206554582420677E+00 
    1.0205539223977069E+00 
    1.0057299608489667E+00 
    1.0056685311323157E+00 
    1.0204286069030992E+00 
    1.0202805581358025E+00 
    1.0055940110077946E+00 
    1.0055060608285491E+00 
    1.0201107633259774E+00 
    1.0199201088598284E+00 
    1.0054037584033664E+00 
    1.0052860371502821E+00 
    1.0197087575413175E+00 
    1.0194774471730716E+00 
    1.0051516700355891E+00 
    1.0049994345498687E+00 
    1.0192267661102294E+00 
    1.0189577451626000E+00 
    1.0048279690956663E+00 
    1.0046364330262734E+00 
    1.0186713197616715E+00 
    1.0183685842751682E+00 
    1.0044239426174246E+00 
    1.0041897764573631E+00 
    1.0180500696986170E+00 
    1.0177170950319192E+00 
    1.0039340740203087E+00 
    1.0036574149621282E+00 
    1.0173707907564356E+00 
    1.0170129994929125E+00 
    1.0033608662604179E+00 
    1.0030462132175428E+00 
    1.0166456175790755E+00 
    1.0162708163590122E+00 
    1.0027156236969801E+00 
    1.0023715421407255E+00 
    1.0158904424807595E+00 
    1.0155068700086727E+00 
    1.0020170979924499E+00 
    1.0016547644705871E+00 
    1.0151223749600931E+00 
    1.0147392325925078E+00 
    1.0012868923518210E+00 
    1.0009161174290357E+00 
    1.0143599775051411E+00 
    1.0139862273312672E+00 
    1.0005459706964035E+00 
    1.0001796128162603E+00 
    1.0136197920950529E+00 
    1.0132670426725345E+00 
    9.9981979823480416E-01 
    9.9946543094223073E-01 
    1.0129302015983399E+00 
    1.0126057727097617E+00 
    9.9911253438483749E-01 
    9.9875203088837383E-01 
    1.0122994758229538E+00 
    1.0120272678767277E+00 
    9.9840970105387983E-01 
    9.9811759690746071E-01 
    1.0117944465617361E+00 
    1.0115978950376947E+00 
    9.9787158900381323E-01 
    9.9767125561807735E-01 
    1.0114393736271476E+00 
    1.0113196546766476E+00 
    9.9751912311953839E-01 
    9.9741614116446120E-01 
    1.0112399636940872E+00 
    1.0112002446897910E+00 
    9.9736321548341822E-01 
    9.9735961709857812E-01 
    1.0112009641512751E+00 
    9.8948486183057383E-01 
    9.7151810487171197E-01 
    9.7154242080704389E-01 
    9.8949147054327902E-01 
    9.8950417643923949E-01 
    9.7159057346863908E-01 
    9.7166144265580001E-01 
    9.8952248216177252E-01 
    9.8954517157554289E-01 
    9.7175345799840318E-01 
    9.7186420761374348E-01 
    9.8957084539707207E-01 
    9.8959741041894922E-01 
    9.7199065899291537E-01 
    9.7212858776577282E-01 
    9.8962240127795020E-01 
    9.8964291376941338E-01 
    9.7227294503579142E-01 
    9.7241913778806244E-01 
    9.8965594817162872E-01 
    9.8965873700692897E-01 
    9.7256293385289461E-01 
    9.7269896698883485E-01 
    9.8964747948721221E-01 
    9.8961868607323211E-01 
    9.7282149829121356E-01 
    9.7292453609873464E-01 
    9.8956843885086443E-01 
    9.8949368535049176E-01 
    9.7300060324909665E-01 
    9.7304362518139698E-01 
    9.8939111138505598E-01 
    9.8926017535638655E-01 
    9.7305076032428373E-01 
    9.7302034354508182E-01 
    9.8909977183012654E-01 
    9.8891061949685943E-01 
    9.7295101692030572E-01 
    9.7284320598727758E-01 
    9.8869324447318041E-01 
    9.8845014599140968E-01 
    9.7269808877976627E-01 
    9.7251903139973717E-01 
    9.8818349994063581E-01 
    9.8789744612319619E-01 
    9.7231004974546786E-01 
    9.7207422705716973E-01 
    9.8759400706806655E-01 
    9.8727574408554164E-01 
    9.7181310289222234E-01 
    9.7152892103864885E-01 
    9.8694489759933923E-01 
    9.8660522589652722E-01 
    9.7122383333235429E-01 
    9.7090091613047758E-01 
    9.8626012192493895E-01 
    9.8591372238793362E-01 
    9.7056350554614945E-01 
    9.7021264504139126E-01 
    9.8556801966788632E-01 
    9.8522060711752302E-01 
    9.6984004802370205E-01 
    9.6943040589365914E-01 
    9.8485296528428190E-01 
    9.8447194719957465E-01 
    9.6900356456492642E-01 
    9.6862683895202251E-01 
    9.8413613745632533E-01 
    9.8385705128048595E-01 
    9.6831287072630701E-01 
    9.6805018430341194E-01 
    9.8362727728650823E-01 
    9.8344964509282307E-01 
    9.6784171684436959E-01 
    9.6768843945473948E-01 
    9.8332590866225145E-01 
    9.8325641849041412E-01 
    9.6759070524482904E-01 
    9.6754677876032846E-01 
    9.8324051313275695E-01 
    9.5106959653978562E-01 
    9.2613979690086257E-01 
    9.2613350165156161E-01 
    9.5109202007234728E-01 
    9.5113757694049506E-01 
    9.2612104639892345E-01 
    9.2610322867100681E-01 
    9.5120631393125987E-01 
    9.5129794994742778E-01 
    9.2608130471707395E-01 
    9.2605694520656667E-01 
    9.5141145916609526E-01 
    9.5154555638603078E-01 
    9.2603198159051114E-01 
    9.2600763851794887E-01 
    9.5169761597811131E-01 
    9.5186228976521436E-01 
    9.2598220709997414E-01 
    9.2595047965653710E-01 
    9.5203421028921587E-01 
    9.5220846586988217E-01 
    9.2590300615319288E-01 
    9.2583216036661953E-01 
    9.5238064954383328E-01 
    9.5254727297412700E-01 
    9.2573488466199882E-01 
    9.2560981492389849E-01 
    9.5270549829117668E-01 
    9.5284785572137520E-01 
    9.2545358411002998E-01 
    9.2527102443753351E-01 
    9.5296185413150958E-01 
    9.5304137979570958E-01 
    9.2507067357602135E-01 
    9.2485946746825143E-01 
    9.5307543951285212E-01 
    9.5306067945719808E-01 
    9.2463947705770033E-01 
    9.2441232338637491E-01 
    9.5299609891387960E-01 
    9.5288281555058274E-01 
    9.2417813797849258E-01 
    9.2393793474397756E-01 
    9.5272451508966483E-01 
    9.5252653782442565E-01 
    9.2368906611074042E-01 
    9.2342994349673202E-01 
    9.5229801264108549E-01 
    9.5203447044524236E-01 
    9.2315975647360671E-01 
    9.2288121960166059E-01 
    9.5173558666740676E-01 
    9.5140367973275120E-01 
    9.2259798319878727E-01 
    9.2231449149664813E-01 
    9.5104264348528444E-01 
    9.5065785676678349E-01 
    9.2203356622617305E-01 
    9.2176268724788890E-01 
    9.5025435751951903E-01 
    9.4982574305286116E-01 
    9.2151100622650373E-01 
    9.2129262592449723E-01 
    9.4938180329703281E-01 
    9.4897090003466755E-01 
    9.2111375418467889E-01 
    9.2096421662067851E-01 
    9.4862104774067890E-01 
    9.4832181004456673E-01 
    9.2083496149726429E-01 
    9.2072575974271964E-01 
    9.4806812774808880E-01 
    9.4786104606293997E-01 
    9.2063566929727025E-01 
    9.2056421056251869E-01 
    9.4770041447259012E-01 
    9.4758562531111057E-01 
    9.2051017778481070E-01 
    9.2047272657523727E-01 
    9.4751481595180509E-01 
    8.9790233661356011E-01 
    8.6764906361629934E-01 
    8.6758241406178360E-01 
    8.9784075638058880E-01 
    8.9771869858870312E-01 
    8.6745013634936163E-01 
    8.6725379422251658E-01 
    8.9753733994985985E-01 
    8.9729842298017304E-01 
    8.6699545062957573E-01 
    8.6667766421944703E-01 
    8.9700386620298922E-01 
    8.9665572460417609E-01 
    8.6630367941237341E-01 
    8.6587577881258493E-01 
    8.9625243562661794E-01 
    8.9579279245261778E-01 
    8.6540124594316381E-01 
    8.6490251353733405E-01 
    8.9528166439268786E-01 
    8.9472804018587992E-01 
    8.6440210868819456E-01 
    8.6391320570663721E-01 
    8.9414550651327440E-01 
    8.9355031040714061E-01 
    8.6344960026966444E-01 
    8.6301936346725794E-01 
    8.9294356231353311E-01 
    8.9233446417994078E-01 
    8.6263321915350277E-01 
    8.6229870646615758E-01 
    8.9176182057800224E-01 
    8.9124009082840339E-01 
    8.6200901467156366E-01 
    8.6175561586493243E-01 
    8.9077282000199376E-01 
    8.9036389397088500E-01 
    8.6154010257390967E-01 
    8.6136230104563394E-01 
    8.9001528423181298E-01 
    8.8972572076834988E-01 
    8.6122309269155661E-01 
    8.6112045643387747E-01 
    8.8949257208994714E-01 
    8.8930892228548852E-01 
    8.6105318651017726E-01 
    8.6101758134963424E-01 
    8.8916583341460109E-01 
    8.8906482654920815E-01 
    8.6101070443244987E-01 
    8.6102947204117264E-01 
    8.8900574788478492E-01 
    8.8898474547881501E-01 
    8.6107159139169698E-01 
    8.6113263821759434E-01 
    8.8899682823670900E-01 
    8.8903541737401581E-01 
    8.6120916447754692E-01 
    8.6129721828191030E-01 
    8.8909468752756227E-01 
    8.8916875779942972E-01 
    8.6139408205370527E-01 
    8.6149447556837577E-01 
    8.8924878393911366E-01 
    8.8932905385219907E-01 
    8.6159452132499548E-01 
    8.6168986135785741E-01 
    8.8940671972089558E-01 
    8.8947905974161245E-01 
    8.6177762177184158E-01 
    8.6185486680937728E-01 
    8.8954440421908620E-01 
    8.8960129017806200E-01 
    8.6192011076698061E-01 
    8.6197208250340851E-01 
    8.8964928150938116E-01 
    8.8968832386245045E-01 
    8.6201089188415714E-01 
    8.6203697292545800E-01 
    8.8971934417701293E-01 
    8.3720728764224650E-01 
    8.0993834033809275E-01 
    8.0995962297952928E-01 
    8.3719214984480395E-01 
    8.3716226364249891E-01 
    8.1000105202089179E-01 
    8.1006105573019194E-01 
    8.3711903811876776E-01 
    8.3706397606360061E-01 
    8.1013765082059597E-01 
    8.1022857280241734E-01 
    8.3699954435445845E-01 
    8.3692839895644033E-01 
    8.1033133697701032E-01 
    8.1044332357999549E-01 
    8.3685425152695259E-01 
    8.3678098395475131E-01 
    8.1056188307769184E-01 
    8.1068493831477240E-01 
    8.3670958491463487E-01 
    8.3663588009898482E-01 
    8.1081063492449956E-01 
    8.1093697051476388E-01 
    8.3655696612438335E-01 
    8.3647489578790057E-01 
    8.1106247012808186E-01 
    8.1118583433094982E-01 
    8.3639372737348994E-01 
    8.3631757453255595E-01 
    8.1130643932018320E-01 
    8.1142371844208483E-01 
    8.3625018863660783E-01 
    8.3619324058699562E-01 
    8.1153690384382582E-01 
    8.1164514217595840E-01 
    8.3614787101329702E-01 
    8.3611552022785562E-01 
    8.1174806385387033E-01 
    8.1184506132380763E-01 
    8.3609693991113132E-01 
    8.3609260230670668E-01 
    8.1193619492031954E-01 
    8.1202114546960713E-01 
    8.3610213447967408E-01 
    8.3612484181010205E-01 
    8.1210014447320089E-01 
    8.1217221559754726E-01 
    8.3615902408952225E-01 
    8.3620270141246067E-01 
    8.1223676928541333E-01 
    8.1229397392767688E-01 
    8.3625485209309580E-01 
    8.3631431831449432E-01 
    8.1234425612448213E-01 
    8.1238753666537034E-01 
    8.3637915800253249E-01 
    8.3644746063086339E-01 
    8.1242388094104501E-01 
    8.1245370716155252E-01 
    8.3651764114367422E-01 
    8.3658838341732422E-01 
    8.1247753178628501E-01 
    8.1249568975310138E-01 
    8.3665730404772243E-01 
    8.3672249257164755E-01 
    8.1250860249473955E-01 
    8.1251653399786561E-01 
    8.3678187887603106E-01 
    8.3683404482043722E-01 
    8.1251981038136234E-01 
    8.1251875423479647E-01 
    8.3687758159905601E-01 
    8.3691185964654979E-01 
    8.1251373535215587E-01 
    8.1250523254177398E-01 
    8.3693636536334437E-01 
    8.3695142025703295E-01 
    8.1249376569644860E-01 
    8.1248001663251390E-01 
    8.3695750094058563E-01 
    7.8289476526117452E-01 
    7.5426052769382523E-01 
    7.5429737980191836E-01 
    7.8293935627625599E-01 
    7.8302660120726519E-01 
    7.5437023074364462E-01 
    7.5447655516995749E-01 
    7.8315331941374799E-01 
    7.8331584209439975E-01 
    7.5461337962450115E-01 
    7.5477647645890733E-01 
    7.8350939569380829E-01 
    7.8372911475817941E-01 
    7.5496130903909064E-01 
    7.5516260344889086E-01 
    7.8396911968953809E-01 
    7.8422395760055219E-01 
    7.5537485814015171E-01 
    7.5559661890036656E-01 
    7.8448849845170576E-01 
    7.8475862526258877E-01 
    7.5582166903155845E-01 
    7.5604483093568287E-01 
    7.8502873261995232E-01 
    7.8529479362366517E-01 
    7.5626091658242689E-01 
    7.5646586787181924E-01 
    7.8555187367073531E-01 
    7.8579712504466614E-01 
    7.5665561328186626E-01 
    7.5682772225813977E-01 
    7.8602668329136727E-01 
    7.8623914082974822E-01 
    7.5698333512662186E-01 
    7.5711734274340148E-01 
    7.8643194805159122E-01 
    7.8660428208571131E-01 
    7.5722719543200367E-01 
    7.5731257295820775E-01 
    7.8675409397990359E-01 
    7.8688211888533888E-01 
    7.5737295986975639E-01 
    7.5741014872182033E-01 
    7.8698763612419942E-01 
    7.8707263605900413E-01 
    7.5742563748711567E-01 
    7.5742591638706713E-01 
    7.8713623897959084E-01 
    7.8717991406564680E-01 
    7.5740688998879480E-01 
    7.5737031362621265E-01 
    7.8720407778568546E-01 
    7.8721133274194099E-01 
    7.5731715847211900E-01 
    7.5725011208840431E-01 
    7.8720232674867008E-01 
    7.8717963205652020E-01 
    7.5717080434108497E-01 
    7.5708259707191150E-01 
    7.8714442820740382E-01 
    7.8709953640110097E-01 
    7.5698452324925780E-01 
    7.5688081508745242E-01 
    7.8704674682906772E-01 
    7.8698938657362394E-01 
    7.5677421954342383E-01 
    7.5666821473911006E-01 
    7.8692884813422537E-01 
    7.8686783808274852E-01 
    7.5656481743292814E-01 
    7.5646660522899190E-01 
    7.8680728278325596E-01 
    7.8674925560309517E-01 
    7.5637472602593869E-01 
    7.5629076225983238E-01 
    7.8669420050017980E-01 
    7.8664360693454605E-01 
    7.5621489947448639E-01 
    7.5614767075530753E-01 
    7.8659747300892202E-01 
    7.2049341060810945E-01 
    6.8476783232562499E-01 
    6.8472280689504694E-01 
    7.2048820751264020E-01 
    7.2047743649614038E-01 
    6.8463486057329370E-01 
    6.8450754533061298E-01 
    7.2046118995395347E-01 
    7.2043958245849837E-01 
    6.8434474500120801E-01 
    6.8415154071352968E-01 
    7.2041309209758408E-01 
    7.2038180219024095E-01 
    6.8393305970421170E-01 
    6.8369529782440763E-01 
    7.2034596223576075E-01 
    7.2030521635405920E-01 
    6.8344398341174684E-01 
    6.8318101300384970E-01 
    7.2026019692208954E-01 
    7.2021143053122272E-01 
    6.8291501622458506E-01 
    6.8265163770721360E-01 
    7.2016027732012244E-01 
    7.2010662481037657E-01 
    6.8239559204498090E-01 
    6.8215135786476389E-01 
    7.2005153947197520E-01 
    7.1999432511240269E-01 
    6.8192224939334201E-01 
    6.8171103493467122E-01 
    7.1993575202493199E-01 
    7.1987461339569359E-01 
    6.8151435775933089E-01 
    6.8133862649974608E-01 
    7.1981254481680945E-01 
    7.1974924854491196E-01 
    6.8118596053571034E-01 
    6.8105766966580183E-01 
    7.1968634746124516E-01 
    7.1962343420438268E-01 
    6.8095371242064362E-01 
    6.8087322345923251E-01 
    7.1956228082406137E-01 
    7.1950269393289235E-01 
    6.8081407392747351E-01 
    6.8076964785758687E-01 
    7.1944652602217773E-01 
    7.1939264022008675E-01 
    6.8074410599709068E-01 
    6.8073705542914897E-01 
    7.1934195772147913E-01 
    7.1929361799379610E-01 
    6.8074742892902007E-01 
    6.8077385529576939E-01 
    7.1924897041421609E-01 
    7.1920759402813617E-01 
    6.8081464458218277E-01 
    6.8086341258301220E-01 
    7.1917103420424477E-01 
    7.1913830612807328E-01 
    6.8092314475211302E-01 
    6.8099122125493339E-01 
    7.1910988110888663E-01 
    7.1908451853866895E-01 
    6.8106517286255330E-01 
    6.8114277022315139E-01 
    7.1906294021202433E-01 
    7.1904431262697188E-01 
    6.8122203374260759E-01 
    6.8130127430342780E-01 