# vtk DataFile Version 2.0
Pressure Field Data 
ASCII 
DATASET UNSTRUCTURED_GRID 

POINTS 1681 double 

    0.0000000000000000E+00     0.0000000000000000E+00     0.0000000000000000E+00 
    1.0000000000000000E+00     0.0000000000000000E+00     0.0000000000000000E+00 
    1.0000000000000000E+00     1.0000000000000000E+00     0.0000000000000000E+00 
    0.0000000000000000E+00     1.0000000000000000E+00     0.0000000000000000E+00 
    5.2499999999875258E-01     0.0000000000000000E+00     0.0000000000000000E+00 
    7.4999999999856765E-02     0.0000000000000000E+00     0.0000000000000000E+00 
    1.2499999999975850E-01     0.0000000000000000E+00     0.0000000000000000E+00 
    1.7499999999962990E-01     0.0000000000000000E+00     0.0000000000000000E+00 
    2.2499999999948389E-01     0.0000000000000000E+00     0.0000000000000000E+00 
    2.7499999999933789E-01     0.0000000000000000E+00     0.0000000000000000E+00 
    3.2499999999919210E-01     0.0000000000000000E+00     0.0000000000000000E+00 
    3.7499999999904610E-01     0.0000000000000000E+00     0.0000000000000000E+00 
    4.2499999999890020E-01     0.0000000000000000E+00     0.0000000000000000E+00 
    4.7499999999875958E-01     0.0000000000000000E+00     0.0000000000000000E+00 
    2.4999999999949701E-02     0.0000000000000000E+00     0.0000000000000000E+00 
    5.7499999999887907E-01     0.0000000000000000E+00     0.0000000000000000E+00 
    6.2499999999901101E-01     0.0000000000000000E+00     0.0000000000000000E+00 
    6.7499999999914273E-01     0.0000000000000000E+00     0.0000000000000000E+00 
    7.2499999999927467E-01     0.0000000000000000E+00     0.0000000000000000E+00 
    7.7499999999940661E-01     0.0000000000000000E+00     0.0000000000000000E+00 
    8.2499999999953844E-01     0.0000000000000000E+00     0.0000000000000000E+00 
    8.7499999999967026E-01     0.0000000000000000E+00     0.0000000000000000E+00 
    9.2499999999980220E-01     0.0000000000000000E+00     0.0000000000000000E+00 
    9.7499999999993414E-01     0.0000000000000000E+00     0.0000000000000000E+00 
    5.4999999999881310E-01     0.0000000000000000E+00     0.0000000000000000E+00 
    9.9999999999814140E-02     0.0000000000000000E+00     0.0000000000000000E+00 
    1.4999999999970290E-01     0.0000000000000000E+00     0.0000000000000000E+00 
    1.9999999999955689E-01     0.0000000000000000E+00     0.0000000000000000E+00 
    2.4999999999941089E-01     0.0000000000000000E+00     0.0000000000000000E+00 
    2.9999999999926502E-01     0.0000000000000000E+00     0.0000000000000000E+00 
    3.4999999999911913E-01     0.0000000000000000E+00     0.0000000000000000E+00 
    3.9999999999897312E-01     0.0000000000000000E+00     0.0000000000000000E+00 
    4.4999999999882723E-01     0.0000000000000000E+00     0.0000000000000000E+00 
    4.9999999999869210E-01     0.0000000000000000E+00     0.0000000000000000E+00 
    4.9999999999899403E-02     0.0000000000000000E+00     0.0000000000000000E+00 
    5.9999999999894504E-01     0.0000000000000000E+00     0.0000000000000000E+00 
    6.4999999999907687E-01     0.0000000000000000E+00     0.0000000000000000E+00 
    6.9999999999920870E-01     0.0000000000000000E+00     0.0000000000000000E+00 
    7.4999999999934064E-01     0.0000000000000000E+00     0.0000000000000000E+00 
    7.9999999999947247E-01     0.0000000000000000E+00     0.0000000000000000E+00 
    8.4999999999960441E-01     0.0000000000000000E+00     0.0000000000000000E+00 
    8.9999999999973623E-01     0.0000000000000000E+00     0.0000000000000000E+00 
    9.4999999999986817E-01     0.0000000000000000E+00     0.0000000000000000E+00 
    1.0000000000000000E+00     5.2499999999875258E-01     0.0000000000000000E+00 
    1.0000000000000000E+00     7.4999999999856765E-02     0.0000000000000000E+00 
    1.0000000000000000E+00     1.2499999999975850E-01     0.0000000000000000E+00 
    1.0000000000000000E+00     1.7499999999962990E-01     0.0000000000000000E+00 
    1.0000000000000000E+00     2.2499999999948389E-01     0.0000000000000000E+00 
    1.0000000000000000E+00     2.7499999999933789E-01     0.0000000000000000E+00 
    1.0000000000000000E+00     3.2499999999919210E-01     0.0000000000000000E+00 
    1.0000000000000000E+00     3.7499999999904610E-01     0.0000000000000000E+00 
    1.0000000000000000E+00     4.2499999999890020E-01     0.0000000000000000E+00 
    1.0000000000000000E+00     4.7499999999875958E-01     0.0000000000000000E+00 
    1.0000000000000000E+00     2.4999999999949701E-02     0.0000000000000000E+00 
    1.0000000000000000E+00     5.7499999999887907E-01     0.0000000000000000E+00 
    1.0000000000000000E+00     6.2499999999901101E-01     0.0000000000000000E+00 
    1.0000000000000000E+00     6.7499999999914273E-01     0.0000000000000000E+00 
    1.0000000000000000E+00     7.2499999999927467E-01     0.0000000000000000E+00 
    1.0000000000000000E+00     7.7499999999940661E-01     0.0000000000000000E+00 
    1.0000000000000000E+00     8.2499999999953844E-01     0.0000000000000000E+00 
    1.0000000000000000E+00     8.7499999999967026E-01     0.0000000000000000E+00 
    1.0000000000000000E+00     9.2499999999980220E-01     0.0000000000000000E+00 
    1.0000000000000000E+00     9.7499999999993414E-01     0.0000000000000000E+00 
    1.0000000000000000E+00     5.4999999999881310E-01     0.0000000000000000E+00 
    1.0000000000000000E+00     9.9999999999814140E-02     0.0000000000000000E+00 
    1.0000000000000000E+00     1.4999999999970290E-01     0.0000000000000000E+00 
    1.0000000000000000E+00     1.9999999999955689E-01     0.0000000000000000E+00 
    1.0000000000000000E+00     2.4999999999941089E-01     0.0000000000000000E+00 
    1.0000000000000000E+00     2.9999999999926502E-01     0.0000000000000000E+00 
    1.0000000000000000E+00     3.4999999999911913E-01     0.0000000000000000E+00 
    1.0000000000000000E+00     3.9999999999897312E-01     0.0000000000000000E+00 
    1.0000000000000000E+00     4.4999999999882723E-01     0.0000000000000000E+00 
    1.0000000000000000E+00     4.9999999999869210E-01     0.0000000000000000E+00 
    1.0000000000000000E+00     4.9999999999899403E-02     0.0000000000000000E+00 
    1.0000000000000000E+00     5.9999999999894504E-01     0.0000000000000000E+00 
    1.0000000000000000E+00     6.4999999999907687E-01     0.0000000000000000E+00 
    1.0000000000000000E+00     6.9999999999920870E-01     0.0000000000000000E+00 
    1.0000000000000000E+00     7.4999999999934064E-01     0.0000000000000000E+00 
    1.0000000000000000E+00     7.9999999999947247E-01     0.0000000000000000E+00 
    1.0000000000000000E+00     8.4999999999960441E-01     0.0000000000000000E+00 
    1.0000000000000000E+00     8.9999999999973623E-01     0.0000000000000000E+00 
    1.0000000000000000E+00     9.4999999999986817E-01     0.0000000000000000E+00 
    4.7500000000196618E-01     1.0000000000000000E+00     0.0000000000000000E+00 
    9.2499999999968763E-01     1.0000000000000000E+00     0.0000000000000000E+00 
    8.7499999999961831E-01     1.0000000000000000E+00     0.0000000000000000E+00 
    8.2499999999982654E-01     1.0000000000000000E+00     0.0000000000000000E+00 
    7.7500000000017355E-01     1.0000000000000000E+00     0.0000000000000000E+00 
    7.2500000000052045E-01     1.0000000000000000E+00     0.0000000000000000E+00 
    6.7500000000086724E-01     1.0000000000000000E+00     0.0000000000000000E+00 
    6.2500000000121403E-01     1.0000000000000000E+00     0.0000000000000000E+00 
    5.7500000000156093E-01     1.0000000000000000E+00     0.0000000000000000E+00 
    5.2500000000189684E-01     1.0000000000000000E+00     0.0000000000000000E+00 
    9.7499999999989595E-01     1.0000000000000000E+00     0.0000000000000000E+00 
    4.2500000000176902E-01     1.0000000000000000E+00     0.0000000000000000E+00 
    3.7500000000156092E-01     1.0000000000000000E+00     0.0000000000000000E+00 
    3.2500000000135282E-01     1.0000000000000000E+00     0.0000000000000000E+00 
    2.7500000000114472E-01     1.0000000000000000E+00     0.0000000000000000E+00 
    2.2500000000093659E-01     1.0000000000000000E+00     0.0000000000000000E+00 
    1.7500000000072849E-01     1.0000000000000000E+00     0.0000000000000000E+00 
    1.2500000000052039E-01     1.0000000000000000E+00     0.0000000000000000E+00 
    7.5000000000312261E-02     1.0000000000000000E+00     0.0000000000000000E+00 
    2.5000000000104109E-02     1.0000000000000000E+00     0.0000000000000000E+00 
    4.5000000000187301E-01     1.0000000000000000E+00     0.0000000000000000E+00 
    8.9999999999958358E-01     1.0000000000000000E+00     0.0000000000000000E+00 
    8.4999999999965303E-01     1.0000000000000000E+00     0.0000000000000000E+00 
    8.0000000000000004E-01     1.0000000000000000E+00     0.0000000000000000E+00 
    7.5000000000034706E-01     1.0000000000000000E+00     0.0000000000000000E+00 
    7.0000000000069384E-01     1.0000000000000000E+00     0.0000000000000000E+00 
    6.5000000000104063E-01     1.0000000000000000E+00     0.0000000000000000E+00 
    6.0000000000138742E-01     1.0000000000000000E+00     0.0000000000000000E+00 
    5.5000000000173432E-01     1.0000000000000000E+00     0.0000000000000000E+00 
    5.0000000000205946E-01     1.0000000000000000E+00     0.0000000000000000E+00 
    9.4999999999979179E-01     1.0000000000000000E+00     0.0000000000000000E+00 
    4.0000000000166491E-01     1.0000000000000000E+00     0.0000000000000000E+00 
    3.5000000000145681E-01     1.0000000000000000E+00     0.0000000000000000E+00 
    3.0000000000124871E-01     1.0000000000000000E+00     0.0000000000000000E+00 
    2.5000000000104061E-01     1.0000000000000000E+00     0.0000000000000000E+00 
    2.0000000000083251E-01     1.0000000000000000E+00     0.0000000000000000E+00 
    1.5000000000062441E-01     1.0000000000000000E+00     0.0000000000000000E+00 
    1.0000000000041630E-01     1.0000000000000000E+00     0.0000000000000000E+00 
[...]
CELL_DATA 1600 
SCALARS Pressure double 1 
LOOKUP_TABLE default 

    9.9517299557705186E-01 
    9.7686987740905851E-01 
    9.7678877302623601E-01 
    9.9332902980599114E-01 
    9.9166123213473523E-01 
    9.7664365851845403E-01 
    9.7644777236649472E-01 
    9.9014645489050634E-01 
    9.8876682438157359E-01 
    9.7621252907728817E-01 
    9.7594711943651924E-01 
    9.8751011539247058E-01 
    9.8636604930477889E-01 
    9.7566026265862782E-01 
    9.7535851404662799E-01 
    9.8532514909260238E-01 
    9.8437898867757467E-01 
    9.7504800414089732E-01 
    9.7473384681984454E-01 
    9.8352066154277906E-01 
    9.8274449240049166E-01 
    9.7442147923904898E-01 
    9.7411475391770153E-01 
    9.8204527226842442E-01 
    9.8141802863892524E-01 
    9.7381732724684489E-01 
    9.7353153656960834E-01 
    9.8085812648802517E-01 
    9.8036124752544029E-01 
    9.7325938571973547E-01 
    9.7300269941350037E-01 
    9.7992403871655809E-01 
    9.7954206926326859E-01 
    9.7276310592761805E-01 
    9.7254092215766053E-01 
    9.7921093742051890E-01 
    9.7892600804674623E-01 
    9.7233606808373096E-01 
    9.7214807496637856E-01 
    9.7868262833933906E-01 
    9.7847590293206277E-01 
    9.7197577314197525E-01 
    9.7181797260160563E-01 
    9.7830128828846996E-01 
    9.7815461205568266E-01 
    9.7167333851940774E-01 
    9.7154199085431070E-01 
    9.7803414441345260E-01 
    9.7793829665867493E-01 
    9.7142329030349250E-01 
    9.7131723155708005E-01 
    9.7786575644796814E-01 
    9.7781565617333455E-01 
    9.7122321420924118E-01 
    9.7114114065660850E-01 
    9.7778656360776706E-01 
    9.7778227397923456E-01 
    9.7107449797606149E-01 
    9.7102679838698536E-01 
    9.7779050300883819E-01 
    9.7780448779166151E-01 
    9.7098977071304582E-01 
    9.7095697952806093E-01 
    9.7782015987773219E-01 
    9.7783317586092500E-01 
    9.7092697896485247E-01 
    9.7089935675657113E-01 
    9.7783943462384826E-01 
    9.7783624454721307E-01 
    9.7087153452036190E-01 
    9.7084294267074889E-01 
    9.7782102540869642E-01 
    9.7779267934574776E-01 
    9.7081193646621577E-01 
    9.7077901070576811E-01 
    9.7775011333273587E-01 
    9.7769373069458076E-01 
    9.7074348090473184E-01 
    9.7070681471223230E-01 
    9.7762386153475700E-01 
    9.6609510958264877E-01 
    9.5563269786999927E-01 
    9.5560691948136378E-01 
    9.6606678840628202E-01 
    9.6601093772563928E-01 
    9.5555583535103927E-01 
    9.5548021837601760E-01 
    9.6592832182445421E-01 
    9.6582022586145955E-01 
    9.5538060739863351E-01 
    9.5525799578958792E-01 
    9.6568806062719015E-01 
    9.6553411078023832E-01 
    9.5511361199764910E-01 
    9.5494904709454953E-01 
    9.6536052688962071E-01 
    9.6516986527009985E-01 
    9.5476587263166568E-01 
    9.5456590827905563E-01 
    9.6496470983562321E-01 
    9.6474812603132021E-01 
    9.5435092366390106E-01 
    9.5412256860868239E-01 
    9.6452262563639646E-01 
    9.6429086291210586E-01 
    9.5388263085716551E-01 
    9.5363270621089513E-01 
    9.6405490881466382E-01 
    9.6381655016657719E-01 
    9.5337422409610462E-01 
    9.5310900779862096E-01 
    9.6357792706116463E-01 
    9.6334112266476979E-01 
    9.5283920489765939E-01 
    9.5256635658940503E-01 
    9.6310746188223517E-01 
    9.6287791385399701E-01 
    9.5229197081095707E-01 
    9.5201740950248737E-01 
    9.6265334973344807E-01 
    9.6243404681803291E-01 
    9.5174395109232546E-01 
    9.5147247535365498E-01 
    9.6222019367598588E-01 
    9.6201212445815532E-01 
    9.5120435629615518E-01 
    9.5094068841211155E-01 
    9.6181077251624936E-01 
    9.6161654630122428E-01 
    9.5068253803156122E-01 
    9.5043066669679910E-01 
    9.6142999086011627E-01 
    9.6125149500502305E-01 
    9.5018601449174800E-01 
    9.4995009262280750E-01 
    9.6108205809233083E-01 
    9.6092286094834745E-01 
    9.4972516339725133E-01 
    9.4951227434929619E-01 
    9.6078059283115613E-01 
    9.6065692819139537E-01 
    9.4931232816291011E-01 
    9.4912623561426068E-01 
    9.6054656176083675E-01 
    9.6044571888505281E-01 
    9.4895522034540503E-01 
    9.4880307334819103E-01 
    9.6035449101574988E-01 
    9.6027559506709259E-01 
    9.4867266845483333E-01 
    9.4856547587507656E-01 
    9.6020963849288021E-01 
    9.6015657159246948E-01 
    9.4848336583491466E-01 
    9.4842744393700329E-01 
    9.6011703402488469E-01 
    9.6009138464922816E-01 
    9.4839879231295188E-01 
    9.4839840362965699E-01 
    9.6008071582787202E-01 
    9.4436539078397275E-01 
    9.3212277289187839E-01 
    9.3210777704837544E-01 
    9.4434287147148355E-01 
    9.4429830371302104E-01 
    9.3207773325340926E-01 
    9.3203286197888213E-01 
    9.4423194233254304E-01 
    9.4414425955383730E-01 
    9.3197297209138963E-01 
    9.3189822874222639E-01 
    9.4403565261657241E-01 
    9.4390696054750556E-01 
    9.3180849571828439E-01 
    9.3170414013633585E-01 
    9.4375902766374364E-01 
    9.4359314265662420E-01 
    9.3158546145316634E-01 
    9.3145279869493025E-01 
    9.4341034911848598E-01 
    9.4321166629948472E-01 
    9.3130580927407802E-01 
    9.3114413289854536E-01 
    9.4299769388075771E-01 
    9.4276949300564727E-01 
    9.3096745914089074E-01 
    9.3077592955863908E-01 
    9.4252799802089726E-01 
    9.4227437399413483E-01 
    9.3056978308045801E-01 
    9.3034967635403898E-01 
    9.4200993239110242E-01 
    9.4173665580308730E-01 
    9.3011693980624288E-01 
    9.2987289053518185E-01 
    9.4145609695064891E-01 
    9.4116989517522920E-01 
    9.2961890151120086E-01 
    9.2935661464724961E-01 
    9.4087971274671878E-01 
    9.4058726921000546E-01 
    9.2908791573720506E-01 
    9.2881470013390821E-01 
    9.4029414149760837E-01 
    9.4000225604287935E-01 
    9.2853946388282560E-01 
    9.2826366449701658E-01 
    9.3971300439380989E-01 
    9.3942745615032053E-01 
    9.2798861663133447E-01 
    9.2771546835367114E-01 
    9.3914677645298517E-01 
    9.3887194146210851E-01 
    9.2744570575399121E-01 
    9.2718063272079210E-01 
    9.3860451503368503E-01 
    9.3834630535922003E-01 
    9.2692194293776353E-01 
    9.2667098435106465E-01 
    9.3809871721554738E-01 
    9.3786152112329402E-01 
    9.2642994751405305E-01 
    9.2620152977383663E-01 
    9.3763513764355610E-01 
    9.3742175335186917E-01 
    9.2598659228993652E-01 
    9.2578688900331019E-01 
    9.3722851966450860E-01 
    9.3706173888342315E-01 
    9.2560551960803839E-01 
    9.2545211099956726E-01 
    9.3692560197712915E-01 
    9.3682202923084568E-01 
    9.2533707587081315E-01 
    9.2525971085125192E-01 
    9.3675244656326373E-01 
    9.3671786652642519E-01 
    9.2522034784522988E-01 
    9.2521941393826723E-01 
    9.3671966934339845E-01 
    9.1883466518658674E-01 
    9.0443524003283260E-01 
    9.0444142559089002E-01 
    9.1883063310444368E-01 
    9.1882243377461692E-01 
    9.0445353255925431E-01 
    9.0447108779099916E-01 
    9.1880974195349052E-01 
    9.1879206885801601E-01 
    9.0449331865665017E-01 
    9.0451928145265148E-01 
    9.1876880002539396E-01 
    9.1873922789234752E-01 
    9.0454772535181083E-01 
    9.0457708640823520E-01 
    9.1870258551981887E-01 
    9.1865814282671676E-01 
    9.0460517802700713E-01 
    9.0462977654710719E-01 
    9.1860465831143678E-01 
    9.1854081241314023E-01 
    9.0464861211877778E-01 
    9.0465914015336846E-01 
    9.1846474929799404E-01 
    9.1837509994269151E-01 
    9.0465869457865256E-01 
    9.0464483363151271E-01 
    9.1827038248288961E-01 
    9.1814988142520326E-01 
    9.0461492928806619E-01 
    9.0456707895320987E-01 
    9.1801272056010941E-01 
    9.1785975603399772E-01 
    9.0450101272395400E-01 
    9.0441697398561738E-01 
    9.1769130991130921E-01 
    9.1750861794824190E-01 
    9.0431530562330542E-01 
    9.0419724721029482E-01 
    9.1731276264675998E-01 
    9.1710588123962311E-01 
    9.0406441546495986E-01 
    9.0391929417063344E-01 
    9.1688987301669911E-01 
    9.1666772710240263E-01 
    9.0376467352191503E-01 
    9.0360243970512266E-01 
    9.1644087103916372E-01 
    9.1621067219697216E-01 
    9.0343341818896472E-01 
    9.0325877777027941E-01 
    9.1597826777683000E-01 
    9.1574546809065360E-01 
    9.0307994360926280E-01 
    9.0289864117394791E-01 
    9.1551375702303239E-01 
    9.1528501373125137E-01 
    9.0271664783488637E-01 
    9.0253555765189208E-01 
    9.1506060725692151E-01 
    9.1484254012960775E-01 
    9.0235667523142771E-01 
    9.0218367142728595E-01 
    9.1463492951525438E-01 
    9.1444120609771140E-01 
    9.0202032725750392E-01 
    9.0186888781828589E-01 
    9.1426212464629342E-01 
    9.1409598525689362E-01 
    9.0172871326842019E-01 
    9.0159094726352162E-01 
    9.1394339823888138E-01 
    9.1382425348193919E-01 
    9.0147381504415536E-01 
    9.0139208305835050E-01 
    9.1374462850919980E-01 
    9.1370033032150499E-01 
    9.0133884574218304E-01 
    9.0131353748739085E-01 
    9.1369173914112345E-01 
    8.8838426769573342E-01 
    8.6924047318941100E-01 
    8.6923240158436810E-01 
    8.8838798807175345E-01 
    8.8839617121226266E-01 
    8.6921609253495580E-01 
    8.6919207266513743E-01 
    8.8840891749035700E-01 
    8.8842637681422476E-01 
    8.6916080412834185E-01 
    8.6912327296942526E-01 
    8.8844813735961492E-01 
    8.8847384871258339E-01 
    8.6908017069626053E-01 
    8.6903186716026226E-01 
    8.8850227252186198E-01 
    8.8853170865380116E-01 
    8.6897778063106701E-01 
    8.6891854985127059E-01 
    8.8856034462853550E-01 
    8.8858591137583842E-01 
    8.6885552973167979E-01 
    8.6879101739148068E-01 
    8.8860634359972279E-01 
    8.8861979873807517E-01 
    8.6872641970504627E-01 
    8.6866257609444175E-01 
    8.8862404347446744E-01 
    8.8861647644842801E-01 
    8.6859901036950571E-01 
    8.6853635785795769E-01 
    8.8859493269140333E-01 
    8.8856201861563444E-01 
    8.6847473849112977E-01 
    8.6841528568610749E-01 
    8.8851514930688547E-01 
    8.8845455197689716E-01 
    8.6835810376863487E-01 
    8.6830379120725310E-01 
    8.8838100326023262E-01 
    8.8829601081505405E-01 
    8.6825194613985335E-01 
    8.6820275984166806E-01 
    8.8820183922200224E-01 
    8.8810130960032019E-01 
    8.6815510481335267E-01 
    8.6810869072376085E-01 
    8.8800015720490377E-01 
    8.8789563215843248E-01 
    8.6806326791072563E-01 
    8.6801937479920888E-01 
    8.8778763552366946E-01 
    8.8767666225579178E-01 
    8.6797670261852911E-01 
    8.6793578935584392E-01 
    8.8756370359730030E-01 
    8.8745024105037618E-01 
    8.6789651572877569E-01 
    8.6785962340652190E-01 
    8.8733773495373103E-01 
    8.8722392418399254E-01 
    8.6782444872962117E-01 
    8.6779148746260826E-01 
    8.8711122486242988E-01 
    8.8700207007653753E-01 
    8.6776029541453037E-01 
    8.6773066841405222E-01 
    8.8689809027340560E-01 
    8.8679919028343823E-01 
    8.6769971984504135E-01 
    8.6766329880438886E-01 
    8.8669691136227613E-01 
    8.8660194699129269E-01 
    8.6762766860977691E-01 
    8.6760037499794729E-01 
    8.8652887574859940E-01 
    8.8647265459250724E-01 
    8.6757842676660002E-01 
    8.6756115686462354E-01 
    8.8643235147532606E-01 
    8.4805043170875061E-01 
    8.2807579691190158E-01 
    8.2807138872292230E-01 
    8.4803294687949793E-01 
    8.4799858121010641E-01 
    8.2806288457824040E-01 
    8.2805059681520488E-01 
    8.4794848472426476E-01 
    8.4788392366422582E-01 
    8.2803508645472257E-01 
    8.2801685898785315E-01 
    8.4780668905354062E-01 
    8.4771855029739451E-01 
    8.2799666564239849E-01 
    8.2797472486078239E-01 
    8.4762088296715643E-01 
    8.4751477261156938E-01 
    8.2795159194321288E-01 
    8.2792843114902259E-01 
    8.4740286457201064E-01 
    8.4729029506340614E-01 
    8.2790734543494349E-01 
    8.2788979923201556E-01 
    8.4718040502185332E-01 
    8.4707586823133407E-01 
    8.2787746334822743E-01 
    8.2787009826331437E-01 
    8.4697803355782231E-01 
    8.4688779525417357E-01 
    8.2786828006404556E-01 
    8.2787257428015226E-01 
    8.4680837572460521E-01 
    8.4673920596973695E-01 
    8.2788312069787073E-01 
    8.2789908230401599E-01 
    8.4668283860698723E-01 
    8.4663935638972587E-01 
    8.2792104635242136E-01 
    8.2794817392235731E-01 
    8.4660890320353777E-01 
    8.4659038213339921E-01 
    8.2798006183988537E-01 
    8.2801462731058606E-01 
    8.4658247766685168E-01 
    8.4658249987320910E-01 
    8.2805094123092593E-01 
    8.2808762339657915E-01 
    8.4658593037939001E-01 
    8.4659427520105202E-01 
    8.2812411534814911E-01 
    8.2815993708948887E-01 
    8.4660775873392913E-01 
    8.4662562512350936E-01 
    8.2819516197472176E-01 
    8.2822863221657350E-01 
    8.4664754059966307E-01 
    8.4667262469175786E-01 
    8.2826040353674890E-01 
    8.2829061121194181E-01 
    8.4670081891597526E-01 
    8.4673347029386958E-01 
    8.2832065725377946E-01 
    8.2834958705199946E-01 
    8.4676892904510304E-01 
    8.4680498104700375E-01 
    8.2837661075870028E-01 
    8.2839945844770624E-01 
    8.4683940574951944E-01 
    8.4686710800019049E-01 
    8.2841457698735899E-01 
    8.2842115438349639E-01 
    8.4688764227340607E-01 
    8.4690921485473358E-01 
    8.2842854345759742E-01 
    8.2843881441741885E-01 
    8.4693270804024878E-01 
    8.4695478872848362E-01 
    8.2844981693401010E-01 
    8.2846147430495509E-01 
    8.4697571005233774E-01 
    8.0857977600028874E-01 
    7.8844333529579447E-01 
    7.8847987394809782E-01 
    8.0859747728487918E-01 
    8.0863206140397215E-01 
    7.8855198880032029E-01 
    7.8865780167889710E-01 
    8.0868318199770595E-01 
    8.0874966343506771E-01 
    7.8879536248215376E-01 
    7.8896180286146467E-01 
    8.0883071566888298E-01 
    8.0892482065810589E-01 
    7.8915464592388918E-01 
    7.8937231463349433E-01 
    8.0903118604116719E-01 
    8.0914817202456424E-01 
    7.8961154435832914E-01 
    7.8986598116223727E-01 
    8.0927379297132773E-01 
    8.0940652999457408E-01 
    7.9013054827110263E-01 
    7.9040155080585184E-01 
    8.0954580056748204E-01 
    8.0969187225531747E-01 
    7.9067964944283975E-01 
    7.9096925162324727E-01 
    8.0984607377175721E-01 
    8.1000729837871754E-01 
    7.9126963168502795E-01 
    7.9157288937306813E-01 
    8.1017097098680291E-01 
    8.1033303491525610E-01 
    7.9187082471541581E-01 
    7.9215808992942149E-01 
    8.1049118692836353E-01 
    8.1064416195364863E-01 
    7.9243140170698834E-01 
    7.9269112335919822E-01 
    8.1079073076856323E-01 
    8.1092869135057444E-01 
    7.9293252278513093E-01 
    7.9313954443459145E-01 
    8.1105353482104015E-01 
    8.1116228730001694E-01 
    7.9330446346069128E-01 
    7.9342949907198113E-01 
    8.1125359367245853E-01 
    8.1132786191217021E-01 
    7.9351639753652459E-01 
    7.9356826636490529E-01 
    8.1138652427994118E-01 
    8.1143075798160602E-01 
    7.9358885804815793E-01 
    7.9358219027879962E-01 
    8.1145975673284620E-01 
    8.1147323471211696E-01 
    7.9355135163288160E-01 
    7.9349803429624088E-01 
    8.1147265218657350E-01 
    8.1146156335348207E-01 
    7.9342291880585003E-01 
    7.9332721900824643E-01 
    8.1144148996875498E-01 
    8.1141114098313838E-01 
    7.9321376612639083E-01 
    7.9308736227500165E-01 
    8.1136541326720868E-01 
    8.1130258283330414E-01 
    7.9296248162162319E-01 
    7.9286012493092262E-01 
    8.1123959780398636E-01 
    8.1119161135096463E-01 
    7.9278117898960743E-01 
    7.9271915682470773E-01 
    8.1115641447679665E-01 
    8.1113321468197719E-01 
    7.9267357834211094E-01 
    7.9264433401181966E-01 
    8.1112172338444388E-01 
    7.6721276060924981E-01 
    7.4384397177581607E-01 
    7.4387381919461415E-01 
    7.6725763086582943E-01 
    7.6734581583059558E-01 
    7.4393326950385052E-01 
    7.4402067583615206E-01 
    7.6747492163829889E-01 
    7.6764201988301151E-01 
    7.4413436901351904E-01 
    7.4427143549260655E-01 
    7.6784323650637742E-01 
    7.6807539949908621E-01 
    7.4442981182803525E-01 
    7.4460818643071314E-01 
    7.6833687208633716E-01 
    7.6862355504866708E-01 
    7.4480295703972821E-01 
    7.4501038204224990E-01 
    7.6892705398246053E-01 
    7.6923960584102569E-01 
    7.4522303115642285E-01 
    7.4543389331037080E-01 
    7.6955380290562625E-01 
    7.6986851985238769E-01 
    7.4563915554689641E-01 
    7.4583789060790018E-01 
    7.7018583317109635E-01 
    7.7050470910679369E-01 
    7.4602434686177554E-01 
    7.4618765077783855E-01 
    7.7081744329244806E-01 
    7.7111525145017434E-01 
    7.4631252169879203E-01 
    7.4638366437185999E-01 
    7.7138860460707837E-01 
    7.7163083067261751E-01 
    7.4640199824722619E-01 
    7.4638100786143458E-01 
    7.7183984435906627E-01 
    7.7201284154242733E-01 
    7.4633971737966609E-01 
    7.4629456301710995E-01 
    7.7214383699151934E-01 
    7.7223804819123332E-01 
    7.4624618969848378E-01 
    7.4619475234181543E-01 
    7.7229824466858599E-01 
    7.7232634208594542E-01 
    7.4613522632781337E-01 
    7.4606870968946970E-01 
    7.7232341630689416E-01 
    7.7229398039144803E-01 
    7.4599454042531477E-01 
    7.4591255020825786E-01 
    7.7224225193531204E-01 
    7.7217366641203133E-01 
    7.4582206486244873E-01 
    7.4572665541825889E-01 
    7.7208928971140645E-01 
    7.7199016132969034E-01 
    7.4562863362141540E-01 
    7.4553323567190888E-01 
    7.7187802200971101E-01 
    7.7176117329962757E-01 
    7.4544047798654289E-01 
    7.4534874697271258E-01 
    7.7165031930578620E-01 
    7.7155590071355140E-01 
    7.4525657421199176E-01 
    7.4516583467272490E-01 
    7.7147573685107895E-01 
    7.7140402530632490E-01 
    7.4507800643273014E-01 
    7.4499513250133953E-01 
    7.7133835135600515E-01 
    7.7128043577882077E-01 
    7.4491795838025776E-01 
    7.4484769608858048E-01 
    7.7123024922968231E-01 
    7.1595990279687738E-01 
    6.8594927141063089E-01 
    6.8588643198793142E-01 
    7.1594636155289648E-01 
    7.1591987118275235E-01 
    6.8576342301320448E-01 
    6.8558437450255461E-01 
    7.1588123933637826E-01 
    7.1583170781045669E-01 
    6.8535390651301753E-01 
    6.8507781952853042E-01 
    7.1577264526548434E-01 
    7.1570528408005651E-01 
    6.8476158724477731E-01 
    6.8440846870461292E-01 
    7.1563001258839787E-01 
    7.1554631783850420E-01 
    6.8402117081570091E-01 
    6.8359917585175778E-01 
    7.1545427076140322E-01 
    7.1535223904795631E-01 
    6.8313678115986598E-01 
    6.8262176199963753E-01 
    7.1523789532789173E-01 
    7.1510544867308601E-01 
    6.8205595420947562E-01 
    6.8144784080180776E-01 
    7.1494752583971100E-01 
    7.1474889267216657E-01 
    6.8079600162703369E-01 
    6.8015075763027177E-01 
    7.1450165989444370E-01 
    7.1422247060576094E-01 
    6.7956551944448285E-01 
    6.7904916945268878E-01 
    7.1393790080383190E-01 
    7.1366582593028827E-01 
    6.7860090156220532E-01 
    6.7821025579335670E-01 
    7.1342090437082750E-01 
    7.1321005535354154E-01 
    6.7786520766783620E-01 
    6.7756066663337389E-01 
    7.1302510840371203E-01 
    7.1285311630190218E-01 
    6.7729368597954331E-01 
    6.7705705951644057E-01 
    7.1269333077145591E-01 
    7.1254432672644652E-01 
    6.7685427381909502E-01 
    6.7668438366722350E-01 
    7.1240657171559318E-01 
    7.1227874009190240E-01 
    6.7654562177314559E-01 
    6.7643602564538752E-01 
    7.1216164503588597E-01 
    7.1205433588416311E-01 
    6.7635314605843944E-01 
    6.7629017031028382E-01 
    7.1195776939064370E-01 
    7.1187074799202688E-01 
    6.7624936684699755E-01 
    6.7622783980205947E-01 
    7.1179345756888324E-01 
    7.1172437156799540E-01 
    6.7622267775770406E-01 
    6.7623143582487255E-01 
    7.1166385262505893E-01 
    7.1161078274422707E-01 
    6.7625176753876126E-01 
    6.7628186941302870E-01 