# vtk DataFile Version 2.0
Pressure Field Data 
ASCII 
DATASET UNSTRUCTURED_GRID 

POINTS 1681 double 

    0.0000000000000000E+00     0.0000000000000000E+00     0.0000000000000000E+00 
    1.0000000000000000E+00     0.0000000000000000E+00     0.0000000000000000E+00 
    1.0000000000000000E+00     1.0000000000000000E+00     0.0000000000000000E+00 
    0.0000000000000000E+00     1.0000000000000000E+00     0.0000000000000000E+00 
    5.2499999999875258E-01     0.0000000000000000E+00     0.0000000000000000E+00 
    7.4999999999856765E-02     0.0000000000000000E+00     0.0000000000000000E+00 
    1.2499999999975850E-01     0.0000000000000000E+00     0.0000000000000000E+00 
    1.7499999999962990E-01     0.0000000000000000E+00     0.0000000000000000E+00 
    2.2499999999948389E-01     0.0000000000000000E+00     0.0000000000000000E+00 
    2.7499999999933789E-01     0.0000000000000000E+00     0.0000000000000000E+00 
    3.2499999999919210E-01     0.0000000000000000E+00     0.0000000000000000E+00 
    3.7499999999904610E-01     0.0000000000000000E+00     0.0000000000000000E+00 
    4.2499999999890020E-01     0.0000000000000000E+00     0.0000000000000000E+00 
    4.7499999999875958E-01     0.0000000000000000E+00     0.0000000000000000E+00 
    2.4999999999949701E-02     0.0000000000000000E+00     0.0000000000000000E+00 
    5.7499999999887907E-01     0.0000000000000000E+00     0.0000000000000000E+00 
    6.2499999999901101E-01     0.0000000000000000E+00     0.0000000000000000E+00 
    6.7499999999914273E-01     0.0000000000000000E+00     0.0000000000000000E+00 
    7.2499999999927467E-01     0.0000000000000000E+00     0.0000000000000000E+00 
    7.7499999999940661E-01     0.0000000000000000E+00     0.0000000000000000E+00 
    8.2499999999953844E-01     0.0000000000000000E+00     0.0000000000000000E+00 
    8.7499999999967026E-01     0.0000000000000000E+00     0.0000000000000000E+00 
    9.2499999999980220E-01     0.0000000000000000E+00     0.0000000000000000E+00 
    9.7499999999993414E-01     0.0000000000000000E+00     0.0000000000000000E+00 
    5.4999999999881310E-01     0.0000000000000000E+00     0.0000000000000000E+00 
    9.9999999999814140E-02     0.0000000000000000E+00     0.0000000000000000E+00 
    1.4999999999970290E-01     0.0000000000000000E+00     0.0000000000000000E+00 
    1.9999999999955689E-01     0.0000000000000000E+00     0.0000000000000000E+00 
    2.4999999999941089E-01     0.0000000000000000E+00     0.0000000000000000E+00 
    2.9999999999926502E-01     0.0000000000000000E+00     0.0000000000000000E+00 
    3.4999999999911913E-01     0.0000000000000000E+00     0.0000000000000000E+00 
    3.9999999999897312E-01     0.0000000000000000E+00     0.0000000000000000E+00 
    4.4999999999882723E-01     0.0000000000000000E+00     0.0000000000000000E+00 
    4.9999999999869210E-01     0.0000000000000000E+00     0.0000000000000000E+00 
    4.9999999999899403E-02     0.0000000000000000E+00     0.0000000000000000E+00 
    5.9999999999894504E-01     0.0000000000000000E+00     0.0000000000000000E+00 
    6.4999999999907687E-01     0.0000000000000000E+00     0.0000000000000000E+00 
    6.9999999999920870E-01     0.0000000000000000E+00     0.0000000000000000E+00 
    7.4999999999934064E-01     0.0000000000000000E+00     0.0000000000000000E+00 
    7.9999999999947247E-01     0.0000000000000000E+00     0.0000000000000000E+00 
    8.4999999999960441E-01     0.0000000000000000E+00     0.0000000000000000E+00 
    8.9999999999973623E-01     0.0000000000000000E+00     0.0000000000000000E+00 
    9.4999999999986817E-01     0.0000000000000000E+00     0.0000000000000000E+00 
    1.0000000000000000E+00     5.2499999999875258E-01     0.0000000000000000E+00 
    1.0000000000000000E+00     7.4999999999856765E-02     0.0000000000000000E+00 
    1.0000000000000000E+00     1.2499999999975850E-01     0.0000000000000000E+00 
    1.0000000000000000E+00     1.7499999999962990E-01     0.0000000000000000E+00 
    1.0000000000000000E+00     2.2499999999948389E-01     0.0000000000000000E+00 
    1.0000000000000000E+00     2.7499999999933789E-01     0.0000000000000000E+00 
    1.0000000000000000E+00     3.2499999999919210E-01     0.0000000000000000E+00 
    1.0000000000000000E+00     3.7499999999904610E-01     0.0000000000000000E+00 
    1.0000000000000000E+00     4.2499999999890020E-01     0.0000000000000000E+00 
    1.0000000000000000E+00     4.7499999999875958E-01     0.0000000000000000E+00 
    1.0000000000000000E+00     2.4999999999949701E-02     0.0000000000000000E+00 
    1.0000000000000000E+00     5.7499999999887907E-01     0.0000000000000000E+00 
    1.0000000000000000E+00     6.2499999999901101E-01     0.0000000000000000E+00 
    1.0000000000000000E+00     6.7499999999914273E-01     0.0000000000000000E+00 
    1.0000000000000000E+00     7.2499999999927467E-01     0.0000000000000000E+00 
    1.0000000000000000E+00     7.7499999999940661E-01     0.0000000000000000E+00 
    1.0000000000000000E+00     8.2499999999953844E-01     0.0000000000000000E+00 
    1.0000000000000000E+00     8.7499999999967026E-01     0.0000000000000000E+00 
    1.0000000000000000E+00     9.2499999999980220E-01     0.0000000000000000E+00 
    1.0000000000000000E+00     9.7499999999993414E-01     0.0000000000000000E+00 
    1.0000000000000000E+00     5.4999999999881310E-01     0.0000000000000000E+00 
    1.0000000000000000E+00     9.9999999999814140E-02     0.0000000000000000E+00 
    1.0000000000000000E+00     1.4999999999970290E-01     0.0000000000000000E+00 
    1.0000000000000000E+00     1.9999999999955689E-01     0.0000000000000000E+00 
    1.0000000000000000E+00     2.4999999999941089E-01     0.0000000000000000E+00 
    1.0000000000000000E+00     2.9999999999926502E-01     0.0000000000000000E+00 
    1.0000000000000000E+00     3.4999999999911913E-01     0.0000000000000000E+00 
    1.0000000000000000E+00     3.9999999999897312E-01     0.0000000000000000E+00 
    1.0000000000000000E+00     4.4999999999882723E-01     0.0000000000000000E+00 
    1.0000000000000000E+00     4.9999999999869210E-01     0.0000000000000000E+00 
    1.0000000000000000E+00     4.9999999999899403E-02     0.0000000000000000E+00 
    1.0000000000000000E+00     5.9999999999894504E-01     0.0000000000000000E+00 
    1.0000000000000000E+00     6.4999999999907687E-01     0.0000000000000000E+00 
    1.0000000000000000E+00     6.9999999999920870E-01     0.0000000000000000E+00 
    1.0000000000000000E+00     7.4999999999934064E-01     0.0000000000000000E+00 
    1.0000000000000000E+00     7.9999999999947247E-01     0.0000000000000000E+00 
    1.0000000000000000E+00     8.4999999999960441E-01     0.0000000000000000E+00 
    1.0000000000000000E+00     8.9999999999973623E-01     0.0000000000000000E+00 
    1.0000000000000000E+00     9.4999999999986817E-01     0.0000000000000000E+00 
    4.7500000000196618E-01     1.0000000000000000E+00     0.0000000000000000E+00 
    9.2499999999968763E-01     1.0000000000000000E+00     0.0000000000000000E+00 
    8.7499999999961831E-01     1.0000000000000000E+00     0.0000000000000000E+00 
    8.2499999999982654E-01     1.0000000000000000E+00     0.0000000000000000E+00 
    7.7500000000017355E-01     1.0000000000000000E+00     0.0000000000000000E+00 
    7.2500000000052045E-01     1.0000000000000000E+00     0.0000000000000000E+00 
    6.7500000000086724E-01     1.0000000000000000E+00     0.0000000000000000E+00 
    6.2500000000121403E-01     1.0000000000000000E+00     0.0000000000000000E+00 
    5.7500000000156093E-01     1.0000000000000000E+00     0.0000000000000000E+00 
    5.2500000000189684E-01     1.0000000000000000E+00     0.0000000000000000E+00 
    9.7499999999989595E-01     1.0000000000000000E+00     0.0000000000000000E+00 
    4.2500000000176902E-01     1.0000000000000000E+00     0.0000000000000000E+00 
    3.7500000000156092E-01     1.0000000000000000E+00     0.0000000000000000E+00 
    3.2500000000135282E-01     1.0000000000000000E+00     0.0000000000000000E+00 
    2.7500000000114472E-01     1.0000000000000000E+00     0.0000000000000000E+00 
    2.2500000000093659E-01     1.0000000000000000E+00     0.0000000000000000E+00 
    1.7500000000072849E-01     1.0000000000000000E+00     0.0000000000000000E+00 
    1.2500000000052039E-01     1.0000000000000000E+00     0.0000000000000000E+00 
    7.5000000000312261E-02     1.0000000000000000E+00     0.0000000000000000E+00 
    2.5000000000104109E-02     1.0000000000000000E+00     0.0000000000000000E+00 
    4.5000000000187301E-01     1.0000000000000000E+00     0.0000000000000000E+00 
    8.9999999999958358E-01     1.0000000000000000E+00     0.0000000000000000E+00 
    8.4999999999965303E-01     1.0000000000000000E+00     0.0000000000000000E+00 
    8.0000000000000004E-01     1.0000000000000000E+00     0.0000000000000000E+00 
    7.5000000000034706E-01     1.0000000000000000E+00     0.0000000000000000E+00 
    7.0000000000069384E-01     1.0000000000000000E+00     0.0000000000000000E+00 
    6.5000000000104063E-01     1.0000000000000000E+00     0.0000000000000000E+00 
    6.0000000000138742E-01     1.0000000000000000E+00     0.0000000000000000E+00 
    5.5000000000173432E-01     1.0000000000000000E+00     0.0000000000000000E+00 
    5.0000000000205946E-01     1.0000000000000000E+00     0.0000000000000000E+00 
    9.4999999999979179E-01     1.0000000000000000E+00     0.0000000000000000E+00 
    4.0000000000166491E-01     1.0000000000000000E+00     0.0000000000000000E+00 
    3.5000000000145681E-01     1.0000000000000000E+00     0.0000000000000000E+00 
    3.0000000000124871E-01     1.0000000000000000E+00     0.0000000000000000E+00 
    2.5000000000104061E-01     1.0000000000000000E+00     0.0000000000000000E+00 
    2.0000000000083251E-01     1.0000000000000000E+00     0.0000000000000000E+00 
    1.5000000000062441E-01     1.0000000000000000E+00     0.0000000000000000E+00 
    1.0000000000041630E-01     1.0000000000000000E+00     0.0000000000000000E+00 
[...]
CELL_DATA 1600 
SCALARS Pressure double 1 
LOOKUP_TABLE default 

    1.1578227044084344E+00 
    1.1336434587521069E+00 
    1.1335144170358415E+00 
    1.1558773533812363E+00 
    1.1540114173241636E+00 
    1.1332700469532526E+00 
    1.1329199822850260E+00 
    1.1521794747248773E+00 
    1.1504079742138231E+00 
    1.1324810869659612E+00 
    1.1319704908261117E+00 
    1.1487171750781626E+00 
    1.1471131784136019E+00 
    1.1314027204821135E+00 
    1.1307881846206878E+00 
    1.1455960702492336E+00 
    1.1441642443263864E+00 
    1.1301363200862744E+00 
    1.1294560015277539E+00 
    1.1428151587425177E+00 
    1.1415476024746292E+00 
    1.1287580020236323E+00 
    1.1280496707138974E+00 
    1.1403596401426168E+00 
    1.1392489753899464E+00 
    1.1273381140326315E+00 
    1.1266286597298290E+00 
    1.1382133817840581E+00 
    1.1372511446897873E+00 
    1.1259256212946402E+00 
    1.1252327914089768E+00 
    1.1363618818205798E+00 
    1.1355421807629460E+00 
    1.1245533040158546E+00 
    1.1238846940178300E+00 
    1.1347884081879489E+00 
    1.1340951133294535E+00 
    1.1232124596029138E+00 
    1.1225126250319057E+00 
    1.1334494686491992E+00 
    1.1328030736085466E+00 
    1.1217498927720932E+00 
    1.1209669813227683E+00 
    1.1321056375430003E+00 
    1.1314540976656791E+00 
    1.1202595854772734E+00 
    1.1196242706720023E+00 
    1.1309016428455700E+00 
    1.1304071262945479E+00 
    1.1190413900461524E+00 
    1.1185095651979229E+00 
    1.1299654659360820E+00 
    1.1295719850219157E+00 
    1.1180259747678156E+00 
    1.1175887912586651E+00 
    1.1292219185616332E+00 
    1.1289111053776451E+00 
    1.1171946725526600E+00 
    1.1168416644706496E+00 
    1.1286330255435948E+00 
    1.1283830495577301E+00 
    1.1165270439269235E+00 
    1.1162483152426943E+00 
    1.1281564745197434E+00 
    1.1279496769425397E+00 
    1.1160014438840262E+00 
    1.1157846906852853E+00 
    1.1277590233525772E+00 
    1.1275822579232440E+00 
    1.1155947560162951E+00 
    1.1154309318173501E+00 
    1.1274171357156311E+00 
    1.1272630150039042E+00 
    1.1152909288245447E+00 
    1.1151752245692483E+00 
    1.1271192668799885E+00 
    1.1269869885404604E+00 
    1.1150827031885848E+00 
    1.1150150503310685E+00 
    1.1268672691583661E+00 
    1.1163846565049815E+00 
    1.0973479986953785E+00 
    1.0972662966327082E+00 
    1.1163065093111517E+00 
    1.1161504908935509E+00 
    1.0971031440616346E+00 
    1.0968599538433368E+00 
    1.1159170735895476E+00 
    1.1156118311823520E+00 
    1.0965388229910329E+00 
    1.0961422260093932E+00 
    1.1152415779233678E+00 
    1.1148123695235301E+00 
    1.0956713247013965E+00 
    1.0951280704768749E+00 
    1.1143286264004366E+00 
    1.1137947132699417E+00 
    1.0945136574330032E+00 
    1.0938316145293197E+00 
    1.1132156073337245E+00 
    1.1125981609592082E+00 
    1.0930870365840220E+00 
    1.0922856738003555E+00 
    1.1119469171747345E+00 
    1.1112653653512312E+00 
    1.0914328594236016E+00 
    1.0905286469302244E+00 
    1.1105530988402033E+00 
    1.1098050139998246E+00 
    1.0895660933027655E+00 
    1.0885434232535449E+00 
    1.1090168932222546E+00 
    1.1081887490044950E+00 
    1.0874747285354629E+00 
    1.0863957741994299E+00 
    1.1073226059307413E+00 
    1.1064061411765775E+00 
    1.0853407558077788E+00 
    1.0843204209486510E+00 
    1.1054266273030391E+00 
    1.1044392076987555E+00 
    1.0833674592149132E+00 
    1.0824885050829516E+00 
    1.1035296923148374E+00 
    1.1027013687120537E+00 
    1.0816613451230435E+00 
    1.0808835345977224E+00 
    1.1019306539267431E+00 
    1.1012155905631240E+00 
    1.0801556287717353E+00 
    1.0794775904067808E+00 
    1.1005558615865312E+00 
    1.0999502153197123E+00 
    1.0788496632722075E+00 
    1.0782715278070758E+00 
    1.0993978205401722E+00 
    1.0988969817373251E+00 
    1.0777432158511433E+00 
    1.0772642490899804E+00 
    1.0984466127292822E+00 
    1.0980452663776836E+00 
    1.0768345754697843E+00 
    1.0764534086703694E+00 
    1.0976912513827539E+00 
    1.0973822366646266E+00 
    1.0761203778169006E+00 
    1.0758347530166708E+00 
    1.0971168276663228E+00 
    1.0968931029854261E+00 
    1.0755962026179289E+00 
    1.0754041217455819E+00 
    1.0967101780197919E+00 
    1.0965667239852892E+00 
    1.0752582742089269E+00 
    1.0751582127877697E+00 
    1.0964625035464961E+00 
    1.0963968773576218E+00 
    1.0751038301996303E+00 
    1.0750948395401527E+00 
    1.0963703044383666E+00 
    1.0724338913591727E+00 
    1.0417659463074498E+00 
    1.0417173697077096E+00 
    1.0723433847496189E+00 
    1.0721640628343041E+00 
    1.0416219884247306E+00 
    1.0414839421902413E+00 
    1.0718982615161550E+00 
    1.0715493141122638E+00 
    1.0413075410713748E+00 
    1.0410985736210971E+00 
    1.0711201878215855E+00 
    1.0706147992175907E+00 
    1.0408623615609360E+00 
    1.0406046924092487E+00 
    1.0700378734232951E+00 
    1.0693950580870388E+00 
    1.0403300852983115E+00 
    1.0400428519731644E+00 
    1.0686937963835557E+00 
    1.0679435356735663E+00 
    1.0397453651359352E+00 
    1.0394388901988678E+00 
    1.0671558061825654E+00 
    1.0663430934975140E+00 
    1.0391222136070382E+00 
    1.0387923500716862E+00 
    1.0655141402198147E+00 
    1.0646743716634570E+00 
    1.0384451636736580E+00 
    1.0380774668138357E+00 
    1.0638313300556466E+00 
    1.0629997177230104E+00 
    1.0376899323663009E+00 
    1.0372853205348938E+00 
    1.0621991734044540E+00 
    1.0614408145055645E+00 
    1.0368670453274218E+00 
    1.0364384772713577E+00 
    1.0607151742531127E+00 
    1.0600121928817683E+00 
    1.0360032257966272E+00 
    1.0355649709623667E+00 
    1.0593323876866492E+00 
    1.0586784041896764E+00 
    1.0351280095254642E+00 
    1.0346957103998948E+00 
    1.0580525624211206E+00 
    1.0574562782004864E+00 
    1.0342704476768532E+00 
    1.0338544531040139E+00 
    1.0568910928689372E+00 
    1.0563584161956632E+00 
    1.0334507322988999E+00 
    1.0330619808704207E+00 
    1.0558598575542604E+00 
    1.0553967757699827E+00 
    1.0326915910735692E+00 
    1.0323423954020350E+00 
    1.0549707812944473E+00 
    1.0545827360812530E+00 
    1.0320170986439694E+00 
    1.0317188308184235E+00 
    1.0542342851336712E+00 
    1.0539264949465794E+00 
    1.0314511776303046E+00 
    1.0312166426933389E+00 
    1.0536607742303896E+00 
    1.0534377666916928E+00 
    1.0310180442103962E+00 
    1.0308569116156143E+00 
    1.0532585171667546E+00 
    1.0531231617182284E+00 
    1.0307350100367099E+00 
    1.0306526886862224E+00 
    1.0530322845056328E+00 
    1.0529854800579221E+00 
    1.0306105028071404E+00 
    1.0306075579672129E+00 
    1.0529828210221801E+00 
    1.0136046655049054E+00 
    9.8628191337966908E-01 
    9.8630736953469200E-01 
    1.0136057160972962E+00 
    1.0136075059789174E+00 
    9.8635776141718656E-01 
    9.8643184822164820E-01 
    1.0136098737799311E+00 
    1.0136121145890276E+00 
    9.8652792606208028E-01 
    9.8664354289401357E-01 
    1.0136136305305417E+00 
    1.0136133568367496E+00 
    9.8677574216424990E-01 
    9.8692087635569059E-01 
    1.0136101588057216E+00 
    1.0136024794467313E+00 
    9.8707479175667046E-01 
    9.8723281447389377E-01 
    1.0135883867874753E+00 
    1.0135654167034753E+00 
    9.8738964195994638E-01 
    9.8753905916975460E-01 
    1.0135301707323414E+00 
    1.0134793730045595E+00 
    9.8767456861547664E-01 
    9.8778995147734505E-01 
    1.0134090695970885E+00 
    1.0133160366557554E+00 
    9.8787886675306125E-01 
    9.8793576803927197E-01 
    1.0131963846212990E+00 
    1.0130503991347248E+00 
    9.8795880645848666E-01 
    9.8794726540538802E-01 
    1.0128776461217313E+00 
    1.0126795807266289E+00 
    9.8790064153160673E-01 
    9.8782013784437073E-01 
    1.0124571276067997E+00 
    1.0122133570282477E+00 
    9.8770752732540046E-01 
    9.8756641039287185E-01 
    1.0119509062652901E+00 
    1.0116746127741172E+00 
    9.8740109977998436E-01 
    9.8721560377637263E-01 
    1.0113873760234102E+00 
    1.0110916229983060E+00 
    9.8701140513961905E-01 
    9.8679114783832655E-01 
    1.0107893859689658E+00 
    1.0104844167894127E+00 
    9.8655799809471578E-01 
    9.8631605864274463E-01 
    1.0101799216287137E+00 
    1.0098804240964330E+00 
    9.8606962784157148E-01 
    9.8582337320834812E-01 
    1.0095897210885731E+00 
    1.0093113494635242E+00 
    9.8558038614718535E-01 
    9.8534639898320320E-01 
    1.0090499759570788E+00 
    1.0088105733179311E+00 
    9.8512689543109400E-01 
    9.8492663507564482E-01 
    1.0085970931465200E+00 
    1.0084132662348650E+00 
    9.8474984933679666E-01 
    9.8459956653544178E-01 
    1.0082617697396299E+00 
    1.0081446690014315E+00 
    9.8447818844706814E-01 
    9.8438661586381315E-01 
    1.0080629864015962E+00 
    1.0080169268803560E+00 
    9.8432511009440349E-01 
    9.8429234670233401E-01 
    1.0080056996616089E+00 
    9.5824220719042441E-01 
    9.2675568382930706E-01 
    9.2674911010594541E-01 
    9.5826282756375991E-01 
    9.5830485586071001E-01 
    9.2673554221527554E-01 
    9.2671522971292974E-01 
    9.5836778289841151E-01 
    9.5845082571883145E-01 
    9.2668840175270750E-01 
    9.2665572834800025E-01 
    9.5855204183890541E-01 
    9.5866934864185727E-01 
    9.2661757198985362E-01 
    9.2657458251469216E-01 
    9.5879968528961523E-01 
    9.5894001401907181E-01 
    9.2652673464093704E-01 
    9.2647497322975192E-01 
    9.5908657547266052E-01 
    9.5923356858903219E-01 
    9.2642033942074031E-01 
    9.2636503597058673E-01 
    9.5937519520692471E-01 
    9.5950603752238905E-01 
    9.2631001885876907E-01 
    9.2625695277208953E-01 
    9.5962050623009010E-01 
    9.5971357702599158E-01 
    9.2620595743329259E-01 
    9.2615813747641074E-01 
    9.5978042389401386E-01 
    9.5982455911264530E-01 
    9.2611293591002497E-01 
    9.2607119165445029E-01 
    9.5984054706308641E-01 
    9.5982785789072445E-01 
    9.2603201303393456E-01 
    9.2599582636857003E-01 
    9.5978690827785784E-01 
    9.5971956823224414E-01 
    9.2596103374171190E-01 
    9.2592745935897980E-01 
    9.5962889301733112E-01 
    9.5951963411672025E-01 
    9.2589298405442033E-01 
    9.2585743771651419E-01 
    9.5940254835120919E-01 
    9.5927353717387531E-01 
    9.2582067361206211E-01 
    9.2578413792058678E-01 
    9.5913294984217279E-01 
    9.5898263778997073E-01 
    9.2574763960654205E-01 
    9.2571213834782884E-01 
    9.5882520054129616E-01 
    9.5866423524390032E-01 
    9.2567706117863746E-01 
    9.2564365898563317E-01 
    9.5850365750820166E-01 
    9.5834017979606234E-01 
    9.2561145303240910E-01 
    9.2558187809858850E-01 
    9.5817829402015620E-01 
    9.5802238953418206E-01 
    9.2555494006553396E-01 
    9.2553147805000768E-01 
    9.5787619237050647E-01 
    9.5774296360037847E-01 
    9.2551111781530504E-01 
    9.2549415740647412E-01 
    9.5762505501566919E-01 
    9.5752413265176339E-01 
    9.2547984989861265E-01 
    9.2546796938145059E-01 
    9.5744081349958154E-01 
    9.5737495794397953E-01 
    9.2545732382621870E-01 
    9.2544712776395543E-01 
    9.5732534961303239E-01 
    8.9355173070390448E-01 
    8.6381041297328265E-01 
    8.6378940500104540E-01 
    8.9351955450920040E-01 
    8.9345640066098442E-01 
    8.6374804868872557E-01 
    8.6368723424072558E-01 
    8.9336408255145883E-01 
    8.9324488202182695E-01 
    8.6360827625620662E-01 
    8.6351271141294783E-01 
    8.9310167437823695E-01 
    8.9293765206507503E-01 
    8.6340267887550104E-01 
    8.6328043405967503E-01 
    8.9275655512942287E-01 
    8.9256218539176713E-01 
    8.6314903219465078E-01 
    8.6301164017419119E-01 
    8.9235885024305683E-01 
    8.9215450407941466E-01 
    8.6287244189714840E-01 
    8.6273501528707897E-01 
    8.9195458494006796E-01 
    8.9176397454353140E-01 
    8.6260403076152103E-01 
    8.6248315435201572E-01 
    8.9158804777214129E-01 
    8.9143113798248541E-01 
    8.6237725781855068E-01 
    8.6228970271091010E-01 
    8.9129799091613227E-01 
    8.9118725837655777E-01 
    8.6222280648222116E-01 
    8.6217690692002957E-01 
    8.9110337489958147E-01 
    8.9104650147665143E-01 
    8.6215378068142645E-01 
    8.6215282911267288E-01 
    8.9101694959485711E-01 
    8.9101279447503712E-01 
    8.6217446201179071E-01 
    8.6221654170083895E-01 
    8.9103214169533917E-01 
    8.9107070640102226E-01 
    8.6227784303826638E-01 
    8.6235553406513932E-01 
    8.9112128718711059E-01 
    8.9118573391547606E-01 
    8.6244770404610238E-01 
    8.6255215319101564E-01 
    8.9126377251434319E-01 
    8.9135319127043156E-01 
    8.6266754775827703E-01 
    8.6279062821506580E-01 
    8.9145204045267257E-01 
    8.9155686634273856E-01 
    8.6291918367465692E-01 
    8.6305068889474568E-01 
    8.9166627470249615E-01 
    8.9178100413847605E-01 
    8.6318388470129082E-01 
    8.6331451365016576E-01 
    8.9189747353158200E-01 
    8.9201170436241728E-01 
    8.6343968347101119E-01 
    8.6355578064370420E-01 
    8.9212079138153921E-01 
    8.9222179222608533E-01 
    8.6366066310987144E-01 
    8.6375186193945108E-01 
    8.9231284882100126E-01 
    8.9239232682475444E-01 
    8.6382837921265720E-01 
    8.6388915138802513E-01 
    8.9245965301642571E-01 
    8.9251461243122510E-01 
    8.6393454162112915E-01 
    8.6396495137067009E-01 
    8.9255800702792742E-01 
    8.3639807186278703E-01 
    8.0972701525722857E-01 
    8.0975954316052734E-01 
    8.3640374681294272E-01 
    8.3641428580669874E-01 
    8.0982316946088417E-01 
    8.0991548440511385E-01 
    8.3642929849363479E-01 
    8.3644765490007456E-01 
    8.1003370463295132E-01 
    8.1017431342583812E-01 
    8.3646871920512922E-01 
    8.3649138495733899E-01 
    8.1033364088696103E-01 
    8.1050757574783505E-01 
    8.3651505874209675E-01 
    8.3653897107464059E-01 
    8.1069208530208026E-01 
    8.1088404362711186E-01 
    8.3656344005927563E-01 
    8.3658891170695171E-01 
    8.1108068947699430E-01 
    8.1127886044557407E-01 
    8.3661593568200765E-01 
    8.3664534176248606E-01 
    8.1147594007137247E-01 
    8.1166955498378612E-01 
    8.3667818448359310E-01 
    8.3671587657706292E-01 
    8.1185802893908532E-01 
    8.1203995302098675E-01 
    8.3675983821590283E-01 
    8.3681038841827304E-01 
    8.1221406670031859E-01 
    8.1237932268555790E-01 
    8.3686762059316921E-01 
    8.3693171245734077E-01 
    8.1253470731731492E-01 
    8.1267929172773146E-01 
    8.3700236325347366E-01 
    8.3707941832238619E-01 
    8.1281279601732637E-01 
    8.1293490229014342E-01 
    8.3716204059003507E-01 
    8.3724946097853370E-01 
    8.1304579412584799E-01 
    8.1314501276056939E-01 
    8.3734033934177010E-01 
    8.3743336395251533E-01 
    8.1323240083634540E-01 
    8.1330851973756058E-01 
    8.3752783914582318E-01 
    8.3762315547872057E-01 
    8.1337408997219118E-01 
    8.1342951689853471E-01 
    8.3771792167889836E-01 
    8.3781092087162667E-01 
    8.1347524777094882E-01 
    8.1351226756697115E-01 
    8.3790132104103532E-01 
    8.3798862010068398E-01 
    8.1354155410736884E-01 
    8.1356379450229699E-01 
    8.3807093936588051E-01 
    8.3814687695860801E-01 
    8.1357967035441325E-01 
    8.1358972782169481E-01 
    8.3821479465697790E-01 
    8.3827367235379791E-01 
    8.1359449775954629E-01 
    8.1359449825564767E-01 
    8.3832241719598599E-01 
    8.3836065653101588E-01 
    8.1359022880341325E-01 
    8.1358226731965155E-01 
    8.3838805162726548E-01 
    8.3840502633680825E-01 
    8.1357117769560516E-01 
    8.1355764436223033E-01 
    8.3841208121853195E-01 
    7.8304014235740049E-01 
    7.5452726601845532E-01 
    7.5456514345110115E-01 
    7.8309026294545114E-01 
    7.8318835326549086E-01 
    7.5463996827559543E-01 
    7.5474908052584477E-01 
    7.8333087121844081E-01 
    7.8351369651685765E-01 
    7.5488942930840974E-01 
    7.5505665148830825E-01 
    7.8373148088021605E-01 
    7.8397873028207898E-01 
    7.5524610887642174E-01 
    7.5545238029470740E-01 
    7.8424884656784044E-01 
    7.8453564665329523E-01 
    7.5566982413041339E-01 
    7.5589676298538555E-01 
    7.8483344742935557E-01 
    7.8513761081073263E-01 
    7.5612698580895477E-01 
    7.5635527565260752E-01 
    7.8544187725847414E-01 
    7.8574162975282069E-01 
    7.5657636818748908E-01 
    7.5678615494628543E-01 
    7.8603135694040249E-01 
    7.8630772497132362E-01 
    7.5698046602821945E-01 
    7.5715682566623321E-01 
    7.8656642523773601E-01 
    7.8680593521931574E-01 
    7.5731632553292494E-01 
    7.5745406880451360E-01 
    7.8702364497717370E-01 
    7.8721850714282604E-01 
    7.5756744265021392E-01 
    7.5765613803209753E-01 
    7.8738831023904310E-01 
    7.8753372390281395E-01 
    7.5771959073405248E-01 
    7.5775962692989118E-01 
    7.8765402531188089E-01 
    7.8775128524527560E-01 
    7.5777772058002724E-01 
    7.5778057892041650E-01 
    7.8782492503241563E-01 
    7.8787676516039007E-01 
    7.5776419339860002E-01 
    7.5773033217396524E-01 
    7.8790740277612092E-01 
    7.8791964420027194E-01 
    7.5767994007774953E-01 
    7.5761573062284970E-01 
    7.8791436594319542E-01 
    7.8789437120740990E-01 
    7.5753933291884568E-01 
    7.5745416966287482E-01 
    7.8786109647214209E-01 
    7.8781760139292767E-01 
    7.5735918455571627E-01 
    7.5725855231278016E-01 
    7.8776580992135758E-01 
    7.8770915693914478E-01 
    7.5715495348599693E-01 
    7.5705180886927037E-01 
    7.8764913689697114E-01 
    7.8758852922356126E-01 
    7.5695107242557225E-01 
    7.5685525776530049E-01 
    7.8752832178210364E-01 
    7.8747062038657956E-01 
    7.5676544482698860E-01 
    7.5668313947008536E-01 
    7.8741588690485231E-01 
    7.8736560312736359E-01 
    7.5660844695538132E-01 
    7.5654180675545557E-01 
    7.8731974416554318E-01 
    7.2067517322579988E-01 
    6.8488290328257995E-01 
    6.8483433967811791E-01 
    7.2066705658137564E-01 
    7.2065073826799064E-01 
    6.8473954022009664E-01 
    6.8460240538846151E-01 
    7.2062657873271574E-01 
    7.2059506673717755E-01 
    6.8442718313445616E-01 
    6.8421941168438882E-01 
    7.2055704354934502E-01 
    7.2051303434696190E-01 
    6.8398468487022457E-01 
    6.8372951632235879E-01 
    7.2046372419484417E-01 
    7.2040923815249680E-01 
    6.8346015750210531E-01 
    6.8317902274133746E-01 
    7.2035065250543506E-01 
    7.2028880385281557E-01 
    6.8289518198750387E-01 
    6.8261467476477999E-01 
    7.2022533643468944E-01 
    7.2016039117025610E-01 
    6.8234261019081566E-01 
    6.8208377759459382E-01 
    7.2009529586798005E-01 
    7.2002954919721729E-01 
    6.8184179955292190E-01 
    6.8161963795237857E-01 
    7.1996412563416956E-01 
    7.1989791244759505E-01 
    6.8141411980130351E-01 
    6.8123170258414101E-01 
    7.1983260316932784E-01 
    7.1976783805171940E-01 
    6.8107456112129217E-01 
    6.8094392924164404E-01 
    7.1970520293422724E-01 
    7.1964415322736597E-01 
    6.8083970867436883E-01 
    6.8076085691266508E-01 
    7.1958635635576829E-01 
    7.1953142344893772E-01 
    6.8070509646254085E-01 
    6.8066556306683634E-01 
    7.1948105486059200E-01 
    7.1943387101107981E-01 
    6.8064618866360393E-01 
    6.8064627603982064E-01 
    7.1939059121319548E-01 
    7.1935009264422556E-01 
    6.8066449947134655E-01 
    6.8069917906202715E-01 
    7.1931349744643103E-01 
    7.1928011859927210E-01 
    6.8074836606965783E-01 
    6.8080540333294426E-01 
    7.1925128780831871E-01 
    7.1922589623086242E-01 
    6.8087310139923418E-01 
    6.8094867087753164E-01 
    7.1920432910224896E-01 
    7.1918525062321703E-01 
    6.8102951836360637E-01 
    6.8111329318247771E-01 
    7.1916931927078975E-01 
    7.1915564631686757E-01 
    6.8119793731497214E-01 
    6.8128169195121524E-01 