# vtk DataFile Version 2.0
Pressure Field Data 
ASCII 
DATASET UNSTRUCTURED_GRID 

POINTS 1681 double 

    0.0000000000000000E+00     0.0000000000000000E+00     0.0000000000000000E+00 
    1.0000000000000000E+00     0.0000000000000000E+00     0.0000000000000000E+00 
    1.0000000000000000E+00     1.0000000000000000E+00     0.0000000000000000E+00 
    0.0000000000000000E+00     1.0000000000000000E+00     0.0000000000000000E+00 
    5.2499999999875258E-01     0.0000000000000000E+00     0.0000000000000000E+00 
    7.4999999999856765E-02     0.0000000000000000E+00     0.0000000000000000E+00 
    1.2499999999975850E-01     0.0000000000000000E+00     0.0000000000000000E+00 
    1.7499999999962990E-01     0.0000000000000000E+00     0.0000000000000000E+00 
    2.2499999999948389E-01     0.0000000000000000E+00     0.0000000000000000E+00 
    2.7499999999933789E-01     0.0000000000000000E+00     0.0000000000000000E+00 
    3.2499999999919210E-01     0.0000000000000000E+00     0.0000000000000000E+00 
    3.7499999999904610E-01     0.0000000000000000E+00     0.0000000000000000E+00 
    4.2499999999890020E-01     0.0000000000000000E+00     0.0000000000000000E+00 
    4.7499999999875958E-01     0.0000000000000000E+00     0.0000000000000000E+00 
    2.4999999999949701E-02     0.0000000000000000E+00     0.0000000000000000E+00 
    5.7499999999887907E-01     0.0000000000000000E+00     0.0000000000000000E+00 
    6.2499999999901101E-01     0.0000000000000000E+00     0.0000000000000000E+00 
    6.7499999999914273E-01     0.0000000000000000E+00     0.0000000000000000E+00 
    7.2499999999927467E-01     0.0000000000000000E+00     0.0000000000000000E+00 
    7.7499999999940661E-01     0.0000000000000000E+00     0.0000000000000000E+00 
    8.2499999999953844E-01     0.0000000000000000E+00     0.0000000000000000E+00 
    8.7499999999967026E-01     0.0000000000000000E+00     0.0000000000000000E+00 
    9.2499999999980220E-01     0.0000000000000000E+00     0.0000000000000000E+00 
    9.7499999999993414E-01     0.0000000000000000E+00     0.0000000000000000E+00 
    5.4999999999881310E-01     0.0000000000000000E+00     0.0000000000000000E+00 
    9.9999999999814140E-02     0.0000000000000000E+00     0.0000000000000000E+00 
    1.4999999999970290E-01     0.0000000000000000E+00     0.0000000000000000E+00 
    1.9999999999955689E-01     0.0000000000000000E+00     0.0000000000000000E+00 
    2.4999999999941089E-01     0.0000000000000000E+00     0.0000000000000000E+00 
    2.9999999999926502E-01     0.0000000000000000E+00     0.0000000000000000E+00 
    3.4999999999911913E-01     0.0000000000000000E+00     0.0000000000000000E+00 
    3.9999999999897312E-01     0.0000000000000000E+00     0.0000000000000000E+00 
    4.4999999999882723E-01     0.0000000000000000E+00     0.0000000000000000E+00 
    4.9999999999869210E-01     0.0000000000000000E+00     0.0000000000000000E+00 
    4.9999999999899403E-02     0.0000000000000000E+00     0.0000000000000000E+00 
    5.9999999999894504E-01     0.0000000000000000E+00     0.0000000000000000E+00 
    6.4999999999907687E-01     0.0000000000000000E+00     0.0000000000000000E+00 
    6.9999999999920870E-01     0.0000000000000000E+00     0.0000000000000000E+00 
    7.4999999999934064E-01     0.0000000000000000E+00     0.0000000000000000E+00 
    7.9999999999947247E-01     0.0000000000000000E+00     0.0000000000000000E+00 
    8.4999999999960441E-01     0.0000000000000000E+00     0.0000000000000000E+00 
    8.9999999999973623E-01     0.0000000000000000E+00     0.0000000000000000E+00 
    9.4999999999986817E-01     0.0000000000000000E+00     0.0000000000000000E+00 
    1.0000000000000000E+00     5.2499999999875258E-01     0.0000000000000000E+00 
    1.0000000000000000E+00     7.4999999999856765E-02     0.0000000000000000E+00 
    1.0000000000000000E+00     1.2499999999975850E-01     0.0000000000000000E+00 
    1.0000000000000000E+00     1.7499999999962990E-01     0.0000000000000000E+00 
    1.0000000000000000E+00     2.2499999999948389E-01     0.0000000000000000E+00 
    1.0000000000000000E+00     2.7499999999933789E-01     0.0000000000000000E+00 
    1.0000000000000000E+00     3.2499999999919210E-01     0.0000000000000000E+00 
    1.0000000000000000E+00     3.7499999999904610E-01     0.0000000000000000E+00 
    1.0000000000000000E+00     4.2499999999890020E-01     0.0000000000000000E+00 
    1.0000000000000000E+00     4.7499999999875958E-01     0.0000000000000000E+00 
    1.0000000000000000E+00     2.4999999999949701E-02     0.0000000000000000E+00 
    1.0000000000000000E+00     5.7499999999887907E-01     0.0000000000000000E+00 
    1.0000000000000000E+00     6.2499999999901101E-01     0.0000000000000000E+00 
    1.0000000000000000E+00     6.7499999999914273E-01     0.0000000000000000E+00 
    1.0000000000000000E+00     7.2499999999927467E-01     0.0000000000000000E+00 
    1.0000000000000000E+00     7.7499999999940661E-01     0.0000000000000000E+00 
    1.0000000000000000E+00     8.2499999999953844E-01     0.0000000000000000E+00 
    1.0000000000000000E+00     8.7499999999967026E-01     0.0000000000000000E+00 
    1.0000000000000000E+00     9.2499999999980220E-01     0.0000000000000000E+00 
    1.0000000000000000E+00     9.7499999999993414E-01     0.0000000000000000E+00 
    1.0000000000000000E+00     5.4999999999881310E-01     0.0000000000000000E+00 
    1.0000000000000000E+00     9.9999999999814140E-02     0.0000000000000000E+00 
    1.0000000000000000E+00     1.4999999999970290E-01     0.0000000000000000E+00 
    1.0000000000000000E+00     1.9999999999955689E-01     0.0000000000000000E+00 
    1.0000000000000000E+00     2.4999999999941089E-01     0.0000000000000000E+00 
    1.0000000000000000E+00     2.9999999999926502E-01     0.0000000000000000E+00 
    1.0000000000000000E+00     3.4999999999911913E-01     0.0000000000000000E+00 
    1.0000000000000000E+00     3.9999999999897312E-01     0.0000000000000000E+00 
    1.0000000000000000E+00     4.4999999999882723E-01     0.0000000000000000E+00 
    1.0000000000000000E+00     4.9999999999869210E-01     0.0000000000000000E+00 
    1.0000000000000000E+00     4.9999999999899403E-02     0.0000000000000000E+00 
    1.0000000000000000E+00     5.9999999999894504E-01     0.0000000000000000E+00 
    1.0000000000000000E+00     6.4999999999907687E-01     0.0000000000000000E+00 
    1.0000000000000000E+00     6.9999999999920870E-01     0.0000000000000000E+00 
    1.0000000000000000E+00     7.4999999999934064E-01     0.0000000000000000E+00 
    1.0000000000000000E+00     7.9999999999947247E-01     0.0000000000000000E+00 
    1.0000000000000000E+00     8.4999999999960441E-01     0.0000000000000000E+00 
    1.0000000000000000E+00     8.9999999999973623E-01     0.0000000000000000E+00 
    1.0000000000000000E+00     9.4999999999986817E-01     0.0000000000000000E+00 
    4.7500000000196618E-01     1.0000000000000000E+00     0.0000000000000000E+00 
    9.2499999999968763E-01     1.0000000000000000E+00     0.0000000000000000E+00 
    8.7499999999961831E-01     1.0000000000000000E+00     0.0000000000000000E+00 
    8.2499999999982654E-01     1.0000000000000000E+00     0.0000000000000000E+00 
    7.7500000000017355E-01     1.0000000000000000E+00     0.0000000000000000E+00 
    7.2500000000052045E-01     1.0000000000000000E+00     0.0000000000000000E+00 
    6.7500000000086724E-01     1.0000000000000000E+00     0.0000000000000000E+00 
    6.2500000000121403E-01     1.0000000000000000E+00     0.0000000000000000E+00 
    5.7500000000156093E-01     1.0000000000000000E+00     0.0000000000000000E+00 
    5.2500000000189684E-01     1.0000000000000000E+00     0.0000000000000000E+00 
    9.7499999999989595E-01     1.0000000000000000E+00     0.0000000000000000E+00 
    4.2500000000176902E-01     1.0000000000000000E+00     0.0000000000000000E+00 
    3.7500000000156092E-01     1.0000000000000000E+00     0.0000000000000000E+00 
    3.2500000000135282E-01     1.0000000000000000E+00     0.0000000000000000E+00 
    2.7500000000114472E-01     1.0000000000000000E+00     0.0000000000000000E+00 
    2.2500000000093659E-01     1.0000000000000000E+00     0.0000000000000000E+00 
    1.7500000000072849E-01     1.0000000000000000E+00     0.0000000000000000E+00 
    1.2500000000052039E-01     1.0000000000000000E+00     0.0000000000000000E+00 
    7.5000000000312261E-02     1.0000000000000000E+00     0.0000000000000000E+00 
    2.5000000000104109E-02     1.0000000000000000E+00     0.0000000000000000E+00 
    4.5000000000187301E-01     1.0000000000000000E+00     0.0000000000000000E+00 
    8.9999999999958358E-01     1.0000000000000000E+00     0.0000000000000000E+00 
    8.4999999999965303E-01     1.0000000000000000E+00     0.0000000000000000E+00 
    8.0000000000000004E-01     1.0000000000000000E+00     0.0000000000000000E+00 
    7.5000000000034706E-01     1.0000000000000000E+00     0.0000000000000000E+00 
    7.0000000000069384E-01     1.0000000000000000E+00     0.0000000000000000E+00 
    6.5000000000104063E-01     1.0000000000000000E+00     0.0000000000000000E+00 
    6.0000000000138742E-01     1.0000000000000000E+00     0.0000000000000000E+00 
    5.5000000000173432E-01     1.0000000000000000E+00     0.0000000000000000E+00 
    5.0000000000205946E-01     1.0000000000000000E+00     0.0000000000000000E+00 
    9.4999999999979179E-01     1.0000000000000000E+00     0.0000000000000000E+00 
    4.0000000000166491E-01     1.0000000000000000E+00     0.0000000000000000E+00 
    3.5000000000145681E-01     1.0000000000000000E+00     0.0000000000000000E+00 
    3.0000000000124871E-01     1.0000000000000000E+00     0.0000000000000000E+00 
    2.5000000000104061E-01     1.0000000000000000E+00     0.0000000000000000E+00 
    2.0000000000083251E-01     1.0000000000000000E+00     0.0000000000000000E+00 
    1.5000000000062441E-01     1.0000000000000000E+00     0.0000000000000000E+00 
    1.0000000000041630E-01     1.0000000000000000E+00     0.0000000000000000E+00 
[...]
CELL_DATA 1600 
SCALARS Pressure double 1 
LOOKUP_TABLE default 

    7.9304553549233436E-01 
    7.7577036345812067E-01 
    7.7568920973616318E-01 
    7.9120594272827416E-01 
    7.8953994108160341E-01 
    7.7554415077138250E-01 
    7.7534893991918352E-01 
    7.8802824919335801E-01 
    7.8665531442039460E-01 
    7.7511567689838179E-01 
    7.7485398598694621E-01 
    7.8540846212950699E-01 
    7.8427647870406569E-01 
    7.7457252349372641E-01 
    7.7427811784757783E-01 
    7.8324955254168793E-01 
    7.8231881913350931E-01 
    7.7397683359168767E-01 
    7.7367336748918414E-01 
    7.8147665507184405E-01 
    7.8071650692823336E-01 
    7.7337247468732151E-01 
    7.7307779362373441E-01 
    7.8003263010472401E-01 
    7.7941963584406870E-01 
    7.7279270783998522E-01 
    7.7251944233929970E-01 
    7.7887253939266987E-01 
    7.7838657681104939E-01 
    7.7225981954392986E-01 
    7.7201523527990512E-01 
    7.7795772305205591E-01 
    7.7758162719997359E-01 
    7.7178708372492988E-01 
    7.7157592571342415E-01 
    7.7725417018365850E-01 
    7.7697112839534255E-01 
    7.7138202047340576E-01 
    7.7120520187347785E-01 
    7.7672836144830515E-01 
    7.7652148722713266E-01 
    7.7104468281138583E-01 
    7.7089946342801952E-01 
    7.7634638523237176E-01 
    7.7619922917163375E-01 
    7.7076842180872540E-01 
    7.7065118472075556E-01 
    7.7607796793750938E-01 
    7.7598069161431127E-01 
    7.7054672715186645E-01 
    7.7045427110634712E-01 
    7.7590556332855076E-01 
    7.7585102794712479E-01 
    7.7037236561755817E-01 
    7.7030038726964400E-01 
    7.7581606434801487E-01 
    7.7580175163599774E-01 
    7.7023882181572900E-01 
    7.7019038728636413E-01 
    7.7580971255621789E-01 
    7.7583897496848919E-01 
    7.7016239060836045E-01 
    7.7015563445458668E-01 
    7.7587060939793429E-01 
    7.7589758074733528E-01 
    7.7015752836573226E-01 
    7.7015635434945673E-01 
    7.7591608008875623E-01 
    7.7592461980934846E-01 
    7.7014785644099604E-01 
    7.7013430974928609E-01 
    7.7592069819153275E-01 
    7.7590330467574309E-01 
    7.7011591344510866E-01 
    7.7009352979559320E-01 
    7.7587165732294683E-01 
    7.7582646319179793E-01 
    7.7006713733184318E-01 
    7.7003873745650186E-01 
    7.7576858593444464E-01 
    7.6635968674792365E-01 
    7.5768989498256145E-01 
    7.5767050623207644E-01 
    7.6633434444101423E-01 
    7.6628447669949906E-01 
    7.5763205836829006E-01 
    7.5757520660822342E-01 
    7.6621106293220487E-01 
    7.6611571140545509E-01 
    7.5750044920709136E-01 
    7.5740855433234067E-01 
    7.6599998511278988E-01 
    7.6586597615257079E-01 
    7.5730028772665581E-01 
    7.5717676524704547E-01 
    7.6571570154979640E-01 
    7.6555131822892242E-01 
    7.5703898516244172E-01 
    7.5688812508712333E-01 
    7.6537484088930263E-01 
    7.6518883648136882E-01 
    7.5672556674102676E-01 
    7.5655273999295936E-01 
    7.6499563701990880E-01 
    7.6479761986231187E-01 
    7.5637101866739953E-01 
    7.5618165445256202E-01 
    7.6459669718196488E-01 
    7.6439449818135841E-01 
    7.5598575787952882E-01 
    7.5578449204440457E-01 
    7.6419264816529731E-01 
    7.6399292694909726E-01 
    7.5557944453663783E-01 
    7.5537203650993734E-01 
    7.6379678985381161E-01 
    7.6360548378191118E-01 
    7.5516384254302960E-01 
    7.5495626176102959E-01 
    7.6342009503456298E-01 
    7.6324111634298697E-01 
    7.5475052476640814E-01 
    7.5454737868865573E-01 
    7.6306880450990355E-01 
    7.6290343030643970E-01 
    7.5434795886157890E-01 
    7.5415267008483522E-01 
    7.6274524976352509E-01 
    7.6259397849490240E-01 
    7.5396179983350009E-01 
    7.5377531895521510E-01 
    7.6244932954363787E-01 
    7.6231054966774969E-01 
    7.5359321231097987E-01 
    7.5341545982870417E-01 
    7.6217735062244274E-01 
    7.6205028457574775E-01 
    7.5324252622309085E-01 
    7.5307454423458453E-01 
    7.6193019052656641E-01 
    7.6182004890635435E-01 
    7.5291212702810562E-01 
    7.5275629225118823E-01 
    7.6172528327685907E-01 
    7.6164920163951710E-01 
    7.5260984974988554E-01 
    7.5248130065478935E-01 
    7.6159158216699130E-01 
    7.6154868077389370E-01 
    7.5238061317287841E-01 
    7.5230727293132382E-01 
    7.6151421072656522E-01 
    7.6148298932281844E-01 
    7.5225479232342218E-01 
    7.5222028117420803E-01 
    7.6145637661532739E-01 
    7.6143842354759395E-01 
    7.5220330714458050E-01 
    7.5220597682013823E-01 
    7.6143216484120690E-01 
    7.4864965679504358E-01 
    7.3904985752738994E-01 
    7.3904234247895584E-01 
    7.4863499123686561E-01 
    7.4860596290733561E-01 
    7.3902724980875734E-01 
    7.3900466851263569E-01 
    7.4856276210225448E-01 
    7.4850566747562919E-01 
    7.3897432706445443E-01 
    7.3893608736141470E-01 
    7.4843483499604480E-01 
    7.4835059183816965E-01 
    7.3888951330531272E-01 
    7.3883448808586993E-01 
    7.4825333041153907E-01 
    7.4814365136994332E-01 
    7.3877071465778865E-01 
    7.3869793583471743E-01 
    7.4802192859019112E-01 
    7.4788879508829997E-01 
    7.3861572741544734E-01 
    7.3852366241576517E-01 
    7.4774467779769371E-01 
    7.4759016780642695E-01 
    7.3842116881413056E-01 
    7.3830794804304212E-01 
    7.4742573327246487E-01 
    7.4725203381890759E-01 
    7.3818371328181498E-01 
    7.3804838343892631E-01 
    7.4706962344871830E-01 
    7.4687975011328556E-01 
    7.3790256311530089E-01 
    7.3774710837962387E-01 
    7.4668356503518540E-01 
    7.4648256078892938E-01 
    7.3758312424439032E-01 
    7.3741204514067793E-01 
    7.4627825786132918E-01 
    7.4607217851550278E-01 
    7.3723545737770624E-01 
    7.3705495289676104E-01 
    7.4586560588124784E-01 
    7.4566008956540730E-01 
    7.3687250575872820E-01 
    7.3668909696436913E-01 
    7.4545640692322335E-01 
    7.4525498239218091E-01 
    7.3650546216884760E-01 
    7.3632228466151939E-01 
    7.4505630366208642E-01 
    7.4486077314870813E-01 
    7.3614055826524427E-01 
    7.3596118028107937E-01 
    7.4466899501631889E-01 
    7.4448154567580482E-01 
    7.3578527040344799E-01 
    7.3561363741607078E-01 
    7.4429888842683967E-01 
    7.4412175022954885E-01 
    7.3544753595411216E-01 
    7.3528944353139258E-01 
    7.4395227903858419E-01 
    7.4379215982922064E-01 
    7.3514214847430071E-01 
    7.3500813989678904E-01 
    7.4364476683710024E-01 
    7.4351672915285949E-01 
    7.3489055102439516E-01 
    7.3479235465413795E-01 
    7.4341459228161733E-01 
    7.4334013572428603E-01 
    7.3471604857548800E-01 
    7.3465961094055210E-01 
    7.4329206320219932E-01 
    7.4326986235379466E-01 
    7.3462993793244480E-01 
    7.3462967303070992E-01 
    7.4327318697413725E-01 
    7.2882849798448845E-01 
    7.1791682240312571E-01 
    7.1792596350262794E-01 
    7.2882994111238653E-01 
    7.2883264236538114E-01 
    7.1794402480677388E-01 
    7.1797047283008142E-01 
    7.2883630752308282E-01 
    7.2884034019670063E-01 
    7.1800453742032688E-01 
    7.1804515110245848E-01 
    7.2884401606772409E-01 
    7.2884638672080349E-01 
    7.1809098284935446E-01 
    7.1814028694815302E-01 
    7.2884638309741512E-01 
    7.2884283496652535E-01 
    7.1819099224574479E-01 
    7.1824116521912806E-01 
    7.2883446470959690E-01 
    7.2882013058068795E-01 
    7.1828891830706221E-01 
    7.1833191717441192E-01 
    7.2879817005673886E-01 
    7.2876711711127373E-01 
    7.1836765559232663E-01 
    7.1839371413125375E-01 
    7.2872532916264332E-01 
    7.2867165454983551E-01 
    7.1840747233642133E-01 
    7.1840694524677529E-01 
    7.2860477725737838E-01 
    7.2852499941454929E-01 
    7.1839165863024312E-01 
    7.1836166112249189E-01 
    7.2843237911979508E-01 
    7.2832785973476388E-01 
    7.1831711077474514E-01 
    7.1825892630060462E-01 
    7.2821229133739607E-01 
    7.2808739799940803E-01 
    7.1818829305951959E-01 
    7.1810713697899131E-01 
    7.2795468878489589E-01 
    7.2781652429586563E-01 
    7.1801758329278742E-01 
    7.1792104989907046E-01 
    7.2767388577171899E-01 
    7.2752766682178571E-01 
    7.1781805636150342E-01 
    7.1770947846670052E-01 
    7.2737859229227653E-01 
    7.2722801285130956E-01 
    7.1759639752347371E-01 
    7.1748022869366757E-01 
    7.2707704731315947E-01 
    7.2692720598816263E-01 
    7.1736243443793157E-01 
    7.1724442058653970E-01 
    7.2677959933257297E-01 
    7.2663566397658508E-01 
    7.1712724295981367E-01 
    7.1701361022814480E-01 
    7.2649809943587262E-01 
    7.2636979039815175E-01 
    7.1690624092769939E-01 
    7.1680754668068314E-01 
    7.2625333353402166E-01 
    7.2615140805128497E-01 
    7.1671970916368910E-01 
    7.1664440127664808E-01 
    7.2606619238586678E-01 
    7.2599890432535885E-01 
    7.1658291453646172E-01 
    7.1653369470524775E-01 
    7.2594735503170627E-01 
    7.2591540074725547E-01 
    7.1649635613497220E-01 
    7.1647688974046086E-01 
    7.2590917401337451E-01 
    7.0588719896977559E-01 
    6.9165331431842125E-01 
    6.9164923152267654E-01 
    7.0589384349360373E-01 
    7.0590758315238933E-01 
    6.9164092704299440E-01 
    6.9162864697166204E-01 
    7.0592835123869013E-01 
    7.0595601070598257E-01 
    6.9161263177449139E-01 
    6.9159341398130225E-01 
    7.0598997398332053E-01 
    7.0602958657467685E-01 
    6.9157137601614593E-01 
    6.9154683082619584E-01 
    7.0607360087375237E-01 
    7.0612048706515029E-01 
    6.9151952738956213E-01 
    6.9148983658409491E-01 
    7.0616870266152931E-01 
    7.0621622892246816E-01 
    6.9145847885583167E-01 
    6.9142678585794104E-01 
    7.0626107107809599E-01 
    7.0630134580119197E-01 
    6.9139549291226499E-01 
    6.9136526053688918E-01 
    7.0633489959124185E-01 
    7.0635921637988996E-01 
    6.9133569348478396E-01 
    6.9130687762684906E-01 
    7.0637218168833682E-01 
    7.0637568382449001E-01 
    6.9127859064838915E-01 
    6.9125137319469288E-01 
    7.0636755596227063E-01 
    7.0634781956653758E-01 
    6.9122498844244795E-01 
    6.9119961545891262E-01 
    7.0631689980427814E-01 
    7.0627583711843955E-01 
    6.9117462108989447E-01 
    6.9114997059935523E-01 
    7.0622626423482782E-01 
    7.0617034728001016E-01 
    6.9112464760826298E-01 
    6.9109831071971350E-01 
    7.0611234706456849E-01 
    7.0605024136372585E-01 
    6.9107093139311648E-01 
    6.9104316701393376E-01 
    7.0598397834167248E-01 
    7.0591406622118591E-01 
    6.9101498993714239E-01 
    6.9098710228400184E-01 
    7.0584140588333644E-01 
    7.0576735682626646E-01 
    6.9095969612469321E-01 
    6.9093360093032485E-01 
    7.0569324012830625E-01 
    7.0561739561559977E-01 
    6.9090829957096445E-01 
    6.9088417733110807E-01 
    7.0554172140847260E-01 
    7.0546814658339319E-01 
    6.9086101000293010E-01 
    6.9083921225644562E-01 
    7.0539840237981655E-01 
    7.0533400293396520E-01 
    6.9081871417018170E-01 
    6.9079985033682056E-01 
    7.0527599722484913E-01 
    7.0522526072037506E-01 
    6.9078217544431164E-01 
    6.9076403801930930E-01 
    7.0518076052864198E-01 
    7.0514042320199155E-01 
    6.9074477510504240E-01 
    6.9073054824875402E-01 
    7.0510901631321266E-01 
    6.7605076721486546E-01 
    6.6151503421622415E-01 
    6.6150634816417664E-01 
    6.7603619727517283E-01 
    6.7600753926780777E-01 
    6.6148923006854388E-01 
    6.6146398590503852E-01 
    6.7596558595535006E-01 
    6.7591132981382274E-01 
    6.6143115845018297E-01 
    6.6139136026095846E-01 
    6.7584610608298434E-01 
    6.7577140918561096E-01 
    6.6134553369486038E-01 
    6.6129458150336673E-01 
    6.7568874812073543E-01 
    6.7559956953750022E-01 
    6.6123968362538199E-01 
    6.6118213078515187E-01 
    6.7550589353213208E-01 
    6.7541132210594279E-01 
    6.6112369242455171E-01 
    6.6106569550171534E-01 
    6.7531824214834768E-01 
    6.7522884972368213E-01 
    6.6101007727692673E-01 
    6.6095819076924234E-01 
    6.7514517202584479E-01 
    6.7506871442163463E-01 
    6.6091183492955186E-01 
    6.6087245717716847E-01 
    6.7500170206139221E-01 
    6.7494360616337790E-01 
    6.6084115618246497E-01 
    6.6081780504424403E-01 
    6.7489637730257068E-01 
    6.7486000705975824E-01 
    6.6080299487937977E-01 
    6.6079620202319955E-01 
    6.7483450023337543E-01 
    6.7481899315135307E-01 
    6.6079751438985990E-01 
    6.6080578208933438E-01 
    6.7481259082831524E-01 
    6.7481323387507852E-01 
    6.6082036196552774E-01 
    6.6084005736923479E-01 
    6.7481759579336531E-01 
    6.7482670431415004E-01 
    6.6086422210585749E-01 
    6.6089214528018547E-01 
    6.7484066411105803E-01 
    6.7485882270862740E-01 
    6.6092369764851899E-01 
    6.6095791684495109E-01 
    6.7488087730914048E-01 
    6.7490596335097075E-01 
    6.6099448030548147E-01 
    6.6103264839101394E-01 
    6.7493377388972797E-01 
    6.7496481838620526E-01 
    6.6107234801677295E-01 
    6.6111200896209221E-01 
    6.7499767067227667E-01 
    6.7503069196883148E-01 
    6.6115076167047937E-01 
    6.6118736508544684E-01 
    6.7506284968601449E-01 
    6.7509324400438531E-01 
    6.6122156152586375E-01 
    6.6125299110170510E-01 
    6.7512167288301472E-01 
    6.7514734810601773E-01 
    6.6128146048739045E-01 
    6.6130465653275017E-01 
    6.7516749871164039E-01 
    6.7518106105643816E-01 
    6.6131864755842973E-01 
    6.6132840208680810E-01 
    6.7519551736485872E-01 
    6.4752456310602347E-01 
    6.3331294334711241E-01 
    6.3333204817797562E-01 
    6.4752945388505723E-01 
    6.4753874399977684E-01 
    6.3336952087886877E-01 
    6.3342412669398818E-01 
    6.4755219259843377E-01 
    6.4756914332733684E-01 
    6.3349448680527787E-01 
    6.3357880775900710E-01 
    6.4758921556247651E-01 
    6.4761171911681736E-01 
    6.3367517994456857E-01 
    6.3378145498173688E-01 
    6.4763624502498285E-01 
    6.4766232656032630E-01 
    6.3389561009368112E-01 
    6.3401567397441660E-01 
    6.4768987868170802E-01 
    6.4771859211305405E-01 
    6.3413968896905426E-01 
    6.3426569974625147E-01 
    6.4774832102100099E-01 
    6.4777905816111203E-01 
    6.3439201218999786E-01 
    6.3451716553769366E-01 
    6.4781092578797317E-01 
    6.4784446652218386E-01 
    6.3464030256501713E-01 
    6.3476024571401057E-01 
    6.4788019118294726E-01 
    6.4791772546319837E-01 
    6.3487544785056327E-01 
    6.3498478879816733E-01 
    6.4795658564213343E-01 
    6.4799649631262102E-01 
    6.3508730977105676E-01 
    6.3518214122780736E-01 
    6.4803697419415596E-01 
    6.4807764359588005E-01 
    6.3526861034992899E-01 
    6.3534622936304086E-01 
    6.4811781089735221E-01 
    6.4815708252890569E-01 
    6.3541494638434970E-01 
    6.3547459240478954E-01 
    6.4819490227580745E-01 
    6.4823086612672831E-01 
    6.3552513732593041E-01 
    6.3556707347119379E-01 
    6.4826490543858861E-01 
    6.4829714700165542E-01 
    6.3560089918283180E-01 
    6.3562708503170295E-01 
    6.4832732314055130E-01 
    6.4835544317906402E-01 
    6.3564623616344285E-01 
    6.3565907199469973E-01 
    6.4838145624657118E-01 
    6.4840556830213103E-01 
    6.3566630946327252E-01 
    6.3566852968272325E-01 
    6.4842725886604147E-01 
    6.4844629420203725E-01 
    6.3566635251691028E-01 
    6.3566050881769298E-01 
    6.4846237477517787E-01 
    6.4847575458401041E-01 
    6.3565188112288662E-01 
    6.3564106076640214E-01 
    6.4848655221537521E-01 
    6.4849482777137601E-01 
    6.3562815895665647E-01 
    6.3561269451332159E-01 
    6.4849991435947663E-01 
    6.4850064188614398E-01 
    6.3559731096650840E-01 
    6.3558495520611391E-01 
    6.4849977488921595E-01 
    6.1852036259848242E-01 
    6.0224949857150112E-01 
    6.0227168433268319E-01 
    6.1854922570668047E-01 
    6.1860585135844381E-01 
    6.0231565423853750E-01 
    6.0238014832373654E-01 
    6.1868853921017175E-01 
    6.1879528749292834E-01 
    6.0246378617318208E-01 
    6.0256446066532610E-01 
    6.1892347183904450E-01 
    6.1907042383843913E-01 
    6.0268027746636754E-01 
    6.0280865169093378E-01 
    6.1923293947659352E-01 
    6.1940742648460656E-01 
    6.0294571037812061E-01 
    6.0308965621272059E-01 
    6.1959027606718975E-01 
    6.1977877028550066E-01 
    6.0323739073868787E-01 
    6.0338656066786911E-01 
    6.1996962539134826E-01 
    6.2016054698805045E-01 
    6.0353506841964288E-01 
    6.0368052760298696E-01 
    6.2034858353061595E-01 
    6.2053120182125043E-01 
    6.0381914827457839E-01 
    6.0394853782154467E-01 
    6.2070517100484612E-01 
    6.2086903506417623E-01 
    6.0406903265287193E-01 
    6.0417780472097060E-01 
    6.2102096379135574E-01 
    6.2115999590691684E-01 
    6.0427313651888725E-01 
    6.0435460467654223E-01 
    6.2128447348942906E-01 
    6.2139427933671798E-01 
    6.0442161440179920E-01 
    6.0447459528508174E-01 
    6.2148854104062068E-01 
    6.2156807401393865E-01 
    6.0451377347183577E-01 
    6.0454255273133106E-01 
    6.2163243593142459E-01 
    6.2168258788161590E-01 
    6.0455876864423519E-01 
    6.0456334232379672E-01 
    6.2171877417481913E-01 
    6.2174241904350769E-01 
    6.0455646609712010E-01 
    6.0453945489382233E-01 
    6.2175392531576290E-01 
    6.2175502740243971E-01 
    6.0451317033749419E-01 
    6.0447946887338588E-01 
    6.2174644491059361E-01 
    6.2172988736332968E-01 
    6.0443762046675131E-01 
    6.0438978166382495E-01 
    6.2170628071821143E-01 
    6.2167762796003234E-01 
    6.0433730955869580E-01 
    6.0428237226530479E-01 
    6.2164496155584414E-01 
    6.2161021976267095E-01 
    6.0422613998817265E-01 
    6.0416934897302288E-01 
    6.2157361805376310E-01 
    6.2153537556179861E-01 
    6.0411042810455418E-01 
    6.0404659558048013E-01 
    6.2149291912887628E-01 
    6.2145215432453260E-01 
    6.0398651139287096E-01 
    6.0393797629507506E-01 
    6.2141866392393497E-01 
    5.8261649676250216E-01 
    5.6135284597239343E-01 
    5.6132272170897068E-01 
    5.8261166848485946E-01 
    5.8260198310344113E-01 
    5.6126369777395579E-01 
    5.6117783048041348E-01 
    5.8258767507087816E-01 
    5.8256910733861345E-01 
    5.6106739149202289E-01 
    5.6093542148983433E-01 
    5.8254685812731777E-01 
    5.8252138443454726E-01 
    5.6078475473243394E-01 
    5.6061852434268578E-01 
    5.8249308598247418E-01 
    5.8246169899126721E-01 
    5.6044020046770437E-01 
    5.6025157263704972E-01 
    5.8242739422849266E-01 
    5.8239067936815148E-01 
    5.6005817871449404E-01 
    5.5986350537329022E-01 
    5.8235280584635940E-01 
    5.8231437508378070E-01 
    5.5967059065349345E-01 
    5.5948263065645898E-01 
    5.8227666754658303E-01 
    5.8223924825006546E-01 
    5.5930251519843865E-01 
    5.5913254270504875E-01 
    5.8220206433999244E-01 
    5.8216418778012535E-01 
    5.5897122922446685E-01 
    5.5882282004919404E-01 
    5.8212675183607288E-01 
    5.8208967763332087E-01 
    5.5868916299872340E-01 
    5.5857152277799871E-01 
    5.8205401425200387E-01 
    5.8201938190246949E-01 
    5.5847016782781600E-01 
    5.5838479316577216E-01 
    5.8198661475125057E-01 
    5.8195520526691158E-01 
    5.5831447599957640E-01 
    5.5825549548824693E-01 
    5.8192610073972073E-01 
    5.8189853432102534E-01 
    5.5821025497674637E-01 
    5.5817847351239536E-01 
    5.8187301647094880E-01 
    5.8184868209877483E-01 
    5.5815945729638716E-01 
    5.5815225992115525E-01 
    5.8182604981394437E-01 
    5.8180458749737518E-01 
    5.5815564803473716E-01 
    5.5816614280807497E-01 
    5.8178508011375762E-01 
    5.8176679555316146E-01 
    5.5818527177436095E-01 
    5.5821138246766300E-01 
    5.8174996997628536E-01 
    5.8173379457236107E-01 
    5.5824297865588435E-01 
    5.5827884554439244E-01 
    5.8171902607196124E-01 
    5.8170536278785046E-01 
    5.5831805017020775E-01 
    5.5835964002284300E-01 