# vtk DataFile Version 2.0
Pressure Field Data 
ASCII 
DATASET UNSTRUCTURED_GRID 

POINTS 1681 double 

    0.0000000000000000E+00     0.0000000000000000E+00     0.0000000000000000E+00 
    1.0000000000000000E+00     0.0000000000000000E+00     0.0000000000000000E+00 
    1.0000000000000000E+00     1.0000000000000000E+00     0.0000000000000000E+00 
    0.0000000000000000E+00     1.0000000000000000E+00     0.0000000000000000E+00 
    5.2499999999875258E-01     0.0000000000000000E+00     0.0000000000000000E+00 
    7.4999999999856765E-02     0.0000000000000000E+00     0.0000000000000000E+00 
    1.2499999999975850E-01     0.0000000000000000E+00     0.0000000000000000E+00 
    1.7499999999962990E-01     0.0000000000000000E+00     0.0000000000000000E+00 
    2.2499999999948389E-01     0.0000000000000000E+00     0.0000000000000000E+00 
    2.7499999999933789E-01     0.0000000000000000E+00     0.0000000000000000E+00 
    3.2499999999919210E-01     0.0000000000000000E+00     0.0000000000000000E+00 
    3.7499999999904610E-01     0.0000000000000000E+00     0.0000000000000000E+00 
    4.2499999999890020E-01     0.0000000000000000E+00     0.0000000000000000E+00 
    4.7499999999875958E-01     0.0000000000000000E+00     0.0000000000000000E+00 
    2.4999999999949701E-02     0.0000000000000000E+00     0.0000000000000000E+00 
    5.7499999999887907E-01     0.0000000000000000E+00     0.0000000000000000E+00 
    6.2499999999901101E-01     0.0000000000000000E+00     0.0000000000000000E+00 
    6.7499999999914273E-01     0.0000000000000000E+00     0.0000000000000000E+00 
    7.2499999999927467E-01     0.0000000000000000E+00     0.0000000000000000E+00 
    7.7499999999940661E-01     0.0000000000000000E+00     0.0000000000000000E+00 
    8.2499999999953844E-01     0.0000000000000000E+00     0.0000000000000000E+00 
    8.7499999999967026E-01     0.0000000000000000E+00     0.0000000000000000E+00 
    9.2499999999980220E-01     0.0000000000000000E+00     0.0000000000000000E+00 
    9.7499999999993414E-01     0.0000000000000000E+00     0.0000000000000000E+00 
    5.4999999999881310E-01     0.0000000000000000E+00     0.0000000000000000E+00 
    9.9999999999814140E-02     0.0000000000000000E+00     0.0000000000000000E+00 
    1.4999999999970290E-01     0.0000000000000000E+00     0.0000000000000000E+00 
    1.9999999999955689E-01     0.0000000000000000E+00     0.0000000000000000E+00 
    2.4999999999941089E-01     0.0000000000000000E+00     0.0000000000000000E+00 
    2.9999999999926502E-01     0.0000000000000000E+00     0.0000000000000000E+00 
    3.4999999999911913E-01     0.0000000000000000E+00     0.0000000000000000E+00 
    3.9999999999897312E-01     0.0000000000000000E+00     0.0000000000000000E+00 
    4.4999999999882723E-01     0.0000000000000000E+00     0.0000000000000000E+00 
    4.9999999999869210E-01     0.0000000000000000E+00     0.0000000000000000E+00 
    4.9999999999899403E-02     0.0000000000000000E+00     0.0000000000000000E+00 
    5.9999999999894504E-01     0.0000000000000000E+00     0.0000000000000000E+00 
    6.4999999999907687E-01     0.0000000000000000E+00     0.0000000000000000E+00 
    6.9999999999920870E-01     0.0000000000000000E+00     0.0000000000000000E+00 
    7.4999999999934064E-01     0.0000000000000000E+00     0.0000000000000000E+00 
    7.9999999999947247E-01     0.0000000000000000E+00     0.0000000000000000E+00 
    8.4999999999960441E-01     0.0000000000000000E+00     0.0000000000000000E+00 
    8.9999999999973623E-01     0.0000000000000000E+00     0.0000000000000000E+00 
    9.4999999999986817E-01     0.0000000000000000E+00     0.0000000000000000E+00 
    1.0000000000000000E+00     5.2499999999875258E-01     0.0000000000000000E+00 
    1.0000000000000000E+00     7.4999999999856765E-02     0.0000000000000000E+00 
    1.0000000000000000E+00     1.2499999999975850E-01     0.0000000000000000E+00 
    1.0000000000000000E+00     1.7499999999962990E-01     0.0000000000000000E+00 
    1.0000000000000000E+00     2.2499999999948389E-01     0.0000000000000000E+00 
    1.0000000000000000E+00     2.7499999999933789E-01     0.0000000000000000E+00 
    1.0000000000000000E+00     3.2499999999919210E-01     0.0000000000000000E+00 
    1.0000000000000000E+00     3.7499999999904610E-01     0.0000000000000000E+00 
    1.0000000000000000E+00     4.2499999999890020E-01     0.0000000000000000E+00 
    1.0000000000000000E+00     4.7499999999875958E-01     0.0000000000000000E+00 
    1.0000000000000000E+00     2.4999999999949701E-02     0.0000000000000000E+00 
    1.0000000000000000E+00     5.7499999999887907E-01     0.0000000000000000E+00 
    1.0000000000000000E+00     6.2499999999901101E-01     0.0000000000000000E+00 
    1.0000000000000000E+00     6.7499999999914273E-01     0.0000000000000000E+00 
    1.0000000000000000E+00     7.2499999999927467E-01     0.0000000000000000E+00 
    1.0000000000000000E+00     7.7499999999940661E-01     0.0000000000000000E+00 
    1.0000000000000000E+00     8.2499999999953844E-01     0.0000000000000000E+00 
    1.0000000000000000E+00     8.7499999999967026E-01     0.0000000000000000E+00 
    1.0000000000000000E+00     9.2499999999980220E-01     0.0000000000000000E+00 
    1.0000000000000000E+00     9.7499999999993414E-01     0.0000000000000000E+00 
    1.0000000000000000E+00     5.4999999999881310E-01     0.0000000000000000E+00 
    1.0000000000000000E+00     9.9999999999814140E-02     0.0000000000000000E+00 
    1.0000000000000000E+00     1.4999999999970290E-01     0.0000000000000000E+00 
    1.0000000000000000E+00     1.9999999999955689E-01     0.0000000000000000E+00 
    1.0000000000000000E+00     2.4999999999941089E-01     0.0000000000000000E+00 
    1.0000000000000000E+00     2.9999999999926502E-01     0.0000000000000000E+00 
    1.0000000000000000E+00     3.4999999999911913E-01     0.0000000000000000E+00 
    1.0000000000000000E+00     3.9999999999897312E-01     0.0000000000000000E+00 
    1.0000000000000000E+00     4.4999999999882723E-01     0.0000000000000000E+00 
    1.0000000000000000E+00     4.9999999999869210E-01     0.0000000000000000E+00 
    1.0000000000000000E+00     4.9999999999899403E-02     0.0000000000000000E+00 
    1.0000000000000000E+00     5.9999999999894504E-01     0.0000000000000000E+00 
    1.0000000000000000E+00     6.4999999999907687E-01     0.0000000000000000E+00 
    1.0000000000000000E+00     6.9999999999920870E-01     0.0000000000000000E+00 
    1.0000000000000000E+00     7.4999999999934064E-01     0.0000000000000000E+00 
    1.0000000000000000E+00     7.9999999999947247E-01     0.0000000000000000E+00 
    1.0000000000000000E+00     8.4999999999960441E-01     0.0000000000000000E+00 
    1.0000000000000000E+00     8.9999999999973623E-01     0.0000000000000000E+00 
    1.0000000000000000E+00     9.4999999999986817E-01     0.0000000000000000E+00 
    4.7500000000196618E-01     1.0000000000000000E+00     0.0000000000000000E+00 
    9.2499999999968763E-01     1.0000000000000000E+00     0.0000000000000000E+00 
    8.7499999999961831E-01     1.0000000000000000E+00     0.0000000000000000E+00 
    8.2499999999982654E-01     1.0000000000000000E+00     0.0000000000000000E+00 
    7.7500000000017355E-01     1.0000000000000000E+00     0.0000000000000000E+00 
    7.2500000000052045E-01     1.0000000000000000E+00     0.0000000000000000E+00 
    6.7500000000086724E-01     1.0000000000000000E+00     0.0000000000000000E+00 
    6.2500000000121403E-01     1.0000000000000000E+00     0.0000000000000000E+00 
    5.7500000000156093E-01     1.0000000000000000E+00     0.0000000000000000E+00 
    5.2500000000189684E-01     1.0000000000000000E+00     0.0000000000000000E+00 
    9.7499999999989595E-01     1.0000000000000000E+00     0.0000000000000000E+00 
    4.2500000000176902E-01     1.0000000000000000E+00     0.0000000000000000E+00 
    3.7500000000156092E-01     1.0000000000000000E+00     0.0000000000000000E+00 
    3.2500000000135282E-01     1.0000000000000000E+00     0.0000000000000000E+00 
    2.7500000000114472E-01     1.0000000000000000E+00     0.0000000000000000E+00 
    2.2500000000093659E-01     1.0000000000000000E+00     0.0000000000000000E+00 
    1.7500000000072849E-01     1.0000000000000000E+00     0.0000000000000000E+00 
    1.2500000000052039E-01     1.0000000000000000E+00     0.0000000000000000E+00 
    7.5000000000312261E-02     1.0000000000000000E+00     0.0000000000000000E+00 
    2.5000000000104109E-02     1.0000000000000000E+00     0.0000000000000000E+00 
    4.5000000000187301E-01     1.0000000000000000E+00     0.0000000000000000E+00 
    8.9999999999958358E-01     1.0000000000000000E+00     0.0000000000000000E+00 
    8.4999999999965303E-01     1.0000000000000000E+00     0.0000000000000000E+00 
    8.0000000000000004E-01     1.0000000000000000E+00     0.0000000000000000E+00 
    7.5000000000034706E-01     1.0000000000000000E+00     0.0000000000000000E+00 
    7.0000000000069384E-01     1.0000000000000000E+00     0.0000000000000000E+00 
    6.5000000000104063E-01     1.0000000000000000E+00     0.0000000000000000E+00 
    6.0000000000138742E-01     1.0000000000000000E+00     0.0000000000000000E+00 
    5.5000000000173432E-01     1.0000000000000000E+00     0.0000000000000000E+00 
    5.0000000000205946E-01     1.0000000000000000E+00     0.0000000000000000E+00 
    9.4999999999979179E-01     1.0000000000000000E+00     0.0000000000000000E+00 
    4.0000000000166491E-01     1.0000000000000000E+00     0.0000000000000000E+00 
    3.5000000000145681E-01     1.0000000000000000E+00     0.0000000000000000E+00 
    3.0000000000124871E-01     1.0000000000000000E+00     0.0000000000000000E+00 
    2.5000000000104061E-01     1.0000000000000000E+00     0.0000000000000000E+00 
    2.0000000000083251E-01     1.0000000000000000E+00     0.0000000000000000E+00 
    1.5000000000062441E-01     1.0000000000000000E+00     0.0000000000000000E+00 
    1.0000000000041630E-01     1.0000000000000000E+00     0.0000000000000000E+00 
[...]
CELL_DATA 1600 
SCALARS Pressure double 1 
LOOKUP_TABLE default 

    7.5138496042020420E-01 
    7.3426070609356531E-01 
    7.3417955468943896E-01 
    7.4954597107856324E-01 
    7.4788003916687051E-01 
    7.3403451415977983E-01 
    7.3383938071509447E-01 
    7.4636829298638141E-01 
    7.4499542287243326E-01 
    7.3360630507867930E-01 
    7.3334496742574617E-01 
    7.4374878449406712E-01 
    7.4261710470532682E-01 
    7.3306401302234769E-01 
    7.3277027559891217E-01 
    7.4159052298132500E-01 
    7.4066015588187728E-01 
    7.3246984662275860E-01 
    7.3216743653945615E-01 
    7.3981834657930545E-01 
    7.3905844048314351E-01 
    7.3186770730893891E-01 
    7.3157421162490088E-01 
    7.3837459044690523E-01 
    7.3776134219422462E-01 
    7.3129026491693616E-01 
    7.3101808630684817E-01 
    7.3721368331885606E-01 
    7.3672683733602140E-01 
    7.3075950701641745E-01 
    7.3051591470412980E-01 
    7.3629673733249856E-01 
    7.3591904263605401E-01 
    7.3028867562027866E-01 
    7.3007835223138928E-01 
    7.3558964515731640E-01 
    7.3530434855743343E-01 
    7.2988521339095902E-01 
    7.2970911986619857E-01 
    7.3505906148006417E-01 
    7.3484948053818744E-01 
    7.2954935178049229E-01 
    7.2940496482057016E-01 
    7.3467155864179268E-01 
    7.3452152822710615E-01 
    7.2927488950647434E-01 
    7.2915871632777129E-01 
    7.3439727523195253E-01 
    7.3429677545567806E-01 
    7.2905539446900591E-01 
    7.2896409066651058E-01 
    7.3421806385628863E-01 
    7.3415946007223409E-01 
    7.2888337754788435E-01 
    7.2881252553280285E-01 
    7.3411961092106759E-01 
    7.3409901669236688E-01 
    7.2875162413581007E-01 
    7.2870257250718595E-01 
    7.3409764531184840E-01 
    7.3411775015448233E-01 
    7.2867096008790322E-01 
    7.2866086203794211E-01 
    7.3414624980625387E-01 
    7.3417162715280482E-01 
    7.2866323063521654E-01 
    7.2866491986297399E-01 
    7.3418922500846406E-01 
    7.3419754770299672E-01 
    7.2865904892752442E-01 
    7.2864653752942532E-01 
    7.3419402835505887E-01 
    7.3417757181312404E-01 
    7.2862859829410198E-01 
    7.2860685339083942E-01 
    7.3414736009378789E-01 
    7.3410406578136300E-01 
    7.2858123146346621E-01 
    7.2855365515827952E-01 
    7.3404856167513222E-01 
    7.2505958839501650E-01 
    7.1666625675239504E-01 
    7.1664772886591321E-01 
    7.2503468715148567E-01 
    7.2498570153904607E-01 
    7.1661098394322076E-01 
    7.1655665621518572E-01 
    7.2491362665586967E-01 
    7.2482009346481158E-01 
    7.1648524270125402E-01 
    7.1639750082988085E-01 
    7.2470668988673059E-01 
    7.2457548581861841E-01 
    7.1629416330113826E-01 
    7.1617630255902753E-01 
    7.2442848173478269E-01 
    7.2426784194749216E-01 
    7.1604489193755227E-01 
    7.1590105392935988E-01 
    7.2409556094207828E-01 
    7.2391408522189860E-01 
    7.1574603631971212E-01 
    7.1558115985526205E-01 
    7.2372563589110206E-01 
    7.2353252350435227E-01 
    7.1540774885956726E-01 
    7.1522702892879075E-01 
    7.2333664415882926E-01 
    7.2313962287610767E-01 
    7.1504006979360835E-01 
    7.1484799345540706E-01 
    7.2294306134078856E-01 
    7.2274870886262543E-01 
    7.1465234092113117E-01 
    7.1445445673212038E-01 
    7.2255797953053769E-01 
    7.2237207764614975E-01 
    7.1425580475966599E-01 
    7.1405770794680767E-01 
    7.2219206792004886E-01 
    7.2201846763332711E-01 
    7.1386136195308292E-01 
    7.1366749636815940E-01 
    7.2185154913504079E-01 
    7.2169156928439260E-01 
    7.1347718835061968E-01 
    7.1329077595080015E-01 
    7.2153871838083372E-01 
    7.2139264709049644E-01 
    7.1310847056188342E-01 
    7.1293015527535175E-01 
    7.2125298086782363E-01 
    7.2111891873897560E-01 
    7.1275572012302413E-01 
    7.1258501033515642E-01 
    7.2099004378481724E-01 
    7.2086655035688729E-01 
    7.1241826590071744E-01 
    7.1225542982372603E-01 
    7.2074903675198765E-01 
    7.2063881336075664E-01 
    7.1209683921282496E-01 
    7.1194365037386342E-01 
    7.2054108409782236E-01 
    7.2046140079422516E-01 
    7.1179878208839664E-01 
    7.1167037945422607E-01 
    7.2040161129871527E-01 
    7.2035934231716736E-01 
    7.1156937906300066E-01 
    7.1149846906359870E-01 
    7.2032970862739554E-01 
    7.2030655546062827E-01 
    7.1145207013124145E-01 
    7.1142367139685836E-01 
    7.2028653739557558E-01 
    7.2027150386026795E-01 
    7.1141095311294977E-01 
    7.1141492013218888E-01 
    7.2026584076157618E-01 
    7.0796958498530282E-01 
    6.9877651117492623E-01 
    6.9876969004672573E-01 
    7.0795586445264591E-01 
    7.0792871283262493E-01 
    6.9875599855474901E-01 
    6.9873553242068276E-01 
    7.0788831823621079E-01 
    7.0783495452594225E-01 
    6.9870804780211282E-01 
    6.9867342334965143E-01 
    7.0776877858772602E-01 
    7.0769009543633199E-01 
    6.9863124811825128E-01 
    6.9858140015049608E-01 
    7.0759926025799702E-01 
    7.0749683070395442E-01 
    6.9852359823093035E-01 
    6.9845759686295938E-01 
    7.0738315143723318E-01 
    7.0725876234962892E-01 
    6.9838294910641219E-01 
    6.9829920369085008E-01 
    7.0712402440069944E-01 
    7.0697949600733556E-01 
    6.9820579699987528E-01 
    6.9810242008743106E-01 
    7.0682561573229352E-01 
    7.0666298249140413E-01 
    6.9798876048909719E-01 
    6.9786471764662128E-01 
    7.0649210904963600E-01 
    7.0631420383021370E-01 
    6.9773087170739123E-01 
    6.9758801083891619E-01 
    7.0613034282190856E-01 
    7.0594189151078424E-01 
    6.9743712201152397E-01 
    6.9727951321605630E-01 
    7.0575025672903102E-01 
    7.0555689195574867E-01 
    6.9711666592997357E-01 
    6.9695010526325119E-01 
    7.0536304319750898E-01 
    7.0517020742753012E-01 
    6.9678172177679998E-01 
    6.9661246549890654E-01 
    7.0497912790210848E-01 
    7.0479020367443723E-01 
    6.9644303427776511E-01 
    6.9627408257254320E-01 
    7.0460388654554762E-01 
    7.0442054032502999E-01 
    6.9610655035514390E-01 
    6.9594127388610516E-01 
    7.0424068938612583E-01 
    7.0406482283967819E-01 
    6.9577929563570218E-01 
    6.9562139995023431E-01 
    7.0389338007959978E-01 
    7.0372698657520127E-01 
    6.9546876818591652E-01 
    6.9532372920668417E-01 
    7.0356776335550875E-01 
    7.0341773255099460E-01 
    6.9518891514676262E-01 
    6.9506658173344738E-01 
    7.0327979905053173E-01 
    7.0315910056929010E-01 
    6.9495903257098635E-01 
    6.9486839494482200E-01 
    7.0306080765240397E-01 
    7.0298777059548123E-01 
    6.9479761095440917E-01 
    6.9474792080579240E-01 
    7.0294086349640517E-01 
    7.0292084570279556E-01 
    6.9472134052776457E-01 
    6.9472104461051054E-01 
    7.0292521261014762E-01 
    6.8902733071302391E-01 
    6.7865420080016137E-01 
    6.7866286351682747E-01 
    6.8902892209713062E-01 
    6.8903195000870066E-01 
    6.7868000954289354E-01 
    6.7870517121304508E-01 
    6.8903615835743270E-01 
    6.8904100879282593E-01 
    6.7873766204988961E-01 
    6.7877651197744127E-01 
    6.8904583722625212E-01 
    6.8904976739682922E-01 
    6.7882051206132688E-01 
    6.7886806946417555E-01 
    6.8905181462919129E-01 
    6.8905089781597384E-01 
    6.7891728396472362E-01 
    6.7896635380032833E-01 
    6.8904581120537733E-01 
    6.8903544575838760E-01 
    6.7901350756561618E-01 
    6.7905655611409077E-01 
    6.8901820634519151E-01 
    6.8899269199042279E-01 
    6.7909315369783840E-01 
    6.7912103306992411E-01 
    6.8895733407808746E-01 
    6.8891101635971796E-01 
    6.7913773493340701E-01 
    6.7914136706951311E-01 
    6.8885247096677948E-01 
    6.8878197178827216E-01 
    6.7913145690039978E-01 
    6.7910800480017386E-01 
    6.8869953549174945E-01 
    6.8860599452145888E-01 
    6.7907110357463929E-01 
    6.7902156534022096E-01 
    6.8850209480843194E-01 
    6.8838942610626974E-01 
    6.7896045884578882E-01 
    6.7888956738129635E-01 
    6.8826940153301230E-01 
    6.8814425248598243E-01 
    6.7881087484345481E-01 
    6.7872570525519660E-01 
    6.8801490862681114E-01 
    6.8788219867657718E-01 
    6.7863450876765707E-01 
    6.7853806772417102E-01 
    6.8774678807916623E-01 
    6.8760993089541689E-01 
    6.7843734522840393E-01 
    6.7833361612849974E-01 
    6.8747265159149729E-01 
    6.8733635407620208E-01 
    6.7822819769264531E-01 
    6.7812237270653863E-01 
    6.8720207274436962E-01 
    6.8707112534994597E-01 
    6.7801707628105246E-01 
    6.7791480689117090E-01 
    6.8694602473343325E-01 
    6.8682948480346040E-01 
    6.7781807212120082E-01 
    6.7772910868624503E-01 
    6.8672389823841029E-01 
    6.8663154189443310E-01 
    6.7764989925082653E-01 
    6.7758195825223322E-01 
    6.8655421561360941E-01 
    6.8649369363554469E-01 
    6.7752677247404247E-01 
    6.7748400589865920E-01 
    6.8645027412401061E-01 
    6.8642204188067557E-01 
    6.7745016616795750E-01 
    6.7743085539738290E-01 
    6.8641526506475181E-01 
    6.6724099427833838E-01 
    6.5375213569812585E-01 
    6.5374803982495999E-01 
    6.6724706539519307E-01 
    6.6725967151350662E-01 
    6.5373973507413252E-01 
    6.5372749497020000E-01 
    6.6727879405250201E-01 
    6.6730435863211457E-01 
    6.5371158343298752E-01 
    6.5369254879764249E-01 
    6.6733586352049390E-01 
    6.6737275105844518E-01 
    6.5367079212358570E-01 
    6.5364665056290683E-01 
    6.6741390783410615E-01 
    6.6745796867733853E-01 
    6.5361992889825837E-01 
    6.5359105078385360E-01 
    6.6750353856971312E-01 
    6.6754876504928762E-01 
    6.5356081353038453E-01 
    6.5353057214406218E-01 
    6.6759183476076323E-01 
    6.6763102301612975E-01 
    6.5350108552950370E-01 
    6.5347303400432721E-01 
    6.6766435890848852E-01 
    6.6768953449119439E-01 
    6.5344609262061881E-01 
    6.5342034148161021E-01 
    6.6770456597428396E-01 
    6.6771123585474690E-01 
    6.5339555193254806E-01 
    6.5337216711785284E-01 
    6.6770742477671186E-01 
    6.6769308918073245E-01 
    6.5334991996772496E-01 
    6.5332894404874975E-01 
    6.6766858214446378E-01 
    6.6763483359894027E-01 
    6.5330859632654426E-01 
    6.5328878552681413E-01 
    6.6759334291745054E-01 
    6.6754613024749909E-01 
    6.5326849519360086E-01 
    6.5324732852088940E-01 
    6.6749721869984857E-01 
    6.6744463317449743E-01 
    6.5322526777180356E-01 
    6.5320294162506198E-01 
    6.6738826359116421E-01 
    6.6732852957279165E-01 
    6.5318031514526154E-01 
    6.5315800737167751E-01 
    6.6726620032656547E-01 
    6.6720248396484738E-01 
    6.5313614187736502E-01 
    6.5311549552289472E-01 
    6.6713857628339701E-01 
    6.6707281918974382E-01 
    6.5309557839963339E-01 
    6.5307677553292576E-01 
    6.6700695263083709E-01 
    6.6694275003225567E-01 
    6.5305889529095840E-01 
    6.5304236239665381E-01 
    6.6688179183489948E-01 
    6.6682549400201296E-01 
    6.5302712625507553E-01 
    6.5301347357512995E-01 
    6.6677478752909525E-01 
    6.6673045852753132E-01 
    6.5300117790280621E-01 
    6.5298978590456636E-01 
    6.6669207026342114E-01 
    6.6665598594954489E-01 
    6.5297724039333560E-01 
    6.5296527321070308E-01 
    6.6662577758715269E-01 
    6.3899372405751464E-01 
    6.2526843009083632E-01 
    6.2526061764891960E-01 
    6.3897994945514425E-01 
    6.3895285704759153E-01 
    6.2524520331069156E-01 
    6.2522242424071384E-01 
    6.3891320137472396E-01 
    6.3886190714711755E-01 
    6.2519271530940990E-01 
    6.2515655890453581E-01 
    6.3880021726385383E-01 
    6.3872951645335874E-01 
    6.2511473726152733E-01 
    6.2506795928830938E-01 
    6.3865119601368081E-01 
    6.3856655747227820E-01 
    6.2501717203336982E-01 
    6.2496354255540554E-01 
    6.3847752366937471E-01 
    6.3838760113282966E-01 
    6.2490876338281065E-01 
    6.2485402368522835E-01 
    6.3829906386504176E-01 
    6.3821396724553170E-01 
    6.2480106470740493E-01 
    6.2475102826360018E-01 
    6.3813418822625434E-01 
    6.3806106300761345E-01 
    6.2470542190595857E-01 
    6.2466554840649247E-01 
    6.3799662745481134E-01 
    6.3794045873124394E-01 
    6.2463253625656745E-01 
    6.2460635880530424E-01 
    6.3789439233984202E-01 
    6.3785845606883806E-01 
    6.2458765236413549E-01 
    6.2457600469905472E-01 
    6.3783269738456772E-01 
    6.3781635217301913E-01 
    6.2457161262842653E-01 
    6.2457349567885689E-01 
    6.3780862149919448E-01 
    6.3780758466799714E-01 
    6.2458108790853517E-01 
    6.2459327946017029E-01 
    6.3781011683426669E-01 
    6.3781715251461968E-01 
    6.2460950785565728E-01 
    6.2462914326150820E-01 
    6.3782878192470149E-01 
    6.3784437571540398E-01 
    6.2465211260585563E-01 
    6.2467756901809346E-01 
    6.3786362508561723E-01 
    6.3788568289694503E-01 
    6.2470522255887917E-01 
    6.2473430076809111E-01 
    6.3791024054662171E-01 
    6.3793769352004015E-01 
    6.2476465552735228E-01 
    6.2479472488833998E-01 
    6.3796669325698718E-01 
    6.3799568578890631E-01 
    6.2482358967184082E-01 
    6.2484990470151502E-01 
    6.3802370690272925E-01 
    6.3804984624429306E-01 
    6.2487307195944342E-01 
    6.2489235102769314E-01 
    6.3807381299936750E-01 
    6.3809531461536384E-01 
    6.2490757795472296E-01 
    6.2491809217962979E-01 
    6.3811431797481166E-01 
    6.3813183444642851E-01 
    6.2492608857619192E-01 
    6.2493571125297764E-01 
    6.3814890465427065E-01 
    6.1207969161953057E-01 
    5.9870527229361370E-01 
    5.9872438604573941E-01 
    6.1208509060517613E-01 
    6.1209535444104834E-01 
    5.9876184153563450E-01 
    5.9881632544089403E-01 
    6.1211016458256196E-01 
    6.1212875588033933E-01 
    5.9888636242238213E-01 
    5.9897003558641271E-01 
    6.1215061854735886E-01 
    6.1217490712736533E-01 
    5.9906528907259704E-01 
    5.9916983196639018E-01 
    6.1220100224528307E-01 
    6.1222822288248135E-01 
    5.9928143364545838E-01 
    5.9939797003784079E-01 
    6.1225635404502943E-01 
    6.1228504112212367E-01 
    5.9951746788121651E-01 
    5.9963789914288812E-01 
    6.1231401551594500E-01 
    6.1234313114125172E-01 
    5.9975744849945700E-01 
    5.9987457625786267E-01 
    6.1237231374269219E-01 
    6.1240188025354825E-01 
    5.9998824844141152E-01 
    6.0009724804522724E-01 
    6.1243222405102959E-01 
    6.1246314660375945E-01 
    6.0020028288982674E-01 
    6.0029648715579509E-01 
    6.1249433996633851E-01 
    6.1252565382173318E-01 
    6.0038507133772667E-01 
    6.0046538579144293E-01 
    6.1255674649409453E-01 
    6.1258744437632817E-01 
    6.0053701103883783E-01 
    6.0059972583230892E-01 
    6.1261725060419425E-01 
    6.1264591524640311E-01 
    6.0065368548209008E-01 
    6.0069891939751052E-01 
    6.1267301431317234E-01 
    6.1269830473940579E-01 
    6.0073561355169669E-01 
    6.0076444645501070E-01 
    6.1272185519928046E-01 
    6.1274394997120440E-01 
    6.0078615847818617E-01 
    6.0080149392179383E-01 
    6.1276453731891567E-01 
    6.1278375108813699E-01 
    6.0081130184355924E-01 
    6.0081646252961729E-01 
    6.1280159083613883E-01 
    6.1281827058833716E-01 
    6.0081785768022689E-01 
    6.0081629560116201E-01 
    6.1283335619220214E-01 
    6.1284662530111489E-01 
    6.0081259317879510E-01 
    6.0080749899218200E-01 
    6.1285765004370407E-01 
    6.1286625373327486E-01 
    6.0080182679353733E-01 
    6.0079628117950690E-01 
    6.1287217890383039E-01 
    6.1287498578479183E-01 
    6.0079073432262353E-01 
    6.0078200582196994E-01 
    6.1287310474398959E-01 
    6.1286784069823785E-01 
    6.0076788897074873E-01 
    6.0075476304046294E-01 
    6.1286521937837612E-01 
    5.8481684879760076E-01 
    5.6957297979615529E-01 
    5.6959489485738202E-01 
    5.8484526487695510E-01 
    5.8490095642310458E-01 
    5.6963828044698306E-01 
    5.6970179883766481E-01 
    5.8498216669302927E-01 
    5.8508679738848302E-01 
    5.6978396937088149E-01 
    5.6988262600580553E-01 
    5.8521213323544696E-01 
    5.8535544025221120E-01 
    5.6999584102357181E-01 
    5.7012079701217866E-01 
    5.8551337317304208E-01 
    5.8568207532163008E-01 
    5.7025342414239988E-01 
    5.7039178939900970E-01 
    5.8585784950991626E-01 
    5.8603800653731231E-01 
    5.7053278992190193E-01 
    5.7067412537287121E-01 
    5.8621924098172151E-01 
    5.8639915986130686E-01 
    5.7081343911920968E-01 
    5.7094797417040477E-01 
    5.8657462537520333E-01 
    5.8674298878742337E-01 
    5.7107401306835281E-01 
    5.7118938299138999E-01 
    5.8690117040372580E-01 
    5.8704797424419675E-01 
    5.7129436438733194E-01 
    5.7138642320387201E-01 
    5.8718179185174713E-01 
    5.8730186671966655E-01 
    5.7146409359826622E-01 
    5.7152718845867656E-01 
    5.8740680802553580E-01 
    5.8749675370765642E-01 
    5.7157531974873166E-01 
    5.7160917034871384E-01 
    5.8757113847184683E-01 
    5.8763099728196599E-01 
    5.7162926328407659E-01 
    5.7163901684989948E-01 
    5.8767612906029776E-01 
    5.8770765873111541E-01 
    5.7163655145932468E-01 
    5.7162288939430284E-01 
    5.8772606338529965E-01 
    5.8773297912597944E-01 
    5.7159847796788565E-01 
    5.7156485782575428E-01 
    5.8772913019409645E-01 
    5.8771646416186984E-01 
    5.7152312998784294E-01 
    5.7147519914704026E-01 
    5.8769592112166125E-01 
    5.8766930796800942E-01 
    5.7142058081268354E-01 
    5.7136140848077821E-01 
    5.8763782395149744E-01 
    5.8760359087888914E-01 
    5.7129905857435537E-01 
    5.7123572001746348E-01 
    5.8756779452091989E-01 
    5.8753259256095047E-01 
    5.7117310865304949E-01 
    5.7111316253021338E-01 
    5.8749909431216585E-01 
    5.8746831506543240E-01 
    5.7105649910007494E-01 
    5.7100058971643597E-01 
    5.8743614953943779E-01 
    5.8740097728343310E-01 
    5.7094777387489515E-01 
    5.7090415806070371E-01 
    5.8736961254395770E-01 
    5.5115357006074928E-01 
    5.3109619370774364E-01 
    5.3106792806803771E-01 
    5.5114950078096037E-01 
    5.5114132530530691E-01 
    5.3101256712459577E-01 
    5.3093212675977808E-01 
    5.5112921314365726E-01 
    5.5111342056861301E-01 
    5.3082882437514944E-01 
    5.3070566057846780E-01 
    5.5109441714167495E-01 
    5.5107262097993626E-01 
    5.3056556362196849E-01 
    5.3041186012170449E-01 
    5.5104833176661394E-01 
    5.5102107158735092E-01 
    5.3024795666393687E-01 
    5.3007541332908503E-01 
    5.5099078430948634E-01 
    5.5095780373565484E-01 
    5.2989927698458494E-01 
    5.2972305096692396E-01 
    5.5092330714569926E-01 
    5.5088789710133612E-01 
    5.2954999177089401E-01 
    5.2938344581162822E-01 
    5.5085257463070592E-01 
    5.5081660377290642E-01 
    5.2922599596776898E-01 
    5.2907941523951940E-01 
    5.5077980817818795E-01 
    5.5074134243609507E-01 
    5.2894185443864261E-01 
    5.2881708474049927E-01 
    5.5070232825560617E-01 
    5.5066275375327356E-01 
    5.2870660397303770E-01 
    5.2861137491078369E-01 
    5.5062367435337123E-01 
    5.5058485512850486E-01 
    5.2853148473782829E-01 
    5.2846648084207881E-01 
    5.5054724851153680E-01 
    5.5051062303679621E-01 
    5.2841522882832093E-01 
    5.2837407144918747E-01 
    5.5047605514548537E-01 
    5.5044275318777058E-01 
    5.2834515627435574E-01 
    5.2832800418166947E-01 
    5.5041110083850886E-01 
    5.5038032726393138E-01 
    5.2832176977991863E-01 
    5.2832548748632557E-01 
    5.5035111229008127E-01 
    5.5032309671604851E-01 
    5.2833790034000316E-01 
    5.2835560537707260E-01 
    5.5029693557160486E-01 
    5.5027194714114958E-01 
    5.2837988840716721E-01 
    5.2840899760352156E-01 
    5.5024831677191066E-01 
    5.5022528108065805E-01 
    5.2844152503555497E-01 
    5.2847660429360821E-01 
    5.5020380787065959E-01 
    5.5018424683902900E-01 
    5.2851358811740679E-01 
    5.2855169985561701E-01 