# vtk DataFile Version 2.0
Pressure Field Data 
ASCII 
DATASET UNSTRUCTURED_GRID 

POINTS 1681 double 

    0.0000000000000000E+00     0.0000000000000000E+00     0.0000000000000000E+00 
    1.0000000000000000E+00     0.0000000000000000E+00     0.0000000000000000E+00 
    1.0000000000000000E+00     1.0000000000000000E+00     0.0000000000000000E+00 
    0.0000000000000000E+00     1.0000000000000000E+00     0.0000000000000000E+00 
    5.2499999999875258E-01     0.0000000000000000E+00     0.0000000000000000E+00 
    7.4999999999856765E-02     0.0000000000000000E+00     0.0000000000000000E+00 
    1.2499999999975850E-01     0.0000000000000000E+00     0.0000000000000000E+00 
    1.7499999999962990E-01     0.0000000000000000E+00     0.0000000000000000E+00 
    2.2499999999948389E-01     0.0000000000000000E+00     0.0000000000000000E+00 
    2.7499999999933789E-01     0.0000000000000000E+00     0.0000000000000000E+00 
    3.2499999999919210E-01     0.0000000000000000E+00     0.0000000000000000E+00 
    3.7499999999904610E-01     0.0000000000000000E+00     0.0000000000000000E+00 
    4.2499999999890020E-01     0.0000000000000000E+00     0.0000000000000000E+00 
    4.7499999999875958E-01     0.0000000000000000E+00     0.0000000000000000E+00 
    2.4999999999949701E-02     0.0000000000000000E+00     0.0000000000000000E+00 
    5.7499999999887907E-01     0.0000000000000000E+00     0.0000000000000000E+00 
    6.2499999999901101E-01     0.0000000000000000E+00     0.0000000000000000E+00 
    6.7499999999914273E-01     0.0000000000000000E+00     0.0000000000000000E+00 
    7.2499999999927467E-01     0.0000000000000000E+00     0.0000000000000000E+00 
    7.7499999999940661E-01     0.0000000000000000E+00     0.0000000000000000E+00 
    8.2499999999953844E-01     0.0000000000000000E+00     0.0000000000000000E+00 
    8.7499999999967026E-01     0.0000000000000000E+00     0.0000000000000000E+00 
    9.2499999999980220E-01     0.0000000000000000E+00     0.0000000000000000E+00 
    9.7499999999993414E-01     0.0000000000000000E+00     0.0000000000000000E+00 
    5.4999999999881310E-01     0.0000000000000000E+00     0.0000000000000000E+00 
    9.9999999999814140E-02     0.0000000000000000E+00     0.0000000000000000E+00 
    1.4999999999970290E-01     0.0000000000000000E+00     0.0000000000000000E+00 
    1.9999999999955689E-01     0.0000000000000000E+00     0.0000000000000000E+00 
    2.4999999999941089E-01     0.0000000000000000E+00     0.0000000000000000E+00 
    2.9999999999926502E-01     0.0000000000000000E+00     0.0000000000000000E+00 
    3.4999999999911913E-01     0.0000000000000000E+00     0.0000000000000000E+00 
    3.9999999999897312E-01     0.0000000000000000E+00     0.0000000000000000E+00 
    4.4999999999882723E-01     0.0000000000000000E+00     0.0000000000000000E+00 
    4.9999999999869210E-01     0.0000000000000000E+00     0.0000000000000000E+00 
    4.9999999999899403E-02     0.0000000000000000E+00     0.0000000000000000E+00 
    5.9999999999894504E-01     0.0000000000000000E+00     0.0000000000000000E+00 
    6.4999999999907687E-01     0.0000000000000000E+00     0.0000000000000000E+00 
    6.9999999999920870E-01     0.0000000000000000E+00     0.0000000000000000E+00 
    7.4999999999934064E-01     0.0000000000000000E+00     0.0000000000000000E+00 
    7.9999999999947247E-01     0.0000000000000000E+00     0.0000000000000000E+00 
    8.4999999999960441E-01     0.0000000000000000E+00     0.0000000000000000E+00 
    8.9999999999973623E-01     0.0000000000000000E+00     0.0000000000000000E+00 
    9.4999999999986817E-01     0.0000000000000000E+00     0.0000000000000000E+00 
    1.0000000000000000E+00     5.2499999999875258E-01     0.0000000000000000E+00 
    1.0000000000000000E+00     7.4999999999856765E-02     0.0000000000000000E+00 
    1.0000000000000000E+00     1.2499999999975850E-01     0.0000000000000000E+00 
    1.0000000000000000E+00     1.7499999999962990E-01     0.0000000000000000E+00 
    1.0000000000000000E+00     2.2499999999948389E-01     0.0000000000000000E+00 
    1.0000000000000000E+00     2.7499999999933789E-01     0.0000000000000000E+00 
    1.0000000000000000E+00     3.2499999999919210E-01     0.0000000000000000E+00 
    1.0000000000000000E+00     3.7499999999904610E-01     0.0000000000000000E+00 
    1.0000000000000000E+00     4.2499999999890020E-01     0.0000000000000000E+00 
    1.0000000000000000E+00     4.7499999999875958E-01     0.0000000000000000E+00 
    1.0000000000000000E+00     2.4999999999949701E-02     0.0000000000000000E+00 
    1.0000000000000000E+00     5.7499999999887907E-01     0.0000000000000000E+00 
    1.0000000000000000E+00     6.2499999999901101E-01     0.0000000000000000E+00 
    1.0000000000000000E+00     6.7499999999914273E-01     0.0000000000000000E+00 
    1.0000000000000000E+00     7.2499999999927467E-01     0.0000000000000000E+00 
    1.0000000000000000E+00     7.7499999999940661E-01     0.0000000000000000E+00 
    1.0000000000000000E+00     8.2499999999953844E-01     0.0000000000000000E+00 
    1.0000000000000000E+00     8.7499999999967026E-01     0.0000000000000000E+00 
    1.0000000000000000E+00     9.2499999999980220E-01     0.0000000000000000E+00 
    1.0000000000000000E+00     9.7499999999993414E-01     0.0000000000000000E+00 
    1.0000000000000000E+00     5.4999999999881310E-01     0.0000000000000000E+00 
    1.0000000000000000E+00     9.9999999999814140E-02     0.0000000000000000E+00 
    1.0000000000000000E+00     1.4999999999970290E-01     0.0000000000000000E+00 
    1.0000000000000000E+00     1.9999999999955689E-01     0.0000000000000000E+00 
    1.0000000000000000E+00     2.4999999999941089E-01     0.0000000000000000E+00 
    1.0000000000000000E+00     2.9999999999926502E-01     0.0000000000000000E+00 
    1.0000000000000000E+00     3.4999999999911913E-01     0.0000000000000000E+00 
    1.0000000000000000E+00     3.9999999999897312E-01     0.0000000000000000E+00 
    1.0000000000000000E+00     4.4999999999882723E-01     0.0000000000000000E+00 
    1.0000000000000000E+00     4.9999999999869210E-01     0.0000000000000000E+00 
    1.0000000000000000E+00     4.9999999999899403E-02     0.0000000000000000E+00 
    1.0000000000000000E+00     5.9999999999894504E-01     0.0000000000000000E+00 
    1.0000000000000000E+00     6.4999999999907687E-01     0.0000000000000000E+00 
    1.0000000000000000E+00     6.9999999999920870E-01     0.0000000000000000E+00 
    1.0000000000000000E+00     7.4999999999934064E-01     0.0000000000000000E+00 
    1.0000000000000000E+00     7.9999999999947247E-01     0.0000000000000000E+00 
    1.0000000000000000E+00     8.4999999999960441E-01     0.0000000000000000E+00 
    1.0000000000000000E+00     8.9999999999973623E-01     0.0000000000000000E+00 
    1.0000000000000000E+00     9.4999999999986817E-01     0.0000000000000000E+00 
    4.7500000000196618E-01     1.0000000000000000E+00     0.0000000000000000E+00 
    9.2499999999968763E-01     1.0000000000000000E+00     0.0000000000000000E+00 
    8.7499999999961831E-01     1.0000000000000000E+00     0.0000000000000000E+00 
    8.2499999999982654E-01     1.0000000000000000E+00     0.0000000000000000E+00 
    7.7500000000017355E-01     1.0000000000000000E+00     0.0000000000000000E+00 
    7.2500000000052045E-01     1.0000000000000000E+00     0.0000000000000000E+00 
    6.7500000000086724E-01     1.0000000000000000E+00     0.0000000000000000E+00 
    6.2500000000121403E-01     1.0000000000000000E+00     0.0000000000000000E+00 
    5.7500000000156093E-01     1.0000000000000000E+00     0.0000000000000000E+00 
    5.2500000000189684E-01     1.0000000000000000E+00     0.0000000000000000E+00 
    9.7499999999989595E-01     1.0000000000000000E+00     0.0000000000000000E+00 
    4.2500000000176902E-01     1.0000000000000000E+00     0.0000000000000000E+00 
    3.7500000000156092E-01     1.0000000000000000E+00     0.0000000000000000E+00 
    3.2500000000135282E-01     1.0000000000000000E+00     0.0000000000000000E+00 
    2.7500000000114472E-01     1.0000000000000000E+00     0.0000000000000000E+00 
    2.2500000000093659E-01     1.0000000000000000E+00     0.0000000000000000E+00 
    1.7500000000072849E-01     1.0000000000000000E+00     0.0000000000000000E+00 
    1.2500000000052039E-01     1.0000000000000000E+00     0.0000000000000000E+00 
    7.5000000000312261E-02     1.0000000000000000E+00     0.0000000000000000E+00 
    2.5000000000104109E-02     1.0000000000000000E+00     0.0000000000000000E+00 
    4.5000000000187301E-01     1.0000000000000000E+00     0.0000000000000000E+00 
    8.9999999999958358E-01     1.0000000000000000E+00     0.0000000000000000E+00 
    8.4999999999965303E-01     1.0000000000000000E+00     0.0000000000000000E+00 
    8.0000000000000004E-01     1.0000000000000000E+00     0.0000000000000000E+00 
    7.5000000000034706E-01     1.0000000000000000E+00     0.0000000000000000E+00 
    7.0000000000069384E-01     1.0000000000000000E+00     0.0000000000000000E+00 
    6.5000000000104063E-01     1.0000000000000000E+00     0.0000000000000000E+00 
    6.0000000000138742E-01     1.0000000000000000E+00     0.0000000000000000E+00 
    5.5000000000173432E-01     1.0000000000000000E+00     0.0000000000000000E+00 
    5.0000000000205946E-01     1.0000000000000000E+00     0.0000000000000000E+00 
    9.4999999999979179E-01     1.0000000000000000E+00     0.0000000000000000E+00 
    4.0000000000166491E-01     1.0000000000000000E+00     0.0000000000000000E+00 
    3.5000000000145681E-01     1.0000000000000000E+00     0.0000000000000000E+00 
    3.0000000000124871E-01     1.0000000000000000E+00     0.0000000000000000E+00 
    2.5000000000104061E-01     1.0000000000000000E+00     0.0000000000000000E+00 
    2.0000000000083251E-01     1.0000000000000000E+00     0.0000000000000000E+00 
    1.5000000000062441E-01     1.0000000000000000E+00     0.0000000000000000E+00 
    1.0000000000041630E-01     1.0000000000000000E+00     0.0000000000000000E+00 
[...]
CELL_DATA 1600 
SCALARS Pressure double 1 
LOOKUP_TABLE default 

    1.1116306901226483E+00 
    1.0911093918791923E+00 
    1.0910173078644150E+00 
    1.1097655403943076E+00 
    1.1080621960231607E+00 
    1.0908497875151815E+00 
    1.0906182660812038E+00 
    1.1064830985167291E+00 
    1.1050120284739631E+00 
    1.0903334757591654E+00 
    1.0900062075680663E+00 
    1.1036466844676771E+00 
    1.1023839211103763E+00 
    1.0896477431134255E+00 
    1.0892664177933684E+00 
    1.1012193571487303E+00 
    1.1001483372845811E+00 
    1.0888697533921119E+00 
    1.0884643579686821E+00 
    1.0991666464766874E+00 
    1.0982711625910737E+00 
    1.0880582401204746E+00 
    1.0876568228272332E+00 
    1.0974587066606796E+00 
    1.0967258706826057E+00 
    1.0872654635442682E+00 
    1.0868876926123181E+00 
    1.0960694403602560E+00 
    1.0954865409399366E+00 
    1.0865266713424444E+00 
    1.0861856958344824E+00 
    1.0949759196034183E+00 
    1.0945347516879675E+00 
    1.0858687810506102E+00 
    1.0855777479649378E+00 
    1.0941600557813109E+00 
    1.0938482030156704E+00 
    1.0853139236388243E+00 
    1.0850779388355996E+00 
    1.0935954700694226E+00 
    1.0933978470361696E+00 
    1.0848698812598345E+00 
    1.0846902245142542E+00 
    1.0932522485357137E+00 
    1.0931552118130949E+00 
    1.0845387326999594E+00 
    1.0844130457282508E+00 
    1.0931011267339088E+00 
    1.0930871441684704E+00 
    1.0843048339885957E+00 
    1.0842193837657599E+00 
    1.0931087428220774E+00 
    1.0931533770540278E+00 
    1.0841577885219884E+00 
    1.0841146576814271E+00 
    1.0932186176602379E+00 
    1.0932988628189746E+00 
    1.0840870801695324E+00 
    1.0840720670743027E+00 
    1.0933851155845897E+00 
    1.0934707404620918E+00 
    1.0840661786037753E+00 
    1.0840658020629599E+00 
    1.0935490741361913E+00 
    1.0936150438220726E+00 
    1.0840659013812326E+00 
    1.0840640307887897E+00 
    1.0936635439036051E+00 
    1.0936913946131359E+00 
    1.0840562041595998E+00 
    1.0840413695844986E+00 
    1.0936953329898296E+00 
    1.0936742667641701E+00 
    1.0840168368867664E+00 
    1.0839830582013050E+00 
    1.0936269727219159E+00 
    1.0935545310365939E+00 
    1.0839387861444991E+00 
    1.0838859727126673E+00 
    1.0934578454533543E+00 
    1.0778474317301341E+00 
    1.0641294317357455E+00 
    1.0640855092070338E+00 
    1.0778040089388115E+00 
    1.0777179816021980E+00 
    1.0639984478988358E+00 
    1.0638695098773479E+00 
    1.0775894934681407E+00 
    1.0774199960348110E+00 
    1.0637004357102806E+00 
    1.0634943397993104E+00 
    1.0772127553728645E+00 
    1.0769724321790293E+00 
    1.0632541501551898E+00 
    1.0629822506463211E+00 
    1.0767025900911598E+00 
    1.0764062893279369E+00 
    1.0626799517638550E+00 
    1.0623494969335412E+00 
    1.0760870219750511E+00 
    1.0757500204865760E+00 
    1.0619944581247229E+00 
    1.0616180513184821E+00 
    1.0753994040700772E+00 
    1.0750393631924628E+00 
    1.0612233972133021E+00 
    1.0608129506566670E+00 
    1.0746730432276743E+00 
    1.0743028300788040E+00 
    1.0603884511369253E+00 
    1.0599522540920261E+00 
    1.0739319516081660E+00 
    1.0735644746543571E+00 
    1.0595079790001380E+00 
    1.0590586419338792E+00 
    1.0732033946419270E+00 
    1.0728511068927691E+00 
    1.0586072065069689E+00 
    1.0581559665632669E+00 
    1.0725096035762411E+00 
    1.0721801587285342E+00 
    1.0577068802891738E+00 
    1.0572613587803101E+00 
    1.0718642940194840E+00 
    1.0715633587548352E+00 
    1.0568215229537328E+00 
    1.0563886667602438E+00 
    1.0712768879311907E+00 
    1.0709931629623493E+00 
    1.0559571088874873E+00 
    1.0555084208865506E+00 
    1.0707082093397766E+00 
    1.0704422875609010E+00 
    1.0550299951324598E+00 
    1.0545773126705178E+00 
    1.0702065180918574E+00 
    1.0699972056853078E+00 
    1.0541783193965908E+00 
    1.0538138443345915E+00 
    1.0698118328288451E+00 
    1.0696494616846304E+00 
    1.0534843654450912E+00 
    1.0531901639165602E+00 
    1.0695082659059085E+00 
    1.0693860214012927E+00 
    1.0529315315091323E+00 
    1.0527086311719065E+00 
    1.0692813036881945E+00 
    1.0691923726233439E+00 
    1.0525215949009041E+00 
    1.0523705326506527E+00 
    1.0691183849542183E+00 
    1.0690582388735292E+00 
    1.0522554773084258E+00 
    1.0521765151318729E+00 
    1.0690117850123608E+00 
    1.0689786409337028E+00 
    1.0521336207759566E+00 
    1.0521268602069331E+00 
    1.0689593889639166E+00 
    1.0489278524804315E+00 
    1.0321387006389202E+00 
    1.0321076204604307E+00 
    1.0488876503389124E+00 
    1.0488081778511014E+00 
    1.0320455833111992E+00 
    1.0319533996999515E+00 
    1.0486900652207056E+00 
    1.0485348996801935E+00 
    1.0318312594512622E+00 
    1.0316799493575006E+00 
    1.0483442313981852E+00 
    1.0481200737593950E+00 
    1.0314995742578612E+00 
    1.0312906875870400E+00 
    1.0478636295203942E+00 
    1.0475759807666294E+00 
    1.0310529885080737E+00 
    1.0307865990348666E+00 
    1.0472580842509172E+00 
    1.0469121938700403E+00 
    1.0304914463160924E+00 
    1.0301676775909745E+00 
    1.0465399754753171E+00 
    1.0461435248946189E+00 
    1.0298150962257553E+00 
    1.0294338323145495E+00 
    1.0457242473466970E+00 
    1.0452834488086900E+00 
    1.0290235287513543E+00 
    1.0285842182107474E+00 
    1.0448223711004638E+00 
    1.0443436834518049E+00 
    1.0281168315373121E+00 
    1.0276228019909792E+00 
    1.0438497682456578E+00 
    1.0433434100601611E+00 
    1.0271036260519584E+00 
    1.0265608992339064E+00 
    1.0428270481194946E+00 
    1.0423028097018199E+00 
    1.0259952114865738E+00 
    1.0254046867101214E+00 
    1.0417720802463808E+00 
    1.0412366879787305E+00 
    1.0247842517216410E+00 
    1.0241271379209103E+00 
    1.0406978286778323E+00 
    1.0401528358400758E+00 
    1.0234306005180303E+00 
    1.0226897511839297E+00 
    1.0395816559382451E+00 
    1.0389298985061139E+00 
    1.0218802853633058E+00 
    1.0210929935245010E+00 
    1.0382737235512696E+00 
    1.0377001238421277E+00 
    1.0203975054585559E+00 
    1.0197538571189417E+00 
    1.0371722795113869E+00 
    1.0366892497153919E+00 
    1.0191625097498713E+00 
    1.0186268309652318E+00 
    1.0362538368203378E+00 
    1.0358678125508258E+00 
    1.0181506064338126E+00 
    1.0177363987657044E+00 
    1.0355334882629270E+00 
    1.0352519173358994E+00 
    1.0173871182729979E+00 
    1.0171042282537608E+00 
    1.0350248147492731E+00 
    1.0348524680892843E+00 
    1.0168895158043592E+00 
    1.0167431799433380E+00 
    1.0347359169590205E+00 
    1.0346746768584696E+00 
    1.0166657460843660E+00 
    1.0166561031987960E+00 
    1.0346690690335945E+00 
    1.0132345174264961E+00 
    9.9039512703462318E-01 
    9.9037834352812326E-01 
    1.0132174822797526E+00 
    1.0131833971224762E+00 
    9.9034436560740291E-01 
    9.9029293393876938E-01 
    1.0131320469861371E+00 
    1.0130629710303163E+00 
    9.9022332796536139E-01 
    9.9013494109950961E-01 
    1.0129752811919386E+00 
    1.0128677607437984E+00 
    9.9002656751308238E-01 
    9.8989722646847211E-01 
    1.0127383247814625E+00 
    1.0125843970874644E+00 
    9.8974553492917072E-01 
    9.8957002042336539E-01 
    1.0124032094755742E+00 
    1.0121920651131937E+00 
    9.8936747052804808E-01 
    9.8913402343383372E-01 
    1.0119469434332771E+00 
    1.0116639265287271E+00 
    9.8886505994357876E-01 
    9.8855617977842780E-01 
    1.0113382513505482E+00 
    1.0109661905281619E+00 
    9.8820314486377303E-01 
    9.8780359172883136E-01 
    1.0105443517886810E+00 
    1.0100720654465261E+00 
    9.8735683878687641E-01 
    9.8686464536532070E-01 
    1.0095489243691349E+00 
    1.0089766726921057E+00 
    9.8632996276574003E-01 
    9.8575882879969878E-01 
    1.0083575794083430E+00 
    1.0076956043479248E+00 
    9.8515892722327336E-01 
    9.8454017049502818E-01 
    1.0069924375391692E+00 
    1.0062456486869138E+00 
    9.8391090526900737E-01 
    9.8327881045446008E-01 
    1.0054514422996370E+00 
    1.0046229372945046E+00 
    9.8265675951451970E-01 
    9.8206235090618710E-01 
    1.0037967868332434E+00 
    1.0029989114479889E+00 
    9.8149883768504897E-01 
    9.8095705611851525E-01 
    1.0022564325945618E+00 
    1.0015748573467602E+00 
    9.8043553900670177E-01 
    9.7993885675337500E-01 
    1.0009380699386141E+00 
    1.0003488894305630E+00 
    9.7947076414417467E-01 
    9.7903678819728579E-01 
    9.9981191383606538E-01 
    9.9933157538692263E-01 
    9.7864257975946489E-01 
    9.7829253012418582E-01 
    9.9891172435457953E-01 
    9.9855554231407273E-01 
    9.7799098925577754E-01 
    9.7774058756499094E-01 
    9.9826563482279140E-01 
    9.9804356997792509E-01 
    9.7754388012170690E-01 
    9.7740141484751275E-01 
    9.9789037068394482E-01 
    9.9780582597812051E-01 
    9.7731368269048569E-01 
    9.7727907808793502E-01 
    9.9778922725860120E-01 
    9.6054568938737794E-01 
    9.2616145862388122E-01 
    9.2615797830175950E-01 
    9.6052745776454684E-01 
    9.6049227938800230E-01 
    9.2615039371315933E-01 
    9.2613876836943942E-01 
    9.6044088079023526E-01 
    9.6037419837554594E-01 
    9.2612302057185680E-01 
    9.2610340768605504E-01 
    9.6029273529303760E-01 
    9.6019725437677339E-01 
    9.2607964395641618E-01 
    9.2605097639012390E-01 
    9.6008881497959930E-01 
    9.5996919142346637E-01 
    9.2601523132519548E-01 
    9.2597187343104082E-01 
    9.5983915248067364E-01 
    9.5969705805005801E-01 
    9.2592103218799759E-01 
    9.2586414623721180E-01 
    9.5954185688458071E-01 
    9.5937346372581178E-01 
    9.2580167081995046E-01 
    9.2573499563115969E-01 
    9.5919203049749902E-01 
    9.5899828404532528E-01 
    9.2566430089261853E-01 
    9.2559096997291856E-01 
    9.5879213898192406E-01 
    9.5857862742118494E-01 
    9.2551491899087690E-01 
    9.2543825698992288E-01 
    9.5835494424434631E-01 
    9.5812205694494534E-01 
    9.2536134182427354E-01 
    9.2528566766048914E-01 
    9.5788043084272356E-01 
    9.5763043927226721E-01 
    9.2521076859873108E-01 
    9.2513749441085202E-01 
    9.5737163316485130E-01 
    9.5710373527594783E-01 
    9.2506494614479484E-01 
    9.2499387406904454E-01 
    9.5683133139574428E-01 
    9.5655007466372399E-01 
    9.2492362123211513E-01 
    9.2485500196260817E-01 
    9.5626146557245961E-01 
    9.5596901066503004E-01 
    9.2478751854634611E-01 
    9.2472189226539225E-01 
    9.5567643298742189E-01 
    9.5538826994133541E-01 
    9.2465760187985979E-01 
    9.2459577915926239E-01 
    9.5510894744627439E-01 
    9.5483767431084821E-01 
    9.2453623769673510E-01 
    9.2448038205639005E-01 
    9.5457911445019561E-01 
    9.5433794814624229E-01 
    9.2442840228937906E-01 
    9.2438115851674063E-01 
    9.5411790819840359E-01 
    9.5392244966731643E-01 
    9.2433849665944656E-01 
    9.2430075480550100E-01 
    9.5375386662945560E-01 
    9.5361399626271026E-01 
    9.2426740243699668E-01 
    9.2423824695872148E-01 
    9.5350339497200076E-01 
    9.5342210751365986E-01 
    9.2421229629936263E-01 
    9.2418878862656295E-01 
    9.5336887634221013E-01 
    8.9290983312535399E-01 
    8.6326618204884131E-01 
    8.6325020625535365E-01 
    8.9288286336354072E-01 
    8.9282999909955174E-01 
    8.6321896648074659E-01 
    8.6317326408369532E-01 
    8.9275301552753716E-01 
    8.9265400790107630E-01 
    8.6311443085878059E-01 
    8.6304385365488789E-01 
    8.9253571459653658E-01 
    8.9240101336869482E-01 
    8.6296359044747206E-01 
    8.6287563118166988E-01 
    8.9225334834407877E-01 
    8.9209604149729638E-01 
    8.6278279829661852E-01 
    8.6268761598036869E-01 
    8.9193265797738774E-01 
    8.9177035161628426E-01 
    8.6259362499115599E-01 
    8.6250370378879837E-01 
    8.9161378395983126E-01 
    8.9146696601125264E-01 
    8.6242180441633276E-01 
    8.6235080208772452E-01 
    8.9133442370420723E-01 
    8.9121961486270063E-01 
    8.6229474434883191E-01 
    8.6225618674734450E-01 
    8.9112643234586020E-01 
    8.9105280292132560E-01 
    8.6223697428146995E-01 
    8.6223709942486160E-01 
    8.9100313675231546E-01 
    8.9097770876071303E-01 
    8.6225804905658143E-01 
    8.6229912361014427E-01 
    8.9097695975856139E-01 
    8.9099923739276576E-01 
    8.6236058041779029E-01 
    8.6244035366785132E-01 
    8.9104293830666270E-01 
    8.9110423655425997E-01 
    8.6253723555453354E-01 
    8.6264842984523027E-01 
    8.9117639152046035E-01 
    8.9126089016502119E-01 
    8.6277199288349860E-01 
    8.6290557779887544E-01 
    8.9135708838330518E-01 
    8.9146257783890437E-01 
    8.6304761935633367E-01 
    8.6319488571397340E-01 
    8.9157519371163307E-01 
    8.9169143105256798E-01 
    8.6334506396315314E-01 
    8.6349550388025698E-01 
    8.9180947082722251E-01 
    8.9193026750766302E-01 
    8.6364464231077154E-01 
    8.6378855794008802E-01 
    8.9205042913974741E-01 
    8.9216627697158846E-01 
    8.6392446320855254E-01 
    8.6404905902483220E-01 
    8.9227506015398672E-01 
    8.9237406784897411E-01 
    8.6416025122126694E-01 
    8.6425580050077788E-01 
    8.9246150714567096E-01 
    8.9253586252041006E-01 
    8.6433465184883518E-01 
    8.6439585159884480E-01 
    8.9259650114008526E-01 
    8.9264319373938383E-01 
    8.6443957791389647E-01 
    8.6446621616827402E-01 
    8.9267654638602723E-01 
    8.3599334645067458E-01 
    8.0946345654676954E-01 
    8.0949895869935939E-01 
    8.3600312355334849E-01 
    8.3602183699145594E-01 
    8.0956857670501114E-01 
    8.0966985430097249E-01 
    8.3604911724897013E-01 
    8.3608377742291040E-01 
    8.0980002768158699E-01 
    8.0995549389263133E-01 
    8.3612515136162202E-01 
    8.3617200165620342E-01 
    8.1013254544292201E-01 
    8.1032691501450671E-01 
    8.3622360737379520E-01 
    8.3627895542260622E-01 
    8.1053444648738837E-01 
    8.1075164546598288E-01 
    8.3633793130086309E-01 
    8.3640043160108080E-01 
    8.1097540016015413E-01 
    8.1120212734390473E-01 
    8.3646649923303273E-01 
    8.3653636836081280E-01 
    8.1142880054663624E-01 
    8.1165256789310858E-01 
    8.3661048265357674E-01 
    8.3668959691821698E-01 
    8.1187128045983992E-01 
    8.1208303440683738E-01 
    8.3677447039031472E-01 
    8.3686507801939636E-01 
    8.1228632003387558E-01 
    8.1247987074323258E-01 
    8.3696118256973795E-01 
    8.3706275987030543E-01 
    8.1266251016282653E-01 
    8.1283321008380627E-01 
    8.3716933769964319E-01 
    8.3728067226847247E-01 
    8.1299160192425979E-01 
    8.1313736527671299E-01 
    8.3739588162813050E-01 
    8.3751425174554106E-01 
    8.1327069535916841E-01 
    8.1339112566279692E-01 
    8.3763437858312251E-01 
    8.3775499129369690E-01 
    8.1349850557096126E-01 
    8.1359326774975504E-01 
    8.3787518679172368E-01 
    8.3799424502413566E-01 
    8.1367600830596098E-01 
    8.1374710079671198E-01 
    8.3811069656144344E-01 
    8.3822332884316286E-01 
    8.1380694742814996E-01 
    8.1385645369428639E-01 
    8.3833111997411325E-01 
    8.3843344010921661E-01 
    8.1389648362682154E-01 
    8.1392789147367761E-01 
    8.3852856739261172E-01 
    8.3861529323758288E-01 
    8.1395146862173884E-01 
    8.1396792028941412E-01 
    8.3869212274578520E-01 
    8.3875818472421082E-01 
    8.1397786140376371E-01 
    8.1398192221135945E-01 
    8.3881246817822075E-01 
    8.3885466616782001E-01 
    8.1398063110126917E-01 
    8.1397461090461742E-01 
    8.3888443008078450E-01 
    8.3890214895793580E-01 
    8.1396438414268868E-01 
    8.1395060944956554E-01 
    8.3890821358859691E-01 
    7.8291513306785498E-01 
    7.5452988616094352E-01 
    7.5456828722864833E-01 
    7.8296710302163430E-01 
    7.8306889280461012E-01 
    7.5464419199272736E-01 
    7.5475493061646204E-01 
    7.8321695623161325E-01 
    7.8340715193998822E-01 
    7.5489746978706851E-01 
    7.5506742215689948E-01 
    7.8363409771271597E-01 
    7.8389224031073812E-01 
    7.5526015269251745E-01 
    7.5547020393398123E-01 
    7.8417490205148277E-01 
    7.8447578980331500E-01 
    7.5569192443192368E-01 
    7.5592348077511851E-01 
    7.8478901218708186E-01 
    7.8510969333019087E-01 
    7.5615860494922171E-01 
    7.5639199427067760E-01 
    7.8543131803816835E-01 
    7.8574899447710378E-01 
    7.5661831009202474E-01 
    7.5683334989217343E-01 
    7.8605691737156502E-01 
    7.8635145350473468E-01 
    7.5703285076076543E-01 
    7.5721423609948901E-01 
    7.8662798497821684E-01 
    7.8688486352634046E-01 
    7.5737859567464771E-01 
    7.5752104074662829E-01 
    7.8711935369782360E-01 
    7.8733033262961027E-01 
    7.5763893913014502E-01 
    7.5773198013801824E-01 
    7.8751552475658504E-01 
    7.8767557014596024E-01 
    7.5779958481238996E-01 
    7.5784359130813861E-01 
    7.8780973648470753E-01 
    7.8792012412844126E-01 
    7.5786547518639436E-01 
    7.5787190712133745E-01 
    7.8800614459557872E-01 
    7.8806964984348093E-01 
    7.5785893307973207E-01 
    7.5782827397177077E-01 
    7.8811112595132848E-01 
    7.8813330399257475E-01 
    7.5778081799317909E-01 
    7.5771925170749177E-01 
    7.8813700468452141E-01 
    7.8812500428288346E-01 
    7.5764515962759271E-01 
    7.5756192650470655E-01 
    7.8809868776178627E-01 
    7.8806108571082500E-01 
    7.5746842923822411E-01 
    7.5736890376467969E-01 
    7.8801421113061654E-01 
    7.8796160023336992E-01 
    7.5726606834680432E-01 
    7.5716340764390166E-01 
    7.8790483699007041E-01 
    7.8784678871170155E-01 
    7.5706292005063347E-01 
    7.5696718775440730E-01 
    7.8778851288273566E-01 
    7.8773217270574625E-01 
    7.5687734606388202E-01 
    7.5679498061527550E-01 
    7.8767826701766086E-01 
    7.8762829572706172E-01 
    7.5672027036028722E-01 
    7.5665375665965029E-01 
    7.8758223408991523E-01 
    7.2077279915088088E-01 
    6.8500608153789144E-01 
    6.8495634591472487E-01 
    7.2076384034232954E-01 
    7.2074588071553547E-01 
    6.8485920402611422E-01 
    6.8471858852039535E-01 
    7.2071928792340112E-01 
    7.2068458805654001E-01 
    6.8453875379517148E-01 
    6.8432528130102321E-01 
    7.2064263175973142E-01 
    7.2059398905693062E-01 
    6.8408379213836956E-01 
    6.8382086875934656E-01 
    7.2053937059416695E-01 
    7.2047896449140747E-01 
    6.8354282446540438E-01 
    6.8325218701798762E-01 
    7.2041389557876911E-01 
    7.2034514795959492E-01 
    6.8295817173693107E-01 
    6.8266700742229525E-01 
    7.2027450608175181E-01 
    7.2020228163605893E-01 
    6.8238399276864337E-01 
    6.8211412637276814E-01 
    7.2012997417558999E-01 
    7.2005727503423744E-01 
    6.8186124306941387E-01 
    6.8162851768314270E-01 
    7.1998536177740147E-01 
    7.1991331239576228E-01 
    6.8141299137106071E-01 
    6.8122114933262734E-01 
    7.1984277546373243E-01 
    7.1977331332196204E-01 
    6.8105519556283245E-01 
    6.8091635890138336E-01 
    7.1970644263851413E-01 
    7.1964152164078432E-01 
    6.8080453503788585E-01 
    6.8071863728527260E-01 
    7.1958011892874030E-01 
    7.1952170695889273E-01 
    6.8065633824651173E-01 
    6.8061069398291607E-01 
    7.1946785772257738E-01 
    7.1941731549479893E-01 
    6.8058572649748583E-01 
    6.8058080420139810E-01 
    7.1937092925838986E-01 
    7.1932766419590133E-01 
    6.8059466242619338E-01 
    6.8062564652901925E-01 
    7.1928873331716070E-01 
    7.1925350818033074E-01 
    6.8067183967150213E-01 
    6.8072657223685995E-01 
    7.1922338865259261E-01 
    7.1919716763892139E-01 
    6.8079258273107635E-01 
    6.8086697308797106E-01 
    7.1917515585076486E-01 
    7.1915593195541694E-01 
    6.8094706891830581E-01 
    6.8103042041914108E-01 
    7.1914009683849400E-01 
    7.1912669704545440E-01 
    6.8111490462500557E-01 
    6.8119868920859472E-01 