# vtk DataFile Version 2.0
Pressure Field Data 
ASCII 
DATASET UNSTRUCTURED_GRID 

POINTS 1681 double 

    0.0000000000000000E+00     0.0000000000000000E+00     0.0000000000000000E+00 
    1.0000000000000000E+00     0.0000000000000000E+00     0.0000000000000000E+00 
    1.0000000000000000E+00     1.0000000000000000E+00     0.0000000000000000E+00 
    0.0000000000000000E+00     1.0000000000000000E+00     0.0000000000000000E+00 
    5.2499999999875258E-01     0.0000000000000000E+00     0.0000000000000000E+00 
    7.4999999999856765E-02     0.0000000000000000E+00     0.0000000000000000E+00 
    1.2499999999975850E-01     0.0000000000000000E+00     0.0000000000000000E+00 
    1.7499999999962990E-01     0.0000000000000000E+00     0.0000000000000000E+00 
    2.2499999999948389E-01     0.0000000000000000E+00     0.0000000000000000E+00 
    2.7499999999933789E-01     0.0000000000000000E+00     0.0000000000000000E+00 
    3.2499999999919210E-01     0.0000000000000000E+00     0.0000000000000000E+00 
    3.7499999999904610E-01     0.0000000000000000E+00     0.0000000000000000E+00 
    4.2499999999890020E-01     0.0000000000000000E+00     0.0000000000000000E+00 
    4.7499999999875958E-01     0.0000000000000000E+00     0.0000000000000000E+00 
    2.4999999999949701E-02     0.0000000000000000E+00     0.0000000000000000E+00 
    5.7499999999887907E-01     0.0000000000000000E+00     0.0000000000000000E+00 
    6.2499999999901101E-01     0.0000000000000000E+00     0.0000000000000000E+00 
    6.7499999999914273E-01     0.0000000000000000E+00     0.0000000000000000E+00 
    7.2499999999927467E-01     0.0000000000000000E+00     0.0000000000000000E+00 
    7.7499999999940661E-01     0.0000000000000000E+00     0.0000000000000000E+00 
    8.2499999999953844E-01     0.0000000000000000E+00     0.0000000000000000E+00 
    8.7499999999967026E-01     0.0000000000000000E+00     0.0000000000000000E+00 
    9.2499999999980220E-01     0.0000000000000000E+00     0.0000000000000000E+00 
    9.7499999999993414E-01     0.0000000000000000E+00     0.0000000000000000E+00 
    5.4999999999881310E-01     0.0000000000000000E+00     0.0000000000000000E+00 
    9.9999999999814140E-02     0.0000000000000000E+00     0.0000000000000000E+00 
    1.4999999999970290E-01     0.0000000000000000E+00     0.0000000000000000E+00 
    1.9999999999955689E-01     0.0000000000000000E+00     0.0000000000000000E+00 
    2.4999999999941089E-01     0.0000000000000000E+00     0.0000000000000000E+00 
    2.9999999999926502E-01     0.0000000000000000E+00     0.0000000000000000E+00 
    3.4999999999911913E-01     0.0000000000000000E+00     0.0000000000000000E+00 
    3.9999999999897312E-01     0.0000000000000000E+00     0.0000000000000000E+00 
    4.4999999999882723E-01     0.0000000000000000E+00     0.0000000000000000E+00 
    4.9999999999869210E-01     0.0000000000000000E+00     0.0000000000000000E+00 
    4.9999999999899403E-02     0.0000000000000000E+00     0.0000000000000000E+00 
    5.9999999999894504E-01     0.0000000000000000E+00     0.0000000000000000E+00 
    6.4999999999907687E-01     0.0000000000000000E+00     0.0000000000000000E+00 
    6.9999999999920870E-01     0.0000000000000000E+00     0.0000000000000000E+00 
    7.4999999999934064E-01     0.0000000000000000E+00     0.0000000000000000E+00 
    7.9999999999947247E-01     0.0000000000000000E+00     0.0000000000000000E+00 
    8.4999999999960441E-01     0.0000000000000000E+00     0.0000000000000000E+00 
    8.9999999999973623E-01     0.0000000000000000E+00     0.0000000000000000E+00 
    9.4999999999986817E-01     0.0000000000000000E+00     0.0000000000000000E+00 
    1.0000000000000000E+00     5.2499999999875258E-01     0.0000000000000000E+00 
    1.0000000000000000E+00     7.4999999999856765E-02     0.0000000000000000E+00 
    1.0000000000000000E+00     1.2499999999975850E-01     0.0000000000000000E+00 
    1.0000000000000000E+00     1.7499999999962990E-01     0.0000000000000000E+00 
    1.0000000000000000E+00     2.2499999999948389E-01     0.0000000000000000E+00 
    1.0000000000000000E+00     2.7499999999933789E-01     0.0000000000000000E+00 
    1.0000000000000000E+00     3.2499999999919210E-01     0.0000000000000000E+00 
    1.0000000000000000E+00     3.7499999999904610E-01     0.0000000000000000E+00 
    1.0000000000000000E+00     4.2499999999890020E-01     0.0000000000000000E+00 
    1.0000000000000000E+00     4.7499999999875958E-01     0.0000000000000000E+00 
    1.0000000000000000E+00     2.4999999999949701E-02     0.0000000000000000E+00 
    1.0000000000000000E+00     5.7499999999887907E-01     0.0000000000000000E+00 
    1.0000000000000000E+00     6.2499999999901101E-01     0.0000000000000000E+00 
    1.0000000000000000E+00     6.7499999999914273E-01     0.0000000000000000E+00 
    1.0000000000000000E+00     7.2499999999927467E-01     0.0000000000000000E+00 
    1.0000000000000000E+00     7.7499999999940661E-01     0.0000000000000000E+00 
    1.0000000000000000E+00     8.2499999999953844E-01     0.0000000000000000E+00 
    1.0000000000000000E+00     8.7499999999967026E-01     0.0000000000000000E+00 
    1.0000000000000000E+00     9.2499999999980220E-01     0.0000000000000000E+00 
    1.0000000000000000E+00     9.7499999999993414E-01     0.0000000000000000E+00 
    1.0000000000000000E+00     5.4999999999881310E-01     0.0000000000000000E+00 
    1.0000000000000000E+00     9.9999999999814140E-02     0.0000000000000000E+00 
    1.0000000000000000E+00     1.4999999999970290E-01     0.0000000000000000E+00 
    1.0000000000000000E+00     1.9999999999955689E-01     0.0000000000000000E+00 
    1.0000000000000000E+00     2.4999999999941089E-01     0.0000000000000000E+00 
    1.0000000000000000E+00     2.9999999999926502E-01     0.0000000000000000E+00 
    1.0000000000000000E+00     3.4999999999911913E-01     0.0000000000000000E+00 
    1.0000000000000000E+00     3.9999999999897312E-01     0.0000000000000000E+00 
    1.0000000000000000E+00     4.4999999999882723E-01     0.0000000000000000E+00 
    1.0000000000000000E+00     4.9999999999869210E-01     0.0000000000000000E+00 
    1.0000000000000000E+00     4.9999999999899403E-02     0.0000000000000000E+00 
    1.0000000000000000E+00     5.9999999999894504E-01     0.0000000000000000E+00 
    1.0000000000000000E+00     6.4999999999907687E-01     0.0000000000000000E+00 
    1.0000000000000000E+00     6.9999999999920870E-01     0.0000000000000000E+00 
    1.0000000000000000E+00     7.4999999999934064E-01     0.0000000000000000E+00 
    1.0000000000000000E+00     7.9999999999947247E-01     0.0000000000000000E+00 
    1.0000000000000000E+00     8.4999999999960441E-01     0.0000000000000000E+00 
    1.0000000000000000E+00     8.9999999999973623E-01     0.0000000000000000E+00 
    1.0000000000000000E+00     9.4999999999986817E-01     0.0000000000000000E+00 
    4.7500000000196618E-01     1.0000000000000000E+00     0.0000000000000000E+00 
    9.2499999999968763E-01     1.0000000000000000E+00     0.0000000000000000E+00 
    8.7499999999961831E-01     1.0000000000000000E+00     0.0000000000000000E+00 
    8.2499999999982654E-01     1.0000000000000000E+00     0.0000000000000000E+00 
    7.7500000000017355E-01     1.0000000000000000E+00     0.0000000000000000E+00 
    7.2500000000052045E-01     1.0000000000000000E+00     0.0000000000000000E+00 
    6.7500000000086724E-01     1.0000000000000000E+00     0.0000000000000000E+00 
    6.2500000000121403E-01     1.0000000000000000E+00     0.0000000000000000E+00 
    5.7500000000156093E-01     1.0000000000000000E+00     0.0000000000000000E+00 
    5.2500000000189684E-01     1.0000000000000000E+00     0.0000000000000000E+00 
    9.7499999999989595E-01     1.0000000000000000E+00     0.0000000000000000E+00 
    4.2500000000176902E-01     1.0000000000000000E+00     0.0000000000000000E+00 
    3.7500000000156092E-01     1.0000000000000000E+00     0.0000000000000000E+00 
    3.2500000000135282E-01     1.0000000000000000E+00     0.0000000000000000E+00 
    2.7500000000114472E-01     1.0000000000000000E+00     0.0000000000000000E+00 
    2.2500000000093659E-01     1.0000000000000000E+00     0.0000000000000000E+00 
    1.7500000000072849E-01     1.0000000000000000E+00     0.0000000000000000E+00 
    1.2500000000052039E-01     1.0000000000000000E+00     0.0000000000000000E+00 
    7.5000000000312261E-02     1.0000000000000000E+00     0.0000000000000000E+00 
    2.5000000000104109E-02     1.0000000000000000E+00     0.0000000000000000E+00 
    4.5000000000187301E-01     1.0000000000000000E+00     0.0000000000000000E+00 
    8.9999999999958358E-01     1.0000000000000000E+00     0.0000000000000000E+00 
    8.4999999999965303E-01     1.0000000000000000E+00     0.0000000000000000E+00 
    8.0000000000000004E-01     1.0000000000000000E+00     0.0000000000000000E+00 
    7.5000000000034706E-01     1.0000000000000000E+00     0.0000000000000000E+00 
    7.0000000000069384E-01     1.0000000000000000E+00     0.0000000000000000E+00 
    6.5000000000104063E-01     1.0000000000000000E+00     0.0000000000000000E+00 
    6.0000000000138742E-01     1.0000000000000000E+00     0.0000000000000000E+00 
    5.5000000000173432E-01     1.0000000000000000E+00     0.0000000000000000E+00 
    5.0000000000205946E-01     1.0000000000000000E+00     0.0000000000000000E+00 
    9.4999999999979179E-01     1.0000000000000000E+00     0.0000000000000000E+00 
    4.0000000000166491E-01     1.0000000000000000E+00     0.0000000000000000E+00 
    3.5000000000145681E-01     1.0000000000000000E+00     0.0000000000000000E+00 
    3.0000000000124871E-01     1.0000000000000000E+00     0.0000000000000000E+00 
    2.5000000000104061E-01     1.0000000000000000E+00     0.0000000000000000E+00 
    2.0000000000083251E-01     1.0000000000000000E+00     0.0000000000000000E+00 
    1.5000000000062441E-01     1.0000000000000000E+00     0.0000000000000000E+00 
    1.0000000000041630E-01     1.0000000000000000E+00     0.0000000000000000E+00 
[...]
CELL_DATA 1600 
SCALARS Pressure double 1 
LOOKUP_TABLE default 

    9.8454636301212262E-01 
    9.6633894192094361E-01 
    9.6625826016206040E-01 
    9.8270332591207243E-01 
    9.8103682623599930E-01 
    9.6611398940289694E-01 
    9.6591938872531391E-01 
    9.7952407090584814E-01 
    9.7814733183438696E-01 
    9.6568591415550908E-01 
    9.6542274322484978E-01 
    9.7689422444906360E-01 
    9.7575429549137183E-01 
    9.6513854500781437E-01 
    9.6483982252965494E-01 
    9.7471794713098425E-01 
    9.7377657914901194E-01 
    9.6453260236683591E-01 
    9.6422191866842977E-01 
    9.7292317297930297E-01 
    9.7215199003070063E-01 
    9.6391315647026288E-01 
    9.6361012789433187E-01 
    9.7145776027859765E-01 
    9.7083544783246667E-01 
    9.6331643796664246E-01 
    9.6303437454979357E-01 
    9.7028035749255026E-01 
    9.6978811838127577E-01 
    9.6276588140745800E-01 
    9.6251274665591591E-01 
    9.6935534805852908E-01 
    9.6897761384810277E-01 
    9.6227659892082451E-01 
    9.6205776107986163E-01 
    9.6865051471665042E-01 
    9.6836941484278616E-01 
    9.6185614876022640E-01 
    9.6167128201198582E-01 
    9.6812965699778308E-01 
    9.6792634461052074E-01 
    9.6150198590460967E-01 
    9.6134707741464420E-01 
    9.6775496235926661E-01 
    9.6761140773305065E-01 
    9.6120526410288409E-01 
    9.6107662158067453E-01 
    9.6749393192295330E-01 
    9.6740089524847261E-01 
    9.6096045580288381E-01 
    9.6085660160046193E-01 
    9.6733083321244684E-01 
    9.6728295555986366E-01 
    9.6076447597526937E-01 
    9.6068444544274967E-01 
    9.6725621650263593E-01 
    9.6725451298252785E-01 
    9.6062008377996244E-01 
    9.6057558527483677E-01 
    9.6726569706470567E-01 
    9.6728229729713611E-01 
    9.6054271569160710E-01 
    9.6051347510906671E-01 
    9.6730005515809370E-01 
    9.6731474366398862E-01 
    9.6048600023018738E-01 
    9.6046031915986463E-01 
    9.6732233818206681E-01 
    9.6732022205478418E-01 
    9.6043400908419785E-01 
    9.6040659124917604E-01 
    9.6730589250126708E-01 
    9.6727831938132880E-01 
    9.6037652019523301E-01 
    9.6034437430855912E-01 
    9.6723648003167639E-01 
    9.6718083111582065E-01 
    9.6030956148740498E-01 
    9.6027362103985969E-01 
    9.6711175901506086E-01 
    9.5569299035606214E-01 
    9.4539902367446682E-01 
    9.4537376544845442E-01 
    9.5566514153468252E-01 
    9.5561022796001649E-01 
    9.4532371369366108E-01 
    9.4524963419707542E-01 
    9.5552902366219850E-01 
    9.5542283111493176E-01 
    9.4515206521453454E-01 
    9.4503197041501141E-01 
    9.5529304731197962E-01 
    9.5514190483415684E-01 
    9.4489052998016998E-01 
    9.4472926998811235E-01 
    9.5497148176073743E-01 
    9.5478423718003613E-01 
    9.4454969329936356E-01 
    9.4435361373402638E-01 
    9.5458271215176749E-01 
    9.5436995470835440E-01 
    9.4414282159779694E-01 
    9.4391893911921798E-01 
    9.5414844115114505E-01 
    9.5392077964648181E-01 
    9.4368370732476170E-01 
    9.4343867495033762E-01 
    9.5368899613716873E-01 
    9.5345481274803534E-01 
    9.4318519495554498E-01 
    9.4292503275549333E-01 
    9.5322032476480101E-01 
    9.5298763578205892E-01 
    9.4266036107713147E-01 
    9.4239278345830546E-01 
    9.5275810368321356E-01 
    9.5253270950762403E-01 
    9.4212384009117423E-01 
    9.4185489084964147E-01 
    9.5231231832538787E-01 
    9.5209720643475471E-01 
    9.4158720682048513E-01 
    9.4132166235127623E-01 
    9.5188756721170387E-01 
    9.5168376308212010E-01 
    9.4105963666022074E-01 
    9.4080218894607870E-01 
    9.5148668841974038E-01 
    9.5129669644517012E-01 
    9.4055033984618486E-01 
    9.4030477297143655E-01 
    9.5111419433945366E-01 
    9.5093946105627758E-01 
    9.4006627923167685E-01 
    9.3983617599605929E-01 
    9.5077361043821296E-01 
    9.5061794077245521E-01 
    9.3961677217108663E-01 
    9.3940882701143180E-01 
    9.5047900271884089E-01 
    9.5035802837602434E-01 
    9.3921381848169050E-01 
    9.3903339445541778E-01 
    9.5025140029476174E-01 
    9.5015488685957461E-01 
    9.3886765105202541E-01 
    9.3871992569054330E-01 
    9.5006663486168008E-01 
    9.4998980852118031E-01 
    9.3859216364959985E-01 
    9.3848605834533327E-01 
    9.4992537574235458E-01 
    9.4987343330439555E-01 
    9.3840462466938290E-01 
    9.3834911536643884E-01 
    9.4983472085430298E-01 
    9.4980969693666251E-01 
    9.3832069308924959E-01 
    9.3832042101637625E-01 
    9.4979954493846941E-01 
    9.3433803137682492E-01 
    9.2233570979255142E-01 
    9.2232081264584342E-01 
    9.3431590018995558E-01 
    9.3427211756215911E-01 
    9.2229099686289928E-01 
    9.2224651612372421E-01 
    9.3420695059789083E-01 
    9.3412088096411450E-01 
    9.2218721114612412E-01 
    9.2211326703904428E-01 
    9.3401429902765642E-01 
    9.3388802923148373E-01 
    9.2202457194977316E-01 
    9.2192148896412318E-01 
    9.3374288575245268E-01 
    9.3358010090649168E-01 
    9.2180430565719174E-01 
    9.2167344465162870E-01 
    9.3340073778899602E-01 
    9.3320587861925108E-01 
    9.2152867073837419E-01 
    9.2136962990984583E-01 
    9.3299612160511558E-01 
    9.3277248185214645E-01 
    9.2119597863531932E-01 
    9.2100780826662432E-01 
    9.3253584319451865E-01 
    9.3228728246686121E-01 
    9.2080527034633441E-01 
    9.2058894404615965E-01 
    9.3202803455691718E-01 
    9.3176009118854020E-01 
    9.2036016951649946E-01 
    9.2012034958145117E-01 
    9.3148507822893700E-01 
    9.3120468979645710E-01 
    9.1987092150201033E-01 
    9.1961353015181668E-01 
    9.3092059022002571E-01 
    9.3063447753467154E-01 
    9.1935003132120041E-01 
    9.1908228462118613E-01 
    9.3034790381963728E-01 
    9.3006276943847321E-01 
    9.1881273852377066E-01 
    9.1854281519988967E-01 
    9.2978042986448806E-01 
    9.2950190668212140E-01 
    9.1827377278732059E-01 
    9.1800670844083876E-01 
    9.2922831214767099E-01 
    9.2896054159806107E-01 
    9.1774304853006894E-01 
    9.1748401995461615E-01 
    9.2870000574546652E-01 
    9.2844834694182055E-01 
    9.1723119278852638E-01 
    9.1698571470818779E-01 
    9.2820686137406605E-01 
    9.2797618314851416E-01 
    9.1674976731701596E-01 
    9.1652647321462299E-01 
    9.2775650513314867E-01 
    9.2754940362325711E-01 
    9.1631711716665587E-01 
    9.1612326549778222E-01 
    9.2736142052850601E-01 
    9.2719663783292039E-01 
    9.1594623892139904E-01 
    9.1579352189487984E-01 
    9.2706112906927418E-01 
    9.2695837606416609E-01 
    9.1567878945196979E-01 
    9.1560221575791134E-01 
    9.2688922732263845E-01 
    9.2685479387364000E-01 
    9.1556320147846892E-01 
    9.1556222075253080E-01 
    9.2685650727978741E-01 
    9.0931740170699404E-01 
    8.9521106386457261E-01 
    8.9521653771478049E-01 
    9.0931305456088418E-01 
    9.0930428007553143E-01 
    8.9522727850132666E-01 
    8.9524288097532179E-01 
    9.0929079985301686E-01 
    9.0927218338367477E-01 
    8.9526264132530098E-01 
    8.9528569948247194E-01 
    9.0924786449635187E-01 
    9.0921719294403314E-01 
    8.9531089336106895E-01 
    8.9533679895866392E-01 
    9.0917944606737744E-01 
    9.0913398696039693E-01 
    8.9536141704575967E-01 
    8.9538267875793798E-01 
    9.0907973144187337E-01 
    9.0901544854504579E-01 
    8.9539836326682753E-01 
    8.9540591924897106E-01 
    9.0893928405733904E-01 
    9.0884985015961006E-01 
    8.9540268237363452E-01 
    8.9538621565818166E-01 
    9.0874563441245682E-01 
    9.0862586109519616E-01 
    8.9535391192218194E-01 
    8.9530390759987588E-01 
    9.0848963066272415E-01 
    9.0833784094692549E-01 
    8.9523598129520876E-01 
    8.9515043680517148E-01 
    9.0817090984676341E-01 
    9.0799011520955575E-01 
    8.9504764093353817E-01 
    8.9492882953736053E-01 
    9.0779654010018951E-01 
    9.0759229198182112E-01 
    8.9479561304535649E-01 
    8.9465045747731442E-01 
    9.0737924350904930E-01 
    9.0716032697479954E-01 
    8.9449611503291671E-01 
    8.9433445981181481E-01 
    9.0693694896496646E-01 
    9.0671041957732856E-01 
    8.9416628067570791E-01 
    8.9399270402003972E-01 
    9.0648183487034362E-01 
    9.0625294498494702E-01 
    8.9381510849991508E-01 
    8.9363516339904525E-01 
    9.0602518377875962E-01 
    9.0580036606976511E-01 
    8.9345459434078034E-01 
    8.9327493681604886E-01 
    9.0557980079163169E-01 
    9.0536536171292725E-01 
    8.9309742453812457E-01 
    8.9292556635349374E-01 
    9.0516097415366004E-01 
    9.0497057145741133E-01 
    8.9276327158206115E-01 
    8.9261325722376650E-01 
    9.0479575501689724E-01 
    9.0463450884984564E-01 
    8.9247547692266649E-01 
    8.9234293180661295E-01 
    9.0448449965646116E-01 
    9.0436602789466902E-01 
    8.9222924710939966E-01 
    8.9214870009550262E-01 
    9.0428747775482188E-01 
    9.0424373179458373E-01 
    8.9209645162059914E-01 
    8.9207177888842093E-01 
    9.0423528165647160E-01 
    8.7947593642513333E-01 
    8.6068939655759835E-01 
    8.6068086107494601E-01 
    8.7947883585301978E-01 
    8.7948544463505107E-01 
    8.6066368101569979E-01 
    8.6063844254952526E-01 
    8.7949592466978821E-01 
    8.7951050759569072E-01 
    8.6060565824606494E-01 
    8.6056637919089130E-01 
    8.7952887095020771E-01 
    8.7955079034034644E-01 
    8.6052139803353433E-01 
    8.6047126680864638E-01 
    8.7957521904313418E-01 
    8.7960066551708438E-01 
    8.6041553647560853E-01 
    8.6035486308383780E-01 
    8.7962543928743320E-01 
    8.7964723311454018E-01 
    8.6029046254019503E-01 
    8.6022450532170558E-01 
    8.7966395730097180E-01 
    8.7967375930660441E-01 
    8.6015837254556771E-01 
    8.6009304693913269E-01 
    8.7967446115939785E-01 
    8.7966355712948363E-01 
    8.6002817386670916E-01 
    8.5996427338039672E-01 
    8.7963890676235879E-01 
    8.7960302537138602E-01 
    8.5990129100123758E-01 
    8.5984034773601048E-01 
    8.7955339184147374E-01 
    8.7949025809306414E-01 
    8.5978158971108942E-01 
    8.5972564388073525E-01 
    8.7941441330728087E-01 
    8.7932738413932743E-01 
    8.5967218315722693E-01 
    8.5962148073043265E-01 
    8.7923146168153754E-01 
    8.7912946245875401E-01 
    8.5957247281436311E-01 
    8.5952490148788752E-01 
    8.7902702413184408E-01 
    8.7892145665976051E-01 
    8.5947859764151746E-01 
    8.5943416742265366E-01 
    8.7881267769791827E-01 
    8.7870117484371990E-01 
    8.5939138265205672E-01 
    8.5935079924219593E-01 
    8.7858792380676132E-01 
    8.7847435889106129E-01 
    8.5931230705504158E-01 
    8.5927663916128594E-01 
    8.7836189873137072E-01 
    8.7824826758023988E-01 
    8.5924313572834665E-01 
    8.5921230759109946E-01 
    8.7813581991593004E-01 
    8.7802704406034016E-01 
    8.5918384102580470E-01 
    8.5915781046797979E-01 
    8.7792381255609508E-01 
    8.7782643337871058E-01 
    8.5913223962193086E-01 
    8.5910094290658545E-01 
    8.7772855876394806E-01 
    8.7763605233005360E-01 
    8.5906437492480792E-01 
    8.5903455275244089E-01 
    8.7756317269806894E-01 
    8.7750819402439173E-01 
    8.5901215284952970E-01 
    8.5899533665369820E-01 
    8.7746909231638182E-01 
    8.3988788284095295E-01 
    8.2028179992853922E-01 
    8.2027835900617829E-01 
    8.3987071031897764E-01 
    8.3983692597295312E-01 
    8.2027168003096673E-01 
    8.2026193104600387E-01 
    8.3978762666965245E-01 
    8.3972400187068230E-01 
    8.2024949034533901E-01 
    8.2023466665954037E-01 
    8.3964776618976988E-01 
    8.3956063526863323E-01 
    8.2021796129936353E-01 
    8.2019933692329350E-01 
    8.3946401858901520E-01 
    8.3935892301964121E-01 
    8.2017918361003272E-01 
    8.2015866577387397E-01 
    8.3924783162040661E-01 
    8.3913568427588181E-01 
    8.2013975601864042E-01 
    8.2012367907996531E-01 
    8.3902567919867654E-01 
    8.3892052968783337E-01 
    8.2011176983331113E-01 
    8.2010364611308884E-01 
    8.3882196762225736E-01 
    8.3873108628741411E-01 
    8.2010014971679435E-01 
    8.2010248142494158E-01 
    8.3865102829940874E-01 
    8.3858138575683028E-01 
    8.2011133727471930E-01 
    8.2012612503070859E-01 
    8.3852470872476037E-01 
    8.3848101616400783E-01 
    8.2014731488935910E-01 
    8.2017399185018935E-01 
    8.3845039173118374E-01 
    8.3843184880383204E-01 
    8.2020586615201185E-01 
    8.2024112762822687E-01 
    8.3842419983461225E-01 
    8.3842479659647950E-01 
    8.2027896519955024E-01 
    8.2031793001216968E-01 
    8.3842921358996614E-01 
    8.3843884129822699E-01 
    8.2035730482426183E-01 
    8.2039649073767695E-01 
    8.3845392999221591E-01 
    8.3847381418218336E-01 
    8.2043561919015606E-01 
    8.2047384979438476E-01 
    8.3849818903596829E-01 
    8.3852610671353256E-01 
    8.2051148056180523E-01 
    8.2054846648974034E-01 
    8.3855735449764457E-01 
    8.3859304077427155E-01 
    8.2058568323298797E-01 
    8.2062182237634029E-01 
    8.3863147260677040E-01 
    8.3867050244561647E-01 
    8.2065606698588400E-01 
    8.2068643651142081E-01 
    8.3870802562584246E-01 
    8.3873962654605427E-01 
    8.2071018127217299E-01 
    8.2072697046666665E-01 
    8.3876436523287201E-01 
    8.3878725054766368E-01 
    8.2074375607301653E-01 
    8.2076101059790341E-01 
    8.3881044843829555E-01 
    8.3883253460508167E-01 
    8.2077640130877594E-01 
    8.2078986768951501E-01 
    8.3885352604201024E-01 
    8.0115936484652051E-01 
    7.8140540098218347E-01 
    7.8144599809751958E-01 
    8.0117924487147063E-01 
    8.0121800463144766E-01 
    7.8152610339253770E-01 
    7.8164368733223422E-01 
    8.0127513291051777E-01 
    8.0134918852084258E-01 
    7.8179666541249315E-01 
    7.8198200546350616E-01 
    8.0143912061954670E-01 
    8.0154296881330667E-01 
    7.8219736253792882E-01 
    7.8244012405616670E-01 
    8.0165926482016348E-01 
    8.0178581183680653E-01 
    7.8270501813686877E-01 
    7.8298636852627557E-01 
    8.0192104142531828E-01 
    8.0206383349375732E-01 
    7.8328097241505790E-01 
    7.8358776021570919E-01 
    8.0221352396976320E-01 
    8.0236933639192309E-01 
    7.8390928720174058E-01 
    7.8424494498353303E-01 
    8.0253014860696736E-01 
    8.0269351174531123E-01 
    7.8458677476424832E-01 
    7.8492651123244883E-01 
    8.0285628918078777E-01 
    8.0301603242888231E-01 
    7.8525940003018235E-01 
    7.8558302080401776E-01 
    8.0317120486629501E-01 
    8.0332059911424480E-01 
    7.8589633788145130E-01 
    7.8619747126704753E-01 
    8.0346252483782654E-01 
    8.0359483972753443E-01 
    7.8647912632048178E-01 
    7.8672968255737974E-01 
    8.0371495780330049E-01 
    8.0382186111363774E-01 
    7.8694182794121204E-01 
    7.8711468495858739E-01 
    8.0391480077522826E-01 
    8.0399378857710546E-01 
    7.8724951592926262E-01 
    7.8734938112925490E-01 
    8.0405940976095824E-01 
    8.0411241503027198E-01 
    7.8741656475295019E-01 
    7.8745230714800041E-01 
    8.0415251596263493E-01 
    8.0418039794107010E-01 
    7.8745780799718812E-01 
    7.8743545038591178E-01 
    8.0419747730274671E-01 
    8.0420638881101159E-01 
    7.8738841754487920E-01 
    7.8731924218347404E-01 
    8.0420846780917865E-01 
    8.0420456393606310E-01 
    7.8722881628765184E-01 
    7.8711827583011829E-01 
    8.0419369654010431E-01 
    8.0417281491228154E-01 
    7.8699287779147764E-01 
    7.8687768544441383E-01 
    8.0414391822871134E-01 
    8.0411826397991126E-01 
    7.8678843353850236E-01 
    7.8671934523375031E-01 
    8.0409898729305918E-01 
    8.0408570653179690E-01 
    7.8666855194345220E-01 
    7.8663576291115334E-01 
    8.0407832254698097E-01 
    7.6053153927718731E-01 
    7.3758957722378393E-01 
    7.3762202423188727E-01 
    7.6058053029029593E-01 
    7.6067675854233385E-01 
    7.3768636867636783E-01 
    7.3778061044906118E-01 
    7.6081774815478209E-01 
    7.6100040975998917E-01 
    7.3790273275771578E-01 
    7.3804964878259516E-01 
    7.6122096762737235E-01 
    7.6147744638297432E-01 
    7.3822056621355714E-01 
    7.3841449072908194E-01 
    7.6176723764088405E-01 
    7.6208205620154046E-01 
    7.3862527456691240E-01 
    7.3884651718243077E-01 
    7.6241283663141601E-01 
    7.6275398632254743E-01 
    7.3907050121347961E-01 
    7.3929362621629957E-01 
    7.6310368786890259E-01 
    7.6346761806809527E-01 
    7.3951805547818550E-01 
    7.3974588426475385E-01 
    7.6384625606008127E-01 
    7.6423039678588789E-01 
    7.3997055286781954E-01 
    7.4018259667333175E-01 
    7.6460798419565745E-01 
    7.6497124443960607E-01 
    7.4037390035227668E-01 
    7.4052751430783359E-01 
    7.6531454308501723E-01 
    7.6563902850476351E-01 
    7.4063108837345437E-01 
    7.4068568081195707E-01 
    7.6594585480596000E-01 
    7.6622308631021441E-01 
    7.4070185809830402E-01 
    7.4069766678693427E-01 
    7.6645420536183906E-01 
    7.6664050823405239E-01 
    7.4068202476682932E-01 
    7.4065943891300434E-01 
    7.6678363768561608E-01 
    7.6688520210744759E-01 
    7.4062534625129883E-01 
    7.4058044578403903E-01 
    7.6694751927367377E-01 
    7.6697528757340816E-01 
    7.4052564959953548E-01 
    7.4046412554205576E-01 
    7.6697112980141424E-01 
    7.6693882969641092E-01 
    7.4039762412285770E-01 
    7.4032869703789272E-01 
    7.6687981933417970E-01 
    7.6679675701707384E-01 
    7.4025621274387288E-01 
    7.4018378701542553E-01 
    7.6669118654598467E-01 
    7.6656746734355241E-01 
    7.4011571057119563E-01 
    7.4005652035598324E-01 
    7.6643273493657438E-01 
    7.6630388518488746E-01 
    7.4000288199560227E-01 
    7.3994801904296681E-01 
    7.6619490240017318E-01 
    7.6610421308580146E-01 
    7.3988851486381002E-01 
    7.3982622073287785E-01 
    7.6602505277411326E-01 
    7.6595805851024934E-01 
    7.3976226873889173E-01 
    7.3969810998945007E-01 
    7.6590278876643214E-01 
    7.1035741647457096E-01 
    6.8112099396891590E-01 
    6.8106615904483780E-01 
    7.1034732987669225E-01 
    7.1032725348956582E-01 
    6.8095866753050616E-01 
    6.8080204627084995E-01 
    7.1029752962832071E-01 
    7.1025879554267457E-01 
    6.8060027558653335E-01 
    6.8035843816857589E-01 
    7.1021189254444939E-01 
    7.1015818253353313E-01 
    6.8008156048676016E-01 
    6.7977372082639753E-01 
    7.1009941610545502E-01 
    7.1003567880697072E-01 
    6.7943840543145229E-01 
    6.7907835134605221E-01 
    7.0996591203147563E-01 
    7.0988891694182443E-01 
    6.7870205211022627E-01 
    6.7831385038051273E-01 
    7.0980451139947653E-01 
    7.0971240169880390E-01 
    6.7791506981006766E-01 
    6.7749967883778917E-01 
    7.0961416235896635E-01 
    7.0950934011219857E-01 
    6.7705315488812967E-01 
    6.7655976323735423E-01 
    7.0939343642836816E-01 
    7.0924904230158847E-01 
    6.7601792886141743E-01 
    6.7549914203349082E-01 
    7.0906844814312564E-01 
    7.0886578568952130E-01 
    6.7504635892024467E-01 
    6.7465628416714296E-01 
    7.0866635482087892E-01 
    7.0849444797777916E-01 
    6.7432503729140958E-01 
    6.7403688675332507E-01 
    7.0834916713460472E-01 
    7.0821599597098528E-01 
    6.7378288522219842E-01 
    6.7355655929573222E-01 
    7.0809160011796246E-01 
    7.0797471066960316E-01 
    6.7336139275501006E-01 
    6.7319681622009619E-01 
    7.0786597763688131E-01 
    7.0776427246342255E-01 
    6.7306136428869667E-01 
    6.7295337075680906E-01 
    7.0767049912094027E-01 
    7.0758382724810420E-01 
    6.7287060075137062E-01 
    6.7280677055421267E-01 
    7.0750528328590878E-01 
    7.0743406499348793E-01 
    6.7276408907622831E-01 
    6.7273998520598333E-01 
    7.0737068982124829E-01 
    7.0731386434787225E-01 
    6.7273179238730885E-01 
    6.7273731291799210E-01 
    7.0726403983801001E-01 
    7.0722014585602877E-01 
    6.7275437916979330E-01 
    6.7278136895450968E-01 