# vtk DataFile Version 2.0
Pressure Field Data 
ASCII 
DATASET UNSTRUCTURED_GRID 

POINTS 1681 double 

    0.0000000000000000E+00     0.0000000000000000E+00     0.0000000000000000E+00 
    1.0000000000000000E+00     0.0000000000000000E+00     0.0000000000000000E+00 
    1.0000000000000000E+00     1.0000000000000000E+00     0.0000000000000000E+00 
    0.0000000000000000E+00     1.0000000000000000E+00     0.0000000000000000E+00 
    5.2499999999875258E-01     0.0000000000000000E+00     0.0000000000000000E+00 
    7.4999999999856765E-02     0.0000000000000000E+00     0.0000000000000000E+00 
    1.2499999999975850E-01     0.0000000000000000E+00     0.0000000000000000E+00 
    1.7499999999962990E-01     0.0000000000000000E+00     0.0000000000000000E+00 
    2.2499999999948389E-01     0.0000000000000000E+00     0.0000000000000000E+00 
    2.7499999999933789E-01     0.0000000000000000E+00     0.0000000000000000E+00 
    3.2499999999919210E-01     0.0000000000000000E+00     0.0000000000000000E+00 
    3.7499999999904610E-01     0.0000000000000000E+00     0.0000000000000000E+00 
    4.2499999999890020E-01     0.0000000000000000E+00     0.0000000000000000E+00 
    4.7499999999875958E-01     0.0000000000000000E+00     0.0000000000000000E+00 
    2.4999999999949701E-02     0.0000000000000000E+00     0.0000000000000000E+00 
    5.7499999999887907E-01     0.0000000000000000E+00     0.0000000000000000E+00 
    6.2499999999901101E-01     0.0000000000000000E+00     0.0000000000000000E+00 
    6.7499999999914273E-01     0.0000000000000000E+00     0.0000000000000000E+00 
    7.2499999999927467E-01     0.0000000000000000E+00     0.0000000000000000E+00 
    7.7499999999940661E-01     0.0000000000000000E+00     0.0000000000000000E+00 
    8.2499999999953844E-01     0.0000000000000000E+00     0.0000000000000000E+00 
    8.7499999999967026E-01     0.0000000000000000E+00     0.0000000000000000E+00 
    9.2499999999980220E-01     0.0000000000000000E+00     0.0000000000000000E+00 
    9.7499999999993414E-01     0.0000000000000000E+00     0.0000000000000000E+00 
    5.4999999999881310E-01     0.0000000000000000E+00     0.0000000000000000E+00 
    9.9999999999814140E-02     0.0000000000000000E+00     0.0000000000000000E+00 
    1.4999999999970290E-01     0.0000000000000000E+00     0.0000000000000000E+00 
    1.9999999999955689E-01     0.0000000000000000E+00     0.0000000000000000E+00 
    2.4999999999941089E-01     0.0000000000000000E+00     0.0000000000000000E+00 
    2.9999999999926502E-01     0.0000000000000000E+00     0.0000000000000000E+00 
    3.4999999999911913E-01     0.0000000000000000E+00     0.0000000000000000E+00 
    3.9999999999897312E-01     0.0000000000000000E+00     0.0000000000000000E+00 
    4.4999999999882723E-01     0.0000000000000000E+00     0.0000000000000000E+00 
    4.9999999999869210E-01     0.0000000000000000E+00     0.0000000000000000E+00 
    4.9999999999899403E-02     0.0000000000000000E+00     0.0000000000000000E+00 
    5.9999999999894504E-01     0.0000000000000000E+00     0.0000000000000000E+00 
    6.4999999999907687E-01     0.0000000000000000E+00     0.0000000000000000E+00 
    6.9999999999920870E-01     0.0000000000000000E+00     0.0000000000000000E+00 
    7.4999999999934064E-01     0.0000000000000000E+00     0.0000000000000000E+00 
    7.9999999999947247E-01     0.0000000000000000E+00     0.0000000000000000E+00 
    8.4999999999960441E-01     0.0000000000000000E+00     0.0000000000000000E+00 
    8.9999999999973623E-01     0.0000000000000000E+00     0.0000000000000000E+00 
    9.4999999999986817E-01     0.0000000000000000E+00     0.0000000000000000E+00 
    1.0000000000000000E+00     5.2499999999875258E-01     0.0000000000000000E+00 
    1.0000000000000000E+00     7.4999999999856765E-02     0.0000000000000000E+00 
    1.0000000000000000E+00     1.2499999999975850E-01     0.0000000000000000E+00 
    1.0000000000000000E+00     1.7499999999962990E-01     0.0000000000000000E+00 
    1.0000000000000000E+00     2.2499999999948389E-01     0.0000000000000000E+00 
    1.0000000000000000E+00     2.7499999999933789E-01     0.0000000000000000E+00 
    1.0000000000000000E+00     3.2499999999919210E-01     0.0000000000000000E+00 
    1.0000000000000000E+00     3.7499999999904610E-01     0.0000000000000000E+00 
    1.0000000000000000E+00     4.2499999999890020E-01     0.0000000000000000E+00 
    1.0000000000000000E+00     4.7499999999875958E-01     0.0000000000000000E+00 
    1.0000000000000000E+00     2.4999999999949701E-02     0.0000000000000000E+00 
    1.0000000000000000E+00     5.7499999999887907E-01     0.0000000000000000E+00 
    1.0000000000000000E+00     6.2499999999901101E-01     0.0000000000000000E+00 
    1.0000000000000000E+00     6.7499999999914273E-01     0.0000000000000000E+00 
    1.0000000000000000E+00     7.2499999999927467E-01     0.0000000000000000E+00 
    1.0000000000000000E+00     7.7499999999940661E-01     0.0000000000000000E+00 
    1.0000000000000000E+00     8.2499999999953844E-01     0.0000000000000000E+00 
    1.0000000000000000E+00     8.7499999999967026E-01     0.0000000000000000E+00 
    1.0000000000000000E+00     9.2499999999980220E-01     0.0000000000000000E+00 
    1.0000000000000000E+00     9.7499999999993414E-01     0.0000000000000000E+00 
    1.0000000000000000E+00     5.4999999999881310E-01     0.0000000000000000E+00 
    1.0000000000000000E+00     9.9999999999814140E-02     0.0000000000000000E+00 
    1.0000000000000000E+00     1.4999999999970290E-01     0.0000000000000000E+00 
    1.0000000000000000E+00     1.9999999999955689E-01     0.0000000000000000E+00 
    1.0000000000000000E+00     2.4999999999941089E-01     0.0000000000000000E+00 
    1.0000000000000000E+00     2.9999999999926502E-01     0.0000000000000000E+00 
    1.0000000000000000E+00     3.4999999999911913E-01     0.0000000000000000E+00 
    1.0000000000000000E+00     3.9999999999897312E-01     0.0000000000000000E+00 
    1.0000000000000000E+00     4.4999999999882723E-01     0.0000000000000000E+00 
    1.0000000000000000E+00     4.9999999999869210E-01     0.0000000000000000E+00 
    1.0000000000000000E+00     4.9999999999899403E-02     0.0000000000000000E+00 
    1.0000000000000000E+00     5.9999999999894504E-01     0.0000000000000000E+00 
    1.0000000000000000E+00     6.4999999999907687E-01     0.0000000000000000E+00 
    1.0000000000000000E+00     6.9999999999920870E-01     0.0000000000000000E+00 
    1.0000000000000000E+00     7.4999999999934064E-01     0.0000000000000000E+00 
    1.0000000000000000E+00     7.9999999999947247E-01     0.0000000000000000E+00 
    1.0000000000000000E+00     8.4999999999960441E-01     0.0000000000000000E+00 
    1.0000000000000000E+00     8.9999999999973623E-01     0.0000000000000000E+00 
    1.0000000000000000E+00     9.4999999999986817E-01     0.0000000000000000E+00 
    4.7500000000196618E-01     1.0000000000000000E+00     0.0000000000000000E+00 
    9.2499999999968763E-01     1.0000000000000000E+00     0.0000000000000000E+00 
    8.7499999999961831E-01     1.0000000000000000E+00     0.0000000000000000E+00 
    8.2499999999982654E-01     1.0000000000000000E+00     0.0000000000000000E+00 
    7.7500000000017355E-01     1.0000000000000000E+00     0.0000000000000000E+00 
    7.2500000000052045E-01     1.0000000000000000E+00     0.0000000000000000E+00 
    6.7500000000086724E-01     1.0000000000000000E+00     0.0000000000000000E+00 
    6.2500000000121403E-01     1.0000000000000000E+00     0.0000000000000000E+00 
    5.7500000000156093E-01     1.0000000000000000E+00     0.0000000000000000E+00 
    5.2500000000189684E-01     1.0000000000000000E+00     0.0000000000000000E+00 
    9.7499999999989595E-01     1.0000000000000000E+00     0.0000000000000000E+00 
    4.2500000000176902E-01     1.0000000000000000E+00     0.0000000000000000E+00 
    3.7500000000156092E-01     1.0000000000000000E+00     0.0000000000000000E+00 
    3.2500000000135282E-01     1.0000000000000000E+00     0.0000000000000000E+00 
    2.7500000000114472E-01     1.0000000000000000E+00     0.0000000000000000E+00 
    2.2500000000093659E-01     1.0000000000000000E+00     0.0000000000000000E+00 
    1.7500000000072849E-01     1.0000000000000000E+00     0.0000000000000000E+00 
    1.2500000000052039E-01     1.0000000000000000E+00     0.0000000000000000E+00 
    7.5000000000312261E-02     1.0000000000000000E+00     0.0000000000000000E+00 
    2.5000000000104109E-02     1.0000000000000000E+00     0.0000000000000000E+00 
    4.5000000000187301E-01     1.0000000000000000E+00     0.0000000000000000E+00 
    8.9999999999958358E-01     1.0000000000000000E+00     0.0000000000000000E+00 
    8.4999999999965303E-01     1.0000000000000000E+00     0.0000000000000000E+00 
    8.0000000000000004E-01     1.0000000000000000E+00     0.0000000000000000E+00 
    7.5000000000034706E-01     1.0000000000000000E+00     0.0000000000000000E+00 
    7.0000000000069384E-01     1.0000000000000000E+00     0.0000000000000000E+00 
    6.5000000000104063E-01     1.0000000000000000E+00     0.0000000000000000E+00 
    6.0000000000138742E-01     1.0000000000000000E+00     0.0000000000000000E+00 
    5.5000000000173432E-01     1.0000000000000000E+00     0.0000000000000000E+00 
    5.0000000000205946E-01     1.0000000000000000E+00     0.0000000000000000E+00 
    9.4999999999979179E-01     1.0000000000000000E+00     0.0000000000000000E+00 
    4.0000000000166491E-01     1.0000000000000000E+00     0.0000000000000000E+00 
    3.5000000000145681E-01     1.0000000000000000E+00     0.0000000000000000E+00 
    3.0000000000124871E-01     1.0000000000000000E+00     0.0000000000000000E+00 
    2.5000000000104061E-01     1.0000000000000000E+00     0.0000000000000000E+00 
    2.0000000000083251E-01     1.0000000000000000E+00     0.0000000000000000E+00 
    1.5000000000062441E-01     1.0000000000000000E+00     0.0000000000000000E+00 
    1.0000000000041630E-01     1.0000000000000000E+00     0.0000000000000000E+00 
[...]
CELL_DATA 1600 
SCALARS Pressure double 1 
LOOKUP_TABLE default 

    1.1443265761017818E+00 
    1.1218322450869849E+00 
    1.1217221319521775E+00 
    1.1424248648177857E+00 
    1.1406444795895303E+00 
    1.1215172556306148E+00 
    1.1212275235484235E+00 
    1.1389399241952751E+00 
    1.1373152827772977E+00 
    1.1208660994586754E+00 
    1.1204476684285494E+00 
    1.1357831722021765E+00 
    1.1343473465451797E+00 
    1.1199859094822047E+00 
    1.1194903412753399E+00 
    1.1330070425115359E+00 
    1.1317594487579747E+00 
    1.1189693669653953E+00 
    1.1184307752872527E+00 
    1.1306009989922499E+00 
    1.1295293622127383E+00 
    1.1178841860736848E+00 
    1.1173358107086067E+00 
    1.1285418624349421E+00 
    1.1276353765660958E+00 
    1.1167917416889532E+00 
    1.1162560553572216E+00 
    1.1268067239998709E+00 
    1.1260530320744733E+00 
    1.1157325169828896E+00 
    1.1152251482471658E+00 
    1.1253729365251091E+00 
    1.1247632255473408E+00 
    1.1147382021054160E+00 
    1.1142733428162732E+00 
    1.1242206518838118E+00 
    1.1237415317580455E+00 
    1.1138319917684234E+00 
    1.1134146344035092E+00 
    1.1233219145852973E+00 
    1.1229565788398486E+00 
    1.1130166328237121E+00 
    1.1126143992471762E+00 
    1.1226324697960437E+00 
    1.1223045890629879E+00 
    1.1121640438568428E+00 
    1.1117255873420933E+00 
    1.1219962113370954E+00 
    1.1217511406845087E+00 
    1.1113547051639356E+00 
    1.1110227617924036E+00 
    1.1215471613162489E+00 
    1.1213779453878037E+00 
    1.1107259469415860E+00 
    1.1104619315785516E+00 
    1.1212375573766067E+00 
    1.1211209620572020E+00 
    1.1102269109323488E+00 
    1.1100186803396588E+00 
    1.1210208985271684E+00 
    1.1209323561921052E+00 
    1.1098342618279153E+00 
    1.1096712604080050E+00 
    1.1208502095925872E+00 
    1.1207707045802551E+00 
    1.1095256223418009E+00 
    1.1093958094029237E+00 
    1.1206899758774671E+00 
    1.1206058009166735E+00 
    1.1092785503789053E+00 
    1.1091733794472298E+00 
    1.1205158244865707E+00 
    1.1204195365393712E+00 
    1.1090780425996083E+00 
    1.1089932621543175E+00 
    1.1203162715272001E+00 
    1.1202073190070163E+00 
    1.1089179441326560E+00 
    1.1088540071100035E+00 
    1.1200937858880458E+00 
    1.1064939463143169E+00 
    1.0901331131642007E+00 
    1.0900686824943675E+00 
    1.1064315313223476E+00 
    1.1063072445416111E+00 
    1.0899407947031656E+00 
    1.0897515732868077E+00 
    1.1061210499690806E+00 
    1.1058765698120694E+00 
    1.0895042039917995E+00 
    1.0892029074332170E+00 
    1.1055796827233653E+00 
    1.1052362658953070E+00 
    1.0888507569164767E+00 
    1.0884504040691949E+00 
    1.1048500807091846E+00 
    1.1044247234647220E+00 
    1.0880036168066991E+00 
    1.0875138924632590E+00 
    1.1039648006968426E+00 
    1.1034770373567910E+00 
    1.0869859255308985E+00 
    1.0864234692215322E+00 
    1.1029663774706666E+00 
    1.1024380115622567E+00 
    1.0858296301103245E+00 
    1.0852054414524017E+00 
    1.1018957809334338E+00 
    1.1013428516644987E+00 
    1.0845491881015221E+00 
    1.0838574147152844E+00 
    1.1007830724326839E+00 
    1.1002198083958623E+00 
    1.0831265224517035E+00 
    1.0823548073795095E+00 
    1.0996544263082291E+00 
    1.0990870848770007E+00 
    1.0815440130422476E+00 
    1.0806952368951301E+00 
    1.0985125350248852E+00 
    1.0979088750547263E+00 
    1.0797875530933418E+00 
    1.0788347266547385E+00 
    1.0972397748112501E+00 
    1.0965191749304781E+00 
    1.0779278898988340E+00 
    1.0771003396066818E+00 
    1.0958486488950274E+00 
    1.0952512878882263E+00 
    1.0763323290490809E+00 
    1.0756160136904802E+00 
    1.0946998214267338E+00 
    1.0941932118647009E+00 
    1.0749517865874652E+00 
    1.0743395712951866E+00 
    1.0937308471184106E+00 
    1.0933112817271573E+00 
    1.0737795065250317E+00 
    1.0732713127181093E+00 
    1.0929336571887323E+00 
    1.0925967929362936E+00 
    1.0728150271868215E+00 
    1.0724099995984051E+00 
    1.0922993042972207E+00 
    1.0920391458224670E+00 
    1.0720558525262558E+00 
    1.0717519559185387E+00 
    1.0918151965430385E+00 
    1.0916257672243290E+00 
    1.0714979427225715E+00 
    1.0712932800908157E+00 
    1.0914701950286478E+00 
    1.0913473174540120E+00 
    1.0711376757130968E+00 
    1.0710307328615107E+00 
    1.0912570559140273E+00 
    1.0911988678420388E+00 
    1.0709722722738344E+00 
    1.0709620394587032E+00 
    1.0911733065636617E+00 
    1.0713100931968864E+00 
    1.0460266525551447E+00 
    1.0459573352252172E+00 
    1.0712397215689462E+00 
    1.0711000118038345E+00 
    1.0458191623414796E+00 
    1.0456143146129748E+00 
    1.0708914271596621E+00 
    1.0706154598642434E+00 
    1.0453444404106578E+00 
    1.0450124480463316E+00 
    1.0702732906746841E+00 
    1.0698666456909043E+00 
    1.0446204059484869E+00 
    1.0441716721619034E+00 
    1.0693966636501371E+00 
    1.0688645381691733E+00 
    1.0436690484853386E+00 
    1.0431173556756290E+00 
    1.0682725038918663E+00 
    1.0676246448688711E+00 
    1.0425214188391068E+00 
    1.0418874782631098E+00 
    1.0669246000941710E+00 
    1.0661767275535430E+00 
    1.0412220210406413E+00 
    1.0405313231093740E+00 
    1.0653830741282699E+00 
    1.0645430173891819E+00 
    1.0398204645741167E+00 
    1.0390934897469575E+00 
    1.0636523321314515E+00 
    1.0627099096851960E+00 
    1.0383568534536334E+00 
    1.0376219817562913E+00 
    1.0617251279900850E+00 
    1.0607189653412379E+00 
    1.0369019608847236E+00 
    1.0362089999339752E+00 
    1.0597257896398591E+00 
    1.0587578019373418E+00 
    1.0355419010591984E+00 
    1.0348903243180980E+00 
    1.0578317931431884E+00 
    1.0569712870864720E+00 
    1.0342521811420071E+00 
    1.0336300908509939E+00 
    1.0561637848893628E+00 
    1.0553988239599166E+00 
    1.0330268284670914E+00 
    1.0324449246015497E+00 
    1.0546777163450147E+00 
    1.0540016071553722E+00 
    1.0318876241549000E+00 
    1.0313577106089122E+00 
    1.0533719605344150E+00 
    1.0527898423644775E+00 
    1.0308586626859668E+00 
    1.0303932414597599E+00 
    1.0522567208350355E+00 
    1.0517731828053010E+00 
    1.0299641659503003E+00 
    1.0295742859224342E+00 
    1.0513406427415775E+00 
    1.0509597650629114E+00 
    1.0292270151883300E+00 
    1.0289245496355914E+00 
    1.0506317619132164E+00 
    1.0503569157803407E+00 
    1.0286695489482156E+00 
    1.0284632640737348E+00 
    1.0501361298767495E+00 
    1.0499692412888368E+00 
    1.0283073559276366E+00 
    1.0282019588423288E+00 
    1.0498567611044112E+00 
    1.0497980563426941E+00 
    1.0281475979996517E+00 
    1.0281432382680376E+00 
    1.0497931965906142E+00 
    1.0152733904703111E+00 
    9.8715467222173559E-01 
    9.8717095767511076E-01 
    1.0152520181167011E+00 
    1.0152102319649494E+00 
    9.8720294421424393E-01 
    9.8724969024473752E-01 
    1.0151498496215881E+00 
    1.0150728324818623E+00 
    9.8730965498057710E-01 
    9.8738093476955191E-01 
    1.0149813925696793E+00 
    1.0148774930321447E+00 
    9.8746100273771209E-01 
    9.8754699147337233E-01 
    1.0147627592032742E+00 
    1.0146382646817469E+00 
    9.8763539127242361E-01 
    9.8772244031690493E-01 
    1.0145043036195394E+00 
    1.0143601730552989E+00 
    9.8780345779570744E-01 
    9.8787313455196857E-01 
    1.0142034834672722E+00 
    1.0140311512880134E+00 
    9.8792572987652083E-01 
    9.8795591619555867E-01 
    1.0138384612218041E+00 
    1.0136210264228527E+00 
    9.8795814019664430E-01 
    9.8792773785096299E-01 
    1.0133738354356912E+00 
    1.0130962582806233E+00 
    9.8786317056317863E-01 
    9.8776427297333524E-01 
    1.0127885662877434E+00 
    1.0124538654589135E+00 
    9.8763108378849895E-01 
    9.8746530693761270E-01 
    1.0120949275951485E+00 
    1.0117163068169277E+00 
    9.8726918667572094E-01 
    9.8704667316898687E-01 
    1.0113217643118129E+00 
    1.0109169255027688E+00 
    9.8680239878136600E-01 
    9.8654054495247756E-01 
    1.0105053616291628E+00 
    1.0100905172908687E+00 
    9.8626324532225873E-01 
    9.8597361512728132E-01 
    1.0096753325689543E+00 
    1.0092642183786631E+00 
    9.8567530643750234E-01 
    9.8537269974864539E-01 
    1.0088609791606014E+00 
    1.0084705092499884E+00 
    9.8507043237981073E-01 
    9.8477330364394688E-01 
    1.0080969684966581E+00 
    1.0077440788876615E+00 
    9.8448465011029940E-01 
    9.8421014779756233E-01 
    1.0074166117669707E+00 
    1.0071194821196385E+00 
    9.8395535230771536E-01 
    9.8372491163041065E-01 
    1.0068566626081004E+00 
    1.0066317774073312E+00 
    9.8352310156939249E-01 
    9.8335283003431673E-01 
    1.0064475018441172E+00 
    1.0063057974197840E+00 
    9.8321654800898828E-01 
    9.8311505327635984E-01 
    1.0062077014985409E+00 
    1.0061533450909763E+00 
    9.8304867862554779E-01 
    9.8301602266704124E-01 
    1.0061419844053414E+00 
    9.5852276939806635E-01 
    9.2669013105009379E-01 
    9.2668398021826548E-01 
    9.5853978549286356E-01 
    9.5857453888435162E-01 
    9.2667117381655928E-01 
    9.2665190745900627E-01 
    9.5862655733316493E-01 
    9.5869508934085168E-01 
    9.2662633848033771E-01 
    9.2659509480417579E-01 
    9.5877832458398982E-01 
    9.5887431251406186E-01 
    9.2655847650457179E-01 
    9.2651709708604491E-01 
    9.5898021708213788E-01 
    9.5909322747677372E-01 
    9.2647087532753081E-01 
    9.2642070885340555E-01 
    9.5920988934039664E-01 
    9.5932471747543735E-01 
    9.2636752566056579E-01 
    9.2631342446084630E-01 
    9.5943228214917187E-01 
    9.5952753853465023E-01 
    9.2625925478672644E-01 
    9.2620658224779440E-01 
    9.5960530775895680E-01 
    9.5966098077718098E-01 
    9.2615543689701951E-01 
    9.2610683095331769E-01 
    9.5969015691342574E-01 
    9.5969629455957162E-01 
    9.2606012536399351E-01 
    9.2601619651559941E-01 
    9.5967433249994261E-01 
    9.5962400058557107E-01 
    9.2597422597066859E-01 
    9.2593472111846553E-01 
    9.5954592112786175E-01 
    9.5944214640674386E-01 
    9.2589622801256266E-01 
    9.2585873425933041E-01 
    9.5931583509809037E-01 
    9.5917180219328735E-01 
    9.2582036547014368E-01 
    9.2578114803821843E-01 
    9.5902055212823301E-01 
    9.5885848965675491E-01 
    9.2574082265757474E-01 
    9.2570069413812517E-01 
    9.5868624605907315E-01 
    9.5850591280232622E-01 
    9.2566050094084218E-01 
    9.2562114060415190E-01 
    9.5832023104754349E-01 
    9.5813292494132674E-01 
    9.2558203628649605E-01 
    9.2554439154358592E-01 
    9.5794794405630057E-01 
    9.5776247019396454E-01 
    9.2550785279394265E-01 
    9.2547390720895173E-01 
    9.5758098251090729E-01 
    9.5740789432740359E-01 
    9.2544264910735985E-01 
    9.2541496147336089E-01 
    9.5724689323323042E-01 
    9.5710124989272849E-01 
    9.2539054466337922E-01 
    9.2536972372294890E-01 
    9.5697327117654973E-01 
    9.5686463303212044E-01 
    9.2535180310494602E-01 
    9.2533656083151972E-01 
    9.5677591258535910E-01 
    9.5670698749312777E-01 
    9.2532283003251881E-01 
    9.2530980538243868E-01 
    9.5665660980064593E-01 
    8.9337519277311106E-01 
    8.6363583420510914E-01 
    8.6361653124844884E-01 
    8.9334477564326176E-01 
    8.9328506744841984E-01 
    8.6357858504080098E-01 
    8.6352282150521464E-01 
    8.9319784401207680E-01 
    8.9308529948534088E-01 
    8.6345053768012214E-01 
    8.6336318622201325E-01 
    8.9295024967101344E-01 
    8.9279577415084332E-01 
    8.6326286000249131E-01 
    8.6315170217057002E-01 
    8.9262552102299164E-01 
    8.9244314625670296E-01 
    8.6303268420024681E-01 
    8.6290876886853785E-01 
    8.9225275277588001E-01 
    8.9206211804776270E-01 
    8.6278395657838447E-01 
    8.6266162936557345E-01 
    8.9187648969078537E-01 
    8.9170052496151619E-01 
    8.6254627514502413E-01 
    8.6244134832571739E-01 
    8.9153938428396018E-01 
    8.9139716992877005E-01 
    8.6235151768264240E-01 
    8.6227993590658947E-01 
    8.9127840684165704E-01 
    8.9118151649225485E-01 
    8.6222874091981239E-01 
    8.6219811341924069E-01 
    8.9111085652255062E-01 
    8.9106652635100259E-01 
    8.6218971984783888E-01 
    8.6220289277742868E-01 
    8.9104879039749008E-01 
    8.9105571710169884E-01 
    8.6223797525881529E-01 
    8.6229281728455232E-01 
    8.9108542070415897E-01 
    8.9113367360206863E-01 
    8.6236618107980934E-01 
    8.6245516535403566E-01 
    8.9119333787969923E-01 
    8.9126617362302352E-01 
    8.6255778297930241E-01 
    8.6267181291330564E-01 
    8.9135181530180851E-01 
    8.9144800876787322E-01 
    8.6279588549364561E-01 
    8.6292676722057349E-01 
    8.9155275731574823E-01 
    8.9166260217139448E-01 
    8.6306224519701602E-01 
    8.6319976519330954E-01 
    8.9177603072268952E-01 
    8.9189386960992090E-01 
    8.6333799655461341E-01 
    8.6347280515753289E-01 
    8.9201263127848951E-01 
    8.9212845380514161E-01 
    8.6360136573204882E-01 
    8.6372017324897798E-01 
    8.9223850741525290E-01 
    8.9233993661417055E-01 
    8.6382712935078620E-01 
    8.6391984065920768E-01 
    8.9243092390979706E-01 
    8.9250987862556630E-01 
    8.6399731545577363E-01 
    8.6405852258903626E-01 
    8.9257622197642761E-01 
    8.9262973282451841E-01 
    8.6410378624579665E-01 
    8.6413349444334742E-01 
    8.9267115692522669E-01 
    8.3626365975995942E-01 
    8.0964018421039008E-01 
    8.0967366530124041E-01 
    8.3627070091411659E-01 
    8.3628394601153488E-01 
    8.0973920434190305E-01 
    8.0983436471458081E-01 
    8.3630299144498366E-01 
    8.3632666736760308E-01 
    8.0995635843187641E-01 
    8.1010162865016067E-01 
    8.3635430645341580E-01 
    8.3638474062617441E-01 
    8.1026648336250873E-01 
    8.1044675254639609E-01 
    8.3641731859511470E-01 
    8.3645118130308560E-01 
    8.1063835870069878E-01 
    8.1083807040362643E-01 
    8.3648651518205364E-01 
    8.3652360563698092E-01 
    8.1104303168236935E-01 
    8.1124996612553335E-01 
    8.3656286493777210E-01 
    8.3660496399682061E-01 
    8.1145615133724214E-01 
    8.1165908888533866E-01 
    8.3665079921602803E-01 
    8.3670161424916067E-01 
    8.1185698377569548E-01 
    8.1204830104112868E-01 
    8.3675866353532535E-01 
    8.3682212493670483E-01 
    8.1223168053544959E-01 
    8.1240598244376017E-01 
    8.3689195931462623E-01 
    8.3696825911955353E-01 
    8.1257012502914316E-01 
    8.1272312969765215E-01 
    8.3705065060181727E-01 
    8.3713893170992115E-01 
    8.1286467341310664E-01 
    8.1299442079173623E-01 
    8.3723223286357573E-01 
    8.3732978346820008E-01 
    8.1311254447508430E-01 
    8.1321853830413382E-01 
    8.3743016433127637E-01 
    8.3753201718666148E-01 
    8.1331220249211444E-01 
    8.1339407791311114E-01 
    8.3763460681844093E-01 
    8.3773731429485887E-01 
    8.1346486460258360E-01 
    8.1352497540888391E-01 
    8.3783874474734776E-01 
    8.3793770178939353E-01 
    8.1357485870839596E-01 
    8.1361548801913020E-01 
    8.3803331026061767E-01 
    8.3812504097990992E-01 
    8.1364781667984809E-01 
    8.1367260109310713E-01 
    8.3821108712348724E-01 
    8.3829012696126981E-01 
    8.1369057333412975E-01 
    8.1370234140533493E-01 
    8.3836058437639072E-01 
    8.3842150007233951E-01 
    8.1370847500798038E-01 
    8.1370953542594648E-01 
    8.3847181981958685E-01 
    8.3851120135203761E-01 
    8.1370604079144593E-01 
    8.1369858766593817E-01 
    8.3853931200458121E-01 
    8.3855657012386853E-01 
    8.1368773350834156E-01 
    8.1367415534878917E-01 
    8.3856344645593994E-01 
    7.8300119907250931E-01 
    7.5453096535184394E-01 
    7.5456891778487611E-01 
    7.8305185884301209E-01 
    7.8315102950204418E-01 
    7.5464391707334588E-01 
    7.5475331339568885E-01 
    7.8329516593202553E-01 
    7.8348014166615076E-01 
    7.5489407170116507E-01 
    7.5506183131532723E-01 
    7.8370059607228204E-01 
    7.8395101712339221E-01 
    7.5525196280042517E-01 
    7.5545904165736011E-01 
    7.8422478146710917E-01 
    7.8451567359731367E-01 
    7.5567742951918759E-01 
    7.5590544904965640E-01 
    7.8481796210701138E-01 
    7.8512695330975557E-01 
    7.5613686878466746E-01 
    7.5636644827958965E-01 
    7.8543632253019446E-01 
    7.8574138264059645E-01 
    7.5658890442589799E-01 
    7.5680010523628072E-01 
    7.8603654801796674E-01 
    7.8631840901272487E-01 
    7.5699585979062656E-01 
    7.5717367019666360E-01 
    7.8658257958189670E-01 
    7.8682748175588957E-01 
    7.5733463469185647E-01 
    7.5747382211719672E-01 
    7.8705045221352177E-01 
    7.8725040328325824E-01 
    7.5758860428493024E-01 
    7.5767866387136196E-01 
    7.8742508889704754E-01 
    7.8757515529377109E-01 
    7.5774342710360987E-01 
    7.5778472018274179E-01 
    7.8769986382730917E-01 
    7.8780128227411839E-01 
    7.5780401570667766E-01 
    7.5780799987749914E-01 
    7.8787879877276046E-01 
    7.8793421384989359E-01 
    7.5779264245311695E-01 
    7.5775970480753496E-01 
    7.8796810254486571E-01 
    7.8798326104740124E-01 
    7.5771012088645595E-01 
    7.5764660334685929E-01 
    7.8798056037599784E-01 
    7.8796280702941157E-01 
    7.5757077373383830E-01 
    7.5748604883152348E-01 
    7.8793143171411839E-01 
    7.8788949383883533E-01 
    7.5739136114558281E-01 
    7.5729091162719298E-01 
    7.8783895772093471E-01 
    7.8778330077412706E-01 
    7.5718739871975171E-01 
    7.5708426786602023E-01 
    7.8772405498345666E-01 
    7.8766403505922755E-01 
    7.5698349138894194E-01 
    7.5688760722702686E-01 
    7.8760425767031172E-01 
    7.8754685174203665E-01 
    7.5679771591303235E-01 
    7.5671534979687649E-01 
    7.8749229534660825E-01 
    7.8744207841747771E-01 
    7.5664063948744531E-01 
    7.5657405670260180E-01 
    7.8739617797400807E-01 
    7.2070623496608444E-01 
    6.8491982979205945E-01 
    6.8487094663314052E-01 
    7.2069788576906313E-01 
    7.2068111089526932E-01 
    6.8477550469844073E-01 
    6.8463741097014963E-01 
    7.2065627092642615E-01 
    7.2062386359957509E-01 
    6.8446091295448375E-01 
    6.8425155963585305E-01 
    7.2058473160973535E-01 
    7.2053941084691064E-01 
    6.8401495070317375E-01 
    6.8375761777815336E-01 
    7.2048859081524219E-01 
    7.2043240966809918E-01 
    6.8348582728366825E-01 
    6.8320202634445637E-01 
    7.2037195529288978E-01 
    7.2030810313329474E-01 
    6.8291531868041966E-01 
    6.8263179219226777E-01 
    7.2024253499053059E-01 
    7.2017543431665765E-01 
    6.8235660287795685E-01 
    6.8209459298703234E-01 
    7.2010816755675344E-01 
    7.2004027391021852E-01 
    6.8184943705145551E-01 
    6.8162415009143307E-01 
    7.1997276596389492E-01 
    7.1990456897181343E-01 
    6.8141561442669574E-01 
    6.8123031280662960E-01 
    7.1983739179581330E-01 
    7.1977088446972903E-01 
    6.8107044578871812E-01 
    6.8093726387574838E-01 
    7.1970664020549802E-01 
    7.1964411042407561E-01 
    6.8083068316308926E-01 
    6.8074966346974486E-01 
    7.1958495495646968E-01 
    7.1952876266512467E-01 
    6.8069192697213021E-01 
    6.8065059685163254E-01 
    7.1947721249737628E-01 
    7.1942895095910786E-01 
    6.8062962865612520E-01 
    6.8062833836718395E-01 
    7.1938472624406791E-01 
    7.1934343273590806E-01 
    6.8064541332442619E-01 
    6.8067917479883000E-01 
    7.1930621321497301E-01 
    7.1927239344916249E-01 
    6.8072767914810861E-01 
    6.8078425769079154E-01 
    7.1924332226253074E-01 
    7.1921784913708553E-01 
    6.8085169332874163E-01 
    6.8092715351168509E-01 
    7.1919632570987846E-01 
    7.1917738126058461E-01 
    6.8100801149256585E-01 
    6.8109187819403760E-01 
    7.1916164837023644E-01 
    7.1914821179831401E-01 
    6.8117666837890523E-01 
    6.8126059422794005E-01 