# vtk DataFile Version 2.0
Pressure Field Data 
ASCII 
DATASET UNSTRUCTURED_GRID 

POINTS 1681 double 

    0.0000000000000000E+00     0.0000000000000000E+00     0.0000000000000000E+00 
    1.0000000000000000E+00     0.0000000000000000E+00     0.0000000000000000E+00 
    1.0000000000000000E+00     1.0000000000000000E+00     0.0000000000000000E+00 
    0.0000000000000000E+00     1.0000000000000000E+00     0.0000000000000000E+00 
    5.2499999999875258E-01     0.0000000000000000E+00     0.0000000000000000E+00 
    7.4999999999856765E-02     0.0000000000000000E+00     0.0000000000000000E+00 
    1.2499999999975850E-01     0.0000000000000000E+00     0.0000000000000000E+00 
    1.7499999999962990E-01     0.0000000000000000E+00     0.0000000000000000E+00 
    2.2499999999948389E-01     0.0000000000000000E+00     0.0000000000000000E+00 
    2.7499999999933789E-01     0.0000000000000000E+00     0.0000000000000000E+00 
    3.2499999999919210E-01     0.0000000000000000E+00     0.0000000000000000E+00 
    3.7499999999904610E-01     0.0000000000000000E+00     0.0000000000000000E+00 
    4.2499999999890020E-01     0.0000000000000000E+00     0.0000000000000000E+00 
    4.7499999999875958E-01     0.0000000000000000E+00     0.0000000000000000E+00 
    2.4999999999949701E-02     0.0000000000000000E+00     0.0000000000000000E+00 
    5.7499999999887907E-01     0.0000000000000000E+00     0.0000000000000000E+00 
    6.2499999999901101E-01     0.0000000000000000E+00     0.0000000000000000E+00 
    6.7499999999914273E-01     0.0000000000000000E+00     0.0000000000000000E+00 
    7.2499999999927467E-01     0.0000000000000000E+00     0.0000000000000000E+00 
    7.7499999999940661E-01     0.0000000000000000E+00     0.0000000000000000E+00 
    8.2499999999953844E-01     0.0000000000000000E+00     0.0000000000000000E+00 
    8.7499999999967026E-01     0.0000000000000000E+00     0.0000000000000000E+00 
    9.2499999999980220E-01     0.0000000000000000E+00     0.0000000000000000E+00 
    9.7499999999993414E-01     0.0000000000000000E+00     0.0000000000000000E+00 
    5.4999999999881310E-01     0.0000000000000000E+00     0.0000000000000000E+00 
    9.9999999999814140E-02     0.0000000000000000E+00     0.0000000000000000E+00 
    1.4999999999970290E-01     0.0000000000000000E+00     0.0000000000000000E+00 
    1.9999999999955689E-01     0.0000000000000000E+00     0.0000000000000000E+00 
    2.4999999999941089E-01     0.0000000000000000E+00     0.0000000000000000E+00 
    2.9999999999926502E-01     0.0000000000000000E+00     0.0000000000000000E+00 
    3.4999999999911913E-01     0.0000000000000000E+00     0.0000000000000000E+00 
    3.9999999999897312E-01     0.0000000000000000E+00     0.0000000000000000E+00 
    4.4999999999882723E-01     0.0000000000000000E+00     0.0000000000000000E+00 
    4.9999999999869210E-01     0.0000000000000000E+00     0.0000000000000000E+00 
    4.9999999999899403E-02     0.0000000000000000E+00     0.0000000000000000E+00 
    5.9999999999894504E-01     0.0000000000000000E+00     0.0000000000000000E+00 
    6.4999999999907687E-01     0.0000000000000000E+00     0.0000000000000000E+00 
    6.9999999999920870E-01     0.0000000000000000E+00     0.0000000000000000E+00 
    7.4999999999934064E-01     0.0000000000000000E+00     0.0000000000000000E+00 
    7.9999999999947247E-01     0.0000000000000000E+00     0.0000000000000000E+00 
    8.4999999999960441E-01     0.0000000000000000E+00     0.0000000000000000E+00 
    8.9999999999973623E-01     0.0000000000000000E+00     0.0000000000000000E+00 
    9.4999999999986817E-01     0.0000000000000000E+00     0.0000000000000000E+00 
    1.0000000000000000E+00     5.2499999999875258E-01     0.0000000000000000E+00 
    1.0000000000000000E+00     7.4999999999856765E-02     0.0000000000000000E+00 
    1.0000000000000000E+00     1.2499999999975850E-01     0.0000000000000000E+00 
    1.0000000000000000E+00     1.7499999999962990E-01     0.0000000000000000E+00 
    1.0000000000000000E+00     2.2499999999948389E-01     0.0000000000000000E+00 
    1.0000000000000000E+00     2.7499999999933789E-01     0.0000000000000000E+00 
    1.0000000000000000E+00     3.2499999999919210E-01     0.0000000000000000E+00 
    1.0000000000000000E+00     3.7499999999904610E-01     0.0000000000000000E+00 
    1.0000000000000000E+00     4.2499999999890020E-01     0.0000000000000000E+00 
    1.0000000000000000E+00     4.7499999999875958E-01     0.0000000000000000E+00 
    1.0000000000000000E+00     2.4999999999949701E-02     0.0000000000000000E+00 
    1.0000000000000000E+00     5.7499999999887907E-01     0.0000000000000000E+00 
    1.0000000000000000E+00     6.2499999999901101E-01     0.0000000000000000E+00 
    1.0000000000000000E+00     6.7499999999914273E-01     0.0000000000000000E+00 
    1.0000000000000000E+00     7.2499999999927467E-01     0.0000000000000000E+00 
    1.0000000000000000E+00     7.7499999999940661E-01     0.0000000000000000E+00 
    1.0000000000000000E+00     8.2499999999953844E-01     0.0000000000000000E+00 
    1.0000000000000000E+00     8.7499999999967026E-01     0.0000000000000000E+00 
    1.0000000000000000E+00     9.2499999999980220E-01     0.0000000000000000E+00 
    1.0000000000000000E+00     9.7499999999993414E-01     0.0000000000000000E+00 
    1.0000000000000000E+00     5.4999999999881310E-01     0.0000000000000000E+00 
    1.0000000000000000E+00     9.9999999999814140E-02     0.0000000000000000E+00 
    1.0000000000000000E+00     1.4999999999970290E-01     0.0000000000000000E+00 
    1.0000000000000000E+00     1.9999999999955689E-01     0.0000000000000000E+00 
    1.0000000000000000E+00     2.4999999999941089E-01     0.0000000000000000E+00 
    1.0000000000000000E+00     2.9999999999926502E-01     0.0000000000000000E+00 
    1.0000000000000000E+00     3.4999999999911913E-01     0.0000000000000000E+00 
    1.0000000000000000E+00     3.9999999999897312E-01     0.0000000000000000E+00 
    1.0000000000000000E+00     4.4999999999882723E-01     0.0000000000000000E+00 
    1.0000000000000000E+00     4.9999999999869210E-01     0.0000000000000000E+00 
    1.0000000000000000E+00     4.9999999999899403E-02     0.0000000000000000E+00 
    1.0000000000000000E+00     5.9999999999894504E-01     0.0000000000000000E+00 
    1.0000000000000000E+00     6.4999999999907687E-01     0.0000000000000000E+00 
    1.0000000000000000E+00     6.9999999999920870E-01     0.0000000000000000E+00 
    1.0000000000000000E+00     7.4999999999934064E-01     0.0000000000000000E+00 
    1.0000000000000000E+00     7.9999999999947247E-01     0.0000000000000000E+00 
    1.0000000000000000E+00     8.4999999999960441E-01     0.0000000000000000E+00 
    1.0000000000000000E+00     8.9999999999973623E-01     0.0000000000000000E+00 
    1.0000000000000000E+00     9.4999999999986817E-01     0.0000000000000000E+00 
    4.7500000000196618E-01     1.0000000000000000E+00     0.0000000000000000E+00 
    9.2499999999968763E-01     1.0000000000000000E+00     0.0000000000000000E+00 
    8.7499999999961831E-01     1.0000000000000000E+00     0.0000000000000000E+00 
    8.2499999999982654E-01     1.0000000000000000E+00     0.0000000000000000E+00 
    7.7500000000017355E-01     1.0000000000000000E+00     0.0000000000000000E+00 
    7.2500000000052045E-01     1.0000000000000000E+00     0.0000000000000000E+00 
    6.7500000000086724E-01     1.0000000000000000E+00     0.0000000000000000E+00 
    6.2500000000121403E-01     1.0000000000000000E+00     0.0000000000000000E+00 
    5.7500000000156093E-01     1.0000000000000000E+00     0.0000000000000000E+00 
    5.2500000000189684E-01     1.0000000000000000E+00     0.0000000000000000E+00 
    9.7499999999989595E-01     1.0000000000000000E+00     0.0000000000000000E+00 
    4.2500000000176902E-01     1.0000000000000000E+00     0.0000000000000000E+00 
    3.7500000000156092E-01     1.0000000000000000E+00     0.0000000000000000E+00 
    3.2500000000135282E-01     1.0000000000000000E+00     0.0000000000000000E+00 
    2.7500000000114472E-01     1.0000000000000000E+00     0.0000000000000000E+00 
    2.2500000000093659E-01     1.0000000000000000E+00     0.0000000000000000E+00 
    1.7500000000072849E-01     1.0000000000000000E+00     0.0000000000000000E+00 
    1.2500000000052039E-01     1.0000000000000000E+00     0.0000000000000000E+00 
    7.5000000000312261E-02     1.0000000000000000E+00     0.0000000000000000E+00 
    2.5000000000104109E-02     1.0000000000000000E+00     0.0000000000000000E+00 
    4.5000000000187301E-01     1.0000000000000000E+00     0.0000000000000000E+00 
    8.9999999999958358E-01     1.0000000000000000E+00     0.0000000000000000E+00 
    8.4999999999965303E-01     1.0000000000000000E+00     0.0000000000000000E+00 
    8.0000000000000004E-01     1.0000000000000000E+00     0.0000000000000000E+00 
    7.5000000000034706E-01     1.0000000000000000E+00     0.0000000000000000E+00 
    7.0000000000069384E-01     1.0000000000000000E+00     0.0000000000000000E+00 
    6.5000000000104063E-01     1.0000000000000000E+00     0.0000000000000000E+00 
    6.0000000000138742E-01     1.0000000000000000E+00     0.0000000000000000E+00 
    5.5000000000173432E-01     1.0000000000000000E+00     0.0000000000000000E+00 
    5.0000000000205946E-01     1.0000000000000000E+00     0.0000000000000000E+00 
    9.4999999999979179E-01     1.0000000000000000E+00     0.0000000000000000E+00 
    4.0000000000166491E-01     1.0000000000000000E+00     0.0000000000000000E+00 
    3.5000000000145681E-01     1.0000000000000000E+00     0.0000000000000000E+00 
    3.0000000000124871E-01     1.0000000000000000E+00     0.0000000000000000E+00 
    2.5000000000104061E-01     1.0000000000000000E+00     0.0000000000000000E+00 
    2.0000000000083251E-01     1.0000000000000000E+00     0.0000000000000000E+00 
    1.5000000000062441E-01     1.0000000000000000E+00     0.0000000000000000E+00 
    1.0000000000041630E-01     1.0000000000000000E+00     0.0000000000000000E+00 
[...]
CELL_DATA 1600 
SCALARS Pressure double 1 
LOOKUP_TABLE default 

    1.0289768455164026E+00 
    1.0102675097620133E+00 
    1.0101831370363981E+00 
    1.0271269754961256E+00 
    1.0254496539819271E+00 
    1.0100313992741183E+00 
    1.0098253326844129E+00 
    1.0239197080123281E+00 
    1.0225185377294379E+00 
    1.0095760506396823E+00 
    1.0092927562313323E+00 
    1.0212346339024359E+00 
    1.0200585915573210E+00 
    1.0089844134852397E+00 
    1.0086579113767635E+00 
    1.0189816073701357E+00 
    1.0179959971536894E+00 
    1.0083197871459215E+00 
    1.0079754413816060E+00 
    1.0170953647662269E+00 
    1.0162745122892305E+00 
    1.0076306202508616E+00 
    1.0072895812144902E+00 
    1.0155287598921408E+00 
    1.0148536540824928E+00 
    1.0069563818125844E+00 
    1.0066338038831566E+00 
    1.0142450785734802E+00 
    1.0136991731125069E+00 
    1.0063242982243108E+00 
    1.0060299553118515E+00 
    1.0132129241173375E+00 
    1.0127822356484220E+00 
    1.0057527087460918E+00 
    1.0054931395138675E+00 
    1.0124031108699931E+00 
    1.0120713239568566E+00 
    1.0052515315912627E+00 
    1.0050277001205135E+00 
    1.0117826315891898E+00 
    1.0115324226256108E+00 
    1.0048207413753056E+00 
    1.0046295590127818E+00 
    1.0113163281840398E+00 
    1.0111301965717394E+00 
    1.0044528772229329E+00 
    1.0042910000170941E+00 
    1.0109721041697965E+00 
    1.0108405137625223E+00 
    1.0041437432000841E+00 
    1.0040117449258941E+00 
    1.0107342222852880E+00 
    1.0106457827127044E+00 
    1.0038905056777683E+00 
    1.0037750694002916E+00 
    1.0105721205459033E+00 
    1.0105205867590623E+00 
    1.0036721006725062E+00 
    1.0035850157633157E+00 
    1.0104859403297981E+00 
    1.0104623681017948E+00 
    1.0035107528918212E+00 
    1.0034480184492229E+00 
    1.0104443894506163E+00 
    1.0104276927801505E+00 
    1.0033934100912563E+00 
    1.0033449938235666E+00 
    1.0104082043289428E+00 
    1.0103832116682832E+00 
    1.0032999517878549E+00 
    1.0032574561822378E+00 
    1.0103501523917413E+00 
    1.0103079515910502E+00 
    1.0032156837313282E+00 
    1.0031749336897910E+00 
    1.0102556093161577E+00 
    1.0101936680617074E+00 
    1.0031344319301867E+00 
    1.0030955533667543E+00 
    1.0101226869147575E+00 
    9.9896280103099366E-01 
    9.8778357026248220E-01 
    9.8775549957321718E-01 
    9.9893157388356391E-01 
    9.9886991289472282E-01 
    9.8769986528792708E-01 
    9.8761748650590619E-01 
    9.9877848844473693E-01 
    9.9865846998145302E-01 
    9.8750892713909300E-01 
    9.8737538021515980E-01 
    9.9851135116417333E-01 
    9.9833971326480608E-01 
    9.8721830879222527E-01 
    9.8703964314847914E-01 
    9.9814609414678090E-01 
    9.9793343055603845E-01 
    9.8684120077339776E-01 
    9.8662467179703839E-01 
    9.9770439185411397E-01 
    9.9746220095174409E-01 
    9.8639174327652024E-01 
    9.8614424991390548E-01 
    9.9720967314082776E-01 
    9.9694976818703407E-01 
    9.8588415345820146E-01 
    9.8561331483196069E-01 
    9.9668491950454075E-01 
    9.9641730990465349E-01 
    9.8533350080690607E-01 
    9.8504656817670888E-01 
    9.9614923164622637E-01 
    9.9588276339678961E-01 
    9.8475435836792924E-01 
    9.8445814292015477E-01 
    9.9561926604275530E-01 
    9.9535988726698710E-01 
    9.8415939571644373E-01 
    9.8385949203370593E-01 
    9.9510567072027245E-01 
    9.9485702921769348E-01 
    9.8355972811961567E-01 
    9.8326097576212912E-01 
    9.9461421735139099E-01 
    9.9437752688024394E-01 
    9.8296452736793061E-01 
    9.8267174767414645E-01 
    9.9414818619305811E-01 
    9.9392714874492782E-01 
    9.8238412909024853E-01 
    9.8210317595119412E-01 
    9.9371595833928572E-01 
    9.9351359565104902E-01 
    9.8183032776180224E-01 
    9.8156619125899769E-01 
    9.9331676240243294E-01 
    9.9312983641204100E-01 
    9.8131236968125868E-01 
    9.8107413647860797E-01 
    9.9296282868225316E-01 
    9.9281425622719732E-01 
    9.8085506661061195E-01 
    9.8065293893549377E-01 
    9.9267827181612700E-01 
    9.9255641769147263E-01 
    9.8047123808542580E-01 
    9.8031328963915432E-01 
    9.9245117115894876E-01 
    9.9236162661788385E-01 
    9.8017959874195892E-01 
    9.8007113909541721E-01 
    9.9228749655763515E-01 
    9.9222827751400478E-01 
    9.7998851420506017E-01 
    9.7993230800064790E-01 
    9.9218420623750814E-01 
    9.9215528696541400E-01 
    9.7990314101836340E-01 
    9.7990157674862477E-01 
    9.9214228257119730E-01 
    9.7560492565542878E-01 
    9.6226975758119526E-01 
    9.6225626120019925E-01 
    9.7558167061545153E-01 
    9.7553561339546979E-01 
    9.6222915497184136E-01 
    9.6218858630731252E-01 
    9.7546701535878055E-01 
    9.7537636274992512E-01 
    9.6213432123653908E-01 
    9.6206649417602463E-01 
    9.7526416607923727E-01 
    9.7513133164168475E-01 
    9.6198488185414410E-01 
    9.6188981807156659E-01 
    9.7497888969200697E-01 
    9.7480824660035525E-01 
    9.6178138099239574E-01 
    9.6165927146042818E-01 
    9.7462009136652239E-01 
    9.7441511377765599E-01 
    9.6152272483794343E-01 
    9.6137123211316389E-01 
    9.7419391911529141E-01 
    9.7395759032194851E-01 
    9.6120431088459757E-01 
    9.6102202476829357E-01 
    9.7370717988612165E-01 
    9.7344409087659989E-01 
    9.6082460846970086E-01 
    9.6061243205174773E-01 
    9.7316956503155316E-01 
    9.7288508705198617E-01 
    9.6038613520285143E-01 
    9.6014644307928199E-01 
    9.7259169810488755E-01 
    9.7229082989135851E-01 
    9.5989440489792888E-01 
    9.5963150749936188E-01 
    9.7198404237189606E-01 
    9.7167302748951412E-01 
    9.5935951506396600E-01 
    9.5908029345281454E-01 
    9.7135931035882772E-01 
    9.7104478842488562E-01 
    9.5879629584876847E-01 
    9.5850931157018493E-01 
    9.7073111544233592E-01 
    9.7041976902776128E-01 
    9.5822106915479333E-01 
    9.5793324037814498E-01 
    9.7011239891377077E-01 
    9.6981073261930217E-01 
    9.5764791449265818E-01 
    9.5736719953442695E-01 
    9.6951718952087396E-01 
    9.6923419616295003E-01 
    9.5709380180035342E-01 
    9.5683010214947062E-01 
    9.6896305807303795E-01 
    9.6870550957352175E-01 
    9.5657751349702591E-01 
    9.5633689067954331E-01 
    9.6846379520372960E-01 
    9.6824196574073074E-01 
    9.5610991539507661E-01 
    9.5589780112306866E-01 
    9.6804614928531041E-01 
    9.6788017786265257E-01 
    9.5571105531585410E-01 
    9.5556151222697905E-01 
    9.6774637467753755E-01 
    9.6764491739373326E-01 
    9.5544937095625970E-01 
    9.5537340774883484E-01 
    9.6757715632762364E-01 
    9.6754356128371688E-01 
    9.5533472893111115E-01 
    9.5533322697313972E-01 
    9.6754502347335569E-01 
    9.4773607727183495E-01 
    9.3198265835467642E-01 
    9.3199543624983860E-01 
    9.4773622053141549E-01 
    9.4773619455590463E-01 
    9.3202064608649304E-01 
    9.3205761870221504E-01 
    9.4773562566744296E-01 
    9.4773381450407479E-01 
    9.3210538589847913E-01 
    9.3216261761824326E-01 
    9.4773001742282303E-01 
    9.4772320794504805E-01 
    9.3222759675514622E-01 
    9.3229788854612139E-01 
    9.4771223881522293E-01 
    9.4769561812809699E-01 
    9.3237041565911583E-01 
    9.3244231911334641E-01 
    9.4767145172831779E-01 
    9.4763802378713935E-01 
    9.3251093121519002E-01 
    9.3257312588979380E-01 
    9.4759316778461788E-01 
    9.4753509404183878E-01 
    9.3262556858488610E-01 
    9.3266496643143137E-01 
    9.4746192505074789E-01 
    9.4737247032656235E-01 
    9.3268769737806367E-01 
    9.3269100244103076E-01 
    9.4726518982976371E-01 
    9.4714016374494725E-01 
    9.3267384337133963E-01 
    9.3263585707820329E-01 
    9.4699709355255435E-01 
    9.4683685187788735E-01 
    9.3257681909642209E-01 
    9.3249752417375809E-01 
    9.4666017814557246E-01 
    9.4646901943863615E-01 
    9.3239912843846739E-01 
    9.3228381345141242E-01 
    9.4626507029984541E-01 
    9.4605128428517204E-01 
    9.3215409364030455E-01 
    9.3201204503368296E-01 
    9.4582927877292300E-01 
    9.4560090626854576E-01 
    9.3185881541106708E-01 
    9.3169608113458813E-01 
    9.4536773433549659E-01 
    9.4513220539304155E-01 
    9.3152578067549374E-01 
    9.3135036007296013E-01 
    9.4489640460400892E-01 
    9.4466308125366905E-01 
    9.3117237753000015E-01 
    9.3099437013925679E-01 
    9.4443462058178085E-01 
    9.4421357877978429E-01 
    9.3081808554117929E-01 
    9.3064680870110039E-01 
    9.4400264942828094E-01 
    9.4380248766600194E-01 
    9.3048299203301743E-01 
    9.3032669116167210E-01 
    9.4361147411461477E-01 
    9.4342898122439844E-01 
    9.3016865485953926E-01 
    9.3002744333316001E-01 
    9.4327716234712089E-01 
    9.4316519856805014E-01 
    9.2992114457244268E-01 
    9.2984131543572435E-01 
    9.4308701277349305E-01 
    9.4304312357382469E-01 
    9.2978803237094232E-01 
    9.2976033888218479E-01 
    9.4303329504616573E-01 
    9.1453977662939789E-01 
    8.9403159391570131E-01 
    8.9402861044563597E-01 
    9.1455105331558850E-01 
    9.1457417277924125E-01 
    8.9402262395269849E-01 
    8.9401415129556916E-01 
    9.1460917845203638E-01 
    9.1465592383052063E-01 
    8.9400381746851210E-01 
    8.9399252926048123E-01 
    9.1471371324265094E-01 
    9.1478157045797992E-01 
    8.9398089984910512E-01 
    8.9396897400219677E-01 
    9.1485757539805301E-01 
    9.1493915144825999E-01 
    8.9395595803308081E-01 
    8.9394233814188595E-01 
    9.1502397261792201E-01 
    9.1510927926029983E-01 
    8.9392972208711841E-01 
    8.9392038481248848E-01 
    9.1519240784512257E-01 
    9.1527059792887966E-01 
    8.9391513954564183E-01 
    8.9391343251405608E-01 
    9.1534038345872415E-01 
    9.1539756456937327E-01 
    8.9391274361890294E-01 
    8.9391212716385371E-01 
    9.1543911088881902E-01 
    9.1546734770532479E-01 
    8.9391106635330797E-01 
    8.9391011912119445E-01 
    9.1547908042412718E-01 
    9.1547385411621940E-01 
    8.9390911646336779E-01 
    8.9390833361274791E-01 
    9.1545179598788007E-01 
    9.1541374952240495E-01 
    8.9390611379492424E-01 
    8.9390119107723065E-01 
    9.1536137510346727E-01 
    9.1529713261543733E-01 
    8.9389154755801870E-01 
    8.9387674625134328E-01 
    9.1522662542891964E-01 
    9.1514739218476893E-01 
    8.9385692781082893E-01 
    8.9383296462071349E-01 
    9.1505964878588042E-01 
    9.1496437693775790E-01 
    8.9380428930834921E-01 
    8.9377145745337794E-01 
    9.1486321715171870E-01 
    9.1475867150068146E-01 
    8.9373524940096982E-01 
    8.9369819805878803E-01 
    9.1465323470112914E-01 
    9.1454487218675118E-01 
    8.9366029957067727E-01 
    8.9362189988129259E-01 
    9.1443586728692539E-01 
    9.1432824544128577E-01 
    8.9358107181225588E-01 
    8.9353420287827112E-01 
    9.1422222998229574E-01 
    9.1411006634710645E-01 
    8.9347462376365228E-01 
    8.9341324226665120E-01 
    9.1400209501153851E-01 
    9.1391424295707802E-01 
    8.9336347610792299E-01 
    8.9332283170132443E-01 
    9.1384149809622450E-01 
    9.1378321050078037E-01 
    8.9328962194449746E-01 
    8.9326298326802644E-01 
    9.1373822932400983E-01 
    8.7156737668022266E-01 
    8.5034584490076526E-01 
    8.5033029513687530E-01 
    8.7154933698234660E-01 
    8.7151402914859377E-01 
    8.5029965031521637E-01 
    8.5025454059995897E-01 
    8.7146272832294691E-01 
    8.7139714746057917E-01 
    8.5019608684429648E-01 
    8.5012549469102450E-01 
    8.7131941369687005E-01 
    8.7123181335914335E-01 
    8.5004455314503780E-01 
    8.4995491127908129E-01 
    8.7113603134394524E-01 
    8.7103373025293351E-01 
    8.4985847902565936E-01 
    8.4975658255742670E-01 
    8.7092760544828440E-01 
    8.7082290694613185E-01 
    8.4965093147568871E-01 
    8.4954344950427130E-01 
    8.7072392172114765E-01 
    8.7063425375445946E-01 
    8.4943780385817491E-01 
    8.4933769836322304E-01 
    8.7055650022152009E-01 
    8.7049274642610608E-01 
    8.4924834829598861E-01 
    8.4917226413775682E-01 
    8.7044434915864100E-01 
    8.7040862479058023E-01 
    8.4910918371895772E-01 
    8.4905709455031819E-01 
    8.7038712318173850E-01 
    8.7037977834998903E-01 
    8.4901381591007330E-01 
    8.4896924089257475E-01 
    8.7038596165517312E-01 
    8.7040189477702234E-01 
    8.4891369628768309E-01 
    8.4884697700706668E-01 
    8.7042266394134615E-01 
    8.7044301255588630E-01 
    8.4877486090382481E-01 
    8.4869932385969427E-01 
    8.7045896398608746E-01 
    8.7047290493216189E-01 
    8.4862113071645573E-01 
    8.4854013534860662E-01 
    8.7048543810821521E-01 
    8.7049363105628919E-01 
    8.4845783590088053E-01 
    8.4837581890195846E-01 
    8.7049441688363050E-01 
    8.7048722184916094E-01 
    8.4829567500509617E-01 
    8.4821418254598158E-01 
    8.7047471163681356E-01 
    8.7045799070414398E-01 
    8.4812846181074242E-01 
    8.4803589926683198E-01 
    8.7043168178832264E-01 
    8.7038758939979577E-01 
    8.4793878160588421E-01 
    8.4784558753216910E-01 
    8.7032288055944385E-01 
    8.7024752393616389E-01 
    8.4777057702652869E-01 
    8.4772119618329678E-01 
    8.7019036132718375E-01 
    8.7015674066548221E-01 
    8.4769104039480370E-01 
    8.4767339017088938E-01 
    8.7013762093530078E-01 
    8.7013156010423454E-01 
    8.4766780528887609E-01 
    8.4767388834787905E-01 
    8.7013823091021025E-01 
    8.2947607740409446E-01 
    8.0782343455505967E-01 
    8.0783092831418357E-01 
    8.2947029751732160E-01 
    8.2945831638737244E-01 
    8.0784495776402276E-01 
    8.0786419228524120E-01 
    8.2943989455092193E-01 
    8.2941461879707901E-01 
    8.0788699141742593E-01 
    8.0791149511789029E-01 
    8.2938224461892851E-01 
    8.2934246183284910E-01 
    8.0793560355985272E-01 
    8.0795669348035881E-01 
    8.2929537934784536E-01 
    8.2924144797251065E-01 
    8.0797199337597625E-01 
    8.0797996615949819E-01 
    8.2918090996411142E-01 
    8.2911299209891365E-01 
    8.0797853452355051E-01 
    8.0796325186684259E-01 
    8.2903647033668459E-01 
    8.2895082490274175E-01 
    8.0792709785468231E-01 
    8.0786074564518207E-01 
    8.2885628778635156E-01 
    8.2875376041741122E-01 
    8.0775541550919439E-01 
    8.0760755877525736E-01 
    8.2864343311551669E-01 
    8.2852292277247086E-01 
    8.0741978824382532E-01 
    8.0719774980862435E-01 
    8.2838581499869501E-01 
    8.2822230743442937E-01 
    8.0694842790463517E-01 
    8.0669408251966990E-01 
    8.2802560595204588E-01 
    8.2781076136826370E-01 
    8.0645880554687921E-01 
    8.0624394987056236E-01 
    8.2759996097358812E-01 
    8.2739840541204202E-01 
    8.0604283824119061E-01 
    8.0585160731051941E-01 
    8.2720594909836109E-01 
    8.2702167072667077E-01 
    8.0566998036986304E-01 
    8.0549861888021934E-01 
    8.2684636666358502E-01 
    8.2668301602615180E-01 
    8.0533720287844934E-01 
    8.0518429413339621E-01 
    8.2653492073426504E-01 
    8.2640216178707893E-01 
    8.0503984402118256E-01 
    8.0490591541783074E-01 
    8.2628137586613892E-01 
    8.2617115522746709E-01 
    8.0478447018721633E-01 
    8.0467517690553914E-01 
    8.2607445291464643E-01 
    8.2599734926415902E-01 
    8.0457704179327327E-01 
    8.0448959710471935E-01 
    8.2594276299282099E-01 
    8.2590563121214855E-01 
    8.0441332376873365E-01 
    8.0434849972303479E-01 
    8.2587836383258351E-01 
    8.2585811107930984E-01 
    8.0429559737268130E-01 
    8.0425488393375333E-01 
    8.2584497069218665E-01 
    8.2583925242164347E-01 
    8.0422684802981970E-01 
    8.0421179494038741E-01 
    8.2584130369333175E-01 
    7.8445814777405443E-01 
    7.5576707760044048E-01 
    7.5577229692131076E-01 
    7.8447412132346839E-01 
    7.8450423109407608E-01 
    7.5578207539700226E-01 
    7.5579455867769674E-01 
    7.8454538250566308E-01 
    7.8459384359384232E-01 
    7.5580745829088847E-01 
    7.5581752759846144E-01 
    7.8464476975894182E-01 
    7.8469293498960380E-01 
    7.5582109484463045E-01 
    7.5581518175550533E-01 
    7.8473133343879964E-01 
    7.8475215135173804E-01 
    7.5579788493708899E-01 
    7.5577013950988059E-01 
    7.8475018982701061E-01 
    7.8472447526081290E-01 
    7.5573074010191388E-01 
    7.5568205778314901E-01 
    7.8467433424294630E-01 
    7.8460083534538827E-01 
    7.5562922582861514E-01 
    7.5558081902446272E-01 
    7.8450296727228019E-01 
    7.8438097356134429E-01 
    7.5554471448637295E-01 
    7.5552345795835962E-01 
    7.8423706809789528E-01 
    7.8407970419276130E-01 
    7.5551276489980423E-01 
    7.5549979228134001E-01 
    7.8391872784206063E-01 
    7.8376555725065067E-01 
    7.5547467035543425E-01 
    7.5543387852113530E-01 
    7.8362438950979840E-01 
    7.8348848932280668E-01 
    7.5537651867776645E-01 
    7.5530423091821997E-01 
    7.8334867039352774E-01 
    7.8320533282874094E-01 
    7.5521830002285562E-01 
    7.5512354887300404E-01 
    7.8305757650238794E-01 
    7.8290672720678312E-01 
    7.5501762777472547E-01 
    7.5490192586914939E-01 
    7.8275270557856302E-01 
    7.8259748437086230E-01 
    7.5477709494537126E-01 
    7.5464510984219435E-01 
    7.8244117088907295E-01 
    7.8228573410524194E-01 
    7.5450700990070496E-01 
    7.5436508430062277E-01 
    7.8213193551150018E-01 
    7.8198218791610730E-01 
    7.5421956581539329E-01 
    7.5407398708477791E-01 
    7.8183764217913998E-01 
    7.8170099177076724E-01 
    7.5393068187206203E-01 
    7.5379258849975850E-01 
    7.8157310088887666E-01 
    7.8145621991040748E-01 
    7.5366150965758827E-01 
    7.5353975165804232E-01 
    7.8135091874273022E-01 
    7.8125901288214472E-01 
    7.5342855120913943E-01 
    7.5332958400780370E-01 
    7.8118077692048582E-01 
    7.8111763304815529E-01 
    7.5324352592131594E-01 
    7.5317146134790791E-01 
    7.8106959334702519E-01 
    7.1993396231098794E-01 
    6.8417247937287673E-01 
    6.8413240315114798E-01 
    7.1991663180968868E-01 
    7.1988263096620142E-01 
    6.8405432091779517E-01 
    6.8394162046646056E-01 
    7.1983384203952550E-01 
    7.1977270778501645E-01 
    6.8379794426575180E-01 
    6.8362803954744222E-01 
    7.1970268241943258E-01 
    7.1962731484271170E-01 
    6.8343666317715712E-01 
    6.8322931510060847E-01 
    7.1955233066939073E-01 
    7.1948431548567171E-01 
    6.8301100706657480E-01 
    6.8278307516035841E-01 
    7.1942731207668587E-01 
    7.1938079224313078E-01 
    6.8255382788134755E-01 
    6.8232844114011137E-01 
    7.1934221928369602E-01 
    7.1930517202991773E-01 
    6.8211105239037617E-01 
    6.8190554682842941E-01 
    7.1926485391859074E-01 
    7.1921797777831842E-01 
    6.8171469063051449E-01 
    6.8154083745324578E-01 
    7.1916577887905886E-01 
    7.1910837385180593E-01 
    6.8138028398220685E-01 
    6.8123893984542772E-01 
    7.1904785652893932E-01 
    7.1898417036429907E-01 
    6.8111847091516342E-01 
    6.8101990730738549E-01 
    7.1891913280650177E-01 
    7.1885277329942121E-01 
    6.8094297503853496E-01 
    6.8088678371009448E-01 
    7.1878727591778779E-01 
    7.1872315063692216E-01 
    6.8084918919972626E-01 
    6.8082375697537389E-01 
    7.1866265990092004E-01 
    7.1860454827839604E-01 
    6.8081451819147842E-01 
    6.8082111677362589E-01 
    7.1854933383271014E-01 
    7.1849604425189983E-01 
    6.8084245525075471E-01 
    6.8087733812092854E-01 
    7.1844583699327813E-01 
    7.1839837406620122E-01 
    6.8092412088952314E-01 
    6.8097673573849515E-01 
    7.1835505182114967E-01 
    7.1831507202400291E-01 
    6.8103831930404879E-01 
    6.8110664827925849E-01 
    7.1827887351703168E-01 
    7.1824539897889339E-01 
    6.8117942594915970E-01 
    6.8125477038522675E-01 
    7.1821532549812417E-01 
    7.1818792365517126E-01 
    6.8133078733141283E-01 
    6.8140603344398809E-01 