# vtk DataFile Version 2.0
Pressure Field Data 
ASCII 
DATASET UNSTRUCTURED_GRID 

POINTS 6273 double 

    0.0000000000000000E+00     0.0000000000000000E+00     0.0000000000000000E+00 
    1.0000000000000000E+00     0.0000000000000000E+00     0.0000000000000000E+00 
    1.0000000000000000E+00     1.0000000000000000E+00     0.0000000000000000E+00 
    0.0000000000000000E+00     1.0000000000000000E+00     0.0000000000000000E+00 
    1.5624999999970249E-02     0.0000000000000000E+00     0.0000000000000000E+00 
    3.1249999999940652E-02     0.0000000000000000E+00     0.0000000000000000E+00 
    4.6874999999905617E-02     0.0000000000000000E+00     0.0000000000000000E+00 
    6.2499999999870597E-02     0.0000000000000000E+00     0.0000000000000000E+00 
    7.8124999999846401E-02     0.0000000000000000E+00     0.0000000000000000E+00 
    9.3749999999822212E-02     0.0000000000000000E+00     0.0000000000000000E+00 
    1.0937499999979799E-01     0.0000000000000000E+00     0.0000000000000000E+00 
    1.2499999999977381E-01     0.0000000000000000E+00     0.0000000000000000E+00 
    1.4062499999972811E-01     0.0000000000000000E+00     0.0000000000000000E+00 
    1.5624999999968239E-01     0.0000000000000000E+00     0.0000000000000000E+00 
    1.7187499999963671E-01     0.0000000000000000E+00     0.0000000000000000E+00 
    1.8749999999959110E-01     0.0000000000000000E+00     0.0000000000000000E+00 
    2.0312499999954539E-01     0.0000000000000000E+00     0.0000000000000000E+00 
    2.1874999999949971E-01     0.0000000000000000E+00     0.0000000000000000E+00 
    2.3437499999945391E-01     0.0000000000000000E+00     0.0000000000000000E+00 
    2.4999999999940831E-01     0.0000000000000000E+00     0.0000000000000000E+00 
    2.6562499999936218E-01     0.0000000000000000E+00     0.0000000000000000E+00 
    2.8124999999931621E-01     0.0000000000000000E+00     0.0000000000000000E+00 
    2.9687499999927008E-01     0.0000000000000000E+00     0.0000000000000000E+00 
    3.1249999999922412E-01     0.0000000000000000E+00     0.0000000000000000E+00 
    3.2812499999917810E-01     0.0000000000000000E+00     0.0000000000000000E+00 
    3.4374999999913203E-01     0.0000000000000000E+00     0.0000000000000000E+00 
    3.5937499999908601E-01     0.0000000000000000E+00     0.0000000000000000E+00 
    3.7499999999903999E-01     0.0000000000000000E+00     0.0000000000000000E+00 
    3.9062499999899403E-01     0.0000000000000000E+00     0.0000000000000000E+00 
    4.0624999999894801E-01     0.0000000000000000E+00     0.0000000000000000E+00 
    4.2187499999890188E-01     0.0000000000000000E+00     0.0000000000000000E+00 
    4.3749999999885592E-01     0.0000000000000000E+00     0.0000000000000000E+00 
    4.5312499999880979E-01     0.0000000000000000E+00     0.0000000000000000E+00 
    4.6874999999876382E-01     0.0000000000000000E+00     0.0000000000000000E+00 
    4.8437499999871780E-01     0.0000000000000000E+00     0.0000000000000000E+00 
    4.9999999999867167E-01     0.0000000000000000E+00     0.0000000000000000E+00 
    5.1562499999871325E-01     0.0000000000000000E+00     0.0000000000000000E+00 
    5.3124999999875477E-01     0.0000000000000000E+00     0.0000000000000000E+00 
    5.4687499999879630E-01     0.0000000000000000E+00     0.0000000000000000E+00 
    5.6249999999883782E-01     0.0000000000000000E+00     0.0000000000000000E+00 
    5.7812499999887934E-01     0.0000000000000000E+00     0.0000000000000000E+00 
    5.9374999999892086E-01     0.0000000000000000E+00     0.0000000000000000E+00 
    6.0937499999896239E-01     0.0000000000000000E+00     0.0000000000000000E+00 
    6.2499999999900380E-01     0.0000000000000000E+00     0.0000000000000000E+00 
    6.4062499999904521E-01     0.0000000000000000E+00     0.0000000000000000E+00 
    6.5624999999908673E-01     0.0000000000000000E+00     0.0000000000000000E+00 
    6.7187499999912825E-01     0.0000000000000000E+00     0.0000000000000000E+00 
    6.8749999999916978E-01     0.0000000000000000E+00     0.0000000000000000E+00 
    7.0312499999921130E-01     0.0000000000000000E+00     0.0000000000000000E+00 
    7.1874999999925282E-01     0.0000000000000000E+00     0.0000000000000000E+00 
    7.3437499999929434E-01     0.0000000000000000E+00     0.0000000000000000E+00 
    7.4999999999933586E-01     0.0000000000000000E+00     0.0000000000000000E+00 
    7.6562499999937739E-01     0.0000000000000000E+00     0.0000000000000000E+00 
    7.8124999999941891E-01     0.0000000000000000E+00     0.0000000000000000E+00 
    7.9687499999946043E-01     0.0000000000000000E+00     0.0000000000000000E+00 
    8.1249999999950195E-01     0.0000000000000000E+00     0.0000000000000000E+00 
    8.2812499999954348E-01     0.0000000000000000E+00     0.0000000000000000E+00 
    8.4374999999958500E-01     0.0000000000000000E+00     0.0000000000000000E+00 
    8.5937499999962652E-01     0.0000000000000000E+00     0.0000000000000000E+00 
    8.7499999999966793E-01     0.0000000000000000E+00     0.0000000000000000E+00 
    8.9062499999970934E-01     0.0000000000000000E+00     0.0000000000000000E+00 
    9.0624999999975087E-01     0.0000000000000000E+00     0.0000000000000000E+00 
    9.2187499999979239E-01     0.0000000000000000E+00     0.0000000000000000E+00 
    9.3749999999983391E-01     0.0000000000000000E+00     0.0000000000000000E+00 
    9.5312499999987543E-01     0.0000000000000000E+00     0.0000000000000000E+00 
    9.6874999999991696E-01     0.0000000000000000E+00     0.0000000000000000E+00 
    9.8437499999995848E-01     0.0000000000000000E+00     0.0000000000000000E+00 
    1.0000000000000000E+00     1.5624999999970249E-02     0.0000000000000000E+00 
    1.0000000000000000E+00     3.1249999999940652E-02     0.0000000000000000E+00 
    1.0000000000000000E+00     4.6874999999905617E-02     0.0000000000000000E+00 
    1.0000000000000000E+00     6.2499999999870597E-02     0.0000000000000000E+00 
    1.0000000000000000E+00     7.8124999999846401E-02     0.0000000000000000E+00 
    1.0000000000000000E+00     9.3749999999822212E-02     0.0000000000000000E+00 
    1.0000000000000000E+00     1.0937499999979799E-01     0.0000000000000000E+00 
    1.0000000000000000E+00     1.2499999999977381E-01     0.0000000000000000E+00 
    1.0000000000000000E+00     1.4062499999972811E-01     0.0000000000000000E+00 
    1.0000000000000000E+00     1.5624999999968239E-01     0.0000000000000000E+00 
    1.0000000000000000E+00     1.7187499999963671E-01     0.0000000000000000E+00 
    1.0000000000000000E+00     1.8749999999959110E-01     0.0000000000000000E+00 
    1.0000000000000000E+00     2.0312499999954539E-01     0.0000000000000000E+00 
    1.0000000000000000E+00     2.1874999999949971E-01     0.0000000000000000E+00 
    1.0000000000000000E+00     2.3437499999945391E-01     0.0000000000000000E+00 
    1.0000000000000000E+00     2.4999999999940831E-01     0.0000000000000000E+00 
    1.0000000000000000E+00     2.6562499999936218E-01     0.0000000000000000E+00 
    1.0000000000000000E+00     2.8124999999931621E-01     0.0000000000000000E+00 
    1.0000000000000000E+00     2.9687499999927008E-01     0.0000000000000000E+00 
    1.0000000000000000E+00     3.1249999999922412E-01     0.0000000000000000E+00 
    1.0000000000000000E+00     3.2812499999917810E-01     0.0000000000000000E+00 
    1.0000000000000000E+00     3.4374999999913203E-01     0.0000000000000000E+00 
    1.0000000000000000E+00     3.5937499999908601E-01     0.0000000000000000E+00 
    1.0000000000000000E+00     3.7499999999903999E-01     0.0000000000000000E+00 
    1.0000000000000000E+00     3.9062499999899403E-01     0.0000000000000000E+00 
    1.0000000000000000E+00     4.0624999999894801E-01     0.0000000000000000E+00 
    1.0000000000000000E+00     4.2187499999890188E-01     0.0000000000000000E+00 
    1.0000000000000000E+00     4.3749999999885592E-01     0.0000000000000000E+00 
    1.0000000000000000E+00     4.5312499999880979E-01     0.0000000000000000E+00 
    1.0000000000000000E+00     4.6874999999876382E-01     0.0000000000000000E+00 
    1.0000000000000000E+00     4.8437499999871780E-01     0.0000000000000000E+00 
    1.0000000000000000E+00     4.9999999999867167E-01     0.0000000000000000E+00 
    1.0000000000000000E+00     5.1562499999871325E-01     0.0000000000000000E+00 
    1.0000000000000000E+00     5.3124999999875477E-01     0.0000000000000000E+00 
    1.0000000000000000E+00     5.4687499999879630E-01     0.0000000000000000E+00 
    1.0000000000000000E+00     5.6249999999883782E-01     0.0000000000000000E+00 
    1.0000000000000000E+00     5.7812499999887934E-01     0.0000000000000000E+00 
    1.0000000000000000E+00     5.9374999999892086E-01     0.0000000000000000E+00 
    1.0000000000000000E+00     6.0937499999896239E-01     0.0000000000000000E+00 
    1.0000000000000000E+00     6.2499999999900380E-01     0.0000000000000000E+00 
    1.0000000000000000E+00     6.4062499999904521E-01     0.0000000000000000E+00 
    1.0000000000000000E+00     6.5624999999908673E-01     0.0000000000000000E+00 
    1.0000000000000000E+00     6.7187499999912825E-01     0.0000000000000000E+00 
    1.0000000000000000E+00     6.8749999999916978E-01     0.0000000000000000E+00 
    1.0000000000000000E+00     7.0312499999921130E-01     0.0000000000000000E+00 
    1.0000000000000000E+00     7.1874999999925282E-01     0.0000000000000000E+00 
    1.0000000000000000E+00     7.3437499999929434E-01     0.0000000000000000E+00 
    1.0000000000000000E+00     7.4999999999933586E-01     0.0000000000000000E+00 
    1.0000000000000000E+00     7.6562499999937739E-01     0.0000000000000000E+00 
    1.0000000000000000E+00     7.8124999999941891E-01     0.0000000000000000E+00 
    1.0000000000000000E+00     7.9687499999946043E-01     0.0000000000000000E+00 
    1.0000000000000000E+00     8.1249999999950195E-01     0.0000000000000000E+00 
    1.0000000000000000E+00     8.2812499999954348E-01     0.0000000000000000E+00 
[...]
CELL_DATA 6144 
SCALARS Pressure double 1 
LOOKUP_TABLE default 

    3.5842794247528835E+00 
    3.4856926899910965E+00 
    3.4697960505047787E+00 
    3.4856954408956780E+00 
    3.4245057078432501E+00 
    3.3832452138327169E+00 
    3.4052671569355129E+00 
    3.4350890885344567E+00 
    3.4245124392866537E+00 
    3.4350961660914674E+00 
    3.4052839681271481E+00 
    3.3832514194986900E+00 
    3.3624886192689294E+00 
    3.3812911204158902E+00 
    3.3619138833266975E+00 
    3.3487163047247814E+00 
    3.3814309287420192E+00 
    3.3626662416014348E+00 
    3.3492533154992992E+00 
    3.3623492890841384E+00 
    3.3359567498435698E+00 
    3.3492720592662732E+00 
    3.3363878302248868E+00 
    3.3206679708781488E+00 
    3.3343805788858853E+00 
    3.3306977627904386E+00 
    3.3124625528805027E+00 
    3.3090066208945932E+00 
    3.3218768255508833E+00 
    3.3082952956173091E+00 
    3.2969089304115990E+00 
    3.3076678057084363E+00 
    3.2873309941648969E+00 
    3.2971181415924464E+00 
    3.2844818462019432E+00 
    3.2686243919748992E+00 
    3.2582996169285887E+00 
    3.2738898713767326E+00 
    3.2654061884617880E+00 
    3.2533069504250651E+00 
    3.2844054672524221E+00 
    3.2905279922539679E+00 
    3.2737488020008012E+00 
    3.2722215144010534E+00 
    3.2490078196049579E+00 
    3.2611842439113059E+00 
    3.2595754896444471E+00 
    3.2442134785968659E+00 
    3.2401872755965657E+00 
    3.2393490050938096E+00 
    3.2264931626563000E+00 
    3.2236516778555164E+00 
    3.2362532969667552E+00 
    3.2304048025274117E+00 
    3.2187902381930109E+00 
    3.2248670202781091E+00 
    3.2087457282255469E+00 
    3.2163774184801435E+00 
    3.2074503174641125E+00 
    3.1949270736103763E+00 
    3.1873890575721036E+00 
    3.2000562339220009E+00 
    3.1948877481707050E+00 
    3.1848680755123735E+00 
    3.2103154299603345E+00 
    3.2186785350602038E+00 
    3.2053180939644728E+00 
    3.2015804175859941E+00 
    3.1827904521976769E+00 
    3.1929565657716936E+00 
    3.1936214435514225E+00 
    3.1806226733719658E+00 
    3.1737584219105934E+00 
    3.1739111161479783E+00 
    3.1633931704004885E+00 
    3.1604963425798709E+00 
    3.1721981144932792E+00 
    3.1680908073861116E+00 
    3.1572504714498861E+00 
    3.1622529212414130E+00 
    3.1480915243927017E+00 
    3.1546123463494209E+00 
    3.1472046047617162E+00 
    3.1364409715055968E+00 
    3.1300194472008114E+00 
    3.1413201599362872E+00 
    3.1371701547880355E+00 
    3.1280191511922451E+00 
    3.1506785912752462E+00 
    3.1589542258517374E+00 
    3.1475253762276774E+00 
    3.1434713426784238E+00 
    3.1263614758760885E+00 
    3.1356735476085320E+00 
    3.1364605238961554E+00 
    3.1247502678017676E+00 
    3.1178779446274532E+00 
    3.1179646859448069E+00 
    3.1085710021679875E+00 
    3.1061346105493017E+00 
    3.1167121289185942E+00 
    3.1140403071438856E+00 
    3.1041220075367413E+00 
    3.1078541896192107E+00 
    3.0951165116788197E+00 
    3.1010459674729614E+00 
    3.0945603964902175E+00 
    3.0846548744433409E+00 
    3.0788285970661509E+00 
    3.0892191422329516E+00 
    3.0856060869198032E+00 
    3.0771530202028008E+00 
    3.0982989348868446E+00 
    3.1063570402845038E+00 
    3.0957803810824105E+00 
    3.0916343490361342E+00 
    3.0761167784127266E+00 
    3.0847189254065093E+00 
    3.0863136640963624E+00 
    3.0755212767062972E+00 
    3.0676658418752267E+00 
    3.0677774330188736E+00 
    3.0590838548292805E+00 
    3.0567981663757546E+00 
    3.0668103219666363E+00 
    3.0643995756872524E+00 
    3.0548099673177194E+00 
    3.0585077887676233E+00 
    3.0466170986316463E+00 
    3.0522077824619909E+00 
    3.0461606770799947E+00 
    3.0369451825457889E+00 
    3.0315558412853973E+00 
    3.0413020738309182E+00 
    3.0380817471101857E+00 
    3.0300984270386317E+00 
    3.0495560896547702E+00 
    3.0573926350685934E+00 
    3.0477598115845939E+00 
    3.0437032309027137E+00 
    3.0292098355277477E+00 
    3.0372643604581175E+00 
    3.0389329704795034E+00 
    3.0288116479558700E+00 
    3.0210870712227664E+00 
    3.0212623806143695E+00 
    3.0130623205050489E+00 
    3.0108899385785208E+00 
    3.0204486868587268E+00 
    3.0183794887919237E+00 
    3.0093367515186076E+00 
    3.0125861732828252E+00 
    3.0013113569599126E+00 
    3.0065939697172741E+00 
    3.0009951283780198E+00 
    2.9921899931327984E+00 
    2.9871106948715105E+00 
    2.9964382844481956E+00 
    2.9933583378462512E+00 
    2.9857987655119391E+00 
    3.0044243915442332E+00 
    3.0118422428671012E+00 
    3.0026721039423312E+00 
    2.9987677283233753E+00 
    2.9850384347273109E+00 
    2.9926412898752677E+00 
    2.9943125297697866E+00 
    2.9847436156932896E+00 
    2.9772667903743062E+00 
    2.9775110319438567E+00 
    2.9698478397180335E+00 
    2.9677401286656608E+00 
    2.9767499192546212E+00 
    2.9747193795813915E+00 
    2.9660581333619942E+00 
    2.9692517791567012E+00 
    2.9587264682456857E+00 
    2.9637334758394771E+00 
    2.9585953000406451E+00 
    2.9502763717434504E+00 
    2.9453602734897220E+00 
    2.9542555560852350E+00 
    2.9507809922810408E+00 
    2.9435326704372136E+00 
    2.9614800518084516E+00 
    2.9685515457546363E+00 
    2.9599179232561950E+00 
    2.9561480204028405E+00 
    2.9427415266373385E+00 
    2.9500076235665653E+00 
    2.9518810001741436E+00 
    2.9427279341713644E+00 
    2.9357109843014082E+00 
    2.9358803202748507E+00 
    2.9286510268825952E+00 
    2.9266688648219286E+00 
    2.9351392649860362E+00 
    2.9332262186191311E+00 
    2.9249534337617686E+00 
    2.9280469516478211E+00 
    2.9181178479731398E+00 
    2.9227592704749763E+00 
    2.9178049954419616E+00 
    2.9100625360981449E+00 
    2.9054695422706627E+00 
    2.9137604718341938E+00 
    2.9108792941361168E+00 
    2.9040706856157157E+00 
    2.9206317574487985E+00 
    2.9274061607014294E+00 
    2.9193152341065587E+00 
    2.9157216572810105E+00 
    2.9033554680944884E+00 
    2.9102441826286061E+00 
    2.9117659700506393E+00 
    2.9030818272282159E+00 
    2.8964338261551124E+00 
    2.8965431765881302E+00 
    2.8896129660587726E+00 
    2.8878468441099532E+00 
    2.8958769544499110E+00 
    2.8940980708515918E+00 
    2.8864145165042516E+00 
    2.8891957736734102E+00 
    2.8797949108474450E+00 
    2.8841992235382623E+00 
    2.8795713847818680E+00 
    2.8721665144321324E+00 
    2.8678661104531722E+00 
    2.8756899946016214E+00 
    2.8730836842180407E+00 
    2.8666620867241064E+00 
    2.8822337116201355E+00 
    2.8885369717560114E+00 
    2.8808788035921600E+00 
    2.8776126682397978E+00 
    2.8659971078854509E+00 
    2.8725132345456150E+00 
    2.8738396872923717E+00 
    2.8656896041184940E+00 
    2.8594364596790780E+00 
    2.8595507842789218E+00 
    2.8529312307868300E+00 
    2.8512589470537568E+00 
    2.8589053388804988E+00 
    2.8571752990720336E+00 
    2.8498731906441304E+00 
    2.8525348041948617E+00 
    2.8436255091092746E+00 
    2.8478087738974560E+00 
    2.8435791332213980E+00 
    2.8364901054713227E+00 
    2.8322420757181779E+00 
    2.8398670057147570E+00 
    2.8368636728255954E+00 
    2.8306262558399795E+00 
    2.8459585499050193E+00 
    2.8519012503850774E+00 
    2.8445471938168705E+00 
    2.8413699243546189E+00 
    2.8298704912617856E+00 
    2.8361316067413824E+00 
    2.8376526065034282E+00 
    2.8297054736956895E+00 
    2.8237817517190997E+00 
    2.8237849748336434E+00 
    2.8171842195205588E+00 
    2.8155086276827652E+00 
    2.8230527349547248E+00 
    2.8211953629964861E+00 
    2.8136040391266430E+00 
    2.8166497804684472E+00 
    2.8071799874617640E+00 
    2.8116643111178670E+00 
    2.8063824648186428E+00 
    2.7986948413475581E+00 
    2.7943642645403992E+00 
    2.8020445635502043E+00 
    2.7993043407483689E+00 
    2.7931733330518145E+00 
    2.8090538908397016E+00 
    2.8155404450851420E+00 
    2.8073328476514341E+00 
    2.8039621135984358E+00 
    2.7923665764388064E+00 
    2.7985496215669099E+00 
    2.7996335866155944E+00 
    2.7917162480682194E+00 
    2.7867599073877956E+00 
    2.7868874308989495E+00 
    2.7812882826847796E+00 
    2.7798812856331665E+00 
    2.7861300046348978E+00 
    2.7843231244535178E+00 
    2.7782669508926316E+00 
    2.7807205406981659E+00 
    2.7736439536047994E+00 
    2.7768908850928256E+00 
    2.7731765211922896E+00 
    2.7679715159436582E+00 
    2.7648685725483757E+00 
    2.7702145312656117E+00 
    2.7679678591395178E+00 
    2.7636215717087951E+00 
    2.7749265775596403E+00 
    2.7795194638746565E+00 
    2.7733697881807733E+00 
    2.7712329671176406E+00 
    2.7627848629366860E+00 
    2.7672234916370781E+00 
    2.7679293690044613E+00 
    2.7621384763327881E+00 
    2.7593191919832938E+00 
    2.7592509703106720E+00 
    2.7552193316641000E+00 
    2.7542466078208037E+00 
    2.7584968834025840E+00 
    2.7568598189526683E+00 
    2.7527827650565815E+00 
    2.7547162269028540E+00 
    2.7497398599473510E+00 
    2.7520167395418254E+00 
    2.7493069400615955E+00 
    2.7457092885347096E+00 
    2.7435676161496976E+00 
    2.7470969435129904E+00 
    2.7454847714566339E+00 
    2.7426466555444029E+00 
    2.7501586516947265E+00 
    2.7530517353644153E+00 
    2.7485883559577133E+00 
    2.7474474916277818E+00 
    2.7418152772330640E+00 
    2.7447853918251033E+00 
    2.7448059936625455E+00 
    2.7408480253052021E+00 
    2.7398942470795844E+00 
    2.7396615614288344E+00 
    2.7370737114430739E+00 
    2.7366219514710024E+00 
    2.7389439031957514E+00 
    2.7375571310257438E+00 
    2.7353043290587080E+00 
    2.7366380571591185E+00 
    2.7339098914541502E+00 
    2.7351582133174892E+00 
    2.7335532529256463E+00 
    2.7316634734623868E+00 
    2.7304210098651569E+00 
    2.7321281659678491E+00 
    2.7308583241990938E+00 
    2.7295392365850053E+00 
    2.7335395248530796E+00 
    2.7348036831216183E+00 
    2.7319461376414047E+00 
    2.7317355778253729E+00 
    2.7286701810234470E+00 
    2.7301075142983868E+00 
    2.7296598470782514E+00 
    2.7275332003963415E+00 
    2.7286049547552893E+00 
    2.7282468977037180E+00 
    2.7272106693965954E+00 
    2.7272011606258073E+00 
    2.7275348618109274E+00 
    2.7263422688039869E+00 
    2.7259704268785603E+00 
    2.7267842312798054E+00 
    2.7262321919991725E+00 
    2.7264671318690143E+00 
    2.7257886670019031E+00 
    2.7256083325182541E+00 
    2.7253591751555608E+00 
    2.7251694712691159E+00 
    2.7244857952637247E+00 
    2.7247343964804061E+00 
    2.7249754938297150E+00 
    2.7246118701385686E+00 
    2.7234098593231257E+00 
    2.7241559305623979E+00 
    2.7237648162056791E+00 
    2.7237395595037444E+00 
    2.7226998228813248E+00 
    2.7223565835507597E+00 
    3.3342441289327063E+00 
    3.3088997568543230E+00 
    3.3117004931362950E+00 
    3.3300886341800404E+00 
    3.2873459315391536E+00 
    3.2687047511524194E+00 
    3.2843242403664625E+00 
    3.2968942473367959E+00 
    3.3214843816350266E+00 
    3.3069293561245461E+00 
    3.2965893007978915E+00 
    3.3082737921156160E+00 
    3.2906558627768270E+00 
    3.2844805423323948E+00 
    3.2722827986577405E+00 
    3.2738569880230588E+00 
    3.2738528548223100E+00 
    3.2582512946020294E+00 
    3.2526989992737656E+00 
    3.2649523577293449E+00 
    3.2593825208647225E+00 
    3.2606355683396373E+00 
    3.2484289895392995E+00 
    3.2439779555878991E+00 
    3.2838490803073781E+00 
    3.2704885340459340E+00 
    3.2638566205295789E+00 
    3.2704008334220500E+00 
    3.2576541917758051E+00 
    3.2432640020258132E+00 
    3.2449981367959215E+00 
    3.2554356111468832E+00 
    3.2577316212678378E+00 
    3.2554403049842193E+00 
    3.2450573769741125E+00 
    3.2434405141383107E+00 
    3.2303993442846144E+00 
    3.2344507422194502E+00 
    3.2250840626722863E+00 
    3.2203836628738958E+00 
    3.2343773601511074E+00 
    3.2302401381012560E+00 
    3.2200939582470642E+00 
    3.2249073806948232E+00 
    3.2119616595722422E+00 
    3.2180182362373992E+00 
    3.2116979813691602E+00 
    3.2027403075816321E+00 
    3.2192021760943788E+00 
    3.2127080432541124E+00 
    3.2043645697821375E+00 
    3.2062794646909558E+00 
    3.2054292161403213E+00 
    3.1961721992010528E+00 
    3.1917776181684610E+00 
    3.1993297415793136E+00 
    3.1949048422599349E+00 
    3.1962117385600273E+00 
    3.1876641016104830E+00 
    3.1825980021753506E+00 
    3.1726705066100349E+00 
    3.1796628203987929E+00 
    3.1727779765935447E+00 
    3.1662118788111759E+00 
    3.1834707845069534E+00 
    3.1848948061532791E+00 
    3.1741787515086792E+00 
    3.1752711311472117E+00 
    3.1607898713039586E+00 
    3.1681466516473584E+00 
    3.1649638014163193E+00 
    3.1549419090302089E+00 
    3.1613703089339631E+00 
    3.1576919196033257E+00 
    3.1493254242795858E+00 
    3.1495946296795219E+00 
    3.1529985319436520E+00 
    3.1464544434872046E+00 
    3.1401341906403339E+00 
    3.1461020393123156E+00 
    3.1387332563480914E+00 
    3.1418109586118432E+00 
    3.1344486233913309E+00 
    3.1278138738220633E+00 
    3.1200322346709619E+00 
    3.1277732164333965E+00 
    3.1221040503858002E+00 
    3.1152205855977178E+00 
    3.1330474554689323E+00 
    3.1367559728160375E+00 
    3.1264605604127045E+00 
    3.1257593711810054E+00 
    3.1113037271915553E+00 
    3.1188160940412741E+00 
    3.1173660724245025E+00 
    3.1073165646669723E+00 
    3.1091993798696125E+00 
    3.1068243722826767E+00 
    3.0986571145519721E+00 
    3.0982420422534487E+00 
    3.1033609601995020E+00 
    3.0982311580874384E+00 
    3.0912032231118234E+00 
    3.0962756578019754E+00 
    3.0888792817849713E+00 
    3.0918406517066348E+00 
    3.0853062426144495E+00 
    3.0788772165323413E+00 
    3.0713510756964437E+00 
    3.0792603398271972E+00 
    3.0742734197600385E+00 
    3.0673401207791313E+00 
    3.0849339659418957E+00 
    3.0896679587246649E+00 
    3.0798984812678984E+00 
    3.0783090632144172E+00 
    3.0642350789811759E+00 
    3.0716841286700469E+00 
    3.0710631343377690E+00 
    3.0612242585271923E+00 
    3.0608213630029919E+00 
    3.0590814423845880E+00 
    3.0512121035123076E+00 
    3.0504631283674972E+00 
    3.0563176324444528E+00 
    3.0520217587353851E+00 
    3.0447595651168804E+00 
    3.0492943996515152E+00 
    3.0416502848998692E+00 
    3.0447860667820934E+00 
    3.0387438788674150E+00 
    3.0322758089657809E+00 
    3.0253329598415135E+00 
    3.0331915985415301E+00 
    3.0286762825051343E+00 
    3.0218285235333222E+00 
    3.0390025630609188E+00 
    3.0441332821934051E+00 
    3.0347892870268462E+00 
    3.0328257782440096E+00 
    3.0191875457478727E+00 
    3.0264919526233180E+00 
    3.0262934889032111E+00 
    3.0167352085123929E+00 
    3.0151769824231898E+00 
    3.0137762948915694E+00 
    3.0062118316121103E+00 
    3.0053404925182723E+00 
    3.0113928149197413E+00 
    3.0076058835125328E+00 
    3.0003403162748690E+00 
    3.0045079704976732E+00 
    2.9969913143008702E+00 
    3.0000783420970576E+00 
    2.9944088853758575E+00 
    2.9881281775861375E+00 
    2.9816037806340603E+00 
    2.9892398403513081E+00 
    2.9850125985674287E+00 
    2.9783784280818293E+00 
    2.9950026853306255E+00 
    3.0002599394825591E+00 
    2.9913150096034462E+00 
    2.9891758790029930E+00 
    2.9760109518721323E+00 
    2.9830663747691188E+00 
    2.9831044120069206E+00 
    2.9738532330112131E+00 
    2.9718984942908651E+00 
    2.9706825161417476E+00 
    2.9634401948177120E+00 
    2.9625078369341278E+00 
    2.9685398497972115E+00 
    2.9650216408580610E+00 
    2.9580093679873682E+00 
    2.9619634473071983E+00 
    2.9545239229912506E+00 
    2.9576324235083566E+00 
    2.9521680196515887E+00 
    2.9460159122315228E+00 
    2.9397292104930286E+00 
    2.9470892760618259E+00 
    2.9428326095148671E+00 
    2.9364779899827136E+00 
    2.9528045579842335E+00 
    2.9580470380647501E+00 
    2.9493993921361152E+00 
    2.9470587416450522E+00 
    2.9342933306311321E+00 
    2.9409911414782868E+00 
    2.9414173991190737E+00 
    2.9325410670454501E+00 
    2.9306279393949133E+00 
    2.9295148514620735E+00 
    2.9228378915776632E+00 
    2.9218692839211524E+00 
    2.9274935899994015E+00 
    2.9240969186531456E+00 
    2.9174181797483585E+00 
    2.9213455788532632E+00 
    2.9142649241318064E+00 
    2.9172128316596697E+00 
    2.9118957046179172E+00 
    2.9061008875865117E+00 
    2.9001974112838274E+00 
    2.9070612340485251E+00 
    2.9033191121599544E+00 
    2.8973133008947181E+00 
    2.9123853175040835E+00 
    2.9173807781789920E+00 
    2.9092010552900027E+00 
    2.9070631173977901E+00 
    2.8952004688394157E+00 
    2.9016412763476924E+00 
    2.9017544213619475E+00 
    2.8932907785313722E+00 
    2.8915446884578779E+00 
    2.8904771773440139E+00 
    2.8841498084572468E+00 
    2.8832426891568526E+00 
    2.8885147742662451E+00 
    2.8852297416824486E+00 
    2.8789723189119401E+00 
    2.8827633934935735E+00 
    2.8761440005385155E+00 
    2.8789083420278456E+00 
    2.8738321245493217E+00 
    2.8684630250138046E+00 
    2.8628193635814840E+00 
    2.8691068655200689E+00 
    2.8655198590448090E+00 
    2.8600299938033329E+00 
    2.8740436707613708E+00 
    2.8787613419963463E+00 
    2.8709482647099498E+00 
    2.8690068468923640E+00 
    2.8579317192307054E+00 
    2.8638981737650018E+00 
    2.8639343218003486E+00 
    2.8559554157508082E+00 
    2.8547599588028687E+00 
    2.8538349146067983E+00 
    2.8477848034229480E+00 
    2.8468457414092003E+00 
    2.8518228984621121E+00 
    2.8483445612143106E+00 
    2.8423862976759184E+00 
    2.8462542009584251E+00 
    2.8399159354701848E+00 
    2.8424738175721709E+00 
    2.8375263617729241E+00 
    2.8324084570998571E+00 
    2.8266726780816476E+00 
    2.8329461107966281E+00 
    2.8292196891632742E+00 
    2.8236184584994191E+00 
    2.8376413669805718E+00 
    2.8420348387448739E+00 
    2.8344146796538165E+00 
    2.8325910781319084E+00 
    2.8213736627228201E+00 
    2.8274698229380659E+00 
    2.8273883070684698E+00 
    2.8193076933423034E+00 
    2.8183489350443529E+00 
    2.8170027162806455E+00 
    2.8104482969731639E+00 
    2.8096767039653949E+00 
    2.8148135508618872E+00 
    2.8112218736658057E+00 
    2.8045239494061711E+00 
    2.8088085789462007E+00 
    2.8017952190229805E+00 
    2.8046254611081785E+00 
    2.7989911855647791E+00 
    2.7938687615779747E+00 
    2.7883620622570127E+00 
    2.7939799219398580E+00 
    2.7902503858175343E+00 
    2.7854071124121149E+00 
    2.7990002770824653E+00 
    2.8042044450576786E+00 
    2.7953615710991047E+00 
    2.7935098131555227E+00 
    2.7830448607669780E+00 
    2.7884280225184503E+00 
    2.7880010128090991E+00 
    2.7806009067104163E+00 
    2.7814307382663626E+00 
    2.7801098649787490E+00 
    2.7750766389113544E+00 
    2.7747664781057968E+00 
    2.7778718705097005E+00 
    2.7742747808386774E+00 
    2.7698757451889411E+00 
    2.7734181501339834E+00 
    2.7691467421515683E+00 
    2.7706887301381942E+00 
    2.7665697335460058E+00 
    2.7633751014777022E+00 
    2.7589630215201018E+00 
    2.7627477217707566E+00 
    2.7595303986881303E+00 
    2.7560848249151997E+00 
    2.7657046955857183E+00 
    2.7684402278999798E+00 
    2.7621367733766569E+00 
    2.7615021351648235E+00 
    2.7536796274698765E+00 
    2.7576417693286204E+00 
    2.7567258709321543E+00 
    2.7511101004983680E+00 
    2.7539272594880089E+00 
    2.7522458950975848E+00 
    2.7487543170232853E+00 
    2.7490977910297412E+00 
    2.7500214915886758E+00 
    2.7468043115327263E+00 
    2.7443495827115054E+00 
    2.7472123524108416E+00 
    2.7451371779587825E+00 
    2.7457501874199770E+00 
    2.7426100427386260E+00 
    2.7410096209790780E+00 
    2.7376218169870592E+00 
    2.7395005531171059E+00 
    2.7368209420796497E+00 