# vtk DataFile Version 2.0
Pressure Field Data 
ASCII 
DATASET UNSTRUCTURED_GRID 

POINTS 6273 double 

    0.0000000000000000E+00     0.0000000000000000E+00     0.0000000000000000E+00 
    1.0000000000000000E+00     0.0000000000000000E+00     0.0000000000000000E+00 
    1.0000000000000000E+00     1.0000000000000000E+00     0.0000000000000000E+00 
    0.0000000000000000E+00     1.0000000000000000E+00     0.0000000000000000E+00 
    1.5624999999970249E-02     0.0000000000000000E+00     0.0000000000000000E+00 
    3.1249999999940652E-02     0.0000000000000000E+00     0.0000000000000000E+00 
    4.6874999999905617E-02     0.0000000000000000E+00     0.0000000000000000E+00 
    6.2499999999870597E-02     0.0000000000000000E+00     0.0000000000000000E+00 
    7.8124999999846401E-02     0.0000000000000000E+00     0.0000000000000000E+00 
    9.3749999999822212E-02     0.0000000000000000E+00     0.0000000000000000E+00 
    1.0937499999979799E-01     0.0000000000000000E+00     0.0000000000000000E+00 
    1.2499999999977381E-01     0.0000000000000000E+00     0.0000000000000000E+00 
    1.4062499999972811E-01     0.0000000000000000E+00     0.0000000000000000E+00 
    1.5624999999968239E-01     0.0000000000000000E+00     0.0000000000000000E+00 
    1.7187499999963671E-01     0.0000000000000000E+00     0.0000000000000000E+00 
    1.8749999999959110E-01     0.0000000000000000E+00     0.0000000000000000E+00 
    2.0312499999954539E-01     0.0000000000000000E+00     0.0000000000000000E+00 
    2.1874999999949971E-01     0.0000000000000000E+00     0.0000000000000000E+00 
    2.3437499999945391E-01     0.0000000000000000E+00     0.0000000000000000E+00 
    2.4999999999940831E-01     0.0000000000000000E+00     0.0000000000000000E+00 
    2.6562499999936218E-01     0.0000000000000000E+00     0.0000000000000000E+00 
    2.8124999999931621E-01     0.0000000000000000E+00     0.0000000000000000E+00 
    2.9687499999927008E-01     0.0000000000000000E+00     0.0000000000000000E+00 
    3.1249999999922412E-01     0.0000000000000000E+00     0.0000000000000000E+00 
    3.2812499999917810E-01     0.0000000000000000E+00     0.0000000000000000E+00 
    3.4374999999913203E-01     0.0000000000000000E+00     0.0000000000000000E+00 
    3.5937499999908601E-01     0.0000000000000000E+00     0.0000000000000000E+00 
    3.7499999999903999E-01     0.0000000000000000E+00     0.0000000000000000E+00 
    3.9062499999899403E-01     0.0000000000000000E+00     0.0000000000000000E+00 
    4.0624999999894801E-01     0.0000000000000000E+00     0.0000000000000000E+00 
    4.2187499999890188E-01     0.0000000000000000E+00     0.0000000000000000E+00 
    4.3749999999885592E-01     0.0000000000000000E+00     0.0000000000000000E+00 
    4.5312499999880979E-01     0.0000000000000000E+00     0.0000000000000000E+00 
    4.6874999999876382E-01     0.0000000000000000E+00     0.0000000000000000E+00 
    4.8437499999871780E-01     0.0000000000000000E+00     0.0000000000000000E+00 
    4.9999999999867167E-01     0.0000000000000000E+00     0.0000000000000000E+00 
    5.1562499999871325E-01     0.0000000000000000E+00     0.0000000000000000E+00 
    5.3124999999875477E-01     0.0000000000000000E+00     0.0000000000000000E+00 
    5.4687499999879630E-01     0.0000000000000000E+00     0.0000000000000000E+00 
    5.6249999999883782E-01     0.0000000000000000E+00     0.0000000000000000E+00 
    5.7812499999887934E-01     0.0000000000000000E+00     0.0000000000000000E+00 
    5.9374999999892086E-01     0.0000000000000000E+00     0.0000000000000000E+00 
    6.0937499999896239E-01     0.0000000000000000E+00     0.0000000000000000E+00 
    6.2499999999900380E-01     0.0000000000000000E+00     0.0000000000000000E+00 
    6.4062499999904521E-01     0.0000000000000000E+00     0.0000000000000000E+00 
    6.5624999999908673E-01     0.0000000000000000E+00     0.0000000000000000E+00 
    6.7187499999912825E-01     0.0000000000000000E+00     0.0000000000000000E+00 
    6.8749999999916978E-01     0.0000000000000000E+00     0.0000000000000000E+00 
    7.0312499999921130E-01     0.0000000000000000E+00     0.0000000000000000E+00 
    7.1874999999925282E-01     0.0000000000000000E+00     0.0000000000000000E+00 
    7.3437499999929434E-01     0.0000000000000000E+00     0.0000000000000000E+00 
    7.4999999999933586E-01     0.0000000000000000E+00     0.0000000000000000E+00 
    7.6562499999937739E-01     0.0000000000000000E+00     0.0000000000000000E+00 
    7.8124999999941891E-01     0.0000000000000000E+00     0.0000000000000000E+00 
    7.9687499999946043E-01     0.0000000000000000E+00     0.0000000000000000E+00 
    8.1249999999950195E-01     0.0000000000000000E+00     0.0000000000000000E+00 
    8.2812499999954348E-01     0.0000000000000000E+00     0.0000000000000000E+00 
    8.4374999999958500E-01     0.0000000000000000E+00     0.0000000000000000E+00 
    8.5937499999962652E-01     0.0000000000000000E+00     0.0000000000000000E+00 
    8.7499999999966793E-01     0.0000000000000000E+00     0.0000000000000000E+00 
    8.9062499999970934E-01     0.0000000000000000E+00     0.0000000000000000E+00 
    9.0624999999975087E-01     0.0000000000000000E+00     0.0000000000000000E+00 
    9.2187499999979239E-01     0.0000000000000000E+00     0.0000000000000000E+00 
    9.3749999999983391E-01     0.0000000000000000E+00     0.0000000000000000E+00 
    9.5312499999987543E-01     0.0000000000000000E+00     0.0000000000000000E+00 
    9.6874999999991696E-01     0.0000000000000000E+00     0.0000000000000000E+00 
    9.8437499999995848E-01     0.0000000000000000E+00     0.0000000000000000E+00 
    1.0000000000000000E+00     1.5624999999970249E-02     0.0000000000000000E+00 
    1.0000000000000000E+00     3.1249999999940652E-02     0.0000000000000000E+00 
    1.0000000000000000E+00     4.6874999999905617E-02     0.0000000000000000E+00 
    1.0000000000000000E+00     6.2499999999870597E-02     0.0000000000000000E+00 
    1.0000000000000000E+00     7.8124999999846401E-02     0.0000000000000000E+00 
    1.0000000000000000E+00     9.3749999999822212E-02     0.0000000000000000E+00 
    1.0000000000000000E+00     1.0937499999979799E-01     0.0000000000000000E+00 
    1.0000000000000000E+00     1.2499999999977381E-01     0.0000000000000000E+00 
    1.0000000000000000E+00     1.4062499999972811E-01     0.0000000000000000E+00 
    1.0000000000000000E+00     1.5624999999968239E-01     0.0000000000000000E+00 
    1.0000000000000000E+00     1.7187499999963671E-01     0.0000000000000000E+00 
    1.0000000000000000E+00     1.8749999999959110E-01     0.0000000000000000E+00 
    1.0000000000000000E+00     2.0312499999954539E-01     0.0000000000000000E+00 
    1.0000000000000000E+00     2.1874999999949971E-01     0.0000000000000000E+00 
    1.0000000000000000E+00     2.3437499999945391E-01     0.0000000000000000E+00 
    1.0000000000000000E+00     2.4999999999940831E-01     0.0000000000000000E+00 
    1.0000000000000000E+00     2.6562499999936218E-01     0.0000000000000000E+00 
    1.0000000000000000E+00     2.8124999999931621E-01     0.0000000000000000E+00 
    1.0000000000000000E+00     2.9687499999927008E-01     0.0000000000000000E+00 
    1.0000000000000000E+00     3.1249999999922412E-01     0.0000000000000000E+00 
    1.0000000000000000E+00     3.2812499999917810E-01     0.0000000000000000E+00 
    1.0000000000000000E+00     3.4374999999913203E-01     0.0000000000000000E+00 
    1.0000000000000000E+00     3.5937499999908601E-01     0.0000000000000000E+00 
    1.0000000000000000E+00     3.7499999999903999E-01     0.0000000000000000E+00 
    1.0000000000000000E+00     3.9062499999899403E-01     0.0000000000000000E+00 
    1.0000000000000000E+00     4.0624999999894801E-01     0.0000000000000000E+00 
    1.0000000000000000E+00     4.2187499999890188E-01     0.0000000000000000E+00 
    1.0000000000000000E+00     4.3749999999885592E-01     0.0000000000000000E+00 
    1.0000000000000000E+00     4.5312499999880979E-01     0.0000000000000000E+00 
    1.0000000000000000E+00     4.6874999999876382E-01     0.0000000000000000E+00 
    1.0000000000000000E+00     4.8437499999871780E-01     0.0000000000000000E+00 
    1.0000000000000000E+00     4.9999999999867167E-01     0.0000000000000000E+00 
    1.0000000000000000E+00     5.1562499999871325E-01     0.0000000000000000E+00 
    1.0000000000000000E+00     5.3124999999875477E-01     0.0000000000000000E+00 
    1.0000000000000000E+00     5.4687499999879630E-01     0.0000000000000000E+00 
    1.0000000000000000E+00     5.6249999999883782E-01     0.0000000000000000E+00 
    1.0000000000000000E+00     5.7812499999887934E-01     0.0000000000000000E+00 
    1.0000000000000000E+00     5.9374999999892086E-01     0.0000000000000000E+00 
    1.0000000000000000E+00     6.0937499999896239E-01     0.0000000000000000E+00 
    1.0000000000000000E+00     6.2499999999900380E-01     0.0000000000000000E+00 
    1.0000000000000000E+00     6.4062499999904521E-01     0.0000000000000000E+00 
    1.0000000000000000E+00     6.5624999999908673E-01     0.0000000000000000E+00 
    1.0000000000000000E+00     6.7187499999912825E-01     0.0000000000000000E+00 
    1.0000000000000000E+00     6.8749999999916978E-01     0.0000000000000000E+00 
    1.0000000000000000E+00     7.0312499999921130E-01     0.0000000000000000E+00 
    1.0000000000000000E+00     7.1874999999925282E-01     0.0000000000000000E+00 
    1.0000000000000000E+00     7.3437499999929434E-01     0.0000000000000000E+00 
    1.0000000000000000E+00     7.4999999999933586E-01     0.0000000000000000E+00 
    1.0000000000000000E+00     7.6562499999937739E-01     0.0000000000000000E+00 
    1.0000000000000000E+00     7.8124999999941891E-01     0.0000000000000000E+00 
    1.0000000000000000E+00     7.9687499999946043E-01     0.0000000000000000E+00 
    1.0000000000000000E+00     8.1249999999950195E-01     0.0000000000000000E+00 
    1.0000000000000000E+00     8.2812499999954348E-01     0.0000000000000000E+00 
[...]
CELL_DATA 6144 
SCALARS Pressure double 1 
LOOKUP_TABLE default 

    3.4377654526272012E+00 
    3.3394573768505484E+00 
    3.3236333349547960E+00 
    3.3394604219781767E+00 
    3.2787750930234263E+00 
    3.2381318069972327E+00 
    3.2597890205481752E+00 
    3.2892228809071868E+00 
    3.2787826128235227E+00 
    3.2892303920292649E+00 
    3.2598066878535268E+00 
    3.2381392791188035E+00 
    3.2178252955402940E+00 
    3.2362343465504901E+00 
    3.2172548556967984E+00 
    3.2043803665368462E+00 
    3.2363697782589735E+00 
    3.2179977489760585E+00 
    3.2049027016221743E+00 
    3.2176788511573409E+00 
    3.1919685304126948E+00 
    3.2049102324331593E+00 
    3.1923864082452083E+00 
    3.1771684804836866E+00 
    3.1904606521491878E+00 
    3.1868890700288732E+00 
    3.1693002103100474E+00 
    3.1659865619057488E+00 
    3.1783563096433687E+00 
    3.1652844967460583E+00 
    3.1543887471420193E+00 
    3.1646881733921575E+00 
    3.1452700122503177E+00 
    3.1545940244763888E+00 
    3.1425585707837307E+00 
    3.1275570918536286E+00 
    3.1178599490377183E+00 
    3.1325233533805719E+00 
    3.1245141996314234E+00 
    3.1131729514346191E+00 
    3.1424799313278049E+00 
    3.1482929417080436E+00 
    3.1323655880958556E+00 
    3.1309344611699390E+00 
    3.1091447833015557E+00 
    3.1205335220770372E+00 
    3.1190083282297234E+00 
    3.1046572512805648E+00 
    3.1009512283587584E+00 
    3.1001709392476582E+00 
    3.0882764592885095E+00 
    3.0856630296963719E+00 
    3.0972952469298729E+00 
    3.0918785535208970E+00 
    3.0811872854340105E+00 
    3.0867753688718391E+00 
    3.0720037297630953E+00 
    3.0789794616650386E+00 
    3.0708202549572863E+00 
    3.0594461749484947E+00 
    3.0526450577449626E+00 
    3.0640928013489681E+00 
    3.0594017211310458E+00 
    3.0503680004312188E+00 
    3.0734262497037808E+00 
    3.0810723053799429E+00 
    3.0688574625996532E+00 
    3.0654655107107036E+00 
    3.0484935637840911E+00 
    3.0576478524983903E+00 
    3.0582388496826001E+00 
    3.0465351981499520E+00 
    3.0404086705911255E+00 
    3.0405437985454165E+00 
    3.0311687830551257E+00 
    3.0285987855806007E+00 
    3.0390114609554701E+00 
    3.0353441944145856E+00 
    3.0257159691123108E+00 
    3.0301543461345304E+00 
    3.0176323959093980E+00 
    3.0233858672644520E+00 
    3.0168487163361970E+00 
    3.0074016554130281E+00 
    3.0017957442267971E+00 
    3.0116746151641793E+00 
    3.0080317842682933E+00 
    3.0000460103970754E+00 
    3.0199034640997184E+00 
    3.0272146601313485E+00 
    3.0171145617665052E+00 
    3.0135544806648502E+00 
    2.9985963733565972E+00 
    3.0067170347916634E+00 
    3.0073983333353254E+00 
    2.9971824469273707E+00 
    2.9912405999828633E+00 
    2.9913135396333033E+00 
    2.9831945828010347E+00 
    2.9810978751821846E+00 
    2.9902245742664237E+00 
    2.9879051567484791E+00 
    2.9793568674015352E+00 
    2.9825740280450952E+00 
    2.9716380942462099E+00 
    2.9767199077549420E+00 
    2.9711583963854276E+00 
    2.9627049700363908E+00 
    2.9577535003157762E+00 
    2.9665906886016367E+00 
    2.9635030998118932E+00 
    2.9563235098937657E+00 
    2.9743509288743191E+00 
    2.9812656526059773E+00 
    2.9721794583184895E+00 
    2.9686411181609422E+00 
    2.9554353456797937E+00 
    2.9627394225888888E+00 
    2.9640870685723244E+00 
    2.9549156169938815E+00 
    2.9483022695608208E+00 
    2.9483920003232829E+00 
    2.9410675229399721E+00 
    2.9391507592810888E+00 
    2.9475687373424058E+00 
    2.9455246015197156E+00 
    2.9374675882839800E+00 
    2.9405787257397300E+00 
    2.9306214303556075E+00 
    2.9352961450846471E+00 
    2.9302339050520496E+00 
    2.9225567121622054E+00 
    2.9180808397378986E+00 
    2.9261748945911572E+00 
    2.9234830605330897E+00 
    2.9168604303515933E+00 
    2.9330570982654560E+00 
    2.9396121177238279E+00 
    2.9315321437722139E+00 
    2.9281585295675581E+00 
    2.9161086266624858E+00 
    2.9227904336243511E+00 
    2.9241615836833299E+00 
    2.9157551066769947E+00 
    2.9094193633328955E+00 
    2.9095561287113947E+00 
    2.9028027526356812E+00 
    2.9010238330194316E+00 
    2.9088720486569826E+00 
    2.9071464050950735E+00 
    2.8997242275171189E+00 
    2.9024031417729224E+00 
    2.8931752516280627E+00 
    2.8974929692344000E+00 
    2.8929064106354114E+00 
    2.8857343202062276E+00 
    2.8816057949993281E+00 
    2.8891787790530290E+00 
    2.8866545847903131E+00 
    2.8805233946564570E+00 
    2.8956848850336034E+00 
    2.9017426068462062E+00 
    2.8942154295510116E+00 
    2.8910496459779402E+00 
    2.8798827090842698E+00 
    2.8860514814174230E+00 
    2.8873843641204635E+00 
    2.8796067946065058E+00 
    2.8736395004971182E+00 
    2.8738237301267699E+00 
    2.8676512557292075E+00 
    2.8659670394643522E+00 
    2.8731889889586553E+00 
    2.8715204668092600E+00 
    2.8645780662213665E+00 
    2.8671591076985385E+00 
    2.8587432628582889E+00 
    2.8627410464082326E+00 
    2.8586214181265444E+00 
    2.8520025109307596E+00 
    2.8480944068135812E+00 
    2.8551448569121018E+00 
    2.8523572589265838E+00 
    2.8466198783955323E+00 
    2.8608891619347250E+00 
    2.8665201773899525E+00 
    2.8595836668332559E+00 
    2.8566107716396743E+00 
    2.8459562070400963E+00 
    2.8517128766616127E+00 
    2.8531599848219487E+00 
    2.8458877270963159E+00 
    2.8404699747593924E+00 
    2.8405832903403003E+00 
    2.8349032220017354E+00 
    2.8333641712660302E+00 
    2.8399670864729236E+00 
    2.8384127617261070E+00 
    2.8319607227062971E+00 
    2.8344086590501920E+00 
    2.8266837062996335E+00 
    2.8302888733886684E+00 
    2.8264139318733132E+00 
    2.8204261225669640E+00 
    2.8168726361904297E+00 
    2.8232514688663275E+00 
    2.8209855992278658E+00 
    2.8157542449249608E+00 
    2.8285552706238368E+00 
    2.8337902533562027E+00 
    2.8274439859972373E+00 
    2.8247067848434644E+00 
    2.8151467678028594E+00 
    2.8204494534214115E+00 
    2.8215616268517669E+00 
    2.8148492511235270E+00 
    2.8099435862894708E+00 
    2.8099958973516062E+00 
    2.8047240919032350E+00 
    2.8034065007054236E+00 
    2.8094370956297907E+00 
    2.8080055224149065E+00 
    2.8022301637256586E+00 
    2.8043758318501917E+00 
    2.7973292340589926E+00 
    2.8006232779494860E+00 
    2.7971221143356577E+00 
    2.7916215336586623E+00 
    2.7884247965567086E+00 
    2.7941844657747463E+00 
    2.7921877255354492E+00 
    2.7874701106616344E+00 
    2.7990266489214788E+00 
    2.8036970184005412E+00 
    2.7978778835447207E+00 
    2.7955154029082836E+00 
    2.7868903249992192E+00 
    2.7916940475157639E+00 
    2.7925823731524919E+00 
    2.7865294853959832E+00 
    2.7822535154423504E+00 
    2.7822859784193708E+00 
    2.7775116197369103E+00 
    2.7763478965130086E+00 
    2.7817373354268873E+00 
    2.7803649069474763E+00 
    2.7752092063927596E+00 
    2.7771754778179520E+00 
    2.7709339524823107E+00 
    2.7738486424640829E+00 
    2.7708339369653023E+00 
    2.7659771138988458E+00 
    2.7630852154252588E+00 
    2.7681999809984439E+00 
    2.7660543959198365E+00 
    2.7619081420578162E+00 
    2.7723599253595332E+00 
    2.7764408039996216E+00 
    2.7711616103120251E+00 
    2.7690812577262114E+00 
    2.7612674558202617E+00 
    2.7654427462699873E+00 
    2.7663243647854872E+00 
    2.7609499674667530E+00 
    2.7575360644312354E+00 
    2.7574813311203177E+00 
    2.7533743881351405E+00 
    2.7523837272942195E+00 
    2.7569143366274353E+00 
    2.7556108757059139E+00 
    2.7511725616388949E+00 
    2.7530019360478284E+00 
    2.7476044449481347E+00 
    2.7501295451312719E+00 
    2.7472304848127895E+00 
    2.7430817904571407E+00 
    2.7406156450701924E+00 
    2.7449142046725168E+00 
    2.7433866889078611E+00 
    2.7398523172790203E+00 
    2.7485927514524855E+00 
    2.7520579868404416E+00 
    2.7474863168695891E+00 
    2.7458479967814418E+00 
    2.7392439977754517E+00 
    2.7428855317292862E+00 
    2.7433723212032519E+00 
    2.7387163879049448E+00 
    2.7360409449508287E+00 
    2.7360223996536290E+00 
    2.7324911531086316E+00 
    2.7316239475991337E+00 
    2.7354403299787000E+00 
    2.7341866210264700E+00 
    2.7304346967894948E+00 
    2.7320690838227493E+00 
    2.7275119562415844E+00 
    2.7296340974483315E+00 
    2.7271590446232672E+00 
    2.7236468599820673E+00 
    2.7214433516018985E+00 
    2.7251361380190602E+00 
    2.7235658630889339E+00 
    2.7205286933561768E+00 
    2.7282080147795766E+00 
    2.7310475471710607E+00 
    2.7270398795060911E+00 
    2.7257282060869437E+00 
    2.7198923107948363E+00 
    2.7230121559435858E+00 
    2.7234082270639162E+00 
    2.7193591210121104E+00 
    2.7173842697506334E+00 
    2.7173116593520454E+00 
    2.7141380617188564E+00 
    2.7133486070998014E+00 
    2.7167115164318449E+00 
    2.7154052449266528E+00 
    2.7120454458544208E+00 
    2.7137133062344230E+00 
    2.7093236411185617E+00 
    2.7113753894562693E+00 
    2.7088440461178909E+00 
    2.7054859437233749E+00 
    2.7035809829505255E+00 
    2.7067555064328803E+00 
    2.7052855790780654E+00 
    2.7028029525276653E+00 
    2.7096740554403151E+00 
    2.7123050983363846E+00 
    2.7082774681533310E+00 
    2.7071292316831510E+00 
    2.7021147396298746E+00 
    2.7046850601964820E+00 
    2.7047166814563055E+00 
    2.7012726416465882E+00 
    2.7004303046453209E+00 
    2.7002635148036900E+00 
    2.6980794194561364E+00 
    2.6976923635304608E+00 
    2.6996740358354732E+00 
    2.6985044228333934E+00 
    2.6965999593263161E+00 
    2.6977206079078595E+00 
    2.6954171838705738E+00 
    2.6964694828338271E+00 
    2.6951210529533940E+00 
    2.6935296834018674E+00 
    2.6924854718528968E+00 
    2.6939232742063188E+00 
    2.6928558250809878E+00 
    2.6917448566210149E+00 
    2.6951141307989284E+00 
    2.6961792903002082E+00 
    2.6937745357663139E+00 
    2.6935958642799478E+00 
    2.6910148508567384E+00 
    2.6922252488674707E+00 
    2.6918501977050289E+00 
    2.6900597280636354E+00 
    2.6909578936396121E+00 
    2.6906571145400808E+00 
    2.6897851245916127E+00 
    2.6897769746820703E+00 
    2.6900586562424937E+00 
    2.6890558577198740E+00 
    2.6887419575710223E+00 
    2.6894265722373456E+00 
    2.6889617366608962E+00 
    2.6891595025896882E+00 
    2.6885886186890380E+00 
    2.6884367912204254E+00 
    2.6882271293798303E+00 
    2.6880675709346584E+00 
    2.6874922262246876E+00 
    2.6877013639279879E+00 
    2.6879047146743238E+00 
    2.6875996927179751E+00 
    2.6865874022268290E+00 
    2.6872148563261842E+00 
    2.6868853494225657E+00 
    2.6868642181566105E+00 
    2.6859892654305551E+00 
    2.6857000191237761E+00 
    3.1903296826112557E+00 
    3.1658832345998835E+00 
    3.1685684923355666E+00 
    3.1863026413247169E+00 
    3.1452839117567826E+00 
    3.1276328549887569E+00 
    3.1424087005181240E+00 
    3.1543800172363112E+00 
    3.1779799102947108E+00 
    3.1639805124882092E+00 
    3.1540832758397435E+00 
    3.1652647720004787E+00 
    3.1484147649970158E+00 
    3.1425504019056096E+00 
    3.1309932782245609E+00 
    3.1324684477522422E+00 
    3.1324885168251457E+00 
    3.1178145137646749E+00 
    3.1126052229254109E+00 
    3.1240893638611968E+00 
    3.1188299007474791E+00 
    3.1200212356349777E+00 
    3.1086058955906850E+00 
    3.1044392463208883E+00 
    3.1419128012953337E+00 
    3.1292688384576088E+00 
    3.1230181571753795E+00 
    3.1291855653226359E+00 
    3.1171959957343618E+00 
    3.1037695610093783E+00 
    3.1053819709633554E+00 
    3.1151151125655643E+00 
    3.1172668073072218E+00 
    3.1151188805701753E+00 
    3.1054363802561062E+00 
    3.1039320088884144E+00 
    3.0918551491215469E+00 
    3.0956003648076433E+00 
    3.0869519374479628E+00 
    3.0826265370559316E+00 
    3.0955331746192178E+00 
    3.0917092145323921E+00 
    3.0823613187215493E+00 
    3.0867898168384249E+00 
    3.0749057602118794E+00 
    3.0804548364951958E+00 
    3.0746652726295323E+00 
    3.0664941684979041E+00 
    3.0815356888715542E+00 
    3.0755864386666119E+00 
    3.0679761321003789E+00 
    3.0697231480744782E+00 
    3.0689449746157402E+00 
    3.0605420240480274E+00 
    3.0565669245985618E+00 
    3.0634002279125814E+00 
    3.0593923985434559E+00 
    3.0605748100049150E+00 
    3.0528576661624598E+00 
    3.0483016236538698E+00 
    3.0394146254504535E+00 
    3.0456673022050049E+00 
    3.0395007218707528E+00 
    3.0336486878082041E+00 
    3.0490836941606418E+00 
    3.0503607751057640E+00 
    3.0407441266220321E+00 
    3.0417271350780957E+00 
    3.0288226274751424E+00 
    3.0353623824089482E+00 
    3.0325206011639665E+00 
    3.0236295303920588E+00 
    3.0293481189167797E+00 
    3.0260828562223456E+00 
    3.0186891088526377E+00 
    3.0189312307073237E+00 
    3.0219271657115967E+00 
    3.0161510105398475E+00 
    3.0105996603015526E+00 
    3.0158459560702355E+00 
    3.0093811578388765E+00 
    3.0120772589001912E+00 
    3.0056252761854565E+00 
    2.9998393407927559E+00 
    2.9930747714273211E+00 
    2.9997960296510935E+00 
    2.9948567335171430E+00 
    2.9888937667640070E+00 
    3.0043911404617791E+00 
    3.0076270564586083E+00 
    2.9986298736437220E+00 
    2.9980290794871221E+00 
    2.9854943801353535E+00 
    2.9919929672765617E+00 
    2.9907231178008891E+00 
    2.9820351483006733E+00 
    2.9837044355600355E+00 
    2.9816463636737165E+00 
    2.9746251953121643E+00 
    2.9742793603565931E+00 
    2.9786537254644885E+00 
    2.9742325019552855E+00 
    2.9682223789451156E+00 
    2.9725735798302537E+00 
    2.9662636202938639E+00 
    2.9687839999595829E+00 
    2.9632001326477764E+00 
    2.9577449287587272E+00 
    2.9513574477413034E+00 
    2.9580465487513381E+00 
    2.9538001628783457E+00 
    2.9479436272610862E+00 
    2.9628604536081768E+00 
    2.9668830997765201E+00 
    2.9585456139757680E+00 
    2.9572126199831006E+00 
    2.9452980685990227E+00 
    2.9515883746848925E+00 
    2.9510405271285625E+00 
    2.9427276471178985E+00 
    2.9424758668476838E+00 
    2.9409888934753567E+00 
    2.9343846207860871E+00 
    2.9337767544089606E+00 
    2.9386416514011118E+00 
    2.9350062072226795E+00 
    2.9289466086044400E+00 
    2.9327592594009664E+00 
    2.9264051608304262E+00 
    2.9290030373887648E+00 
    2.9239492777956984E+00 
    2.9185969171059165E+00 
    2.9128239565101257E+00 
    2.9193119494196886E+00 
    2.9155389170897692E+00 
    2.9098868514781611E+00 
    2.9241218868878880E+00 
    2.9283719193931153E+00 
    2.9205629518686265E+00 
    2.9189621552831810E+00 
    2.9076638505738592E+00 
    2.9136972099664682E+00 
    2.9134952436333066E+00 
    2.9055868248176626E+00 
    2.9044520055063341E+00 
    2.9032584945963857E+00 
    2.8970503048387375E+00 
    2.8963697545853675E+00 
    2.9012562933312500E+00 
    2.8980940465507854E+00 
    2.8921757589631163E+00 
    2.8956208440298377E+00 
    2.8895339116590479E+00 
    2.8920209801824424E+00 
    2.8873696090631560E+00 
    2.8823029244809093E+00 
    2.8769782052598982E+00 
    2.8831303654638134E+00 
    2.8796555767134504E+00 
    2.8743056786945624E+00 
    2.8877818166182756E+00 
    2.8920236599925411E+00 
    2.8846921637553882E+00 
    2.8830034372933793E+00 
    2.8723252427208186E+00 
    2.8780264234223099E+00 
    2.8779964463825753E+00 
    2.8704976561843139E+00 
    2.8691587760291699E+00 
    2.8681140459182712E+00 
    2.8623036127936907E+00 
    2.8616091644182298E+00 
    2.8663226760710945E+00 
    2.8634129858925585E+00 
    2.8578493547168393E+00 
    2.8610681617699401E+00 
    2.8552127881527665E+00 
    2.8576417167893191E+00 
    2.8532437672855466E+00 
    2.8484184093153697E+00 
    2.8433833923831466E+00 
    2.8491528462122928E+00 
    2.8457126533860406E+00 
    2.8407194627547554E+00 
    2.8536382510600009E+00 
    2.8577441416612119E+00 
    2.8507989411958534E+00 
    2.8490176371015710E+00 
    2.8388953607848477E+00 
    2.8441815631867415E+00 
    2.8444251033300052E+00 
    2.8373840018428811E+00 
    2.8362349485708416E+00 
    2.8352600190857475E+00 
    2.8300376000571608E+00 
    2.8293611468759652E+00 
    2.8335723413636789E+00 
    2.8307858850176095E+00 
    2.8256538580739794E+00 
    2.8287962892291798E+00 
    2.8234171262771137E+00 
    2.8256300343753646E+00 
    2.8214453920248834E+00 
    2.8170616284727621E+00 
    2.8124353164444478E+00 
    2.8176273784424781E+00 
    2.8146448258278998E+00 
    2.8100806078580773E+00 
    2.8216567939367816E+00 
    2.8254214968834477E+00 
    2.8189982242338134E+00 
    2.8174617304920710E+00 
    2.8083134159413734E+00 
    2.8132450256008696E+00 
    2.8131959159980302E+00 
    2.8066635390081056E+00 
    2.8058574452483995E+00 
    2.8048968400872267E+00 
    2.8001118496300039E+00 
    2.7995459580982787E+00 
    2.8032557916167207E+00 
    2.8005822575799497E+00 
    2.7959875356532069E+00 
    2.7989566017480958E+00 
    2.7941796537853785E+00 
    2.7961361515773202E+00 
    2.7922587816420559E+00 
    2.7884084073250124E+00 
    2.7841269320504010E+00 
    2.7886283378518795E+00 
    2.7858312195620041E+00 
    2.7818758852931840E+00 
    2.7921677301738130E+00 
    2.7955275104084372E+00 
    2.7895803123654068E+00 
    2.7883063435721898E+00 
    2.7801258356117260E+00 
    2.7844784077711791E+00 
    2.7843072844789312E+00 
    2.7784067551791858E+00 
    2.7783104856130536E+00 
    2.7774258450127025E+00 
    2.7731047439791987E+00 
    2.7726118510411273E+00 
    2.7757597518827235E+00 
    2.7730006990770870E+00 
    2.7689671532210660E+00 
    2.7718595091895697E+00 
    2.7676970765029587E+00 
    2.7693104356553433E+00 
    2.7657667167812345E+00 
    2.7625037289442824E+00 
    2.7585821032434050E+00 
    2.7624926249769981E+00 
    2.7597913390297721E+00 
    2.7563018957156116E+00 
    2.7654862935052829E+00 
    2.7682685263817981E+00 
    2.7628278278651157E+00 
    2.7618721577297229E+00 
    2.7544983990940812E+00 
    2.7583687984435303E+00 
    2.7579663382700699E+00 
    2.7526789641069658E+00 
    2.7534668257693657E+00 
    2.7523383791397618E+00 
    2.7486538514041756E+00 
    2.7485172526428756E+00 
    2.7506624488544142E+00 
    2.7480855853118831E+00 
    2.7448866325508674E+00 
    2.7474766803027650E+00 
    2.7443199913362726E+00 
    2.7455220261945743E+00 
    2.7423591089962658E+00 
    2.7397823207678900E+00 
    2.7362496446983933E+00 
    2.7393146586345796E+00 
    2.7368504929204813E+00 
    2.7340714969645203E+00 
    2.7416417737455032E+00 
    2.7437270926547956E+00 
    2.7389547178248885E+00 
    2.7384405995848424E+00 
    2.7322389035288746E+00 
    2.7354430067021811E+00 
    2.7348027867362932E+00 
    2.7302720649109982E+00 
    2.7320382339039355E+00 
    2.7308855613422582E+00 
    2.7277414299382516E+00 
    2.7277712745060452E+00 
    2.7291422258247198E+00 
    2.7264885471404035E+00 
    2.7239698883601067E+00 
    2.7264617670580624E+00 
    2.7240698528911746E+00 
    2.7248752175792346E+00 
    2.7220349853642904E+00 
    2.7200771422107799E+00 
    2.7167763517484671E+00 
    2.7192933412484068E+00 
    2.7169104661176706E+00 
    2.7145012122344587E+00 
    2.7210457809738879E+00 
    2.7224679643512997E+00 
    2.7182537723171878E+00 
    2.7181077006886243E+00 
    2.7125832586664878E+00 
    2.7154300793371395E+00 
    2.7145617083967584E+00 
    2.7105222831140048E+00 
    2.7129921591716610E+00 
    2.7115690729434809E+00 
    2.7085910696065110E+00 
    2.7088258625069681E+00 
    2.7097413737030287E+00 
    2.7071255746622471E+00 
    2.7047813980185773E+00 
    2.7072831530008865E+00 
    2.7050896025039157E+00 
    2.7057985345722249E+00 
    2.7029213275030570E+00 
    2.7013916203454884E+00 
    2.6985228391215177E+00 
    2.7001956660209756E+00 
    2.6979278845320165E+00 