# vtk DataFile Version 2.0
Pressure Field Data 
ASCII 
DATASET UNSTRUCTURED_GRID 

POINTS 6273 double 

    0.0000000000000000E+00     0.0000000000000000E+00     0.0000000000000000E+00 
    1.0000000000000000E+00     0.0000000000000000E+00     0.0000000000000000E+00 
    1.0000000000000000E+00     1.0000000000000000E+00     0.0000000000000000E+00 
    0.0000000000000000E+00     1.0000000000000000E+00     0.0000000000000000E+00 
    1.5624999999970249E-02     0.0000000000000000E+00     0.0000000000000000E+00 
    3.1249999999940652E-02     0.0000000000000000E+00     0.0000000000000000E+00 
    4.6874999999905617E-02     0.0000000000000000E+00     0.0000000000000000E+00 
    6.2499999999870597E-02     0.0000000000000000E+00     0.0000000000000000E+00 
    7.8124999999846401E-02     0.0000000000000000E+00     0.0000000000000000E+00 
    9.3749999999822212E-02     0.0000000000000000E+00     0.0000000000000000E+00 
    1.0937499999979799E-01     0.0000000000000000E+00     0.0000000000000000E+00 
    1.2499999999977381E-01     0.0000000000000000E+00     0.0000000000000000E+00 
    1.4062499999972811E-01     0.0000000000000000E+00     0.0000000000000000E+00 
    1.5624999999968239E-01     0.0000000000000000E+00     0.0000000000000000E+00 
    1.7187499999963671E-01     0.0000000000000000E+00     0.0000000000000000E+00 
    1.8749999999959110E-01     0.0000000000000000E+00     0.0000000000000000E+00 
    2.0312499999954539E-01     0.0000000000000000E+00     0.0000000000000000E+00 
    2.1874999999949971E-01     0.0000000000000000E+00     0.0000000000000000E+00 
    2.3437499999945391E-01     0.0000000000000000E+00     0.0000000000000000E+00 
    2.4999999999940831E-01     0.0000000000000000E+00     0.0000000000000000E+00 
    2.6562499999936218E-01     0.0000000000000000E+00     0.0000000000000000E+00 
    2.8124999999931621E-01     0.0000000000000000E+00     0.0000000000000000E+00 
    2.9687499999927008E-01     0.0000000000000000E+00     0.0000000000000000E+00 
    3.1249999999922412E-01     0.0000000000000000E+00     0.0000000000000000E+00 
    3.2812499999917810E-01     0.0000000000000000E+00     0.0000000000000000E+00 
    3.4374999999913203E-01     0.0000000000000000E+00     0.0000000000000000E+00 
    3.5937499999908601E-01     0.0000000000000000E+00     0.0000000000000000E+00 
    3.7499999999903999E-01     0.0000000000000000E+00     0.0000000000000000E+00 
    3.9062499999899403E-01     0.0000000000000000E+00     0.0000000000000000E+00 
    4.0624999999894801E-01     0.0000000000000000E+00     0.0000000000000000E+00 
    4.2187499999890188E-01     0.0000000000000000E+00     0.0000000000000000E+00 
    4.3749999999885592E-01     0.0000000000000000E+00     0.0000000000000000E+00 
    4.5312499999880979E-01     0.0000000000000000E+00     0.0000000000000000E+00 
    4.6874999999876382E-01     0.0000000000000000E+00     0.0000000000000000E+00 
    4.8437499999871780E-01     0.0000000000000000E+00     0.0000000000000000E+00 
    4.9999999999867167E-01     0.0000000000000000E+00     0.0000000000000000E+00 
    5.1562499999871325E-01     0.0000000000000000E+00     0.0000000000000000E+00 
    5.3124999999875477E-01     0.0000000000000000E+00     0.0000000000000000E+00 
    5.4687499999879630E-01     0.0000000000000000E+00     0.0000000000000000E+00 
    5.6249999999883782E-01     0.0000000000000000E+00     0.0000000000000000E+00 
    5.7812499999887934E-01     0.0000000000000000E+00     0.0000000000000000E+00 
    5.9374999999892086E-01     0.0000000000000000E+00     0.0000000000000000E+00 
    6.0937499999896239E-01     0.0000000000000000E+00     0.0000000000000000E+00 
    6.2499999999900380E-01     0.0000000000000000E+00     0.0000000000000000E+00 
    6.4062499999904521E-01     0.0000000000000000E+00     0.0000000000000000E+00 
    6.5624999999908673E-01     0.0000000000000000E+00     0.0000000000000000E+00 
    6.7187499999912825E-01     0.0000000000000000E+00     0.0000000000000000E+00 
    6.8749999999916978E-01     0.0000000000000000E+00     0.0000000000000000E+00 
    7.0312499999921130E-01     0.0000000000000000E+00     0.0000000000000000E+00 
    7.1874999999925282E-01     0.0000000000000000E+00     0.0000000000000000E+00 
    7.3437499999929434E-01     0.0000000000000000E+00     0.0000000000000000E+00 
    7.4999999999933586E-01     0.0000000000000000E+00     0.0000000000000000E+00 
    7.6562499999937739E-01     0.0000000000000000E+00     0.0000000000000000E+00 
    7.8124999999941891E-01     0.0000000000000000E+00     0.0000000000000000E+00 
    7.9687499999946043E-01     0.0000000000000000E+00     0.0000000000000000E+00 
    8.1249999999950195E-01     0.0000000000000000E+00     0.0000000000000000E+00 
    8.2812499999954348E-01     0.0000000000000000E+00     0.0000000000000000E+00 
    8.4374999999958500E-01     0.0000000000000000E+00     0.0000000000000000E+00 
    8.5937499999962652E-01     0.0000000000000000E+00     0.0000000000000000E+00 
    8.7499999999966793E-01     0.0000000000000000E+00     0.0000000000000000E+00 
    8.9062499999970934E-01     0.0000000000000000E+00     0.0000000000000000E+00 
    9.0624999999975087E-01     0.0000000000000000E+00     0.0000000000000000E+00 
    9.2187499999979239E-01     0.0000000000000000E+00     0.0000000000000000E+00 
    9.3749999999983391E-01     0.0000000000000000E+00     0.0000000000000000E+00 
    9.5312499999987543E-01     0.0000000000000000E+00     0.0000000000000000E+00 
    9.6874999999991696E-01     0.0000000000000000E+00     0.0000000000000000E+00 
    9.8437499999995848E-01     0.0000000000000000E+00     0.0000000000000000E+00 
    1.0000000000000000E+00     1.5624999999970249E-02     0.0000000000000000E+00 
    1.0000000000000000E+00     3.1249999999940652E-02     0.0000000000000000E+00 
    1.0000000000000000E+00     4.6874999999905617E-02     0.0000000000000000E+00 
    1.0000000000000000E+00     6.2499999999870597E-02     0.0000000000000000E+00 
    1.0000000000000000E+00     7.8124999999846401E-02     0.0000000000000000E+00 
    1.0000000000000000E+00     9.3749999999822212E-02     0.0000000000000000E+00 
    1.0000000000000000E+00     1.0937499999979799E-01     0.0000000000000000E+00 
    1.0000000000000000E+00     1.2499999999977381E-01     0.0000000000000000E+00 
    1.0000000000000000E+00     1.4062499999972811E-01     0.0000000000000000E+00 
    1.0000000000000000E+00     1.5624999999968239E-01     0.0000000000000000E+00 
    1.0000000000000000E+00     1.7187499999963671E-01     0.0000000000000000E+00 
    1.0000000000000000E+00     1.8749999999959110E-01     0.0000000000000000E+00 
    1.0000000000000000E+00     2.0312499999954539E-01     0.0000000000000000E+00 
    1.0000000000000000E+00     2.1874999999949971E-01     0.0000000000000000E+00 
    1.0000000000000000E+00     2.3437499999945391E-01     0.0000000000000000E+00 
    1.0000000000000000E+00     2.4999999999940831E-01     0.0000000000000000E+00 
    1.0000000000000000E+00     2.6562499999936218E-01     0.0000000000000000E+00 
    1.0000000000000000E+00     2.8124999999931621E-01     0.0000000000000000E+00 
    1.0000000000000000E+00     2.9687499999927008E-01     0.0000000000000000E+00 
    1.0000000000000000E+00     3.1249999999922412E-01     0.0000000000000000E+00 
    1.0000000000000000E+00     3.2812499999917810E-01     0.0000000000000000E+00 
    1.0000000000000000E+00     3.4374999999913203E-01     0.0000000000000000E+00 
    1.0000000000000000E+00     3.5937499999908601E-01     0.0000000000000000E+00 
    1.0000000000000000E+00     3.7499999999903999E-01     0.0000000000000000E+00 
    1.0000000000000000E+00     3.9062499999899403E-01     0.0000000000000000E+00 
    1.0000000000000000E+00     4.0624999999894801E-01     0.0000000000000000E+00 
    1.0000000000000000E+00     4.2187499999890188E-01     0.0000000000000000E+00 
    1.0000000000000000E+00     4.3749999999885592E-01     0.0000000000000000E+00 
    1.0000000000000000E+00     4.5312499999880979E-01     0.0000000000000000E+00 
    1.0000000000000000E+00     4.6874999999876382E-01     0.0000000000000000E+00 
    1.0000000000000000E+00     4.8437499999871780E-01     0.0000000000000000E+00 
    1.0000000000000000E+00     4.9999999999867167E-01     0.0000000000000000E+00 
    1.0000000000000000E+00     5.1562499999871325E-01     0.0000000000000000E+00 
    1.0000000000000000E+00     5.3124999999875477E-01     0.0000000000000000E+00 
    1.0000000000000000E+00     5.4687499999879630E-01     0.0000000000000000E+00 
    1.0000000000000000E+00     5.6249999999883782E-01     0.0000000000000000E+00 
    1.0000000000000000E+00     5.7812499999887934E-01     0.0000000000000000E+00 
    1.0000000000000000E+00     5.9374999999892086E-01     0.0000000000000000E+00 
    1.0000000000000000E+00     6.0937499999896239E-01     0.0000000000000000E+00 
    1.0000000000000000E+00     6.2499999999900380E-01     0.0000000000000000E+00 
    1.0000000000000000E+00     6.4062499999904521E-01     0.0000000000000000E+00 
    1.0000000000000000E+00     6.5624999999908673E-01     0.0000000000000000E+00 
    1.0000000000000000E+00     6.7187499999912825E-01     0.0000000000000000E+00 
    1.0000000000000000E+00     6.8749999999916978E-01     0.0000000000000000E+00 
    1.0000000000000000E+00     7.0312499999921130E-01     0.0000000000000000E+00 
    1.0000000000000000E+00     7.1874999999925282E-01     0.0000000000000000E+00 
    1.0000000000000000E+00     7.3437499999929434E-01     0.0000000000000000E+00 
    1.0000000000000000E+00     7.4999999999933586E-01     0.0000000000000000E+00 
    1.0000000000000000E+00     7.6562499999937739E-01     0.0000000000000000E+00 
    1.0000000000000000E+00     7.8124999999941891E-01     0.0000000000000000E+00 
    1.0000000000000000E+00     7.9687499999946043E-01     0.0000000000000000E+00 
    1.0000000000000000E+00     8.1249999999950195E-01     0.0000000000000000E+00 
    1.0000000000000000E+00     8.2812499999954348E-01     0.0000000000000000E+00 
[...]
CELL_DATA 6144 
SCALARS Pressure double 1 
LOOKUP_TABLE default 

    3.4891495906791401E+00 
    3.3907507777505765E+00 
    3.3749030133717719E+00 
    3.3907537317738732E+00 
    3.3299038514400476E+00 
    3.2890585378730455E+00 
    3.3108351710951918E+00 
    3.3403959037517743E+00 
    3.3299111276450897E+00 
    3.3404032770173737E+00 
    3.3108525639416069E+00 
    3.2890656238718590E+00 
    3.2686042963778243E+00 
    3.2871424756730061E+00 
    3.2680325587147889E+00 
    3.2550518513971136E+00 
    3.2872793369209425E+00 
    3.2687784071314434E+00 
    3.2555789823335624E+00 
    3.2684602990811884E+00 
    3.2425257553637410E+00 
    3.2555904255175778E+00 
    3.2429479650239816E+00 
    3.2275647454402239E+00 
    3.2409950447695000E+00 
    3.2373868713628577E+00 
    3.2195846541049233E+00 
    3.2162239371305432E+00 
    3.2287591765696200E+00 
    3.2155190688342952E+00 
    3.2044608168113964E+00 
    3.2149122808287469E+00 
    3.1951896731054243E+00 
    3.2046673347363650E+00 
    3.1924326473448339E+00 
    3.1771465012558320E+00 
    3.1672402689856476E+00 
    3.1822124860253753E+00 
    3.1740455411538995E+00 
    3.1624515043809973E+00 
    3.1923548408543794E+00 
    3.1982706606391615E+00 
    3.1820605428273496E+00 
    3.1805973230087905E+00 
    3.1583331015967735E+00 
    3.1699846665700941E+00 
    3.1684317602986938E+00 
    3.1537433228390608E+00 
    3.1499297412173930E+00 
    3.1491301434255070E+00 
    3.1369139882537098E+00 
    3.1342241190358733E+00 
    3.1461809802702705E+00 
    3.1406198752001853E+00 
    3.1296192112129662E+00 
    3.1353710641433281E+00 
    3.1201466468011758E+00 
    3.1273425832557460E+00 
    3.1189256369730245E+00 
    3.1071652175471614E+00 
    3.1001160595079722E+00 
    3.1119741808014072E+00 
    3.1071225544770003E+00 
    3.0977568703516036E+00 
    3.1216186629460547E+00 
    3.1295053455193136E+00 
    3.1169059451463710E+00 
    3.1133978196843533E+00 
    3.0958139425170743E+00 
    3.1053090234590091E+00 
    3.1059248477908321E+00 
    3.0937849128858939E+00 
    3.0874098753404371E+00 
    3.0875508835215371E+00 
    3.0777902798702677E+00 
    3.0751099955877117E+00 
    3.0859575196029878E+00 
    3.0821416196073077E+00 
    3.0721043517232034E+00 
    3.0767332999453076E+00 
    3.0636576715447883E+00 
    3.0696703871184225E+00 
    3.0628390022688952E+00 
    3.0529468228115593E+00 
    3.0470649058465495E+00 
    3.0574246466878985E+00 
    3.0536101057049660E+00 
    3.0452301545970215E+00 
    3.0660351470991820E+00 
    3.0736718888523420E+00 
    3.0631226740862054E+00 
    3.0593959008238714E+00 
    3.0437097327625766E+00 
    3.0522335729869581E+00 
    3.0529502255366956E+00 
    3.0422284742680774E+00 
    3.0359728691274412E+00 
    3.0360502638672004E+00 
    3.0274997411482563E+00 
    3.0252881586723093E+00 
    3.0349055416555237E+00 
    3.0324662443297141E+00 
    3.0234544598433524E+00 
    3.0268463505182575E+00 
    3.0153005526777044E+00 
    3.0206693151692905E+00 
    3.0147946778101558E+00 
    3.0058496157438421E+00 
    3.0006017299717667E+00 
    3.0099647044064772E+00 
    3.0066987008148236E+00 
    2.9990880325090807E+00 
    3.0181713747070509E+00 
    3.0254726802047793E+00 
    3.0158813323347715E+00 
    3.0121378436651471E+00 
    2.9981489661390874E+00 
    3.0058926333955047E+00 
    3.0073231616919101E+00 
    2.9976024310303555E+00 
    2.9905709946480119E+00 
    2.9906676925906481E+00 
    2.9828798625206474E+00 
    2.9808385411759910E+00 
    2.9897950379595355E+00 
    2.9876257493665053E+00 
    2.9790508588997135E+00 
    2.9823610792244382E+00 
    2.9717503377314269E+00 
    2.9767346129749126E+00 
    2.9713389672371067E+00 
    2.9631421037169359E+00 
    2.9583574060647160E+00 
    2.9670091479193994E+00 
    2.9641378984976003E+00 
    2.9570560130750434E+00 
    2.9743543645933124E+00 
    2.9813416950622234E+00 
    2.9727357733056392E+00 
    2.9691324477505003E+00 
    2.9562567200828358E+00 
    2.9634021112777722E+00 
    2.9648723790610760E+00 
    2.9558861687258404E+00 
    2.9490859121975830E+00 
    2.9492349561305495E+00 
    2.9419938807333854E+00 
    2.9400828621955073E+00 
    2.9485059948858940E+00 
    2.9466627272243286E+00 
    2.9386956585065280E+00 
    2.9415677259977704E+00 
    2.9316516494751981E+00 
    2.9362936837142817E+00 
    2.9313659593318517E+00 
    2.9236455101944459E+00 
    2.9191974564225251E+00 
    2.9273587313999494E+00 
    2.9246465216108000E+00 
    2.9180365302026714E+00 
    2.9343612220890587E+00 
    2.9408749394123386E+00 
    2.9327935966447836E+00 
    2.9293813633220789E+00 
    2.9173536558376982E+00 
    2.9240035358083682E+00 
    2.9254478325349340E+00 
    2.9170683258628785E+00 
    2.9106019019817531E+00 
    2.9108050542653467E+00 
    2.9041340520154924E+00 
    2.9023091692197691E+00 
    2.9101261953716588E+00 
    2.9083338123850790E+00 
    2.9008189392068169E+00 
    2.9036060295810060E+00 
    2.8944880369443786E+00 
    2.8988215206550572E+00 
    2.8943615791392312E+00 
    2.8871781440167936E+00 
    2.8829349178768973E+00 
    2.8905964698727074E+00 
    2.8875786312426470E+00 
    2.8813410350500814E+00 
    2.8968316336729503E+00 
    2.9029401893612343E+00 
    2.8954358791113686E+00 
    2.8922006757932284E+00 
    2.8806318803174045E+00 
    2.8868888871829914E+00 
    2.8884740729008431E+00 
    2.8805766961310209E+00 
    2.8746405622061437E+00 
    2.8747705416749665E+00 
    2.8685798530325353E+00 
    2.8668963194500856E+00 
    2.8741101872377826E+00 
    2.8724331544776347E+00 
    2.8653847900691156E+00 
    2.8680473401434030E+00 
    2.8596017706572492E+00 
    2.8635452838977251E+00 
    2.8593154465701263E+00 
    2.8527566575513719E+00 
    2.8488645475190428E+00 
    2.8558628345475494E+00 
    2.8533932146510121E+00 
    2.8476512815869586E+00 
    2.8616759004479975E+00 
    2.8674114617499464E+00 
    2.8604898930795781E+00 
    2.8574774005060899E+00 
    2.8470035508214631E+00 
    2.8528207548207978E+00 
    2.8540607317147555E+00 
    2.8467059968021036E+00 
    2.8412550664980873E+00 
    2.8413226492190127E+00 
    2.8355192813200376E+00 
    2.8340606662755210E+00 
    2.8407244533603353E+00 
    2.8391742036368730E+00 
    2.8327935654288749E+00 
    2.8351458638406055E+00 
    2.8273561831096297E+00 
    2.8309996152444405E+00 
    2.8271397645353402E+00 
    2.8210447901349327E+00 
    2.8175043288086550E+00 
    2.8239018287775997E+00 
    2.8217085806274236E+00 
    2.8164654802102524E+00 
    2.8292746874940096E+00 
    2.8344567693457021E+00 
    2.8280484096755689E+00 
    2.8254083731151378E+00 
    2.8158501641124629E+00 
    2.8211838862415397E+00 
    2.8222001854546681E+00 
    2.8154929393459658E+00 
    2.8106421327968341E+00 
    2.8106940075560645E+00 
    2.8053660731326691E+00 
    2.8040553167494502E+00 
    2.8101078713531598E+00 
    2.8086158341566478E+00 
    2.8028289259238659E+00 
    2.8050069164140843E+00 
    2.7979945164862814E+00 
    2.8012720246257454E+00 
    2.7979031060685222E+00 
    2.7924251447623374E+00 
    2.7891676817286237E+00 
    2.7949599155412925E+00 
    2.7925694502338509E+00 
    2.7878687015258139E+00 
    2.7996617815761913E+00 
    2.8042758052219301E+00 
    2.7983834414968394E+00 
    2.7960019803736036E+00 
    2.7871892067003361E+00 
    2.7919144821477153E+00 
    2.7929599925648971E+00 
    2.7869000909871660E+00 
    2.7828698831456538E+00 
    2.7828335218634908E+00 
    2.7781408438858941E+00 
    2.7769868438151035E+00 
    2.7822290727895469E+00 
    2.7808044783633221E+00 
    2.7756736135411533E+00 
    2.7777406788349404E+00 
    2.7714841862712407E+00 
    2.7744186369495201E+00 
    2.7710845347788826E+00 
    2.7662246250861195E+00 
    2.7633293083481827E+00 
    2.7684192831682370E+00 
    2.7666855943066500E+00 
    2.7624870304347304E+00 
    2.7727425543697644E+00 
    2.7768075396382916E+00 
    2.7715769806632204E+00 
    2.7696019327530328E+00 
    2.7618490946700858E+00 
    2.7661633328089090E+00 
    2.7668209840422069E+00 
    2.7613457344548995E+00 
    2.7578614212567554E+00 
    2.7578835233009751E+00 
    2.7535641741471912E+00 
    2.7524525180836186E+00 
    2.7572490175198201E+00 
    2.7558242526608354E+00 
    2.7510884152567052E+00 
    2.7530850100581032E+00 
    2.7472006730298402E+00 
    2.7499881673069289E+00 
    2.7467947786851594E+00 
    2.7419346624453351E+00 
    2.7387908470263418E+00 
    2.7440932898442356E+00 
    2.7419238862054289E+00 
    2.7374596135661093E+00 
    2.7482883173453012E+00 
    2.7520505011789873E+00 
    2.7469243895842630E+00 
    2.7450288724571128E+00 
    2.7365876737687098E+00 
    2.7411746069175975E+00 
    2.7418989136846750E+00 
    2.7359623524478152E+00 
    2.7331777064783238E+00 
    2.7330741167655064E+00 
    2.7292713811547245E+00 
    2.7283585782442752E+00 
    2.7323486485443413E+00 
    2.7308088559530188E+00 
    2.7270502242448713E+00 
    2.7288280110212306E+00 
    2.7242504407783166E+00 
    2.7263400646481228E+00 
    2.7238633650334538E+00 
    2.7205724101276658E+00 
    2.7186180690673529E+00 
    2.7218439414335736E+00 
    2.7203714156444931E+00 
    2.7177787612687361E+00 
    2.7246372287183962E+00 
    2.7272478402241420E+00 
    2.7231937844110274E+00 
    2.7221616294504565E+00 
    2.7170213134022374E+00 
    2.7197331900558894E+00 
    2.7197512761150064E+00 
    2.7161410006232685E+00 
    2.7152631061663417E+00 
    2.7150516054865861E+00 
    2.7126871906390622E+00 
    2.7122739020776074E+00 
    2.7143976031508568E+00 
    2.7131330895647703E+00 
    2.7110724287178569E+00 
    2.7122900689999607E+00 
    2.7097958410714571E+00 
    2.7109370575480010E+00 
    2.7094707493961718E+00 
    2.7077427644186649E+00 
    2.7066071219029357E+00 
    2.7081687606152527E+00 
    2.7070086666276314E+00 
    2.7058016455085085E+00 
    2.7094606895311499E+00 
    2.7106199480479578E+00 
    2.7080078073832592E+00 
    2.7078122522957657E+00 
    2.7050080633216793E+00 
    2.7063233682767098E+00 
    2.7059165901785676E+00 
    2.7039703820421890E+00 
    2.7049464455739356E+00 
    2.7046193586055112E+00 
    2.7036714650417917E+00 
    2.7036626300103941E+00 
    2.7039687374256252E+00 
    2.7028787722930865E+00 
    2.7025374553914494E+00 
    2.7032816681052800E+00 
    2.7027763691244280E+00 
    2.7029913549169935E+00 
    2.7023707472901508E+00 
    2.7022056938714627E+00 
    2.7019777664785849E+00 
    2.7018043134582141E+00 
    2.7011788479941603E+00 
    2.7014061968707299E+00 
    2.7016273146601084E+00 
    2.7012959081028702E+00 
    2.7001953160613454E+00 
    2.7008773478021930E+00 
    2.7005190826784338E+00 
    2.7004961291399709E+00 
    2.6995449689059385E+00 
    2.6992304564517298E+00 
    3.2408621837743223E+00 
    3.2161193366842511E+00 
    3.2188428051248525E+00 
    3.2367928671019479E+00 
    3.1952037774277002E+00 
    3.1772236183245686E+00 
    3.1922800700095419E+00 
    3.2044499333084970E+00 
    3.2283774067369193E+00 
    3.2141943373869353E+00 
    3.2041505563797141E+00 
    3.2154987039810012E+00 
    3.1983944418112791E+00 
    3.1924267381171942E+00 
    3.1806568274891589E+00 
    3.1821650891019098E+00 
    3.1821767661505418E+00 
    3.1671936704056010E+00 
    3.1618701406088152E+00 
    3.1736108625360320E+00 
    3.1682483437412916E+00 
    3.1694600746745625E+00 
    3.1577806730516906E+00 
    3.1535192859636969E+00 
    3.1917914927143385E+00 
    3.1789094281720458E+00 
    3.1725318936234377E+00 
    3.1788247221379375E+00 
    3.1665830420273164E+00 
    3.1528348203385224E+00 
    3.1544879221256648E+00 
    3.1644562613901921E+00 
    3.1666561465139513E+00 
    3.1644603663434818E+00 
    3.1545439856821806E+00 
    3.1530020907792733E+00 
    3.1406025248425160E+00 
    3.1444502016394296E+00 
    3.1355612056177051E+00 
    3.1311101006536357E+00 
    3.1443808959195767E+00 
    3.1404520198719119E+00 
    3.1308365708863328E+00 
    3.1353941692466050E+00 
    3.1231539637581682E+00 
    3.1288733924591003E+00 
    3.1229056270332398E+00 
    3.1144701940074540E+00 
    3.1299889600249964E+00 
    3.1238567543694580E+00 
    3.1160001675332079E+00 
    3.1178037194768082E+00 
    3.1170010685824341E+00 
    3.1083106606759756E+00 
    3.1041944342998837E+00 
    3.1112698362423492E+00 
    3.1071219708409683E+00 
    3.1083461033252551E+00 
    3.1003491848306899E+00 
    3.0956214879679540E+00 
    3.0863832918316048E+00 
    3.0928853020782969E+00 
    3.0864761925665127E+00 
    3.0803831578226895E+00 
    3.0964335248440862E+00 
    3.0977599717191824E+00 
    3.0877723403423700E+00 
    3.0887924634639909E+00 
    3.0753554008397863E+00 
    3.0821711807983418E+00 
    3.0792139093618189E+00 
    3.0699404715339331E+00 
    3.0759004296791495E+00 
    3.0724950973730158E+00 
    3.0647726091986907E+00 
    3.0650243333511815E+00 
    3.0681571551532310E+00 
    3.0621206398628233E+00 
    3.0563095454810494E+00 
    3.0618004366235190E+00 
    3.0550306501813909E+00 
    3.0578553754366453E+00 
    3.0510949650365715E+00 
    3.0450223220531929E+00 
    3.0379127057877100E+00 
    3.0449787430812600E+00 
    3.0397916023677505E+00 
    3.0335170574851911E+00 
    3.0498032386259837E+00 
    3.0531985173037608E+00 
    3.0437611903125044E+00 
    3.0431270831784709E+00 
    3.0299412515775033E+00 
    3.0367833687278205E+00 
    3.0354515938034701E+00 
    3.0263017548589053E+00 
    3.0280472412378865E+00 
    3.0258806259705580E+00 
    3.0184712308587898E+00 
    3.0181029083144297E+00 
    3.0227272652621751E+00 
    3.0180644189735664E+00 
    3.0117102369166848E+00 
    3.0163068837090061E+00 
    3.0096305122123610E+00 
    3.0122993062843681E+00 
    3.0063925625448946E+00 
    3.0006086408197592E+00 
    2.9938341954074419E+00 
    3.0009355811539127E+00 
    2.9964369641167883E+00 
    2.9902161455566492E+00 
    3.0060397174725555E+00 
    3.0103021030824175E+00 
    3.0014781595885869E+00 
    3.0000596918733309E+00 
    2.9874128636061799E+00 
    2.9940957409312032E+00 
    2.9935213613969891E+00 
    2.9846906871314300E+00 
    2.9843949424799132E+00 
    2.9828202012303340E+00 
    2.9757878716776358E+00 
    2.9751339784899580E+00 
    2.9803297354007694E+00 
    2.9764680415524443E+00 
    2.9700030553259880E+00 
    2.9740618685592271E+00 
    2.9672743533397878E+00 
    2.9700524122965244E+00 
    2.9646630227070929E+00 
    2.9589356598157490E+00 
    2.9527655009046652E+00 
    2.9597146370023122E+00 
    2.9556885621787186E+00 
    2.9496335785691028E+00 
    2.9648610997730560E+00 
    2.9694066436879512E+00 
    2.9610766421208510E+00 
    2.9593556944000587E+00 
    2.9472660562606277E+00 
    2.9537285435356457E+00 
    2.9535248224060671E+00 
    2.9450581145685026E+00 
    2.9437923210265238E+00 
    2.9425254820436599E+00 
    2.9358604702805509E+00 
    2.9351184423232910E+00 
    2.9403911931579492E+00 
    2.9370140898017629E+00 
    2.9306445868799265E+00 
    2.9343358236881851E+00 
    2.9277724845228721E+00 
    2.9304585904211251E+00 
    2.9254626487397353E+00 
    2.9199914576180728E+00 
    2.9142610497720995E+00 
    2.9209082187184037E+00 
    2.9171773549157263E+00 
    2.9113981251103094E+00 
    2.9259301946448906E+00 
    2.9305098601525241E+00 
    2.9226327829430825E+00 
    2.9207965991028471E+00 
    2.9092826800173315E+00 
    2.9154377970546248E+00 
    2.9154260509255887E+00 
    2.9073379385113522E+00 
    2.9058111903580000E+00 
    2.9047038357883728E+00 
    2.8984153199655127E+00 
    2.8976456984334122E+00 
    2.9027895805800812E+00 
    2.8996699591260415E+00 
    2.8936267241900699E+00 
    2.8970951725750393E+00 
    2.8907188886486095E+00 
    2.8933699919366833E+00 
    2.8886136915205318E+00 
    2.8833524514711724E+00 
    2.8778975954799306E+00 
    2.8841901557183216E+00 
    2.8804738808616182E+00 
    2.8750316679211694E+00 
    2.8890800698884296E+00 
    2.8935589694208876E+00 
    2.8860427926400192E+00 
    2.8840813082932284E+00 
    2.8730805318297206E+00 
    2.8788342791880215E+00 
    2.8791315377548150E+00 
    2.8714798065460752E+00 
    2.8701053737247513E+00 
    2.8690768600267340E+00 
    2.8633759013233582E+00 
    2.8626098105079816E+00 
    2.8672713261066392E+00 
    2.8642743598787561E+00 
    2.8586398956147363E+00 
    2.8620462114102372E+00 
    2.8561195651666909E+00 
    2.8585669180798678E+00 
    2.8540072808165728E+00 
    2.8491709687637359E+00 
    2.8441232224348139E+00 
    2.8498515604950132E+00 
    2.8466144480064539E+00 
    2.8415861401577214E+00 
    2.8542970565713950E+00 
    2.8584566407069816E+00 
    2.8514526778673299E+00 
    2.8497281833479073E+00 
    2.8396960753464282E+00 
    2.8451162601304048E+00 
    2.8451101702546033E+00 
    2.8379486090310801E+00 
    2.8368784814971013E+00 
    2.8358720120472354E+00 
    2.8305936782752510E+00 
    2.8299281473512474E+00 
    2.8341166812133092E+00 
    2.8312340355590555E+00 
    2.8261178413838843E+00 
    2.8293566716615146E+00 
    2.8240095638637470E+00 
    2.8262129265129010E+00 
    2.8219511359388840E+00 
    2.8176355032228235E+00 
    2.8129237602504555E+00 
    2.8179692793464799E+00 
    2.8149162565387749E+00 
    2.8104933939159151E+00 
    2.8219382195615070E+00 
    2.8257159529579816E+00 
    2.8191714357777307E+00 
    2.8176996879389851E+00 
    2.8086223942718163E+00 
    2.8134691744508578E+00 
    2.8133487489406370E+00 
    2.8068058881746256E+00 
    2.8064274186970102E+00 
    2.8055172041341501E+00 
    2.8006828277868436E+00 
    2.8000683093410372E+00 
    2.8037346014894164E+00 
    2.8007452846564536E+00 
    2.7961632359005475E+00 
    2.7993458995705520E+00 
    2.7945706966615749E+00 
    2.7964451861908945E+00 
    2.7925030806252802E+00 
    2.7887472094863961E+00 
    2.7843735291289295E+00 
    2.7888710500341563E+00 
    2.7858910685485911E+00 
    2.7818953004769909E+00 
    2.7923158537634043E+00 
    2.7955347208729693E+00 
    2.7894687591792460E+00 
    2.7882987862822275E+00 
    2.7799625757785518E+00 
    2.7843648225329387E+00 
    2.7840176470980564E+00 
    2.7780447422137553E+00 
    2.7785216518422482E+00 
    2.7773494467420834E+00 
    2.7731132876463840E+00 
    2.7728602118136605E+00 
    2.7755509223999812E+00 
    2.7727436936479526E+00 
    2.7689450486445293E+00 
    2.7718450172214917E+00 
    2.7680303724869697E+00 
    2.7695203647746167E+00 
    2.7659033393426959E+00 
    2.7627562332454532E+00 
    2.7586490275961086E+00 
    2.7624267735142571E+00 
    2.7596407883013314E+00 
    2.7562247945803695E+00 
    2.7652789688018529E+00 
    2.7678628497396565E+00 
    2.7623921459398337E+00 
    2.7616252309436682E+00 
    2.7542349412993232E+00 
    2.7581214369760869E+00 
    2.7575626311170041E+00 
    2.7521606068679669E+00 
    2.7534674429748636E+00 
    2.7522596505560739E+00 
    2.7482429936113846E+00 
    2.7480654166967988E+00 
    2.7503341614578982E+00 
    2.7473296162007661E+00 
    2.7437585363494859E+00 
    2.7467987167440731E+00 
    2.7430751464243768E+00 
    2.7444728464552610E+00 
    2.7406765588951356E+00 
    2.7373351377531465E+00 
    2.7329781631216070E+00 
    2.7370261399433766E+00 
    2.7339310273264270E+00 
    2.7302953290526428E+00 
    2.7400710812563815E+00 
    2.7424976368331615E+00 
    2.7369624215423927E+00 
    2.7361662349109568E+00 
    2.7281336856111560E+00 
    2.7322193618937574E+00 
    2.7316482294149660E+00 
    2.7258316654880819E+00 
    2.7280611839800160E+00 
    2.7265757505774904E+00 
    2.7233731205247431E+00 
    2.7236643346011453E+00 
    2.7246201445995739E+00 
    2.7216936958303921E+00 
    2.7193922719710790E+00 
    2.7219969235782200E+00 
    2.7200591125249671E+00 
    2.7206343356012375E+00 
    2.7177736284629517E+00 
    2.7162960065867230E+00 
    2.7132080985047824E+00 
    2.7149407578867253E+00 
    2.7125016902523069E+00 