# vtk DataFile Version 2.0
Pressure Field Data 
ASCII 
DATASET UNSTRUCTURED_GRID 

POINTS 6273 double 

    0.0000000000000000E+00     0.0000000000000000E+00     0.0000000000000000E+00 
    1.0000000000000000E+00     0.0000000000000000E+00     0.0000000000000000E+00 
    1.0000000000000000E+00     1.0000000000000000E+00     0.0000000000000000E+00 
    0.0000000000000000E+00     1.0000000000000000E+00     0.0000000000000000E+00 
    1.5624999999970249E-02     0.0000000000000000E+00     0.0000000000000000E+00 
    3.1249999999940652E-02     0.0000000000000000E+00     0.0000000000000000E+00 
    4.6874999999905617E-02     0.0000000000000000E+00     0.0000000000000000E+00 
    6.2499999999870597E-02     0.0000000000000000E+00     0.0000000000000000E+00 
    7.8124999999846401E-02     0.0000000000000000E+00     0.0000000000000000E+00 
    9.3749999999822212E-02     0.0000000000000000E+00     0.0000000000000000E+00 
    1.0937499999979799E-01     0.0000000000000000E+00     0.0000000000000000E+00 
    1.2499999999977381E-01     0.0000000000000000E+00     0.0000000000000000E+00 
    1.4062499999972811E-01     0.0000000000000000E+00     0.0000000000000000E+00 
    1.5624999999968239E-01     0.0000000000000000E+00     0.0000000000000000E+00 
    1.7187499999963671E-01     0.0000000000000000E+00     0.0000000000000000E+00 
    1.8749999999959110E-01     0.0000000000000000E+00     0.0000000000000000E+00 
    2.0312499999954539E-01     0.0000000000000000E+00     0.0000000000000000E+00 
    2.1874999999949971E-01     0.0000000000000000E+00     0.0000000000000000E+00 
    2.3437499999945391E-01     0.0000000000000000E+00     0.0000000000000000E+00 
    2.4999999999940831E-01     0.0000000000000000E+00     0.0000000000000000E+00 
    2.6562499999936218E-01     0.0000000000000000E+00     0.0000000000000000E+00 
    2.8124999999931621E-01     0.0000000000000000E+00     0.0000000000000000E+00 
    2.9687499999927008E-01     0.0000000000000000E+00     0.0000000000000000E+00 
    3.1249999999922412E-01     0.0000000000000000E+00     0.0000000000000000E+00 
    3.2812499999917810E-01     0.0000000000000000E+00     0.0000000000000000E+00 
    3.4374999999913203E-01     0.0000000000000000E+00     0.0000000000000000E+00 
    3.5937499999908601E-01     0.0000000000000000E+00     0.0000000000000000E+00 
    3.7499999999903999E-01     0.0000000000000000E+00     0.0000000000000000E+00 
    3.9062499999899403E-01     0.0000000000000000E+00     0.0000000000000000E+00 
    4.0624999999894801E-01     0.0000000000000000E+00     0.0000000000000000E+00 
    4.2187499999890188E-01     0.0000000000000000E+00     0.0000000000000000E+00 
    4.3749999999885592E-01     0.0000000000000000E+00     0.0000000000000000E+00 
    4.5312499999880979E-01     0.0000000000000000E+00     0.0000000000000000E+00 
    4.6874999999876382E-01     0.0000000000000000E+00     0.0000000000000000E+00 
    4.8437499999871780E-01     0.0000000000000000E+00     0.0000000000000000E+00 
    4.9999999999867167E-01     0.0000000000000000E+00     0.0000000000000000E+00 
    5.1562499999871325E-01     0.0000000000000000E+00     0.0000000000000000E+00 
    5.3124999999875477E-01     0.0000000000000000E+00     0.0000000000000000E+00 
    5.4687499999879630E-01     0.0000000000000000E+00     0.0000000000000000E+00 
    5.6249999999883782E-01     0.0000000000000000E+00     0.0000000000000000E+00 
    5.7812499999887934E-01     0.0000000000000000E+00     0.0000000000000000E+00 
    5.9374999999892086E-01     0.0000000000000000E+00     0.0000000000000000E+00 
    6.0937499999896239E-01     0.0000000000000000E+00     0.0000000000000000E+00 
    6.2499999999900380E-01     0.0000000000000000E+00     0.0000000000000000E+00 
    6.4062499999904521E-01     0.0000000000000000E+00     0.0000000000000000E+00 
    6.5624999999908673E-01     0.0000000000000000E+00     0.0000000000000000E+00 
    6.7187499999912825E-01     0.0000000000000000E+00     0.0000000000000000E+00 
    6.8749999999916978E-01     0.0000000000000000E+00     0.0000000000000000E+00 
    7.0312499999921130E-01     0.0000000000000000E+00     0.0000000000000000E+00 
    7.1874999999925282E-01     0.0000000000000000E+00     0.0000000000000000E+00 
    7.3437499999929434E-01     0.0000000000000000E+00     0.0000000000000000E+00 
    7.4999999999933586E-01     0.0000000000000000E+00     0.0000000000000000E+00 
    7.6562499999937739E-01     0.0000000000000000E+00     0.0000000000000000E+00 
    7.8124999999941891E-01     0.0000000000000000E+00     0.0000000000000000E+00 
    7.9687499999946043E-01     0.0000000000000000E+00     0.0000000000000000E+00 
    8.1249999999950195E-01     0.0000000000000000E+00     0.0000000000000000E+00 
    8.2812499999954348E-01     0.0000000000000000E+00     0.0000000000000000E+00 
    8.4374999999958500E-01     0.0000000000000000E+00     0.0000000000000000E+00 
    8.5937499999962652E-01     0.0000000000000000E+00     0.0000000000000000E+00 
    8.7499999999966793E-01     0.0000000000000000E+00     0.0000000000000000E+00 
    8.9062499999970934E-01     0.0000000000000000E+00     0.0000000000000000E+00 
    9.0624999999975087E-01     0.0000000000000000E+00     0.0000000000000000E+00 
    9.2187499999979239E-01     0.0000000000000000E+00     0.0000000000000000E+00 
    9.3749999999983391E-01     0.0000000000000000E+00     0.0000000000000000E+00 
    9.5312499999987543E-01     0.0000000000000000E+00     0.0000000000000000E+00 
    9.6874999999991696E-01     0.0000000000000000E+00     0.0000000000000000E+00 
    9.8437499999995848E-01     0.0000000000000000E+00     0.0000000000000000E+00 
    1.0000000000000000E+00     1.5624999999970249E-02     0.0000000000000000E+00 
    1.0000000000000000E+00     3.1249999999940652E-02     0.0000000000000000E+00 
    1.0000000000000000E+00     4.6874999999905617E-02     0.0000000000000000E+00 
    1.0000000000000000E+00     6.2499999999870597E-02     0.0000000000000000E+00 
    1.0000000000000000E+00     7.8124999999846401E-02     0.0000000000000000E+00 
    1.0000000000000000E+00     9.3749999999822212E-02     0.0000000000000000E+00 
    1.0000000000000000E+00     1.0937499999979799E-01     0.0000000000000000E+00 
    1.0000000000000000E+00     1.2499999999977381E-01     0.0000000000000000E+00 
    1.0000000000000000E+00     1.4062499999972811E-01     0.0000000000000000E+00 
    1.0000000000000000E+00     1.5624999999968239E-01     0.0000000000000000E+00 
    1.0000000000000000E+00     1.7187499999963671E-01     0.0000000000000000E+00 
    1.0000000000000000E+00     1.8749999999959110E-01     0.0000000000000000E+00 
    1.0000000000000000E+00     2.0312499999954539E-01     0.0000000000000000E+00 
    1.0000000000000000E+00     2.1874999999949971E-01     0.0000000000000000E+00 
    1.0000000000000000E+00     2.3437499999945391E-01     0.0000000000000000E+00 
    1.0000000000000000E+00     2.4999999999940831E-01     0.0000000000000000E+00 
    1.0000000000000000E+00     2.6562499999936218E-01     0.0000000000000000E+00 
    1.0000000000000000E+00     2.8124999999931621E-01     0.0000000000000000E+00 
    1.0000000000000000E+00     2.9687499999927008E-01     0.0000000000000000E+00 
    1.0000000000000000E+00     3.1249999999922412E-01     0.0000000000000000E+00 
    1.0000000000000000E+00     3.2812499999917810E-01     0.0000000000000000E+00 
    1.0000000000000000E+00     3.4374999999913203E-01     0.0000000000000000E+00 
    1.0000000000000000E+00     3.5937499999908601E-01     0.0000000000000000E+00 
    1.0000000000000000E+00     3.7499999999903999E-01     0.0000000000000000E+00 
    1.0000000000000000E+00     3.9062499999899403E-01     0.0000000000000000E+00 
    1.0000000000000000E+00     4.0624999999894801E-01     0.0000000000000000E+00 
    1.0000000000000000E+00     4.2187499999890188E-01     0.0000000000000000E+00 
    1.0000000000000000E+00     4.3749999999885592E-01     0.0000000000000000E+00 
    1.0000000000000000E+00     4.5312499999880979E-01     0.0000000000000000E+00 
    1.0000000000000000E+00     4.6874999999876382E-01     0.0000000000000000E+00 
    1.0000000000000000E+00     4.8437499999871780E-01     0.0000000000000000E+00 
    1.0000000000000000E+00     4.9999999999867167E-01     0.0000000000000000E+00 
    1.0000000000000000E+00     5.1562499999871325E-01     0.0000000000000000E+00 
    1.0000000000000000E+00     5.3124999999875477E-01     0.0000000000000000E+00 
    1.0000000000000000E+00     5.4687499999879630E-01     0.0000000000000000E+00 
    1.0000000000000000E+00     5.6249999999883782E-01     0.0000000000000000E+00 
    1.0000000000000000E+00     5.7812499999887934E-01     0.0000000000000000E+00 
    1.0000000000000000E+00     5.9374999999892086E-01     0.0000000000000000E+00 
    1.0000000000000000E+00     6.0937499999896239E-01     0.0000000000000000E+00 
    1.0000000000000000E+00     6.2499999999900380E-01     0.0000000000000000E+00 
    1.0000000000000000E+00     6.4062499999904521E-01     0.0000000000000000E+00 
    1.0000000000000000E+00     6.5624999999908673E-01     0.0000000000000000E+00 
    1.0000000000000000E+00     6.7187499999912825E-01     0.0000000000000000E+00 
    1.0000000000000000E+00     6.8749999999916978E-01     0.0000000000000000E+00 
    1.0000000000000000E+00     7.0312499999921130E-01     0.0000000000000000E+00 
    1.0000000000000000E+00     7.1874999999925282E-01     0.0000000000000000E+00 
    1.0000000000000000E+00     7.3437499999929434E-01     0.0000000000000000E+00 
    1.0000000000000000E+00     7.4999999999933586E-01     0.0000000000000000E+00 
    1.0000000000000000E+00     7.6562499999937739E-01     0.0000000000000000E+00 
    1.0000000000000000E+00     7.8124999999941891E-01     0.0000000000000000E+00 
    1.0000000000000000E+00     7.9687499999946043E-01     0.0000000000000000E+00 
    1.0000000000000000E+00     8.1249999999950195E-01     0.0000000000000000E+00 
    1.0000000000000000E+00     8.2812499999954348E-01     0.0000000000000000E+00 
[...]
CELL_DATA 6144 
SCALARS Pressure double 1 
LOOKUP_TABLE default 

    3.4336442894221948E+00 
    3.3353252214460043E+00 
    3.3194983010484829E+00 
    3.3353282557015351E+00 
    3.2746229754643208E+00 
    3.2339551568417662E+00 
    3.2556268730974862E+00 
    3.2850761316565160E+00 
    3.2746304662084169E+00 
    3.2850836261599907E+00 
    3.2556445072135798E+00 
    3.2339625831274241E+00 
    3.2136306827758303E+00 
    3.2320554328088109E+00 
    3.2130600906163855E+00 
    3.2001726772896357E+00 
    3.2321910381663401E+00 
    3.2138033362271545E+00 
    3.2006955948882827E+00 
    3.2134845415691058E+00 
    3.1877469408924894E+00 
    3.2007036135534270E+00 
    3.1881653457275676E+00 
    3.1729272892898459E+00 
    3.1862362649834184E+00 
    3.1826602282779226E+00 
    3.1650453591775092E+00 
    3.1617259679318654E+00 
    3.1741159043888505E+00 
    3.1610235713120383E+00 
    3.1501079806885408E+00 
    3.1604259643383386E+00 
    3.1409706213890209E+00 
    3.1503134083778574E+00 
    3.1382536138429518E+00 
    3.1232173095954723E+00 
    3.1134945640366891E+00 
    3.1281957814365020E+00 
    3.1201673225451731E+00 
    3.1087951066327939E+00 
    3.1381750776656196E+00 
    3.1440006567848169E+00 
    3.1280387384122688E+00 
    3.1266036808693132E+00 
    3.1047558880630999E+00 
    3.1161768334980016E+00 
    3.1146482504716166E+00 
    3.1002558288661741E+00 
    3.0965365947774739E+00 
    3.0957539393209292E+00 
    3.0838199875566517E+00 
    3.0811971718877329E+00 
    3.0928692364064516E+00 
    3.0874348205297832E+00 
    3.0767055632626392E+00 
    3.0823137615792300E+00 
    3.0674864939264284E+00 
    3.0744892896296983E+00 
    3.0662984047488289E+00 
    3.0548768065687897E+00 
    3.0480451593213806E+00 
    3.0595434022372605E+00 
    3.0548325666125118E+00 
    3.0457579855302059E+00 
    3.0689150904997038E+00 
    3.0765907093292686E+00 
    3.0643285971108916E+00 
    3.0609223667026497E+00 
    3.0438751042743579E+00 
    3.0530713498572144E+00 
    3.0536653909204272E+00 
    3.0419080172167559E+00 
    3.0357509202446544E+00 
    3.0358867647467980E+00 
    3.0264642373654702E+00 
    3.0238806522595389E+00 
    3.0343468943951515E+00 
    3.0306612892770288E+00 
    3.0209826631683967E+00 
    3.0254445465481372E+00 
    3.0128543422488820E+00 
    3.0186397779901766E+00 
    3.0120663344567133E+00 
    3.0025643692783546E+00 
    2.9969243914812234E+00 
    3.0068625846217043E+00 
    3.0031985477084175E+00 
    2.9951641397360365E+00 
    3.0151384866595010E+00 
    3.0224897931751178E+00 
    3.0123342932851052E+00 
    3.0087536840893909E+00 
    2.9937057258231921E+00 
    3.0018761456449554E+00 
    3.0025617635709456E+00 
    2.9922834290684510E+00 
    2.9863029831884442E+00 
    2.9863764502075827E+00 
    2.9782042210655484E+00 
    2.9760933468069783E+00 
    2.9852805635193369E+00 
    2.9829462892033325E+00 
    2.9743408232284732E+00 
    2.9775795880951077E+00 
    2.9665683919512316E+00 
    2.9716856203856405E+00 
    2.9660854327163828E+00 
    2.9575713239369952E+00 
    2.9525832443260858E+00 
    2.9614853174115350E+00 
    2.9583756577659321E+00 
    2.9511428682647396E+00 
    2.9693006273767995E+00 
    2.9762630132571464E+00 
    2.9671144165742080E+00 
    2.9635508150300236E+00 
    2.9502483475786696E+00 
    2.9576066919885919E+00 
    2.9589644917537377E+00 
    2.9497251990004600E+00 
    2.9430604788571273E+00 
    2.9431510287772156E+00 
    2.9357693712417143E+00 
    2.9338372633403145E+00 
    2.9423216038818167E+00 
    2.9402619216399013E+00 
    2.9321410750731105E+00 
    2.9352768312146411E+00 
    2.9252389701272885E+00 
    2.9299518518090326E+00 
    2.9248484531854277E+00 
    2.9171072008105248E+00 
    2.9125932327358548E+00 
    2.9207559980413964E+00 
    2.9180419671596236E+00 
    2.9113627564741562E+00 
    2.9276952340594575E+00 
    2.9343034745593535E+00 
    2.9261585542895392E+00 
    2.9227567214285486E+00 
    2.9106049820700370E+00 
    2.9173439272782913E+00 
    2.9187271687289598E+00 
    2.9102491848358794E+00 
    2.9038565874768016E+00 
    2.9039948009614491E+00 
    2.8971813714401571E+00 
    2.8953862308764093E+00 
    2.9033050885741920E+00 
    2.9015647992580043E+00 
    2.8940756507256289E+00 
    2.8967784259038400E+00 
    2.8874659363019806E+00 
    2.8918235189302126E+00 
    2.8871949440738263E+00 
    2.8799554814168693E+00 
    2.8757876645617735E+00 
    2.8834328626037129E+00 
    2.8808854470014587E+00 
    2.8746954902591924E+00 
    2.8899998935451019E+00 
    2.8961135489284175E+00 
    2.8885180960536658E+00 
    2.8853221798884183E+00 
    2.8740494471736646E+00 
    2.8802773030128739E+00 
    2.8816236799854922E+00 
    2.8737721088412713E+00 
    2.8677441246363564E+00 
    2.8679305774206032E+00 
    2.8616969763253923E+00 
    2.8599955872596379E+00 
    2.8672902702179908E+00 
    2.8656063238818632E+00 
    2.8585939235856581E+00 
    2.8612003348461101E+00 
    2.8526986292198719E+00 
    2.8567374518918802E+00 
    2.8525760973987166E+00 
    2.8458882290337888E+00 
    2.8419391355515309E+00 
    2.8490641366962479E+00 
    2.8462482401445817E+00 
    2.8404498531265809E+00 
    2.8548683294877408E+00 
    2.8605575615997534E+00 
    2.8535513903940961E+00 
    2.8505466658884098E+00 
    2.8397803712533150E+00 
    2.8455981112969551E+00 
    2.8470617974503920E+00 
    2.8397131141774099E+00 
    2.8342329906280566E+00 
    2.8343481948248517E+00 
    2.8286059582337968E+00 
    2.8270494259818943E+00 
    2.8337263817860787E+00 
    2.8321567653036333E+00 
    2.8256324124287597E+00 
    2.8281066308314426E+00 
    2.8202943061349530E+00 
    2.8239404782035615E+00 
    2.8200223437337817E+00 
    2.8139654257450566E+00 
    2.8103708876730820E+00 
    2.8168245422779901E+00 
    2.8145337541434814E+00 
    2.8092407502715666E+00 
    2.8221898775920735E+00 
    2.8274853041075185E+00 
    2.8210689401561342E+00 
    2.8182987222183269E+00 
    2.8086280253751794E+00 
    2.8139929109050081E+00 
    2.8151201276528908E+00 
    2.8083299243520403E+00 
    2.8033596886202119E+00 
    2.8034136324725609E+00 
    2.7980778479494108E+00 
    2.7967434397487092E+00 
    2.8028497476692356E+00 
    2.8014033749221636E+00 
    2.7955555901217592E+00 
    2.7977263523221096E+00 
    2.7905908739412300E+00 
    2.7939266797255762E+00 
    2.7903823848274150E+00 
    2.7848109268957018E+00 
    2.7815731389768446E+00 
    2.7874085918023024E+00 
    2.7853880287959512E+00 
    2.7806080175172987E+00 
    2.7923139048579779E+00 
    2.7970451251653250E+00 
    2.7911550050699021E+00 
    2.7887598502898725E+00 
    2.7800234359704059E+00 
    2.7848902060508429E+00 
    2.7857931791090329E+00 
    2.7796621740510794E+00 
    2.7753198821060177E+00 
    2.7753543227242550E+00 
    2.7705146470606832E+00 
    2.7693338259856461E+00 
    2.7748007400756989E+00 
    2.7734134236241599E+00 
    2.7681838862661312E+00 
    2.7701754676236527E+00 
    2.7638439774968857E+00 
    2.7668009389604760E+00 
    2.7637445484844640E+00 
    2.7588157340771380E+00 
    2.7558814465735746E+00 
    2.7610742125678565E+00 
    2.7588996802695678E+00 
    2.7546897057501334E+00 
    2.7652968491415639E+00 
    2.7694394692766156E+00 
    2.7640879107818992E+00 
    2.7619732371575183E+00 
    2.7540436899364149E+00 
    2.7582823389249982E+00 
    2.7591820159048246E+00 
    2.7537281822671713E+00 
    2.7502465664812994E+00 
    2.7501934573140239E+00 
    2.7460202671742349E+00 
    2.7450115865314269E+00 
    2.7496214682527649E+00 
    2.7483031987534550E+00 
    2.7437877581622461E+00 
    2.7456442640977801E+00 
    2.7401519163840553E+00 
    2.7427219497652238E+00 
    2.7397746455230716E+00 
    2.7355492150193750E+00 
    2.7330376067157887E+00 
    2.7374199998094033E+00 
    2.7358695830467532E+00 
    2.7322654494519325E+00 
    2.7411683142800505E+00 
    2.7446991222386448E+00 
    2.7400536462591543E+00 
    2.7383795106619262E+00 
    2.7316533538431997E+00 
    2.7353652817847642E+00 
    2.7358693185927625E+00 
    2.7311272579567674E+00 
    2.7283708050707043E+00 
    2.7283564206129971E+00 
    2.7247474615923122E+00 
    2.7238568845997064E+00 
    2.7277693506170699E+00 
    2.7264996035070088E+00 
    2.7226534300996232E+00 
    2.7243204932495217E+00 
    2.7196429626664882E+00 
    2.7218234655126232E+00 
    2.7192868266178136E+00 
    2.7156664910155981E+00 
    2.7133884651679487E+00 
    2.7172107874172680E+00 
    2.7156006821652268E+00 
    2.7124489759945605E+00 
    2.7203781060009704E+00 
    2.7233019229779054E+00 
    2.7192005367309999E+00 
    2.7178375761571747E+00 
    2.7118018089429050E+00 
    2.7150415534370320E+00 
    2.7154684669173590E+00 
    2.7112708099571661E+00 
    2.7091634275683956E+00 
    2.7090878221123864E+00 
    2.7057362230697697E+00 
    2.7049080214445187E+00 
    2.7084629762622319E+00 
    2.7070943562462197E+00 
    2.7034935455700690E+00 
    2.7052739013754983E+00 
    2.7006575992023731E+00 
    2.7027947495675813E+00 
    2.7001777121655239E+00 
    2.6968461879280827E+00 
    2.6949791340384661E+00 
    2.6981153409319516E+00 
    2.6966776964941368E+00 
    2.6942144217537858E+00 
    2.7010239982934174E+00 
    2.7038246672804513E+00 
    2.6995904635257970E+00 
    2.6984657246191306E+00 
    2.6935136548703622E+00 
    2.6960793242730667E+00 
    2.6960820555650393E+00 
    2.6926699574003217E+00 
    2.6918314325920036E+00 
    2.6916538929903453E+00 
    2.6894465262670773E+00 
    2.6890570281711428E+00 
    2.6910531339484707E+00 
    2.6898711206118273E+00 
    2.6879473478278699E+00 
    2.6890812674872322E+00 
    2.6867532870466935E+00 
    2.6878173391747016E+00 
    2.6864526630402747E+00 
    2.6848429101799738E+00 
    2.6837860968168141E+00 
    2.6852406113570524E+00 
    2.6841604900682716E+00 
    2.6830365158580469E+00 
    2.6864449262273147E+00 
    2.6875237190313297E+00 
    2.6850902899957836E+00 
    2.6849090741201249E+00 
    2.6822977530717416E+00 
    2.6835223948881493E+00 
    2.6831430355403487E+00 
    2.6813313079133194E+00 
    2.6822403078399204E+00 
    2.6819358969847582E+00 
    2.6810535494027641E+00 
    2.6810453169945205E+00 
    2.6813302712627438E+00 
    2.6803155398509495E+00 
    2.6799979521959942E+00 
    2.6806907126317592E+00 
    2.6802203736588122E+00 
    2.6804204857635918E+00 
    2.6798428116131707E+00 
    2.6796891834163188E+00 
    2.6794770277343152E+00 
    2.6793155679114680E+00 
    2.6787333829585060E+00 
    2.6789450100747074E+00 
    2.6791507598938025E+00 
    2.6788420849023464E+00 
    2.6778177846146112E+00 
    2.6784527075588964E+00 
    2.6781192957018334E+00 
    2.6780979091439079E+00 
    2.6772125548047088E+00 
    2.6769198807687755E+00 
    3.1861050614856237E+00 
    3.1616224814010847E+00 
    3.1643124013218205E+00 
    3.1820728725205236E+00 
    3.1409845407900177E+00 
    3.1232932321652749E+00 
    3.1381034073738929E+00 
    3.1500989821077954E+00 
    3.1737388470970278E+00 
    3.1597170447451846E+00 
    3.1498019206845891E+00 
    3.1610037663055852E+00 
    3.1441227174992985E+00 
    3.1382457188374562E+00 
    3.1266625767502942E+00 
    3.1281418011180468E+00 
    3.1281608307535924E+00 
    3.1134489791264399E+00 
    3.1082256993198101E+00 
    3.1197412742293404E+00 
    3.1144692060301762E+00 
    3.1156630327624240E+00 
    3.1042153328452020E+00 
    3.1000370774262929E+00 
    3.1376084192766278E+00 
    3.1249353369035044E+00 
    3.1186691290849877E+00 
    3.1248518899843041E+00 
    3.1128314554408902E+00 
    3.0993655723367355E+00 
    3.1009829692540465E+00 
    3.1107449476241347E+00 
    3.1129025514547477E+00 
    3.1107487580832824E+00 
    3.1010375830393828E+00 
    3.0995286164368703E+00 
    3.0874121467302866E+00 
    3.0911699355016951E+00 
    3.0824919661735035E+00 
    3.0781511240456072E+00 
    3.0911024839235606E+00 
    3.0872656464646817E+00 
    3.0778848809314865E+00 
    3.0823292403174842E+00 
    3.0704014114688132E+00 
    3.0759714311465398E+00 
    3.0701599564703823E+00 
    3.0619563334607540E+00 
    3.0770565703782471E+00 
    3.0710848186105983E+00 
    3.0634442294696589E+00 
    3.0651982154229596E+00 
    3.0644169961029006E+00 
    3.0559786513306850E+00 
    3.0519861888812754E+00 
    3.0588493111181032E+00 
    3.0548242833820169E+00 
    3.0560118085255059E+00 
    3.0482602049591385E+00 
    3.0436830490129134E+00 
    3.0347527480818219E+00 
    3.0410361272437734E+00 
    3.0348396320710305E+00 
    3.0289578962760717E+00 
    3.0444687389305827E+00 
    3.0457518824456109E+00 
    3.0360894960213924E+00 
    3.0370771031523720E+00 
    3.0241069169904180E+00 
    3.0306807148676156E+00 
    3.0278246578914323E+00 
    3.0188863981161487E+00 
    3.0246349308175668E+00 
    3.0213523382109768E+00 
    3.0139180461998616E+00 
    3.0141614017964122E+00 
    3.0171741093264792E+00 
    3.0113657563211866E+00 
    3.0057823926013962E+00 
    3.0110589265543908E+00 
    3.0045565800141580E+00 
    3.0072685026883978E+00 
    3.0007784130533945E+00 
    2.9949571519884381E+00 
    2.9881499153936661E+00 
    2.9949136845105904E+00 
    2.9899437158516387E+00 
    2.9839422985828223E+00 
    2.9995370564585970E+00 
    3.0027925795717572E+00 
    2.9937409934517669E+00 
    2.9931361587101164E+00 
    2.9805210103138937E+00 
    2.9870620278766076E+00 
    2.9857844378927623E+00 
    2.9770393720772024E+00 
    2.9787184680095726E+00 
    2.9766468722340642E+00 
    2.9695777690666980E+00 
    2.9692292552344841E+00 
    2.9736342611272053E+00 
    2.9691830420788055E+00 
    2.9631305138056154E+00 
    2.9675121332729684E+00 
    2.9611570949652224E+00 
    2.9636957021272567E+00 
    2.9580718816554303E+00 
    2.9525762071577994E+00 
    2.9461408240410463E+00 
    2.9528807259714118E+00 
    2.9486030613056071E+00 
    2.9427015948502548E+00 
    2.9577303639082735E+00 
    2.9617824840623892E+00 
    2.9533848026632712E+00 
    2.9520413958682612E+00 
    2.9400363572897472E+00 
    2.9463751377727894E+00 
    2.9458238393916205E+00 
    2.9374469442197086E+00 
    2.9371904438503913E+00 
    2.9356924305070047E+00 
    2.9290353449952695E+00 
    2.9284219646547651E+00 
    2.9333272966977888E+00 
    2.9296636667117970E+00 
    2.9235542008208717E+00 
    2.9273973992305540E+00 
    2.9209901154414792E+00 
    2.9236100520781307E+00 
    2.9185147626401369E+00 
    2.9131163600170566E+00 
    2.9072942452693131E+00 
    2.9138389061404082E+00 
    2.9100344644780889E+00 
    2.9043328235854804E+00 
    2.9186901622200963E+00 
    2.9229764156580411E+00 
    2.9151029988964883E+00 
    2.9134876253612889E+00 
    2.9020916895548132E+00 
    2.9081779277840205E+00 
    2.9079754616055138E+00 
    2.8999981285362844E+00 
    2.8988482975265395E+00 
    2.8976454331105503E+00 
    2.8913810310146588E+00 
    2.8906931715291146E+00 
    2.8956266345318000E+00 
    2.8924375294150759E+00 
    2.8864639586977741E+00 
    2.8899395982856495E+00 
    2.8837945029906997E+00 
    2.8863057935621281E+00 
    2.8816118523627061E+00 
    2.8764957630052188E+00 
    2.8711209316361295E+00 
    2.8773336166635750E+00 
    2.8738270523138514E+00 
    2.8684245716897872E+00 
    2.8820303294412732E+00 
    2.8863133570408195E+00 
    2.8789145056574559E+00 
    2.8772080251914502E+00 
    2.8664270791715727E+00 
    2.8721839698853247E+00 
    2.8721557995855309E+00 
    2.8645845072533493E+00 
    2.8632242604040967E+00 
    2.8621713718704256E+00 
    2.8563023933823830E+00 
    2.8555991145717265E+00 
    2.8603644454441595E+00 
    2.8574284266750549E+00 
    2.8518064302681223E+00 
    2.8550561953095910E+00 
    2.8491377101161084E+00 
    2.8515934494146631E+00 
    2.8471513792321126E+00 
    2.8422732015133847E+00 
    2.8371865147832200E+00 
    2.8430194308230208E+00 
    2.8395450702668397E+00 
    2.8344972811464881E+00 
    2.8475538673755039E+00 
    2.8517048610507794E+00 
    2.8446894651232881E+00 
    2.8428866784886870E+00 
    2.8326569969147246E+00 
    2.8380002322254332E+00 
    2.8382496960776300E+00 
    2.8311338609879417E+00 
    2.8299597592032311E+00 
    2.8289776102314428E+00 
    2.8236970206759442E+00 
    2.8230102194513575E+00 
    2.8272748875346236E+00 
    2.8244619626548002E+00 
    2.8192694170514332E+00 
    2.8224444514087761E+00 
    2.8169997236719326E+00 
    2.8192405469801938E+00 
    2.8150100346180089E+00 
    2.8105721003978044E+00 
    2.8058942494632628E+00 
    2.8111505781372457E+00 
    2.8081365719299205E+00 
    2.8035165654574681E+00 
    2.8152298145796584E+00 
    2.8190416665867422E+00 
    2.8125474531965913E+00 
    2.8109889450215388E+00 
    2.8017335559892054E+00 
    2.8067241575359101E+00 
    2.8066793657225455E+00 
    2.8000706709013379E+00 
    2.7992361723582695E+00 
    2.7982690611743113E+00 
    2.7934248087184184E+00 
    2.7928477335563575E+00 
    2.7966132698218020E+00 
    2.7939133879833320E+00 
    2.7892568509027669E+00 
    2.7922590320649565E+00 
    2.7874150215725599E+00 
    2.7894003299066394E+00 
    2.7854764308262410E+00 
    2.7815714071170636E+00 
    2.7772379177355058E+00 
    2.7818032630073435E+00 
    2.7789747209795883E+00 
    2.7749642511627486E+00 
    2.7853931267610870E+00 
    2.7888018754779194E+00 
    2.7827824971521373E+00 
    2.7814859556423466E+00 
    2.7731984878314995E+00 
    2.7776096974272693E+00 
    2.7774433926149800E+00 
    2.7714661468696078E+00 
    2.7713412336305878E+00 
    2.7704521941717588E+00 
    2.7660706678215679E+00 
    2.7655645807626055E+00 
    2.7687709877362892E+00 
    2.7659831592206712E+00 
    2.7618862468527570E+00 
    2.7648136700257671E+00 
    2.7605812644656957E+00 
    2.7622240760664778E+00 
    2.7586331634998569E+00 
    2.7553142524229881E+00 
    2.7513395619288596E+00 
    2.7553165569783995E+00 
    2.7525818983574268E+00 
    2.7490349956789069E+00 
    2.7583614996118939E+00 
    2.7611932344118348E+00 
    2.7556786462776310E+00 
    2.7546996057796314E+00 
    2.7472149297254140E+00 
    2.7511460538211430E+00 
    2.7507482028958172E+00 
    2.7453818537473871E+00 
    2.7461408316969731E+00 
    2.7450058140964750E+00 
    2.7412596264794153E+00 
    2.7411112531380724E+00 
    2.7433144136131711E+00 
    2.7407095953039367E+00 
    2.7374459918096132E+00 
    2.7400712685241850E+00 
    2.7368441325357433E+00 
    2.7380765880917557E+00 
    2.7348639569949635E+00 
    2.7322280152284431E+00 
    2.7286369481792478E+00 
    2.7317729907617339E+00 
    2.7292739835289219E+00 
    2.7264326427271541E+00 
    2.7341541376943059E+00 
    2.7362910744810582E+00 
    2.7314417947540814E+00 
    2.7309035100869492E+00 
    2.7245815821836810E+00 
    2.7278527564614516E+00 
    2.7272176464672442E+00 
    2.7225993586659709E+00 
    2.7243325631799311E+00 
    2.7231738188673287E+00 
    2.7199544856746520E+00 
    2.7199684847847156E+00 
    2.7214110799790188E+00 
    2.7187212736845714E+00 
    2.7161172237721751E+00 
    2.7186581141344006E+00 
    2.7161721705029080E+00 
    2.7170180594172417E+00 
    2.7141049366563963E+00 
    2.7120521485693891E+00 
    2.7086299189681275E+00 
    2.7112892226859802E+00 
    2.7088465669853590E+00 
    2.7063030345696744E+00 
    2.7131285315638256E+00 
    2.7146263800020947E+00 
    2.7103069033239100E+00 
    2.7101153590619664E+00 
    2.7043569444726234E+00 
    2.7073484402255681E+00 
    2.7065008809780791E+00 
    2.7022825313174574E+00 
    2.7046168602026595E+00 
    2.7031795708472091E+00 
    2.6999876957483369E+00 
    2.7001795633065657E+00 
    2.7013104692657386E+00 
    2.6986134029442281E+00 
    2.6960682208639506E+00 
    2.6986404355194882E+00 
    2.6963957395041396E+00 
    2.6970883545424922E+00 
    2.6942313784800591E+00 
    2.6927787193158519E+00 
    2.6899028613886826E+00 
    2.6915359412972641E+00 
    2.6892639710914259E+00 