# vtk DataFile Version 2.0
Pressure Field Data 
ASCII 
DATASET UNSTRUCTURED_GRID 

POINTS 6273 double 

    0.0000000000000000E+00     0.0000000000000000E+00     0.0000000000000000E+00 
    1.0000000000000000E+00     0.0000000000000000E+00     0.0000000000000000E+00 
    1.0000000000000000E+00     1.0000000000000000E+00     0.0000000000000000E+00 
    0.0000000000000000E+00     1.0000000000000000E+00     0.0000000000000000E+00 
    1.5624999999970249E-02     0.0000000000000000E+00     0.0000000000000000E+00 
    3.1249999999940652E-02     0.0000000000000000E+00     0.0000000000000000E+00 
    4.6874999999905617E-02     0.0000000000000000E+00     0.0000000000000000E+00 
    6.2499999999870597E-02     0.0000000000000000E+00     0.0000000000000000E+00 
    7.8124999999846401E-02     0.0000000000000000E+00     0.0000000000000000E+00 
    9.3749999999822212E-02     0.0000000000000000E+00     0.0000000000000000E+00 
    1.0937499999979799E-01     0.0000000000000000E+00     0.0000000000000000E+00 
    1.2499999999977381E-01     0.0000000000000000E+00     0.0000000000000000E+00 
    1.4062499999972811E-01     0.0000000000000000E+00     0.0000000000000000E+00 
    1.5624999999968239E-01     0.0000000000000000E+00     0.0000000000000000E+00 
    1.7187499999963671E-01     0.0000000000000000E+00     0.0000000000000000E+00 
    1.8749999999959110E-01     0.0000000000000000E+00     0.0000000000000000E+00 
    2.0312499999954539E-01     0.0000000000000000E+00     0.0000000000000000E+00 
    2.1874999999949971E-01     0.0000000000000000E+00     0.0000000000000000E+00 
    2.3437499999945391E-01     0.0000000000000000E+00     0.0000000000000000E+00 
    2.4999999999940831E-01     0.0000000000000000E+00     0.0000000000000000E+00 
    2.6562499999936218E-01     0.0000000000000000E+00     0.0000000000000000E+00 
    2.8124999999931621E-01     0.0000000000000000E+00     0.0000000000000000E+00 
    2.9687499999927008E-01     0.0000000000000000E+00     0.0000000000000000E+00 
    3.1249999999922412E-01     0.0000000000000000E+00     0.0000000000000000E+00 
    3.2812499999917810E-01     0.0000000000000000E+00     0.0000000000000000E+00 
    3.4374999999913203E-01     0.0000000000000000E+00     0.0000000000000000E+00 
    3.5937499999908601E-01     0.0000000000000000E+00     0.0000000000000000E+00 
    3.7499999999903999E-01     0.0000000000000000E+00     0.0000000000000000E+00 
    3.9062499999899403E-01     0.0000000000000000E+00     0.0000000000000000E+00 
    4.0624999999894801E-01     0.0000000000000000E+00     0.0000000000000000E+00 
    4.2187499999890188E-01     0.0000000000000000E+00     0.0000000000000000E+00 
    4.3749999999885592E-01     0.0000000000000000E+00     0.0000000000000000E+00 
    4.5312499999880979E-01     0.0000000000000000E+00     0.0000000000000000E+00 
    4.6874999999876382E-01     0.0000000000000000E+00     0.0000000000000000E+00 
    4.8437499999871780E-01     0.0000000000000000E+00     0.0000000000000000E+00 
    4.9999999999867167E-01     0.0000000000000000E+00     0.0000000000000000E+00 
    5.1562499999871325E-01     0.0000000000000000E+00     0.0000000000000000E+00 
    5.3124999999875477E-01     0.0000000000000000E+00     0.0000000000000000E+00 
    5.4687499999879630E-01     0.0000000000000000E+00     0.0000000000000000E+00 
    5.6249999999883782E-01     0.0000000000000000E+00     0.0000000000000000E+00 
    5.7812499999887934E-01     0.0000000000000000E+00     0.0000000000000000E+00 
    5.9374999999892086E-01     0.0000000000000000E+00     0.0000000000000000E+00 
    6.0937499999896239E-01     0.0000000000000000E+00     0.0000000000000000E+00 
    6.2499999999900380E-01     0.0000000000000000E+00     0.0000000000000000E+00 
    6.4062499999904521E-01     0.0000000000000000E+00     0.0000000000000000E+00 
    6.5624999999908673E-01     0.0000000000000000E+00     0.0000000000000000E+00 
    6.7187499999912825E-01     0.0000000000000000E+00     0.0000000000000000E+00 
    6.8749999999916978E-01     0.0000000000000000E+00     0.0000000000000000E+00 
    7.0312499999921130E-01     0.0000000000000000E+00     0.0000000000000000E+00 
    7.1874999999925282E-01     0.0000000000000000E+00     0.0000000000000000E+00 
    7.3437499999929434E-01     0.0000000000000000E+00     0.0000000000000000E+00 
    7.4999999999933586E-01     0.0000000000000000E+00     0.0000000000000000E+00 
    7.6562499999937739E-01     0.0000000000000000E+00     0.0000000000000000E+00 
    7.8124999999941891E-01     0.0000000000000000E+00     0.0000000000000000E+00 
    7.9687499999946043E-01     0.0000000000000000E+00     0.0000000000000000E+00 
    8.1249999999950195E-01     0.0000000000000000E+00     0.0000000000000000E+00 
    8.2812499999954348E-01     0.0000000000000000E+00     0.0000000000000000E+00 
    8.4374999999958500E-01     0.0000000000000000E+00     0.0000000000000000E+00 
    8.5937499999962652E-01     0.0000000000000000E+00     0.0000000000000000E+00 
    8.7499999999966793E-01     0.0000000000000000E+00     0.0000000000000000E+00 
    8.9062499999970934E-01     0.0000000000000000E+00     0.0000000000000000E+00 
    9.0624999999975087E-01     0.0000000000000000E+00     0.0000000000000000E+00 
    9.2187499999979239E-01     0.0000000000000000E+00     0.0000000000000000E+00 
    9.3749999999983391E-01     0.0000000000000000E+00     0.0000000000000000E+00 
    9.5312499999987543E-01     0.0000000000000000E+00     0.0000000000000000E+00 
    9.6874999999991696E-01     0.0000000000000000E+00     0.0000000000000000E+00 
    9.8437499999995848E-01     0.0000000000000000E+00     0.0000000000000000E+00 
    1.0000000000000000E+00     1.5624999999970249E-02     0.0000000000000000E+00 
    1.0000000000000000E+00     3.1249999999940652E-02     0.0000000000000000E+00 
    1.0000000000000000E+00     4.6874999999905617E-02     0.0000000000000000E+00 
    1.0000000000000000E+00     6.2499999999870597E-02     0.0000000000000000E+00 
    1.0000000000000000E+00     7.8124999999846401E-02     0.0000000000000000E+00 
    1.0000000000000000E+00     9.3749999999822212E-02     0.0000000000000000E+00 
    1.0000000000000000E+00     1.0937499999979799E-01     0.0000000000000000E+00 
    1.0000000000000000E+00     1.2499999999977381E-01     0.0000000000000000E+00 
    1.0000000000000000E+00     1.4062499999972811E-01     0.0000000000000000E+00 
    1.0000000000000000E+00     1.5624999999968239E-01     0.0000000000000000E+00 
    1.0000000000000000E+00     1.7187499999963671E-01     0.0000000000000000E+00 
    1.0000000000000000E+00     1.8749999999959110E-01     0.0000000000000000E+00 
    1.0000000000000000E+00     2.0312499999954539E-01     0.0000000000000000E+00 
    1.0000000000000000E+00     2.1874999999949971E-01     0.0000000000000000E+00 
    1.0000000000000000E+00     2.3437499999945391E-01     0.0000000000000000E+00 
    1.0000000000000000E+00     2.4999999999940831E-01     0.0000000000000000E+00 
    1.0000000000000000E+00     2.6562499999936218E-01     0.0000000000000000E+00 
    1.0000000000000000E+00     2.8124999999931621E-01     0.0000000000000000E+00 
    1.0000000000000000E+00     2.9687499999927008E-01     0.0000000000000000E+00 
    1.0000000000000000E+00     3.1249999999922412E-01     0.0000000000000000E+00 
    1.0000000000000000E+00     3.2812499999917810E-01     0.0000000000000000E+00 
    1.0000000000000000E+00     3.4374999999913203E-01     0.0000000000000000E+00 
    1.0000000000000000E+00     3.5937499999908601E-01     0.0000000000000000E+00 
    1.0000000000000000E+00     3.7499999999903999E-01     0.0000000000000000E+00 
    1.0000000000000000E+00     3.9062499999899403E-01     0.0000000000000000E+00 
    1.0000000000000000E+00     4.0624999999894801E-01     0.0000000000000000E+00 
    1.0000000000000000E+00     4.2187499999890188E-01     0.0000000000000000E+00 
    1.0000000000000000E+00     4.3749999999885592E-01     0.0000000000000000E+00 
    1.0000000000000000E+00     4.5312499999880979E-01     0.0000000000000000E+00 
    1.0000000000000000E+00     4.6874999999876382E-01     0.0000000000000000E+00 
    1.0000000000000000E+00     4.8437499999871780E-01     0.0000000000000000E+00 
    1.0000000000000000E+00     4.9999999999867167E-01     0.0000000000000000E+00 
    1.0000000000000000E+00     5.1562499999871325E-01     0.0000000000000000E+00 
    1.0000000000000000E+00     5.3124999999875477E-01     0.0000000000000000E+00 
    1.0000000000000000E+00     5.4687499999879630E-01     0.0000000000000000E+00 
    1.0000000000000000E+00     5.6249999999883782E-01     0.0000000000000000E+00 
    1.0000000000000000E+00     5.7812499999887934E-01     0.0000000000000000E+00 
    1.0000000000000000E+00     5.9374999999892086E-01     0.0000000000000000E+00 
    1.0000000000000000E+00     6.0937499999896239E-01     0.0000000000000000E+00 
    1.0000000000000000E+00     6.2499999999900380E-01     0.0000000000000000E+00 
    1.0000000000000000E+00     6.4062499999904521E-01     0.0000000000000000E+00 
    1.0000000000000000E+00     6.5624999999908673E-01     0.0000000000000000E+00 
    1.0000000000000000E+00     6.7187499999912825E-01     0.0000000000000000E+00 
    1.0000000000000000E+00     6.8749999999916978E-01     0.0000000000000000E+00 
    1.0000000000000000E+00     7.0312499999921130E-01     0.0000000000000000E+00 
    1.0000000000000000E+00     7.1874999999925282E-01     0.0000000000000000E+00 
    1.0000000000000000E+00     7.3437499999929434E-01     0.0000000000000000E+00 
    1.0000000000000000E+00     7.4999999999933586E-01     0.0000000000000000E+00 
    1.0000000000000000E+00     7.6562499999937739E-01     0.0000000000000000E+00 
    1.0000000000000000E+00     7.8124999999941891E-01     0.0000000000000000E+00 
    1.0000000000000000E+00     7.9687499999946043E-01     0.0000000000000000E+00 
    1.0000000000000000E+00     8.1249999999950195E-01     0.0000000000000000E+00 
    1.0000000000000000E+00     8.2812499999954348E-01     0.0000000000000000E+00 
[...]
CELL_DATA 6144 
SCALARS Pressure double 1 
LOOKUP_TABLE default 

    3.4489692538283969E+00 
    3.3506261823738117E+00 
    3.3347929815738206E+00 
    3.3506291939483486E+00 
    3.2898803617756269E+00 
    3.2491590284216860E+00 
    3.2708623804898260E+00 
    3.3003452356576650E+00 
    3.2898877920504601E+00 
    3.3003526950681445E+00 
    3.2708799442741756E+00 
    3.2491663600890459E+00 
    3.2287954025131689E+00 
    3.2472543761294825E+00 
    3.2282244701392711E+00 
    3.2153088927264379E+00 
    3.2473903575126237E+00 
    3.2289684851936094E+00 
    3.2158330739229575E+00 
    3.2286499118128660E+00 
    3.2028528592212950E+00 
    3.2158421478940453E+00 
    3.2032724082416641E+00 
    3.1879905027507460E+00 
    3.2013361094996839E+00 
    3.1977503662603866E+00 
    3.1800788638389026E+00 
    3.1767469734668752E+00 
    3.1891808526637986E+00 
    3.1760438398368529E+00 
    3.1650850799304653E+00 
    3.1754434492651149E+00 
    3.1559072142099081E+00 
    3.1652908378443638E+00 
    3.1531780948849137E+00 
    3.1380660831966591E+00 
    3.1282877015969111E+00 
    3.1430710876733614E+00 
    3.1350006608499670E+00 
    3.1235611659117652E+00 
    3.1530997791464128E+00 
    3.1589526870823281E+00 
    3.1429155992624809E+00 
    3.1414720041010669E+00 
    3.1194979337839319E+00 
    3.1309888409890583E+00 
    3.1294528862694775E+00 
    3.1149706566448434E+00 
    3.1112227611035790E+00 
    3.1104349646627361E+00 
    3.0984153222670545E+00 
    3.0957721368780491E+00 
    3.1075306941208218E+00 
    3.1020578038366651E+00 
    3.0912461005667056E+00 
    3.0968979487842345E+00 
    3.0819499855973800E+00 
    3.0890114915416436E+00 
    3.0807518866883039E+00 
    3.0692272419784330E+00 
    3.0623294097335738E+00 
    3.0739371389413801E+00 
    3.0691834699858696E+00 
    3.0600203111046209E+00 
    3.0833917679511136E+00 
    3.0911315270861053E+00 
    3.0787668772243264E+00 
    3.0753296747517256E+00 
    3.0581191359958479E+00 
    3.0674063267462279E+00 
    3.0680069761226325E+00 
    3.0561331633954230E+00 
    3.0499097836044826E+00 
    3.0500471879753288E+00 
    3.0405217145493619E+00 
    3.0379086871716288E+00 
    3.0484910079736189E+00 
    3.0447656901788482E+00 
    3.0349778591706804E+00 
    3.0394906510162207E+00 
    3.0267525896088796E+00 
    3.0326072626185607E+00 
    3.0259552199772335E+00 
    3.0163343504025044E+00 
    3.0106206175873793E+00 
    3.0206872741341422E+00 
    3.0169773372862934E+00 
    3.0088376181975267E+00 
    3.0290650995598840E+00 
    3.0365033153956027E+00 
    3.0262278372236011E+00 
    3.0226027396554853E+00 
    3.0073602413971452E+00 
    3.0156383931254571E+00 
    3.0163334052250899E+00 
    3.0059198809793140E+00 
    2.9998557440793272E+00 
    2.9999303750859321E+00 
    2.9916428172170413E+00 
    2.9895012604218700E+00 
    2.9988195426558062E+00 
    2.9964531631129914E+00 
    2.9877238802542938E+00 
    2.9910093801874820E+00 
    2.9798352314950423E+00 
    2.9850291346490492E+00 
    2.9793452419919841E+00 
    2.9706997592721383E+00 
    2.9656324453080032E+00 
    2.9746750025901383E+00 
    2.9715176104742054E+00 
    2.9641696395171517E+00 
    2.9826095681612537E+00 
    2.9896751928517022E+00 
    2.9803915503378819E+00 
    2.9767731997786449E+00 
    2.9632614321730606E+00 
    2.9707372520713071E+00 
    2.9721171105666131E+00 
    2.9627309921695701E+00 
    2.9559548191844822E+00 
    2.9560471842566698E+00 
    2.9485417250830888E+00 
    2.9465763675617418E+00 
    2.9552044863093685E+00 
    2.9531112485336877E+00 
    2.9448521192064252E+00 
    2.9480411250043073E+00 
    2.9378287556597691E+00 
    2.9426243081952088E+00 
    2.9374318124215422E+00 
    2.9295517925346624E+00 
    2.9249553292167483E+00 
    2.9332669732200825E+00 
    2.9305049429800678E+00 
    2.9237031343081070E+00 
    2.9403297984371712E+00 
    2.9470533987105343E+00 
    2.9387679079252260E+00 
    2.9353048467192040E+00 
    2.9229325487245483E+00 
    2.9297952740353708E+00 
    2.9312048395256500E+00 
    2.9225720047246266E+00 
    2.9160558234979117E+00 
    2.9161972433527659E+00 
    2.9092536582701150E+00 
    2.9074233132556460E+00 
    2.9154954361899676E+00 
    2.9137235768620036E+00 
    2.9060891493222933E+00 
    2.9088435561712167E+00 
    2.8993475620913358E+00 
    2.9037916196607427E+00 
    2.8990719903083138E+00 
    2.8916863508026900E+00 
    2.8874333212744623E+00 
    2.8952352700694122E+00 
    2.8926376041248054E+00 
    2.8863200796206412E+00 
    2.9019345548814273E+00 
    2.9081696639444869E+00 
    2.9004262817153807E+00 
    2.8971648306447859E+00 
    2.8856626041673561E+00 
    2.8920186769522740E+00 
    2.8933945422895242E+00 
    2.8853824694666694E+00 
    2.8792221129238422E+00 
    2.8794135024380094E+00 
    2.8730471445715486E+00 
    2.8713083748984136E+00 
    2.8787612813528138E+00 
    2.8770441013725589E+00 
    2.8698794607242917E+00 
    2.8725408507921517E+00 
    2.8638524116878221E+00 
    2.8679805005444767E+00 
    2.8637285262737389E+00 
    2.8568906006375174E+00 
    2.8528523779686918E+00 
    2.8601397111646896E+00 
    2.8572624384699097E+00 
    2.8513311953508986E+00 
    2.8660743011143328E+00 
    2.8718903416764086E+00 
    2.8647329367184087E+00 
    2.8616587118833592E+00 
    2.8506493675727325E+00 
    2.8566000427181804E+00 
    2.8581001326238979E+00 
    2.8505852382641090E+00 
    2.8449682937520828E+00 
    2.8450877809915620E+00 
    2.8392100384552279E+00 
    2.8376152722190962E+00 
    2.8444540191753487E+00 
    2.8428514908634055E+00 
    2.8361691812164755E+00 
    2.8387004989604585E+00 
    2.8306973077756217E+00 
    2.8344330771931108E+00 
    2.8304207869765499E+00 
    2.8242127630774068E+00 
    2.8205285544761920E+00 
    2.8271459874630809E+00 
    2.8248010335846190E+00 
    2.8193730630790768E+00 
    2.8326459944418745E+00 
    2.8380737558129914E+00 
    2.8315046924963054E+00 
    2.8286619159966002E+00 
    2.8187493332635873E+00 
    2.8242502925513664E+00 
    2.8254109229124973E+00 
    2.8184506778409943E+00 
    2.8133375059180583E+00 
    2.8133952900423269E+00 
    2.8079192066376524E+00 
    2.8065477247716442E+00 
    2.8128206910668099E+00 
    2.8113425215597805E+00 
    2.8053353853999718E+00 
    2.8075608812875510E+00 
    2.8002298242674697E+00 
    2.8036575564571238E+00 
    2.8000186546542132E+00 
    2.7942909900018664E+00 
    2.7909628379734936E+00 
    2.7969656384805610E+00 
    2.7948930846693743E+00 
    2.7899752466561170E+00 
    2.8020102919034411E+00 
    2.8068758708797437E+00 
    2.8008302195392587E+00 
    2.7983624928796758E+00 
    2.7893808363611443E+00 
    2.7943867133493931E+00 
    2.7953227749037719E+00 
    2.7890197806616421E+00 
    2.7845284691564669E+00 
    2.7845677073466688E+00 
    2.7795833056080377E+00 
    2.7783642823867951E+00 
    2.7840038681086874E+00 
    2.7825846093169950E+00 
    2.7771906357678855E+00 
    2.7792378296644649E+00 
    2.7727058261067112E+00 
    2.7757570694845310E+00 
    2.7726082622475521E+00 
    2.7675184860783077E+00 
    2.7644895545699120E+00 
    2.7698573006614708E+00 
    2.7676188271277731E+00 
    2.7632657870408330E+00 
    2.7742203456111478E+00 
    2.7785012715250463E+00 
    2.7729895131223219E+00 
    2.7707972374493215E+00 
    2.7626090103847658E+00 
    2.7669896802255551E+00 
    2.7679310426440602E+00 
    2.7622997646655905E+00 
    2.7586620100229995E+00 
    2.7586132062812374E+00 
    2.7542902979441246E+00 
    2.7532403518013142E+00 
    2.7580309944139456E+00 
    2.7566808569026326E+00 
    2.7519895776497614E+00 
    2.7539068787408159E+00 
    2.7481978316014848E+00 
    2.7508707128967491E+00 
    2.7478136821704520E+00 
    2.7434115413193245E+00 
    2.7407948054443367E+00 
    2.7453716161282053E+00 
    2.7437694614017287E+00 
    2.7400029346871442E+00 
    2.7492808537500197E+00 
    2.7529626375200977E+00 
    2.7481500305870292E+00 
    2.7463921761512644E+00 
    2.7393833248998725E+00 
    2.7432592248209127E+00 
    2.7438049457666409E+00 
    2.7388630145472157E+00 
    2.7359129688278463E+00 
    2.7359083115933780E+00 
    2.7321152525764942E+00 
    2.7311694125406341E+00 
    2.7353096397359491E+00 
    2.7340023097420989E+00 
    2.7299289053327613E+00 
    2.7316758698419714E+00 
    2.7267085153794834E+00 
    2.7290304063190098E+00 
    2.7263419442345569E+00 
    2.7224531732198192E+00 
    2.7199794298373665E+00 
    2.7241304481888111E+00 
    2.7224128754917931E+00 
    2.7189637247776814E+00 
    2.7275326085522824E+00 
    2.7306642125909355E+00 
    2.7263287502083622E+00 
    2.7248369448123837E+00 
    2.7182634340823260E+00 
    2.7218301375285279E+00 
    2.7223303021503611E+00 
    2.7177008941138880E+00 
    2.7153073198790270E+00 
    2.7152102315186712E+00 
    2.7113878532232025E+00 
    2.7104669352537769E+00 
    2.7144805005886758E+00 
    2.7129178710005366E+00 
    2.7089325477624198E+00 
    2.7108412363596965E+00 
    2.7060334694514920E+00 
    2.7081893213025303E+00 
    2.7056371419154486E+00 
    2.7024104119405199E+00 
    2.7005571219152227E+00 
    2.7036677875712445E+00 
    2.7022575956341428E+00 
    2.6997673742158801E+00 
    2.7064588785241117E+00 
    2.7093253439049492E+00 
    2.7050281965134193E+00 
    2.7039899632635991E+00 
    2.6990469218938902E+00 
    2.7016453409758703E+00 
    2.7016547606228980E+00 
    2.6982009412029084E+00 
    2.6973572779040973E+00 
    2.6971596833621003E+00 
    2.6949025215132978E+00 
    2.6945072027295529E+00 
    2.6965381303998992E+00 
    2.6953303937437370E+00 
    2.6933628017024507E+00 
    2.6945247158896355E+00 
    2.6921436872732549E+00 
    2.6932328071318472E+00 
    2.6918339019332489E+00 
    2.6901851625031572E+00 
    2.6891018100051909E+00 
    2.6905916684560096E+00 
    2.6894847630615231E+00 
    2.6883333456495819E+00 
    2.6918243549767222E+00 
    2.6929296300906920E+00 
    2.6904370657918437E+00 
    2.6902512613780867E+00 
    2.6875761288883133E+00 
    2.6888307778025911E+00 
    2.6884421200312500E+00 
    2.6865858077701961E+00 
    2.6875176148939679E+00 
    2.6872055556491148E+00 
    2.6863013548620187E+00 
    2.6862929439033789E+00 
    2.6865848261066874E+00 
    2.6855449385635515E+00 
    2.6852195473968736E+00 
    2.6859294872002382E+00 
    2.6854475267065561E+00 
    2.6856525915111695E+00 
    2.6850605914356351E+00 
    2.6849031604537625E+00 
    2.6846857425192292E+00 
    2.6845202744653438E+00 
    2.6839236548369065E+00 
    2.6841405311566273E+00 
    2.6843513681908995E+00 
    2.6840350456338591E+00 
    2.6829853638138310E+00 
    2.6836360180080772E+00 
    2.6832943426163163E+00 
    2.6832724255827900E+00 
    2.6823651260784227E+00 
    2.6820651898917829E+00 
    3.2012043859370864E+00 
    3.1766431237335899E+00 
    3.1793431931196263E+00 
    3.1971609830569898E+00 
    3.1559211541294134E+00 
    3.1381423227191441E+00 
    3.1530271361797464E+00 
    3.1650754818147164E+00 
    3.1888023554917759E+00 
    3.1747317771433528E+00 
    3.1647777251860973E+00 
    3.1760238540182479E+00 
    3.1590752568418208E+00 
    3.1531707755474305E+00 
    3.1415310536352301E+00 
    3.1430190913654696E+00 
    3.1430358657629451E+00 
    3.1282417580212418E+00 
    3.1229880792320719E+00 
    3.1345719541677410E+00 
    3.1292724845754991E+00 
    3.1304717282581715E+00 
    3.1189537264440137E+00 
    3.1147502582487379E+00 
    3.1525341283453701E+00 
    3.1397977265270214E+00 
    3.1334977748347637E+00 
    3.1397139074862714E+00 
    3.1276263830962590E+00 
    3.1140748151982636E+00 
    3.1157030529980680E+00 
    3.1255276617032814E+00 
    3.1276981073941301E+00 
    3.1255315676449635E+00 
    3.1157581158312109E+00 
    3.1142391703639896E+00 
    3.1020367186697100E+00 
    3.1058217961924810E+00 
    3.0970797117734605E+00 
    3.0927053678778038E+00 
    3.1057537717577555E+00 
    3.1018889717163982E+00 
    3.0924368866755101E+00 
    3.0969156683203649E+00 
    3.0848928867837517E+00 
    3.0905083299235545E+00 
    3.0846493248243414E+00 
    3.0763751917520596E+00 
    3.0916027671072195E+00 
    3.0855822121420875E+00 
    3.0778759460062388E+00 
    3.0796450346928088E+00 
    3.0788572336162177E+00 
    3.0703421650875717E+00 
    3.0663120618539659E+00 
    3.0732398102759468E+00 
    3.0691774690778186E+00 
    3.0703760973774576E+00 
    3.0625498122841881E+00 
    3.0579268762630796E+00 
    3.0489027752997999E+00 
    3.0552526938138795E+00 
    3.0489914081017946E+00 
    3.0430453259493548E+00 
    3.0587204678359101E+00 
    3.0600167587837261E+00 
    3.0502552950734834E+00 
    3.0512528481625281E+00 
    3.0381404146094808E+00 
    3.0447879401925126E+00 
    3.0419009898995761E+00 
    3.0328605605843184E+00 
    3.0386737914237050E+00 
    3.0353537159192636E+00 
    3.0278316142819630E+00 
    3.0280775955999499E+00 
    3.0311267295471329E+00 
    3.0252487240290624E+00 
    3.0195960107670805E+00 
    3.0249379651401025E+00 
    3.0183542365953473E+00 
    3.0211004643205182E+00 
    3.0145279101689164E+00 
    3.0086301110510694E+00 
    3.0017305780541323E+00 
    3.0085864228795036E+00 
    3.0035501279448042E+00 
    2.9974654626297723E+00 
    3.0132710261579345E+00 
    3.0165690536419056E+00 
    3.0073997620566049E+00 
    3.0067861145076940E+00 
    2.9939968808339863E+00 
    3.0006297267642372E+00 
    2.9993354704222464E+00 
    2.9904668846965063E+00 
    2.9921668266840262E+00 
    2.9900660765029259E+00 
    2.9828932152883971E+00 
    2.9825388065035292E+00 
    2.9870103575938622E+00 
    2.9824943691785069E+00 
    2.9763499802285764E+00 
    2.9807973309919960E+00 
    2.9743445566627078E+00 
    2.9769227148718547E+00 
    2.9712125003442380E+00 
    2.9656291096935390E+00 
    2.9590901644870753E+00 
    2.9659401295574170E+00 
    2.9615948960987848E+00 
    2.9555961303186051E+00 
    2.9708672124291415E+00 
    2.9749832517225712E+00 
    2.9664554075824712E+00 
    2.9650893254848798E+00 
    2.9528885019679039E+00 
    2.9593321999501736E+00 
    2.9587736038890040E+00 
    2.9502582340431212E+00 
    2.9499908090981992E+00 
    2.9484691052987633E+00 
    2.9416976669488197E+00 
    2.9410721793764720E+00 
    2.9460654543448936E+00 
    2.9423410687700060E+00 
    2.9361234814574795E+00 
    2.9400326429176369E+00 
    2.9335099054019316E+00 
    2.9361777822498882E+00 
    2.9309926947212821E+00 
    2.9254943698255462E+00 
    2.9195659808428469E+00 
    2.9262335715335017E+00 
    2.9223613175850343E+00 
    2.9165522000967430E+00 
    2.9311744941933493E+00 
    2.9355394110424453E+00 
    2.9275266199311529E+00 
    2.9258794365882528E+00 
    2.9142721171610106E+00 
    2.9204729104333627E+00 
    2.9202696491235112E+00 
    2.9121431477144637E+00 
    2.9109596272497247E+00 
    2.9097368326845765E+00 
    2.9033505681811556E+00 
    2.9026465914879496E+00 
    2.9076824127727159E+00 
    2.9044355210046602E+00 
    2.8983418584729526E+00 
    2.9018834553615651E+00 
    2.8956117814833444E+00 
    2.8981758708138234E+00 
    2.8933898257730672E+00 
    2.8881662377999282E+00 
    2.8826829818110795E+00 
    2.8890272855766419E+00 
    2.8854521236752158E+00 
    2.8799353961555338E+00 
    2.8938224659021019E+00 
    2.8981951708652689E+00 
    2.8906505469145745E+00 
    2.8889051723489128E+00 
    2.8779014089464412E+00 
    2.8837792136891189E+00 
    2.8837554204132352E+00 
    2.8760269631273991E+00 
    2.8746185049542516E+00 
    2.8735484301402821E+00 
    2.8675522369318602E+00 
    2.8668293496469475E+00 
    2.8717082599085280E+00 
    2.8687157143584381E+00 
    2.8629665041620100E+00 
    2.8662831041594106E+00 
    2.8602267225245863E+00 
    2.8627411667070422E+00 
    2.8582034976824779E+00 
    2.8532099193907277E+00 
    2.8480112661742205E+00 
    2.8539827432703442E+00 
    2.8504345571144674E+00 
    2.8452677123473773E+00 
    2.8586242727227473E+00 
    2.8628738886687808E+00 
    2.8557062974106024E+00 
    2.8538561956221669E+00 
    2.8433929916795311E+00 
    2.8488603722791748E+00 
    2.8491234369523712E+00 
    2.8418452191525656E+00 
    2.8406137609588851E+00 
    2.8396167011115607E+00 
    2.8342092434811130E+00 
    2.8334992152009484E+00 
    2.8378820123195356E+00 
    2.8350123980258379E+00 
    2.8296872307521208E+00 
    2.8329327354318199E+00 
    2.8273438313557540E+00 
    2.8296462411884113E+00 
    2.8253160464872660E+00 
    2.8207589599144374E+00 
    2.8159691223812233E+00 
    2.8213667026870399E+00 
    2.8182847439227690E+00 
    2.8135423548715965E+00 
    2.8255554801519698E+00 
    2.8294711370540568E+00 
    2.8228226849894646E+00 
    2.8212151841762907E+00 
    2.8117259602799001E+00 
    2.8168456291683834E+00 
    2.8168113496339173E+00 
    2.8100361317272569E+00 
    2.8091351152457444E+00 
    2.8081550074927555E+00 
    2.8031807038280920E+00 
    2.8025780606032784E+00 
    2.8064681653249259E+00 
    2.8037120479080988E+00 
    2.7989188412771089E+00 
    2.8019927455979206E+00 
    2.7969997170692626E+00 
    2.7990493505099510E+00 
    2.7950238465906216E+00 
    2.7909973107107948E+00 
    2.7865502359274203E+00 
    2.7912576671198051E+00 
    2.7883611508100170E+00 
    2.7842284715421988E+00 
    2.7949597020693235E+00 
    2.7984774414446467E+00 
    2.7923003549918044E+00 
    2.7909527751618883E+00 
    2.7824298997460675E+00 
    2.7869705511931464E+00 
    2.7868164930183963E+00 
    2.7806706227864972E+00 
    2.7804757585357356E+00 
    2.7795789382617144E+00 
    2.7750634209799232E+00 
    2.7745264557199323E+00 
    2.7778662115287003E+00 
    2.7750169811263570E+00 
    2.7707779642207173E+00 
    2.7737817602597166E+00 
    2.7693911677228042E+00 
    2.7711011003970403E+00 
    2.7674061682682454E+00 
    2.7639604877728674E+00 
    2.7598685481050507E+00 
    2.7639961635296384E+00 
    2.7611886922137772E+00 
    2.7575119980112968E+00 
    2.7671571794367771E+00 
    2.7701011834524225E+00 
    2.7644235691903343E+00 
    2.7633901997514507E+00 
    2.7556575686482914E+00 
    2.7597251339211888E+00 
    2.7593402177448780E+00 
    2.7537975335253764E+00 
    2.7544812015013287E+00 
    2.7533341648615974E+00 
    2.7494479965512837E+00 
    2.7492706290800371E+00 
    2.7516106367243922E+00 
    2.7489460488087811E+00 
    2.7455326744408941E+00 
    2.7482362058714527E+00 
    2.7448445150809109E+00 
    2.7461487358539647E+00 
    2.7428233127922232E+00 
    2.7400479530773745E+00 
    2.7363217379430087E+00 
    2.7396267010593811E+00 
    2.7370491977442120E+00 
    2.7340591746090048E+00 
    2.7421354358857801E+00 
    2.7443944440889503E+00 
    2.7393707779216534E+00 
    2.7387727912020323E+00 
    2.7321686654429831E+00 
    2.7355991520551277E+00 
    2.7349806226855882E+00 
    2.7301565667495802E+00 
    2.7317947913300102E+00 
    2.7306246314100706E+00 
    2.7272205699239378E+00 
    2.7271920346040477E+00 
    2.7288185697287157E+00 
    2.7260462982487210E+00 
    2.7232242957689055E+00 
    2.7258851947103988E+00 
    2.7231516341868103E+00 
    2.7241078512780734E+00 
    2.7210075404238192E+00 
    2.7186807596353382E+00 
    2.7149437005971513E+00 
    2.7180029707097817E+00 
    2.7154075508289548E+00 
    2.7124921748681330E+00 
    2.7200746457285963E+00 
    2.7217735836548713E+00 
    2.7171868812252606E+00 
    2.7168690000441829E+00 
    2.7104671409308407E+00 
    2.7138630558320518E+00 
    2.7130715583993976E+00 
    2.7083184958413642E+00 
    2.7103141121771506E+00 
    2.7088487302185826E+00 
    2.7053209901518200E+00 
    2.7055353534785223E+00 
    2.7068901221753991E+00 
    2.7040323499727172E+00 
    2.7013778887100304E+00 
    2.7039607796367719E+00 
    2.7019266454057602E+00 
    2.7025005574276761E+00 
    2.6997341409697952E+00 
    2.6983323434171802E+00 
    2.6953853522752969E+00 
    2.6970230995297735E+00 
    2.6946995811529804E+00 