# vtk DataFile Version 2.0
Pressure Field Data 
ASCII 
DATASET UNSTRUCTURED_GRID 

POINTS 6273 double 

    0.0000000000000000E+00     0.0000000000000000E+00     0.0000000000000000E+00 
    1.0000000000000000E+00     0.0000000000000000E+00     0.0000000000000000E+00 
    1.0000000000000000E+00     1.0000000000000000E+00     0.0000000000000000E+00 
    0.0000000000000000E+00     1.0000000000000000E+00     0.0000000000000000E+00 
    1.5624999999970249E-02     0.0000000000000000E+00     0.0000000000000000E+00 
    3.1249999999940652E-02     0.0000000000000000E+00     0.0000000000000000E+00 
    4.6874999999905617E-02     0.0000000000000000E+00     0.0000000000000000E+00 
    6.2499999999870597E-02     0.0000000000000000E+00     0.0000000000000000E+00 
    7.8124999999846401E-02     0.0000000000000000E+00     0.0000000000000000E+00 
    9.3749999999822212E-02     0.0000000000000000E+00     0.0000000000000000E+00 
    1.0937499999979799E-01     0.0000000000000000E+00     0.0000000000000000E+00 
    1.2499999999977381E-01     0.0000000000000000E+00     0.0000000000000000E+00 
    1.4062499999972811E-01     0.0000000000000000E+00     0.0000000000000000E+00 
    1.5624999999968239E-01     0.0000000000000000E+00     0.0000000000000000E+00 
    1.7187499999963671E-01     0.0000000000000000E+00     0.0000000000000000E+00 
    1.8749999999959110E-01     0.0000000000000000E+00     0.0000000000000000E+00 
    2.0312499999954539E-01     0.0000000000000000E+00     0.0000000000000000E+00 
    2.1874999999949971E-01     0.0000000000000000E+00     0.0000000000000000E+00 
    2.3437499999945391E-01     0.0000000000000000E+00     0.0000000000000000E+00 
    2.4999999999940831E-01     0.0000000000000000E+00     0.0000000000000000E+00 
    2.6562499999936218E-01     0.0000000000000000E+00     0.0000000000000000E+00 
    2.8124999999931621E-01     0.0000000000000000E+00     0.0000000000000000E+00 
    2.9687499999927008E-01     0.0000000000000000E+00     0.0000000000000000E+00 
    3.1249999999922412E-01     0.0000000000000000E+00     0.0000000000000000E+00 
    3.2812499999917810E-01     0.0000000000000000E+00     0.0000000000000000E+00 
    3.4374999999913203E-01     0.0000000000000000E+00     0.0000000000000000E+00 
    3.5937499999908601E-01     0.0000000000000000E+00     0.0000000000000000E+00 
    3.7499999999903999E-01     0.0000000000000000E+00     0.0000000000000000E+00 
    3.9062499999899403E-01     0.0000000000000000E+00     0.0000000000000000E+00 
    4.0624999999894801E-01     0.0000000000000000E+00     0.0000000000000000E+00 
    4.2187499999890188E-01     0.0000000000000000E+00     0.0000000000000000E+00 
    4.3749999999885592E-01     0.0000000000000000E+00     0.0000000000000000E+00 
    4.5312499999880979E-01     0.0000000000000000E+00     0.0000000000000000E+00 
    4.6874999999876382E-01     0.0000000000000000E+00     0.0000000000000000E+00 
    4.8437499999871780E-01     0.0000000000000000E+00     0.0000000000000000E+00 
    4.9999999999867167E-01     0.0000000000000000E+00     0.0000000000000000E+00 
    5.1562499999871325E-01     0.0000000000000000E+00     0.0000000000000000E+00 
    5.3124999999875477E-01     0.0000000000000000E+00     0.0000000000000000E+00 
    5.4687499999879630E-01     0.0000000000000000E+00     0.0000000000000000E+00 
    5.6249999999883782E-01     0.0000000000000000E+00     0.0000000000000000E+00 
    5.7812499999887934E-01     0.0000000000000000E+00     0.0000000000000000E+00 
    5.9374999999892086E-01     0.0000000000000000E+00     0.0000000000000000E+00 
    6.0937499999896239E-01     0.0000000000000000E+00     0.0000000000000000E+00 
    6.2499999999900380E-01     0.0000000000000000E+00     0.0000000000000000E+00 
    6.4062499999904521E-01     0.0000000000000000E+00     0.0000000000000000E+00 
    6.5624999999908673E-01     0.0000000000000000E+00     0.0000000000000000E+00 
    6.7187499999912825E-01     0.0000000000000000E+00     0.0000000000000000E+00 
    6.8749999999916978E-01     0.0000000000000000E+00     0.0000000000000000E+00 
    7.0312499999921130E-01     0.0000000000000000E+00     0.0000000000000000E+00 
    7.1874999999925282E-01     0.0000000000000000E+00     0.0000000000000000E+00 
    7.3437499999929434E-01     0.0000000000000000E+00     0.0000000000000000E+00 
    7.4999999999933586E-01     0.0000000000000000E+00     0.0000000000000000E+00 
    7.6562499999937739E-01     0.0000000000000000E+00     0.0000000000000000E+00 
    7.8124999999941891E-01     0.0000000000000000E+00     0.0000000000000000E+00 
    7.9687499999946043E-01     0.0000000000000000E+00     0.0000000000000000E+00 
    8.1249999999950195E-01     0.0000000000000000E+00     0.0000000000000000E+00 
    8.2812499999954348E-01     0.0000000000000000E+00     0.0000000000000000E+00 
    8.4374999999958500E-01     0.0000000000000000E+00     0.0000000000000000E+00 
    8.5937499999962652E-01     0.0000000000000000E+00     0.0000000000000000E+00 
    8.7499999999966793E-01     0.0000000000000000E+00     0.0000000000000000E+00 
    8.9062499999970934E-01     0.0000000000000000E+00     0.0000000000000000E+00 
    9.0624999999975087E-01     0.0000000000000000E+00     0.0000000000000000E+00 
    9.2187499999979239E-01     0.0000000000000000E+00     0.0000000000000000E+00 
    9.3749999999983391E-01     0.0000000000000000E+00     0.0000000000000000E+00 
    9.5312499999987543E-01     0.0000000000000000E+00     0.0000000000000000E+00 
    9.6874999999991696E-01     0.0000000000000000E+00     0.0000000000000000E+00 
    9.8437499999995848E-01     0.0000000000000000E+00     0.0000000000000000E+00 
    1.0000000000000000E+00     1.5624999999970249E-02     0.0000000000000000E+00 
    1.0000000000000000E+00     3.1249999999940652E-02     0.0000000000000000E+00 
    1.0000000000000000E+00     4.6874999999905617E-02     0.0000000000000000E+00 
    1.0000000000000000E+00     6.2499999999870597E-02     0.0000000000000000E+00 
    1.0000000000000000E+00     7.8124999999846401E-02     0.0000000000000000E+00 
    1.0000000000000000E+00     9.3749999999822212E-02     0.0000000000000000E+00 
    1.0000000000000000E+00     1.0937499999979799E-01     0.0000000000000000E+00 
    1.0000000000000000E+00     1.2499999999977381E-01     0.0000000000000000E+00 
    1.0000000000000000E+00     1.4062499999972811E-01     0.0000000000000000E+00 
    1.0000000000000000E+00     1.5624999999968239E-01     0.0000000000000000E+00 
    1.0000000000000000E+00     1.7187499999963671E-01     0.0000000000000000E+00 
    1.0000000000000000E+00     1.8749999999959110E-01     0.0000000000000000E+00 
    1.0000000000000000E+00     2.0312499999954539E-01     0.0000000000000000E+00 
    1.0000000000000000E+00     2.1874999999949971E-01     0.0000000000000000E+00 
    1.0000000000000000E+00     2.3437499999945391E-01     0.0000000000000000E+00 
    1.0000000000000000E+00     2.4999999999940831E-01     0.0000000000000000E+00 
    1.0000000000000000E+00     2.6562499999936218E-01     0.0000000000000000E+00 
    1.0000000000000000E+00     2.8124999999931621E-01     0.0000000000000000E+00 
    1.0000000000000000E+00     2.9687499999927008E-01     0.0000000000000000E+00 
    1.0000000000000000E+00     3.1249999999922412E-01     0.0000000000000000E+00 
    1.0000000000000000E+00     3.2812499999917810E-01     0.0000000000000000E+00 
    1.0000000000000000E+00     3.4374999999913203E-01     0.0000000000000000E+00 
    1.0000000000000000E+00     3.5937499999908601E-01     0.0000000000000000E+00 
    1.0000000000000000E+00     3.7499999999903999E-01     0.0000000000000000E+00 
    1.0000000000000000E+00     3.9062499999899403E-01     0.0000000000000000E+00 
    1.0000000000000000E+00     4.0624999999894801E-01     0.0000000000000000E+00 
    1.0000000000000000E+00     4.2187499999890188E-01     0.0000000000000000E+00 
    1.0000000000000000E+00     4.3749999999885592E-01     0.0000000000000000E+00 
    1.0000000000000000E+00     4.5312499999880979E-01     0.0000000000000000E+00 
    1.0000000000000000E+00     4.6874999999876382E-01     0.0000000000000000E+00 
    1.0000000000000000E+00     4.8437499999871780E-01     0.0000000000000000E+00 
    1.0000000000000000E+00     4.9999999999867167E-01     0.0000000000000000E+00 
    1.0000000000000000E+00     5.1562499999871325E-01     0.0000000000000000E+00 
    1.0000000000000000E+00     5.3124999999875477E-01     0.0000000000000000E+00 
    1.0000000000000000E+00     5.4687499999879630E-01     0.0000000000000000E+00 
    1.0000000000000000E+00     5.6249999999883782E-01     0.0000000000000000E+00 
    1.0000000000000000E+00     5.7812499999887934E-01     0.0000000000000000E+00 
    1.0000000000000000E+00     5.9374999999892086E-01     0.0000000000000000E+00 
    1.0000000000000000E+00     6.0937499999896239E-01     0.0000000000000000E+00 
    1.0000000000000000E+00     6.2499999999900380E-01     0.0000000000000000E+00 
    1.0000000000000000E+00     6.4062499999904521E-01     0.0000000000000000E+00 
    1.0000000000000000E+00     6.5624999999908673E-01     0.0000000000000000E+00 
    1.0000000000000000E+00     6.7187499999912825E-01     0.0000000000000000E+00 
    1.0000000000000000E+00     6.8749999999916978E-01     0.0000000000000000E+00 
    1.0000000000000000E+00     7.0312499999921130E-01     0.0000000000000000E+00 
    1.0000000000000000E+00     7.1874999999925282E-01     0.0000000000000000E+00 
    1.0000000000000000E+00     7.3437499999929434E-01     0.0000000000000000E+00 
    1.0000000000000000E+00     7.4999999999933586E-01     0.0000000000000000E+00 
    1.0000000000000000E+00     7.6562499999937739E-01     0.0000000000000000E+00 
    1.0000000000000000E+00     7.8124999999941891E-01     0.0000000000000000E+00 
    1.0000000000000000E+00     7.9687499999946043E-01     0.0000000000000000E+00 
    1.0000000000000000E+00     8.1249999999950195E-01     0.0000000000000000E+00 
    1.0000000000000000E+00     8.2812499999954348E-01     0.0000000000000000E+00 
[...]
CELL_DATA 6144 
SCALARS Pressure double 1 
LOOKUP_TABLE default 

    3.4414480989362612E+00 
    3.3432125198502618E+00 
    3.3274075031966115E+00 
    3.3432156455672186E+00 
    3.2826620138435647E+00 
    3.2421809480369541E+00 
    3.2637422677527579E+00 
    3.2930743612794346E+00 
    3.2826697502112401E+00 
    3.2930819919513326E+00 
    3.2637601716836433E+00 
    3.2421887682671153E+00 
    3.2219934539281652E+00 
    3.2402985356699547E+00 
    3.2214239691313598E+00 
    3.2086351524467758E+00 
    3.2404327963600563E+00 
    3.2221645256269587E+00 
    3.2091535776567204E+00 
    3.2218449295299516E+00 
    3.1963154235989726E+00 
    3.2091578247028090E+00 
    3.1967297728662363E+00 
    3.1816454004638639E+00 
    3.1948262410557304E+00 
    3.1912842033211191E+00 
    3.1738680968462742E+00 
    3.1705926241182683E+00 
    3.1828281782595242E+00 
    3.1698926919768469E+00 
    3.1591289650609071E+00 
    3.1693049544656695E+00 
    3.1501342511247121E+00 
    3.1593332388591029E+00 
    3.1474598579048099E+00 
    3.1326905992450191E+00 
    3.1231643686405794E+00 
    3.1375753774946684E+00 
    3.1296949855405880E+00 
    3.1185605577736308E+00 
    3.1473805376322908E+00 
    3.1531097946201743E+00 
    3.1374127518785513E+00 
    3.1360078616600098E+00 
    3.1146061987426257E+00 
    3.1257797583334117E+00 
    3.1242771795850639E+00 
    3.1102023926386444E+00 
    3.1065847526714667E+00 
    3.1058203003239537E+00 
    3.0941899304644065E+00 
    3.0916393344509006E+00 
    3.1030049039422711E+00 
    3.0977068761488149E+00 
    3.0872699461242350E+00 
    3.0927232496532104E+00 
    3.0783243208509052E+00 
    3.0851186513920905E+00 
    3.0771718276474456E+00 
    3.0661165289528691E+00 
    3.0595204301094849E+00 
    3.0706292240688677E+00 
    3.0660708167447726E+00 
    3.0573114353367643E+00 
    3.0797062965714228E+00 
    3.0871543287031775E+00 
    3.0752564652272754E+00 
    3.0719601484898251E+00 
    3.0554939217005490E+00 
    3.0643664022218102E+00 
    3.0649371621286430E+00 
    3.0535944664699639E+00 
    3.0476726920945292E+00 
    3.0478031312320275E+00 
    3.0387475173869114E+00 
    3.0362688010894825E+00 
    3.0463216438758778E+00 
    3.0427780146189427E+00 
    3.0334884899508934E+00 
    3.0377685647315484E+00 
    3.0257055763400795E+00 
    3.0312440587887526E+00 
    3.0249512136553003E+00 
    3.0158736016844299E+00 
    3.0104971605756048E+00 
    3.0199768374222531E+00 
    3.0164770531923804E+00 
    3.0088186081247117E+00 
    3.0278893258998463E+00 
    3.0349310982975237E+00 
    3.0252040233830955E+00 
    3.0217816428228645E+00 
    3.0074286251094597E+00 
    3.0152142227971170E+00 
    3.0158670234256673E+00 
    3.0060718751041713E+00 
    3.0003882175366550E+00 
    3.0004579071012656E+00 
    2.9926976826085352E+00 
    2.9906961828928553E+00 
    2.9994160688659735E+00 
    2.9971974800689303E+00 
    2.9890336847122101E+00 
    2.9921049174811456E+00 
    2.9816754284591180E+00 
    2.9865189069760336E+00 
    2.9812180806366251E+00 
    2.9731730568825068E+00 
    2.9684682607145016E+00 
    2.9768689583110897E+00 
    2.9739305413116770E+00 
    2.9671088489922557E+00 
    2.9842589814347438E+00 
    2.9908535803097518E+00 
    2.9821880903775280E+00 
    2.9788189875541335E+00 
    2.9662644015837216E+00 
    2.9732031812152355E+00 
    2.9744834837476786E+00 
    2.9657691129724597E+00 
    2.9594984968736475E+00 
    2.9595832309090429E+00 
    2.9526433800599938E+00 
    2.9508294945408671E+00 
    2.9588022606309297E+00 
    2.9568639892827111E+00 
    2.9492353900874231E+00 
    2.9521802920630176E+00 
    2.9427640131933472E+00 
    2.9471824233385706E+00 
    2.9423972213480551E+00 
    2.9351500650765971E+00 
    2.9309302819834615E+00 
    2.9385634982950051E+00 
    2.9360216659729179E+00 
    2.9297784850658490E+00 
    2.9450633933905905E+00 
    2.9512620521062787E+00 
    2.9436194356904015E+00 
    2.9404340132745759E+00 
    2.9290681970997903E+00 
    2.9353665212122193E+00 
    2.9366580847262833E+00 
    2.9287321593928599E+00 
    2.9227731492244509E+00 
    2.9229009823988608E+00 
    2.9165500532741335E+00 
    2.9148793086077878E+00 
    2.9222559290210963E+00 
    2.9206303994973286E+00 
    2.9136555113455227E+00 
    2.9161735867738412E+00 
    2.9075110471639500E+00 
    2.9115623824647141E+00 
    2.9072575301056820E+00 
    2.9005353141202406E+00 
    2.8966696054914562E+00 
    2.9037610853683460E+00 
    2.9013933777325911E+00 
    2.8956539445452902E+00 
    2.9098611632940590E+00 
    2.9155466348536003E+00 
    2.9084774690661641E+00 
    2.9055110842624141E+00 
    2.8950510663652849E+00 
    2.9008255868377226E+00 
    2.9020706802923368E+00 
    2.8947877961393345E+00 
    2.8892185272682966E+00 
    2.8893890658497776E+00 
    2.8836235793192122E+00 
    2.8820528805770387E+00 
    2.8887931755094929E+00 
    2.8872300660172083E+00 
    2.8807515160799486E+00 
    2.8831624257272028E+00 
    2.8753158325581611E+00 
    2.8790416175832103E+00 
    2.8751999073133523E+00 
    2.8690376070159220E+00 
    2.8654015646150213E+00 
    2.8719593821634928E+00 
    2.8693610551366606E+00 
    2.8640266323140260E+00 
    2.8773080960318391E+00 
    2.8825552833701633E+00 
    2.8760830587556714E+00 
    2.8733184058722050E+00 
    2.8634041921191087E+00 
    2.8687569733214193E+00 
    2.8700975498479702E+00 
    2.8633319981326277E+00 
    2.8583171956560163E+00 
    2.8584195398249879E+00 
    2.8531493131407761E+00 
    2.8517244218500593E+00 
    2.8578427816169509E+00 
    2.8563929872017910E+00 
    2.8504146195750999E+00 
    2.8526876643482169E+00 
    2.8455353074437313E+00 
    2.8488718643407660E+00 
    2.8452817027538937E+00 
    2.8397459089442245E+00 
    2.8364617421403806E+00 
    2.8423525461821870E+00 
    2.8402522181597676E+00 
    2.8354227658243683E+00 
    2.8472551606623386E+00 
    2.8520968518437426E+00 
    2.8462132618568448E+00 
    2.8436886820376563E+00 
    2.8348532916063012E+00 
    2.8397498059763673E+00 
    2.8407679436780935E+00 
    2.8345653389853367E+00 
    2.8300685789485227E+00 
    2.8301122148132518E+00 
    2.8252561754241121E+00 
    2.8240465095912124E+00 
    2.8295896744050570E+00 
    2.8282591625510047E+00 
    2.8229504247000841E+00 
    2.8249308718368162E+00 
    2.8184573920376006E+00 
    2.8214822797492149E+00 
    2.8182613875142342E+00 
    2.8132164915126681E+00 
    2.8102845341908069E+00 
    2.8155590324740478E+00 
    2.8137188673899964E+00 
    2.8094003918030452E+00 
    2.8199970899876607E+00 
    2.8242788148910187E+00 
    2.8189216200544234E+00 
    2.8167649522225151E+00 
    2.8088562567325601E+00 
    2.8132557593372969E+00 
    2.8140555073700702E+00 
    2.8085056021841939E+00 
    2.8046379073049521E+00 
    2.8046603695089001E+00 
    2.8003016246807944E+00 
    2.7992448459231132E+00 
    2.8041474369208341E+00 
    2.8028762015733131E+00 
    2.7981850933638142E+00 
    2.7999874525925881E+00 
    2.7943118279611641E+00 
    2.7969609074823638E+00 
    2.7942113690101094E+00 
    2.7898049084464769E+00 
    2.7871791791727856E+00 
    2.7918090736064438E+00 
    2.7898490512837659E+00 
    2.7860983077575563E+00 
    2.7955785511198283E+00 
    2.7992756811164319E+00 
    2.7944575574444128E+00 
    2.7925865209643441E+00 
    2.7854974898330527E+00 
    2.7892782390323472E+00 
    2.7900544437097521E+00 
    2.7851778801944875E+00 
    2.7821615937695237E+00 
    2.7821005421261051E+00 
    2.7784002252539297E+00 
    2.7775171086923769E+00 
    2.7815702060923204E+00 
    2.7803665734680285E+00 
    2.7763936605586741E+00 
    2.7780531357620375E+00 
    2.7732257390215467E+00 
    2.7754817728873249E+00 
    2.7728761211927337E+00 
    2.7691819700977391E+00 
    2.7669842689308095E+00 
    2.7707930698365049E+00 
    2.7694081487379609E+00 
    2.7662798640515529E+00 
    2.7740597219231957E+00 
    2.7771365585009669E+00 
    2.7730176275945349E+00 
    2.7715851975108925E+00 
    2.7657035227651852E+00 
    2.7689336495149504E+00 
    2.7693286849217018E+00 
    2.7651814303924285E+00 
    2.7629410802021224E+00 
    2.7629035630829590E+00 
    2.7598088628373052E+00 
    2.7590679494307104E+00 
    2.7623576584921468E+00 
    2.7612059841640884E+00 
    2.7579670054953023E+00 
    2.7594178671429863E+00 
    2.7555045889809024E+00 
    2.7573189258483088E+00 
    2.7551713624173435E+00 
    2.7522068723574464E+00 
    2.7503579700557421E+00 
    2.7534213697300718E+00 
    2.7520505479671469E+00 
    2.7495503591132948E+00 
    2.7560058612880818E+00 
    2.7584046458030418E+00 
    2.7549038321721024E+00 
    2.7538452867538843E+00 
    2.7489520140894159E+00 
    2.7515270112361208E+00 
    2.7517807832919221E+00 
    2.7483994270983714E+00 
    2.7470520869913093E+00 
    2.7469623070449281E+00 
    2.7445036251969794E+00 
    2.7439177445685918E+00 
    2.7464265538066930E+00 
    2.7453168533076098E+00 
    2.7428889570725370E+00 
    2.7441487342747770E+00 
    2.7410015077863266E+00 
    2.7424776944128921E+00 
    2.7406906589215962E+00 
    2.7382150434395327E+00 
    2.7366022316317755E+00 
    2.7391704510215793E+00 
    2.7380248233596625E+00 
    2.7358918025460124E+00 
    2.7411605902677740E+00 
    2.7428815682363168E+00 
    2.7400289028693074E+00 
    2.7393463800122815E+00 
    2.7352312662096359E+00 
    2.7375076893593202E+00 
    2.7374797405926725E+00 
    2.7344503947452803E+00 
    2.7336041729753431E+00 
    2.7333811846019174E+00 
    2.7310989140542383E+00 
    2.7307195493756713E+00 
    2.7327667387324261E+00 
    2.7315991057401314E+00 
    2.7296535090115879E+00 
    2.7307369411849667E+00 
    2.7285264830078009E+00 
    2.7295275009731146E+00 
    2.7282692131294235E+00 
    2.7267919835066854E+00 
    2.7258345408131817E+00 
    2.7271608497244282E+00 
    2.7261768194184932E+00 
    2.7251549207360064E+00 
    2.7282571359186076E+00 
    2.7293260215361665E+00 
    2.7270244194175346E+00 
    2.7268533106201209E+00 
    2.7244837807964752E+00 
    2.7255953533754180E+00 
    2.7252505503987892E+00 
    2.7236056678460159E+00 
    2.7244313079856477E+00 
    2.7241552394497450E+00 
    2.7233541199214684E+00 
    2.7233465841283366E+00 
    2.7236054185944534E+00 
    2.7226839544405688E+00 
    2.7223958045299397E+00 
    2.7230247485488972E+00 
    2.7225977344467367E+00 
    2.7227794106622225E+00 
    2.7222549968887759E+00 
    2.7221155343472172E+00 
    2.7219229474110658E+00 
    2.7217763709396303E+00 
    2.7212478787471821E+00 
    2.7214400009534021E+00 
    2.7216266880161673E+00 
    2.7213461851728153E+00 
    2.7204165299248486E+00 
    2.7209930338433441E+00 
    2.7206904623767172E+00 
    2.7206710161198298E+00 
    2.7198672909300416E+00 
    2.7196017288060319E+00 
    3.1946967357181442E+00 
    3.1704902159876860E+00 
    3.1731445029823959E+00 
    3.1907038569780615E+00 
    3.1501478281493918E+00 
    3.1327650524911230E+00 
    3.1473120515238460E+00 
    3.1591218690391778E+00 
    3.1824560872034438E+00 
    3.1686055531303392E+00 
    3.1588272948881118E+00 
    3.1698734491428282E+00 
    3.1532299747594563E+00 
    3.1474497391944896E+00 
    3.1360660045201758E+00 
    3.1375141569572742E+00 
    3.1375411087531582E+00 
    3.1231196540288635E+00 
    3.1180037747191509E+00 
    3.1292780474795054E+00 
    3.1241027322933319E+00 
    3.1252774014152429E+00 
    3.1140782035380155E+00 
    3.1099891644621116E+00 
    3.1468101712858911E+00 
    3.1343603092200145E+00 
    3.1282132779232681E+00 
    3.1342782425110176E+00 
    3.1224945949719718E+00 
    3.1093318445668530E+00 
    3.1109110348135380E+00 
    3.1204513628601100E+00 
    3.1225635928187585E+00 
    3.1204548744411627E+00 
    3.1109641179799876E+00 
    3.1094904416696183E+00 
    3.0976788050107658E+00 
    3.1013398496121489E+00 
    3.0928893446037198E+00 
    3.0886674646070720E+00 
    3.1012743640517768E+00 
    3.0975365002108108E+00 
    3.0884089923090583E+00 
    3.0927312446124957E+00 
    3.0811408277903456E+00 
    3.0865493512393503E+00 
    3.0809067589536139E+00 
    3.0729540844177818E+00 
    3.0876012588461772E+00 
    3.0818030942393655E+00 
    3.0743959472618259E+00 
    3.0760959690211442E+00 
    3.0753386851590947E+00 
    3.0671736768686166E+00 
    3.0633151295052561E+00 
    3.0699478892892946E+00 
    3.0660551078994933E+00 
    3.0672034524313010E+00 
    3.0597180277153062E+00 
    3.0553035260453378E+00 
    3.0467080974660603E+00 
    3.0527545947267498E+00 
    3.0467895871173432E+00 
    3.0411372969518409E+00 
    3.0560621861439361E+00 
    3.0572987065815491E+00 
    3.0479900430594662E+00 
    3.0489418200033804E+00 
    3.0364795931979813E+00 
    3.0427901271487761E+00 
    3.0400448826236603E+00 
    3.0314719104308789E+00 
    3.0369865934625686E+00 
    3.0338387251418948E+00 
    3.0267178597937590E+00 
    3.0269510194599776E+00 
    3.0298355391410596E+00 
    3.0242771934272485E+00 
    3.0189409498797306E+00 
    3.0239828689052466E+00 
    3.0177697964743220E+00 
    3.0203600220787314E+00 
    3.0141652609396576E+00 
    3.0086164318723916E+00 
    3.0021402067045333E+00 
    3.0085758004207235E+00 
    3.0038441307224009E+00 
    2.9981399490574838E+00 
    3.0129812414702855E+00 
    3.0160858949148786E+00 
    3.0074561658980956E+00 
    3.0068816518686683E+00 
    2.9948896749935061E+00 
    3.0011022292290686E+00 
    2.9998857720250047E+00 
    2.9915833347195955E+00 
    2.9931812799054014E+00 
    2.9912159045113751E+00 
    2.9845175937859207E+00 
    2.9841885238190513E+00 
    2.9883594773986357E+00 
    2.9841423979984953E+00 
    2.9784168493503933E+00 
    2.9825617254849925E+00 
    2.9765532217601720E+00 
    2.9789521234547700E+00 
    2.9736384290989686E+00 
    2.9684542113526531E+00 
    2.9623908396486280E+00 
    2.9687392680716735E+00 
    2.9647052380008101E+00 
    2.9591505725166902E+00 
    2.9733139084305988E+00 
    2.9771397524999608E+00 
    2.9692093073620067E+00 
    2.9679445788926295E+00 
    2.9566401512928997E+00 
    2.9626040838956005E+00 
    2.9620817529538304E+00 
    2.9542008896043868E+00 
    2.9539717252399225E+00 
    2.9525616828684855E+00 
    2.9463124495180297E+00 
    2.9457395534275195E+00 
    2.9503375657847108E+00 
    2.9468951027521642E+00 
    2.9411687990926625E+00 
    2.9447738318495729E+00 
    2.9387736076192308E+00 
    2.9412253381322584E+00 
    2.9364523054798743E+00 
    2.9314066417589357E+00 
    2.9259660306312454E+00 
    2.9320759046559268E+00 
    2.9285164352792532E+00 
    2.9231959398578340E+00 
    2.9366106492571493E+00 
    2.9406202884805688E+00 
    2.9332466665361894E+00 
    2.9317406725429018E+00 
    2.9210986722073966E+00 
    2.9267773821669598E+00 
    2.9265824114032783E+00 
    2.9191376891109662E+00 
    2.9180893715385468E+00 
    2.9169625552214873E+00 
    2.9111305056575656E+00 
    2.9104957278855310E+00 
    2.9150757096544182E+00 
    2.9120984498462223E+00 
    2.9065470512494684E+00 
    2.9097843745955090E+00 
    2.9040810644867912E+00 
    2.9064093029080817E+00 
    2.9020449437172440E+00 
    2.8973044836833926E+00 
    2.8923175827738676E+00 
    2.8980692407896411E+00 
    2.8948103948578257E+00 
    2.8898094973351176E+00 
    2.9024218648655311E+00 
    2.9063929788421881E+00 
    2.8995149232233164E+00 
    2.8979401127159248E+00 
    2.8879486372721144E+00 
    2.8932786980410405E+00 
    2.8932420540032098E+00 
    2.8862283581667767E+00 
    2.8850114510288725E+00 
    2.8840266969901136E+00 
    2.8786050195616415E+00 
    2.8779648467675583E+00 
    2.8823446989235761E+00 
    2.8796172857704079E+00 
    2.8744367482757611E+00 
    2.8774453753830973E+00 
    2.8720013340390014E+00 
    2.8742567163685502E+00 
    2.8701546430112557E+00 
    2.8656739106296256E+00 
    2.8609852711991479E+00 
    2.8663397480390054E+00 
    2.8631307457750310E+00 
    2.8584959650231219E+00 
    2.8705053508935854E+00 
    2.8743186828853049E+00 
    2.8678428155893214E+00 
    2.8661972408865082E+00 
    2.8567865712334308E+00 
    2.8616963391316164E+00 
    2.8619082482528428E+00 
    2.8553631516866163E+00 
    2.8543517599816171E+00 
    2.8534320750163569E+00 
    2.8485918040723908E+00 
    2.8479774185706144E+00 
    2.8518512790804453E+00 
    2.8492486058516393E+00 
    2.8445077674624790E+00 
    2.8474301535492694E+00 
    2.8424713293724033E+00 
    2.8445069177041780E+00 
    2.8406269666377191E+00 
    2.8365907050599208E+00 
    2.8323068608959661E+00 
    2.8370857171792743E+00 
    2.8343155054592302E+00 
    2.8301117586869591E+00 
    2.8407958438346825E+00 
    2.8442604341845130E+00 
    2.8383070345764696E+00 
    2.8369058681096844E+00 
    2.8284579507600864E+00 
    2.8330057108287141E+00 
    2.8329382111433534E+00 
    2.8269059493438284E+00 
    2.8262485614769339E+00 
    2.8253401415818997E+00 
    2.8209385267565015E+00 
    2.8204372925703516E+00 
    2.8238048948648977E+00 
    2.8213145158052311E+00 
    2.8171110306328213E+00 
    2.8198585600173853E+00 
    2.8155019586699486E+00 
    2.8172799293587838E+00 
    2.8137075663235307E+00 
    2.8101999068827332E+00 
    2.8062594329811414E+00 
    2.8103591844984277E+00 
    2.8077725860403220E+00 
    2.8041655237038237E+00 
    2.8135826445883647E+00 
    2.8166383222589206E+00 
    2.8111624631277685E+00 
    2.8100226784570075E+00 
    2.8025288950791913E+00 
    2.8065076693113769E+00 
    2.8063179347685754E+00 
    2.8009110540109377E+00 
    2.8009518822170452E+00 
    2.8001079095619761E+00 
    2.7961694578540501E+00 
    2.7957501124974065E+00 
    2.7985506290457738E+00 
    2.7959895006346085E+00 
    2.7923463199613221E+00 
    2.7950077996256657E+00 
    2.7912704345162722E+00 
    2.7927078947331885E+00 
    2.7894673904785510E+00 
    2.7865432088521089E+00 
    2.7829614540610286E+00 
    2.7864683380610860E+00 
    2.7839858209306776E+00 
    2.7808476039673091E+00 
    2.7891514164653182E+00 
    2.7916366197187830E+00 
    2.7866679633210150E+00 
    2.7858447287352632E+00 
    2.7791627365313505E+00 
    2.7826580787281658E+00 
    2.7822425077905875E+00 
    2.7774483826921950E+00 
    2.7783575273655412E+00 
    2.7772849347688320E+00 
    2.7739758055504056E+00 
    2.7738988262210991E+00 
    2.7757192767245003E+00 
    2.7733319607597866E+00 
    2.7705113396354113E+00 
    2.7728773524957835E+00 
    2.7701266323821039E+00 
    2.7711568853073598E+00 
    2.7682990266974499E+00 
    2.7660595531491965E+00 
    2.7628768707597664E+00 
    2.7655404232724643E+00 
    2.7632933597480811E+00 
    2.7608661673279928E+00 
    2.7675602476343144E+00 
    2.7693547446570044E+00 
    2.7650516827968405E+00 
    2.7646628394523818E+00 
    2.7591582798691898E+00 
    2.7619808695866337E+00 
    2.7613310955522281E+00 
    2.7573064834347627E+00 
    2.7591897317289957E+00 
    2.7580862269536546E+00 
    2.7553511889350415E+00 
    2.7554557434912299E+00 
    2.7564666274056759E+00 
    2.7540337947722988E+00 
    2.7519452254118262E+00 
    2.7541704284748967E+00 
    2.7522487032913179E+00 
    2.7528567820564698E+00 
    2.7503837398998146E+00 
    2.7488549337681292E+00 
    2.7460779578142698E+00 
    2.7480017160282091E+00 
    2.7459130809233612E+00 
    2.7440595104434826E+00 
    2.7493612420312568E+00 
    2.7504344456776901E+00 
    2.7467676439451467E+00 
    2.7468023187839092E+00 
    2.7422944231090725E+00 
    2.7445435220224774E+00 
    2.7436242600388669E+00 
    2.7403300167700761E+00 
    2.7431959925242366E+00 
    2.7418827964516446E+00 
    2.7397985903468309E+00 
    2.7402124051299812E+00 
    2.7402317974105168E+00 
    2.7379237007593522E+00 
    2.7366561236082463E+00 
    2.7386473431687999E+00 
    2.7376255876637798E+00 
    2.7378728603383187E+00 
    2.7356855771013966E+00 
    2.7346183277885565E+00 
    2.7319473267183372E+00 
    2.7334207175192247E+00 
    2.7314230673054500E+00 