# vtk DataFile Version 2.0
Pressure Field Data 
ASCII 
DATASET UNSTRUCTURED_GRID 

POINTS 6273 double 

    0.0000000000000000E+00     0.0000000000000000E+00     0.0000000000000000E+00 
    1.0000000000000000E+00     0.0000000000000000E+00     0.0000000000000000E+00 
    1.0000000000000000E+00     1.0000000000000000E+00     0.0000000000000000E+00 
    0.0000000000000000E+00     1.0000000000000000E+00     0.0000000000000000E+00 
    1.5624999999970249E-02     0.0000000000000000E+00     0.0000000000000000E+00 
    3.1249999999940652E-02     0.0000000000000000E+00     0.0000000000000000E+00 
    4.6874999999905617E-02     0.0000000000000000E+00     0.0000000000000000E+00 
    6.2499999999870597E-02     0.0000000000000000E+00     0.0000000000000000E+00 
    7.8124999999846401E-02     0.0000000000000000E+00     0.0000000000000000E+00 
    9.3749999999822212E-02     0.0000000000000000E+00     0.0000000000000000E+00 
    1.0937499999979799E-01     0.0000000000000000E+00     0.0000000000000000E+00 
    1.2499999999977381E-01     0.0000000000000000E+00     0.0000000000000000E+00 
    1.4062499999972811E-01     0.0000000000000000E+00     0.0000000000000000E+00 
    1.5624999999968239E-01     0.0000000000000000E+00     0.0000000000000000E+00 
    1.7187499999963671E-01     0.0000000000000000E+00     0.0000000000000000E+00 
    1.8749999999959110E-01     0.0000000000000000E+00     0.0000000000000000E+00 
    2.0312499999954539E-01     0.0000000000000000E+00     0.0000000000000000E+00 
    2.1874999999949971E-01     0.0000000000000000E+00     0.0000000000000000E+00 
    2.3437499999945391E-01     0.0000000000000000E+00     0.0000000000000000E+00 
    2.4999999999940831E-01     0.0000000000000000E+00     0.0000000000000000E+00 
    2.6562499999936218E-01     0.0000000000000000E+00     0.0000000000000000E+00 
    2.8124999999931621E-01     0.0000000000000000E+00     0.0000000000000000E+00 
    2.9687499999927008E-01     0.0000000000000000E+00     0.0000000000000000E+00 
    3.1249999999922412E-01     0.0000000000000000E+00     0.0000000000000000E+00 
    3.2812499999917810E-01     0.0000000000000000E+00     0.0000000000000000E+00 
    3.4374999999913203E-01     0.0000000000000000E+00     0.0000000000000000E+00 
    3.5937499999908601E-01     0.0000000000000000E+00     0.0000000000000000E+00 
    3.7499999999903999E-01     0.0000000000000000E+00     0.0000000000000000E+00 
    3.9062499999899403E-01     0.0000000000000000E+00     0.0000000000000000E+00 
    4.0624999999894801E-01     0.0000000000000000E+00     0.0000000000000000E+00 
    4.2187499999890188E-01     0.0000000000000000E+00     0.0000000000000000E+00 
    4.3749999999885592E-01     0.0000000000000000E+00     0.0000000000000000E+00 
    4.5312499999880979E-01     0.0000000000000000E+00     0.0000000000000000E+00 
    4.6874999999876382E-01     0.0000000000000000E+00     0.0000000000000000E+00 
    4.8437499999871780E-01     0.0000000000000000E+00     0.0000000000000000E+00 
    4.9999999999867167E-01     0.0000000000000000E+00     0.0000000000000000E+00 
    5.1562499999871325E-01     0.0000000000000000E+00     0.0000000000000000E+00 
    5.3124999999875477E-01     0.0000000000000000E+00     0.0000000000000000E+00 
    5.4687499999879630E-01     0.0000000000000000E+00     0.0000000000000000E+00 
    5.6249999999883782E-01     0.0000000000000000E+00     0.0000000000000000E+00 
    5.7812499999887934E-01     0.0000000000000000E+00     0.0000000000000000E+00 
    5.9374999999892086E-01     0.0000000000000000E+00     0.0000000000000000E+00 
    6.0937499999896239E-01     0.0000000000000000E+00     0.0000000000000000E+00 
    6.2499999999900380E-01     0.0000000000000000E+00     0.0000000000000000E+00 
    6.4062499999904521E-01     0.0000000000000000E+00     0.0000000000000000E+00 
    6.5624999999908673E-01     0.0000000000000000E+00     0.0000000000000000E+00 
    6.7187499999912825E-01     0.0000000000000000E+00     0.0000000000000000E+00 
    6.8749999999916978E-01     0.0000000000000000E+00     0.0000000000000000E+00 
    7.0312499999921130E-01     0.0000000000000000E+00     0.0000000000000000E+00 
    7.1874999999925282E-01     0.0000000000000000E+00     0.0000000000000000E+00 
    7.3437499999929434E-01     0.0000000000000000E+00     0.0000000000000000E+00 
    7.4999999999933586E-01     0.0000000000000000E+00     0.0000000000000000E+00 
    7.6562499999937739E-01     0.0000000000000000E+00     0.0000000000000000E+00 
    7.8124999999941891E-01     0.0000000000000000E+00     0.0000000000000000E+00 
    7.9687499999946043E-01     0.0000000000000000E+00     0.0000000000000000E+00 
    8.1249999999950195E-01     0.0000000000000000E+00     0.0000000000000000E+00 
    8.2812499999954348E-01     0.0000000000000000E+00     0.0000000000000000E+00 
    8.4374999999958500E-01     0.0000000000000000E+00     0.0000000000000000E+00 
    8.5937499999962652E-01     0.0000000000000000E+00     0.0000000000000000E+00 
    8.7499999999966793E-01     0.0000000000000000E+00     0.0000000000000000E+00 
    8.9062499999970934E-01     0.0000000000000000E+00     0.0000000000000000E+00 
    9.0624999999975087E-01     0.0000000000000000E+00     0.0000000000000000E+00 
    9.2187499999979239E-01     0.0000000000000000E+00     0.0000000000000000E+00 
    9.3749999999983391E-01     0.0000000000000000E+00     0.0000000000000000E+00 
    9.5312499999987543E-01     0.0000000000000000E+00     0.0000000000000000E+00 
    9.6874999999991696E-01     0.0000000000000000E+00     0.0000000000000000E+00 
    9.8437499999995848E-01     0.0000000000000000E+00     0.0000000000000000E+00 
    1.0000000000000000E+00     1.5624999999970249E-02     0.0000000000000000E+00 
    1.0000000000000000E+00     3.1249999999940652E-02     0.0000000000000000E+00 
    1.0000000000000000E+00     4.6874999999905617E-02     0.0000000000000000E+00 
    1.0000000000000000E+00     6.2499999999870597E-02     0.0000000000000000E+00 
    1.0000000000000000E+00     7.8124999999846401E-02     0.0000000000000000E+00 
    1.0000000000000000E+00     9.3749999999822212E-02     0.0000000000000000E+00 
    1.0000000000000000E+00     1.0937499999979799E-01     0.0000000000000000E+00 
    1.0000000000000000E+00     1.2499999999977381E-01     0.0000000000000000E+00 
    1.0000000000000000E+00     1.4062499999972811E-01     0.0000000000000000E+00 
    1.0000000000000000E+00     1.5624999999968239E-01     0.0000000000000000E+00 
    1.0000000000000000E+00     1.7187499999963671E-01     0.0000000000000000E+00 
    1.0000000000000000E+00     1.8749999999959110E-01     0.0000000000000000E+00 
    1.0000000000000000E+00     2.0312499999954539E-01     0.0000000000000000E+00 
    1.0000000000000000E+00     2.1874999999949971E-01     0.0000000000000000E+00 
    1.0000000000000000E+00     2.3437499999945391E-01     0.0000000000000000E+00 
    1.0000000000000000E+00     2.4999999999940831E-01     0.0000000000000000E+00 
    1.0000000000000000E+00     2.6562499999936218E-01     0.0000000000000000E+00 
    1.0000000000000000E+00     2.8124999999931621E-01     0.0000000000000000E+00 
    1.0000000000000000E+00     2.9687499999927008E-01     0.0000000000000000E+00 
    1.0000000000000000E+00     3.1249999999922412E-01     0.0000000000000000E+00 
    1.0000000000000000E+00     3.2812499999917810E-01     0.0000000000000000E+00 
    1.0000000000000000E+00     3.4374999999913203E-01     0.0000000000000000E+00 
    1.0000000000000000E+00     3.5937499999908601E-01     0.0000000000000000E+00 
    1.0000000000000000E+00     3.7499999999903999E-01     0.0000000000000000E+00 
    1.0000000000000000E+00     3.9062499999899403E-01     0.0000000000000000E+00 
    1.0000000000000000E+00     4.0624999999894801E-01     0.0000000000000000E+00 
    1.0000000000000000E+00     4.2187499999890188E-01     0.0000000000000000E+00 
    1.0000000000000000E+00     4.3749999999885592E-01     0.0000000000000000E+00 
    1.0000000000000000E+00     4.5312499999880979E-01     0.0000000000000000E+00 
    1.0000000000000000E+00     4.6874999999876382E-01     0.0000000000000000E+00 
    1.0000000000000000E+00     4.8437499999871780E-01     0.0000000000000000E+00 
    1.0000000000000000E+00     4.9999999999867167E-01     0.0000000000000000E+00 
    1.0000000000000000E+00     5.1562499999871325E-01     0.0000000000000000E+00 
    1.0000000000000000E+00     5.3124999999875477E-01     0.0000000000000000E+00 
    1.0000000000000000E+00     5.4687499999879630E-01     0.0000000000000000E+00 
    1.0000000000000000E+00     5.6249999999883782E-01     0.0000000000000000E+00 
    1.0000000000000000E+00     5.7812499999887934E-01     0.0000000000000000E+00 
    1.0000000000000000E+00     5.9374999999892086E-01     0.0000000000000000E+00 
    1.0000000000000000E+00     6.0937499999896239E-01     0.0000000000000000E+00 
    1.0000000000000000E+00     6.2499999999900380E-01     0.0000000000000000E+00 
    1.0000000000000000E+00     6.4062499999904521E-01     0.0000000000000000E+00 
    1.0000000000000000E+00     6.5624999999908673E-01     0.0000000000000000E+00 
    1.0000000000000000E+00     6.7187499999912825E-01     0.0000000000000000E+00 
    1.0000000000000000E+00     6.8749999999916978E-01     0.0000000000000000E+00 
    1.0000000000000000E+00     7.0312499999921130E-01     0.0000000000000000E+00 
    1.0000000000000000E+00     7.1874999999925282E-01     0.0000000000000000E+00 
    1.0000000000000000E+00     7.3437499999929434E-01     0.0000000000000000E+00 
    1.0000000000000000E+00     7.4999999999933586E-01     0.0000000000000000E+00 
    1.0000000000000000E+00     7.6562499999937739E-01     0.0000000000000000E+00 
    1.0000000000000000E+00     7.8124999999941891E-01     0.0000000000000000E+00 
    1.0000000000000000E+00     7.9687499999946043E-01     0.0000000000000000E+00 
    1.0000000000000000E+00     8.1249999999950195E-01     0.0000000000000000E+00 
    1.0000000000000000E+00     8.2812499999954348E-01     0.0000000000000000E+00 
[...]
CELL_DATA 6144 
SCALARS Pressure double 1 
LOOKUP_TABLE default 

    3.6597567493316108E+00 
    3.5609513602605127E+00 
    3.5449982538851121E+00 
    3.5609538813103123E+00 
    3.4993700744674130E+00 
    3.4576312987520827E+00 
    3.4799356534301027E+00 
    3.5100592014358476E+00 
    3.4993761901836451E+00 
    3.5100659487898196E+00 
    3.4799518179342459E+00 
    3.4576365052428728E+00 
    3.4365284056776408E+00 
    3.4556337111497695E+00 
    3.4359495701792344E+00 
    3.4225043291587811E+00 
    3.4557768674809841E+00 
    3.4367100439583971E+00 
    3.4230526023430721E+00 
    3.4363937132043167E+00 
    3.4094777571398391E+00 
    3.4230787183355513E+00 
    3.4099189151058136E+00 
    3.3938157227241956E+00 
    3.4078516287070846E+00 
    3.4040835208283289E+00 
    3.3853575250459698E+00 
    3.3817941939323979E+00 
    3.3950425439975747E+00 
    3.3810739456950416E+00 
    3.3693181127416914E+00 
    3.3804240317703784E+00 
    3.3593962019523120E+00 
    3.3695308950097118E+00 
    3.3564429889275544E+00 
    3.3399466695370150E+00 
    3.3291550877030467E+00 
    3.3454341652750972E+00 
    3.3365959505134808E+00 
    3.3239345430091864E+00 
    3.3563675136048072E+00 
    3.3627214782375900E+00 
    3.3453035436844418E+00 
    3.3437053214360057E+00 
    3.3194334073686305E+00 
    3.3321934626867900E+00 
    3.3305215986705421E+00 
    3.3144105916467872E+00 
    3.3101518966369370E+00 
    3.3092702491889705E+00 
    3.2957065063179147E+00 
    3.2926978660888526E+00 
    3.3060114477926241E+00 
    3.2998440895315917E+00 
    3.2875522169488147E+00 
    3.2939879923326232E+00 
    3.2768787794158727E+00 
    3.2849899682849037E+00 
    3.2755010311327388E+00 
    3.2621403535139346E+00 
    3.2540664676438245E+00 
    3.2676202521490580E+00 
    3.2621035929042974E+00 
    3.2513677772729732E+00 
    3.2785546453845353E+00 
    3.2874418277877102E+00 
    3.2732433109798644E+00 
    3.2692540208476619E+00 
    3.2491421943649930E+00 
    3.2600428874255076E+00 
    3.2607609038556178E+00 
    3.2468219115289401E+00 
    3.2394245020082955E+00 
    3.2395897143018577E+00 
    3.2282449016360824E+00 
    3.2251119926274563E+00 
    3.2377457008543713E+00 
    3.2333198435816111E+00 
    3.2216037735056604E+00 
    3.2270136416567197E+00 
    3.2116692591744878E+00 
    3.2187434109124804E+00 
    3.2107078581842137E+00 
    3.1989961724878899E+00 
    3.1919880187583023E+00 
    3.2043117401532615E+00 
    3.1997967891987456E+00 
    3.1898077716772368E+00 
    3.2144841313756536E+00 
    3.2234556199591737E+00 
    3.2110685880622363E+00 
    3.2066585331724085E+00 
    3.1880010064256501E+00 
    3.1981696033435747E+00 
    3.1990330093165142E+00 
    3.1862486948152022E+00 
    3.1787062967269910E+00 
    3.1788032810208997E+00 
    3.1684940278682445E+00 
    3.1658134660962935E+00 
    3.1774337770305254E+00 
    3.1745097250973746E+00 
    3.1636071179852028E+00 
    3.1677085023473088E+00 
    3.1536767971014865E+00 
    3.1602149716683932E+00 
    3.1530663811811772E+00 
    3.1421181392910822E+00 
    3.1356640161346392E+00 
    3.1471703864272365E+00 
    3.1431810558237316E+00 
    3.1338132727759294E+00 
    3.1571982440417012E+00 
    3.1660781358689776E+00 
    3.1544324570888729E+00 
    3.1498490638547292E+00 
    3.1326723314349265E+00 
    3.1422064260041198E+00 
    3.1439800774822158E+00 
    3.1320247938132124E+00 
    3.1232717425856258E+00 
    3.1234000541241298E+00 
    3.1137220384388233E+00 
    3.1111702280131652E+00 
    3.1223311507708527E+00 
    3.1196592458462620E+00 
    3.1089656784613937E+00 
    3.1130842725553665E+00 
    3.0998001757255680E+00 
    3.1060512443466872E+00 
    3.0992955052628353E+00 
    3.0889696403225964E+00 
    3.0829209686723562E+00 
    3.0938616277238729E+00 
    3.0902620973486981E+00 
    3.0812948393903694E+00 
    3.1031063358175657E+00 
    3.1118680139924262E+00 
    3.1011191007379098E+00 
    3.0965675524608107E+00 
    3.0803108184901147E+00 
    3.0893572687323179E+00 
    3.0912439268389509E+00 
    3.0798852921480417E+00 
    3.0711440623923134E+00 
    3.0713493744653464E+00 
    3.0620992927970123E+00 
    3.0596394237537501E+00 
    3.0704449537457195E+00 
    3.0681313711907632E+00 
    3.0579081617354986E+00 
    3.0615696938517845E+00 
    3.0488010665114498E+00 
    3.0547885684983225E+00 
    3.0484530853534544E+00 
    3.0384516068094283E+00 
    3.0326753637957644E+00 
    3.0432926339515372E+00 
    3.0398099164962233E+00 
    3.0311998043470259E+00 
    3.0523634418731018E+00 
    3.0607765859487115E+00 
    3.0504134621984083E+00 
    3.0459645353607701E+00 
    3.0303581266862740E+00 
    3.0390144294051309E+00 
    3.0409399225106717E+00 
    3.0300587363123874E+00 
    3.0214472832513946E+00 
    3.0217399184115701E+00 
    3.0129715606424230E+00 
    3.0105457877687063E+00 
    3.0208914752618479E+00 
    3.0186018524670688E+00 
    3.0086577037197699E+00 
    3.0123022986501171E+00 
    3.0001954245057321E+00 
    3.0059610113038171E+00 
    3.0000630998253577E+00 
    2.9904587818180035E+00 
    2.9847789170223802E+00 
    2.9950787218824027E+00 
    2.9910927730381620E+00 
    2.9826919577590885E+00 
    3.0034219436737510E+00 
    3.0115778124894779E+00 
    3.0016839056968330E+00 
    2.9973056644986311E+00 
    2.9818167047334048E+00 
    2.9902316403699434E+00 
    2.9924395115303621E+00 
    2.9818630746585786E+00 
    2.9735762618259711E+00 
    2.9737969313562775E+00 
    2.9653636530997010E+00 
    2.9630279952857479E+00 
    2.9729718308482114E+00 
    2.9707986060751628E+00 
    2.9610924196336517E+00 
    2.9646823295456532E+00 
    2.9529957695013813E+00 
    2.9584690185934535E+00 
    2.9526609877248071E+00 
    2.9434870780865081E+00 
    2.9380364476816516E+00 
    2.9479146538094700E+00 
    2.9445488071857508E+00 
    2.9364247905467211E+00 
    2.9560584217614481E+00 
    2.9640652944160553E+00 
    2.9546101321729608E+00 
    2.9503120233999409E+00 
    2.9356466475055809E+00 
    2.9438533921702565E+00 
    2.9457324075631557E+00 
    2.9354276421675971E+00 
    2.9272102206961459E+00 
    2.9273844656609129E+00 
    2.9189905313834275E+00 
    2.9168063414160255E+00 
    2.9266483070254066E+00 
    2.9245966363627862E+00 
    2.9151773425966558E+00 
    2.9185242771377196E+00 
    2.9068976516928129E+00 
    2.9123755596615006E+00 
    2.9066737934378128E+00 
    2.8973139883559229E+00 
    2.8917741221810194E+00 
    2.9018510952436212E+00 
    2.8986244034352153E+00 
    2.8902687970078316E+00 
    2.9100953772647276E+00 
    2.9179491745533253E+00 
    2.9085865393299395E+00 
    2.9044054660958030E+00 
    2.8894771692770131E+00 
    2.8979951716664591E+00 
    2.8998003129245848E+00 
    2.8891832462971530E+00 
    2.8805903214302560E+00 
    2.8807068455564711E+00 
    2.8713642258741170E+00 
    2.8690621193524759E+00 
    2.8797739039153258E+00 
    2.8772208432518651E+00 
    2.8664583364135083E+00 
    2.8706313893012090E+00 
    2.8575486644984500E+00 
    2.8636232815946561E+00 
    2.8572103502280051E+00 
    2.8475596404050867E+00 
    2.8422534959287495E+00 
    2.8520045671186907E+00 
    2.8480381581252519E+00 
    2.8402927341432220E+00 
    2.8604931820669308E+00 
    2.8694339601198542E+00 
    2.8582740466482148E+00 
    2.8539269627505384E+00 
    2.8393437806075057E+00 
    2.8470598408640750E+00 
    2.8489145022374145E+00 
    2.8390762373105960E+00 
    2.8321546062474061E+00 
    2.8322052717280095E+00 
    2.8248477416206121E+00 
    2.8230288330077302E+00 
    2.8313790719316763E+00 
    2.8293018944356798E+00 
    2.8211850327052259E+00 
    2.8242962059120909E+00 
    2.8147073568407897E+00 
    2.8191521003305549E+00 
    2.8141575592488515E+00 
    2.8069748694450056E+00 
    2.8028475992632571E+00 
    2.8102425904320723E+00 
    2.8077455190443539E+00 
    2.8016826205148075E+00 
    2.8167920945052423E+00 
    2.8231991848863465E+00 
    2.8152283946427752E+00 
    2.8121202018838720E+00 
    2.8008361501714236E+00 
    2.8070435344830922E+00 
    2.8081272398234809E+00 
    2.8002270743854663E+00 
    2.7952120978479469E+00 
    2.7952626149913562E+00 
    2.7894746623428111E+00 
    2.7880375388901197E+00 
    2.7944352835365041E+00 
    2.7925657470132688E+00 
    2.7863141183854130E+00 
    2.7888638730678621E+00 
    2.7815529418888736E+00 
    2.7849112532062281E+00 
    2.7810554942277288E+00 
    2.7756661684836916E+00 
    2.7724470674056261E+00 
    2.7779804505202388E+00 
    2.7756464512863048E+00 
    2.7711483442506570E+00 
    2.7828510669825786E+00 
    2.7876018693295874E+00 
    2.7812267313542356E+00 
    2.7790216114821202E+00 
    2.7702736208040029E+00 
    2.7748682162558493E+00 
    2.7755893860062666E+00 
    2.7695923730750618E+00 
    2.7666978211169537E+00 
    2.7666234426837790E+00 
    2.7624496024417042E+00 
    2.7614445209246470E+00 
    2.7658369034329056E+00 
    2.7641342453430284E+00 
    2.7599214159256120E+00 
    2.7619257875088965E+00 
    2.7567794161470207E+00 
    2.7591342070411313E+00 
    2.7563289231596846E+00 
    2.7526089686240289E+00 
    2.7503933807206500E+00 
    2.7540408033395765E+00 
    2.7523705557694234E+00 
    2.7494383593022431E+00 
    2.7572028708169420E+00 
    2.7601866813271667E+00 
    2.7555688763133634E+00 
    2.7543963243021077E+00 
    2.7485749942169031E+00 
    2.7516436018803088E+00 
    2.7516583339107696E+00 
    2.7475687086707103E+00 
    2.7465959143331991E+00 
    2.7463538830854337E+00 
    2.7436799714698208E+00 
    2.7432138882554176E+00 
    2.7456096992575865E+00 
    2.7441730455465088E+00 
    2.7418492524025240E+00 
    2.7432285345215672E+00 
    2.7404116966409671E+00 
    2.7417007373134226E+00 
    2.7400422830658022E+00 
    2.7380912193627678E+00 
    2.7368079258937068E+00 
    2.7385697672640079E+00 
    2.7372576468295970E+00 
    2.7358966840322689E+00 
    2.7400251618501201E+00 
    2.7413260999724680E+00 
    2.7383757863506419E+00 
    2.7381617312640518E+00 
    2.7349983461461354E+00 
    2.7364812116259638E+00 
    2.7360163934867532E+00 
    2.7338225725570426E+00 
    2.7349329938291036E+00 
    2.7345629884937184E+00 
    2.7334934907574997E+00 
    2.7334838126512411E+00 
    2.7338273826578265E+00 
    2.7325955764343446E+00 
    2.7322129325209139E+00 
    2.7330530759862652E+00 
    2.7324836209308190E+00 
    2.7327260338016184E+00 
    2.7320257611123022E+00 
    2.7318397230161198E+00 
    2.7315825727486347E+00 
    2.7313867019737832E+00 
    2.7306811368748916E+00 
    2.7309377768587586E+00 
    2.7311860816092803E+00 
    2.7308096556529473E+00 
    2.7295700305639707E+00 
    2.7303404545128043E+00 
    2.7299372326655993E+00 
    2.7299110281353816E+00 
    2.7288379625866841E+00 
    2.7284841828969966E+00 
    3.4077111724578915E+00 
    3.3816847968873720E+00 
    3.3845726787310015E+00 
    3.4034573422465759E+00 
    3.3594121091691784E+00 
    3.3400306876989667E+00 
    3.3562797989986333E+00 
    3.3692997346302707E+00 
    3.3946381002081920E+00 
    3.3796624960733781E+00 
    3.3689879909791984E+00 
    3.3810512072257897E+00 
    3.3628539631523369E+00 
    3.3564461961412806E+00 
    3.3437686968458946E+00 
    3.3454158513088492E+00 
    3.3453957849520184E+00 
    3.3291048968768182E+00 
    3.3232971352112712E+00 
    3.3361209216163110E+00 
    3.3303181258926164E+00 
    3.3316181182746836E+00 
    3.3188253638468419E+00 
    3.3141624275914530E+00 
    3.3558175467121951E+00 
    3.3419206763944431E+00 
    3.3350043481226646E+00 
    3.3418296027048586E+00 
    3.3285190256373776E+00 
    3.3134152591111432E+00 
    3.3152391192816895E+00 
    3.3261980397747823E+00 
    3.3286011889711395E+00 
    3.3262033604977201E+00 
    3.3153018492261959E+00 
    3.3136019271890080E+00 
    3.2998501462544612E+00 
    3.3041267441199658E+00 
    3.2942316290356985E+00 
    3.2892560963685087E+00 
    3.3040488875304641E+00 
    3.2996813985903395E+00 
    3.2889486199750717E+00 
    3.2940443286766636E+00 
    3.2803202404098735E+00 
    3.2867483463434723E+00 
    3.2800397131337689E+00 
    3.2705073085537824E+00 
    3.2880086738644225E+00 
    3.2811152454604073E+00 
    3.2722363135956427E+00 
    3.2742739967164525E+00 
    3.2733705234276540E+00 
    3.2634911187960105E+00 
    3.2587916157815360E+00 
    3.2668667261520472E+00 
    3.2621383831281028E+00 
    3.2635357383067327E+00 
    3.2543845067595432E+00 
    3.2489484775228341E+00 
    3.2382675989630205E+00 
    3.2457951416663562E+00 
    3.2383902404376106E+00 
    3.2313081411849196E+00 
    3.2498869139851525E+00 
    3.2514173971004117E+00 
    3.2399047771011649E+00 
    3.2410763798310844E+00 
    3.2254558495868362E+00 
    3.2334023917591619E+00 
    3.2299731616277660E+00 
    3.2191356828419049E+00 
    3.2260757606688570E+00 
    3.2220994962704812E+00 
    3.2130317482759434E+00 
    3.2133201218270222E+00 
    3.2170187348517509E+00 
    3.2099220628042207E+00 
    3.2030482563931391E+00 
    3.2095348662333278E+00 
    3.2015147712885623E+00 
    3.2048674906739461E+00 
    3.1968508495633041E+00 
    3.1896054348970027E+00 
    3.1810943015247068E+00 
    3.1895680485151150E+00 
    3.1833756156468511E+00 
    3.1758313735366364E+00 
    3.1953307560027757E+00 
    3.1993795002719265E+00 
    3.1881521283511995E+00 
    3.1873781363545883E+00 
    3.1715447243530539E+00 
    3.1797841592426486E+00 
    3.1782059053232881E+00 
    3.1671807473384170E+00 
    3.1692114888588430E+00 
    3.1666108394207271E+00 
    3.1576214491584156E+00 
    3.1571551669433187E+00 
    3.1628115453800616E+00 
    3.1571758720137266E+00 
    3.1494169927092277E+00 
    3.1550049440834953E+00 
    3.1468266525056614E+00 
    3.1501059890967209E+00 
    3.1428912146499788E+00 
    3.1357615536607697E+00 
    3.1274205640805173E+00 
    3.1362071170895653E+00 
    3.1306913087958459E+00 
    3.1229846008775768E+00 
    3.1424989950867532E+00 
    3.1477449343284021E+00 
    3.1369508178221803E+00 
    3.1351753239343818E+00 
    3.1195534727087120E+00 
    3.1278338533357202E+00 
    3.1271632605116135E+00 
    3.1162310201836281E+00 
    3.1157064761252951E+00 
    3.1137889358678468E+00 
    3.1050100129380565E+00 
    3.1041560370025554E+00 
    3.1107299141566869E+00 
    3.1059643170197520E+00 
    3.0978344641293938E+00 
    3.1028853814277486E+00 
    3.0943067216134987E+00 
    3.0978334978821129E+00 
    3.0910821437329123E+00 
    3.0838049625811181E+00 
    3.0760214180112340E+00 
    3.0848738104694653E+00 
    3.0798274022676870E+00 
    3.0721138343083312E+00 
    3.0914099446717289E+00 
    3.0971789210241196E+00 
    3.0867333241573527E+00 
    3.0845038060891765E+00 
    3.0691776476978285E+00 
    3.0774008867373914E+00 
    3.0772105845668554E+00 
    3.0664622461888857E+00 
    3.0645721091444607E+00 
    3.0630290382947782E+00 
    3.0544793644045565E+00 
    3.0534626982505864E+00 
    3.0603766257042540E+00 
    3.0561452614782190E+00 
    3.0478949879877022E+00 
    3.0525821664327104E+00 
    3.0440129161403338E+00 
    3.0475442012440950E+00 
    3.0411369411165889E+00 
    3.0339597156356102E+00 
    3.0265621366623798E+00 
    3.0352942824776328E+00 
    3.0305235736883609E+00 
    3.0229423127588992E+00 
    3.0418758878148622E+00 
    3.0478808569316591E+00 
    3.0377656864796516E+00 
    3.0352893056399655E+00 
    3.0203020143855870E+00 
    3.0283537555946372E+00 
    3.0284513741330907E+00 
    3.0179153154390583E+00 
    3.0154625555966081E+00 
    3.0141333965145689E+00 
    3.0058276292620336E+00 
    3.0047068861343047E+00 
    3.0117433421629807E+00 
    3.0077885295715237E+00 
    2.9996892064677065E+00 
    3.0041814018138893E+00 
    2.9955396677235080E+00 
    2.9991684176096833E+00 
    2.9929123458618001E+00 
    2.9857455940691047E+00 
    2.9785192920641803E+00 
    2.9870991935543931E+00 
    2.9822361590761348E+00 
    2.9748379833579142E+00 
    2.9937507880559018E+00 
    2.9998561815823575E+00 
    2.9899421833348958E+00 
    2.9871672682692703E+00 
    2.9723951845582781E+00 
    2.9801721146539473E+00 
    2.9807527060609904E+00 
    2.9704800071232600E+00 
    2.9679126936657076E+00 
    2.9667128272385166E+00 
    2.9589015960552225E+00 
    2.9576875628066097E+00 
    2.9644504372366747E+00 
    2.9605985886579598E+00 
    2.9526900267016329E+00 
    2.9572250511823408E+00 
    2.9487718166269525E+00 
    2.9523207699857505E+00 
    2.9461053748250117E+00 
    2.9391431532618122E+00 
    2.9321818243611113E+00 
    2.9404543698071688E+00 
    2.9360984639706160E+00 
    2.9288629069655694E+00 
    2.9468423340601153E+00 
    2.9528390558142266E+00 
    2.9432647516651746E+00 
    2.9406177735719146E+00 
    2.9264724307515735E+00 
    2.9342065149355276E+00 
    2.9344786263760927E+00 
    2.9243715519760758E+00 
    2.9217350599068745E+00 
    2.9205757861321211E+00 
    2.9128419484582180E+00 
    2.9116244834255056E+00 
    2.9183296802217451E+00 
    2.9145003067437267E+00 
    2.9066292261648035E+00 
    2.9112287502541814E+00 
    2.9028388315651981E+00 
    2.9063917801779473E+00 
    2.9000567037185307E+00 
    2.8929996243064355E+00 
    2.8854481836774410E+00 
    2.8940647066123892E+00 
    2.8895197035870290E+00 
    2.8818647556295556E+00 
    2.9005596237905595E+00 
    2.9067123724311932E+00 
    2.8969849188578194E+00 
    2.8942401908786470E+00 
    2.8792577441023681E+00 
    2.8875973496389538E+00 
    2.8879519468262345E+00 
    2.8768700006184393E+00 
    2.8738719050812263E+00 
    2.8727233334401241E+00 
    2.8633224716835071E+00 
    2.8616763354783856E+00 
    2.8699900371906168E+00 
    2.8651139379823083E+00 
    2.8557704003942126E+00 
    2.8612037222742077E+00 
    2.8518386625877237E+00 
    2.8554705590357372E+00 
    2.8489248171877213E+00 
    2.8423608063196566E+00 
    2.8356011226890447E+00 
    2.8432042974266083E+00 
    2.8386871218364713E+00 
    2.8320804316617272E+00 
    2.8494068958346790E+00 
    2.8560192282777672E+00 
    2.8454452077695063E+00 
    2.8429243449151715E+00 
    2.8294818743624641E+00 
    2.8365990087405559E+00 
    2.8365805426211406E+00 
    2.8270687470170097E+00 
    2.8261838898404728E+00 
    2.8247560094696080E+00 
    2.8181001863118111E+00 
    2.8174196108263372E+00 
    2.8223719992943934E+00 
    2.8185150628680611E+00 
    2.8122596196167748E+00 
    2.8164243092041423E+00 
    2.8101290395557137E+00 
    2.8126402830978776E+00 
    2.8073633774903950E+00 
    2.8024632647334622E+00 
    2.7968070399261165E+00 
    2.8024477776233905E+00 
    2.7986333481225123E+00 
    2.7936735819899621E+00 
    2.8069893294797073E+00 
    2.8113906345985606E+00 
    2.8032615651281172E+00 
    2.8017477259505204E+00 
    2.7911679737570485E+00 
    2.7966876096011650E+00 
    2.7962129787339172E+00 
    2.7886066086345389E+00 
    2.7895998043216506E+00 
    2.7881940425491720E+00 
    2.7829755360338022E+00 
    2.7826708678230738E+00 
    2.7858322512164579E+00 
    2.7820677045806241E+00 
    2.7775442589267874E+00 
    2.7812342677336392E+00 
    2.7768396611779038E+00 
    2.7784219994727337E+00 
    2.7741444329613394E+00 
    2.7708563667179460E+00 
    2.7662778243657198E+00 
    2.7701733328016562E+00 
    2.7668268342945614E+00 
    2.7632779023483227E+00 
    2.7732067727507856E+00 
    2.7759948670929746E+00 
    2.7694647285575380E+00 
    2.7688450151674084E+00 
    2.7607649341085341E+00 
    2.7648513190571791E+00 
    2.7638693642340471E+00 
    2.7580717444484701E+00 
    2.7610769329520051E+00 
    2.7593189343945541E+00 
    2.7557155038008645E+00 
    2.7560843068400067E+00 
    2.7569988622597568E+00 
    2.7536494202169992E+00 
    2.7511409347836291E+00 
    2.7541093722282661E+00 
    2.7519905220143901E+00 
    2.7526111736607337E+00 
    2.7493626764838903E+00 
    2.7477248509371268E+00 
    2.7442202632536778E+00 
    2.7461444011926188E+00 
    2.7433688930451439E+00 