# vtk DataFile Version 2.0
Pressure Field Data 
ASCII 
DATASET UNSTRUCTURED_GRID 

POINTS 6273 double 

    0.0000000000000000E+00     0.0000000000000000E+00     0.0000000000000000E+00 
    1.0000000000000000E+00     0.0000000000000000E+00     0.0000000000000000E+00 
    1.0000000000000000E+00     1.0000000000000000E+00     0.0000000000000000E+00 
    0.0000000000000000E+00     1.0000000000000000E+00     0.0000000000000000E+00 
    1.5624999999970249E-02     0.0000000000000000E+00     0.0000000000000000E+00 
    3.1249999999940652E-02     0.0000000000000000E+00     0.0000000000000000E+00 
    4.6874999999905617E-02     0.0000000000000000E+00     0.0000000000000000E+00 
    6.2499999999870597E-02     0.0000000000000000E+00     0.0000000000000000E+00 
    7.8124999999846401E-02     0.0000000000000000E+00     0.0000000000000000E+00 
    9.3749999999822212E-02     0.0000000000000000E+00     0.0000000000000000E+00 
    1.0937499999979799E-01     0.0000000000000000E+00     0.0000000000000000E+00 
    1.2499999999977381E-01     0.0000000000000000E+00     0.0000000000000000E+00 
    1.4062499999972811E-01     0.0000000000000000E+00     0.0000000000000000E+00 
    1.5624999999968239E-01     0.0000000000000000E+00     0.0000000000000000E+00 
    1.7187499999963671E-01     0.0000000000000000E+00     0.0000000000000000E+00 
    1.8749999999959110E-01     0.0000000000000000E+00     0.0000000000000000E+00 
    2.0312499999954539E-01     0.0000000000000000E+00     0.0000000000000000E+00 
    2.1874999999949971E-01     0.0000000000000000E+00     0.0000000000000000E+00 
    2.3437499999945391E-01     0.0000000000000000E+00     0.0000000000000000E+00 
    2.4999999999940831E-01     0.0000000000000000E+00     0.0000000000000000E+00 
    2.6562499999936218E-01     0.0000000000000000E+00     0.0000000000000000E+00 
    2.8124999999931621E-01     0.0000000000000000E+00     0.0000000000000000E+00 
    2.9687499999927008E-01     0.0000000000000000E+00     0.0000000000000000E+00 
    3.1249999999922412E-01     0.0000000000000000E+00     0.0000000000000000E+00 
    3.2812499999917810E-01     0.0000000000000000E+00     0.0000000000000000E+00 
    3.4374999999913203E-01     0.0000000000000000E+00     0.0000000000000000E+00 
    3.5937499999908601E-01     0.0000000000000000E+00     0.0000000000000000E+00 
    3.7499999999903999E-01     0.0000000000000000E+00     0.0000000000000000E+00 
    3.9062499999899403E-01     0.0000000000000000E+00     0.0000000000000000E+00 
    4.0624999999894801E-01     0.0000000000000000E+00     0.0000000000000000E+00 
    4.2187499999890188E-01     0.0000000000000000E+00     0.0000000000000000E+00 
    4.3749999999885592E-01     0.0000000000000000E+00     0.0000000000000000E+00 
    4.5312499999880979E-01     0.0000000000000000E+00     0.0000000000000000E+00 
    4.6874999999876382E-01     0.0000000000000000E+00     0.0000000000000000E+00 
    4.8437499999871780E-01     0.0000000000000000E+00     0.0000000000000000E+00 
    4.9999999999867167E-01     0.0000000000000000E+00     0.0000000000000000E+00 
    5.1562499999871325E-01     0.0000000000000000E+00     0.0000000000000000E+00 
    5.3124999999875477E-01     0.0000000000000000E+00     0.0000000000000000E+00 
    5.4687499999879630E-01     0.0000000000000000E+00     0.0000000000000000E+00 
    5.6249999999883782E-01     0.0000000000000000E+00     0.0000000000000000E+00 
    5.7812499999887934E-01     0.0000000000000000E+00     0.0000000000000000E+00 
    5.9374999999892086E-01     0.0000000000000000E+00     0.0000000000000000E+00 
    6.0937499999896239E-01     0.0000000000000000E+00     0.0000000000000000E+00 
    6.2499999999900380E-01     0.0000000000000000E+00     0.0000000000000000E+00 
    6.4062499999904521E-01     0.0000000000000000E+00     0.0000000000000000E+00 
    6.5624999999908673E-01     0.0000000000000000E+00     0.0000000000000000E+00 
    6.7187499999912825E-01     0.0000000000000000E+00     0.0000000000000000E+00 
    6.8749999999916978E-01     0.0000000000000000E+00     0.0000000000000000E+00 
    7.0312499999921130E-01     0.0000000000000000E+00     0.0000000000000000E+00 
    7.1874999999925282E-01     0.0000000000000000E+00     0.0000000000000000E+00 
    7.3437499999929434E-01     0.0000000000000000E+00     0.0000000000000000E+00 
    7.4999999999933586E-01     0.0000000000000000E+00     0.0000000000000000E+00 
    7.6562499999937739E-01     0.0000000000000000E+00     0.0000000000000000E+00 
    7.8124999999941891E-01     0.0000000000000000E+00     0.0000000000000000E+00 
    7.9687499999946043E-01     0.0000000000000000E+00     0.0000000000000000E+00 
    8.1249999999950195E-01     0.0000000000000000E+00     0.0000000000000000E+00 
    8.2812499999954348E-01     0.0000000000000000E+00     0.0000000000000000E+00 
    8.4374999999958500E-01     0.0000000000000000E+00     0.0000000000000000E+00 
    8.5937499999962652E-01     0.0000000000000000E+00     0.0000000000000000E+00 
    8.7499999999966793E-01     0.0000000000000000E+00     0.0000000000000000E+00 
    8.9062499999970934E-01     0.0000000000000000E+00     0.0000000000000000E+00 
    9.0624999999975087E-01     0.0000000000000000E+00     0.0000000000000000E+00 
    9.2187499999979239E-01     0.0000000000000000E+00     0.0000000000000000E+00 
    9.3749999999983391E-01     0.0000000000000000E+00     0.0000000000000000E+00 
    9.5312499999987543E-01     0.0000000000000000E+00     0.0000000000000000E+00 
    9.6874999999991696E-01     0.0000000000000000E+00     0.0000000000000000E+00 
    9.8437499999995848E-01     0.0000000000000000E+00     0.0000000000000000E+00 
    1.0000000000000000E+00     1.5624999999970249E-02     0.0000000000000000E+00 
    1.0000000000000000E+00     3.1249999999940652E-02     0.0000000000000000E+00 
    1.0000000000000000E+00     4.6874999999905617E-02     0.0000000000000000E+00 
    1.0000000000000000E+00     6.2499999999870597E-02     0.0000000000000000E+00 
    1.0000000000000000E+00     7.8124999999846401E-02     0.0000000000000000E+00 
    1.0000000000000000E+00     9.3749999999822212E-02     0.0000000000000000E+00 
    1.0000000000000000E+00     1.0937499999979799E-01     0.0000000000000000E+00 
    1.0000000000000000E+00     1.2499999999977381E-01     0.0000000000000000E+00 
    1.0000000000000000E+00     1.4062499999972811E-01     0.0000000000000000E+00 
    1.0000000000000000E+00     1.5624999999968239E-01     0.0000000000000000E+00 
    1.0000000000000000E+00     1.7187499999963671E-01     0.0000000000000000E+00 
    1.0000000000000000E+00     1.8749999999959110E-01     0.0000000000000000E+00 
    1.0000000000000000E+00     2.0312499999954539E-01     0.0000000000000000E+00 
    1.0000000000000000E+00     2.1874999999949971E-01     0.0000000000000000E+00 
    1.0000000000000000E+00     2.3437499999945391E-01     0.0000000000000000E+00 
    1.0000000000000000E+00     2.4999999999940831E-01     0.0000000000000000E+00 
    1.0000000000000000E+00     2.6562499999936218E-01     0.0000000000000000E+00 
    1.0000000000000000E+00     2.8124999999931621E-01     0.0000000000000000E+00 
    1.0000000000000000E+00     2.9687499999927008E-01     0.0000000000000000E+00 
    1.0000000000000000E+00     3.1249999999922412E-01     0.0000000000000000E+00 
    1.0000000000000000E+00     3.2812499999917810E-01     0.0000000000000000E+00 
    1.0000000000000000E+00     3.4374999999913203E-01     0.0000000000000000E+00 
    1.0000000000000000E+00     3.5937499999908601E-01     0.0000000000000000E+00 
    1.0000000000000000E+00     3.7499999999903999E-01     0.0000000000000000E+00 
    1.0000000000000000E+00     3.9062499999899403E-01     0.0000000000000000E+00 
    1.0000000000000000E+00     4.0624999999894801E-01     0.0000000000000000E+00 
    1.0000000000000000E+00     4.2187499999890188E-01     0.0000000000000000E+00 
    1.0000000000000000E+00     4.3749999999885592E-01     0.0000000000000000E+00 
    1.0000000000000000E+00     4.5312499999880979E-01     0.0000000000000000E+00 
    1.0000000000000000E+00     4.6874999999876382E-01     0.0000000000000000E+00 
    1.0000000000000000E+00     4.8437499999871780E-01     0.0000000000000000E+00 
    1.0000000000000000E+00     4.9999999999867167E-01     0.0000000000000000E+00 
    1.0000000000000000E+00     5.1562499999871325E-01     0.0000000000000000E+00 
    1.0000000000000000E+00     5.3124999999875477E-01     0.0000000000000000E+00 
    1.0000000000000000E+00     5.4687499999879630E-01     0.0000000000000000E+00 
    1.0000000000000000E+00     5.6249999999883782E-01     0.0000000000000000E+00 
    1.0000000000000000E+00     5.7812499999887934E-01     0.0000000000000000E+00 
    1.0000000000000000E+00     5.9374999999892086E-01     0.0000000000000000E+00 
    1.0000000000000000E+00     6.0937499999896239E-01     0.0000000000000000E+00 
    1.0000000000000000E+00     6.2499999999900380E-01     0.0000000000000000E+00 
    1.0000000000000000E+00     6.4062499999904521E-01     0.0000000000000000E+00 
    1.0000000000000000E+00     6.5624999999908673E-01     0.0000000000000000E+00 
    1.0000000000000000E+00     6.7187499999912825E-01     0.0000000000000000E+00 
    1.0000000000000000E+00     6.8749999999916978E-01     0.0000000000000000E+00 
    1.0000000000000000E+00     7.0312499999921130E-01     0.0000000000000000E+00 
    1.0000000000000000E+00     7.1874999999925282E-01     0.0000000000000000E+00 
    1.0000000000000000E+00     7.3437499999929434E-01     0.0000000000000000E+00 
    1.0000000000000000E+00     7.4999999999933586E-01     0.0000000000000000E+00 
    1.0000000000000000E+00     7.6562499999937739E-01     0.0000000000000000E+00 
    1.0000000000000000E+00     7.8124999999941891E-01     0.0000000000000000E+00 
    1.0000000000000000E+00     7.9687499999946043E-01     0.0000000000000000E+00 
    1.0000000000000000E+00     8.1249999999950195E-01     0.0000000000000000E+00 
    1.0000000000000000E+00     8.2812499999954348E-01     0.0000000000000000E+00 
[...]
CELL_DATA 6144 
SCALARS Pressure double 1 
LOOKUP_TABLE default 

    3.4785323541287965E+00 
    3.3802890210248053E+00 
    3.3644819658583138E+00 
    3.3802921370952244E+00 
    3.3197244101654100E+00 
    3.2792259581782934E+00 
    3.3007975546978745E+00 
    3.3301405509289648E+00 
    3.3197321204904324E+00 
    3.3301481676851594E+00 
    3.3008154313245512E+00 
    3.2792337358683699E+00 
    3.2590256859225022E+00 
    3.2773419249910134E+00 
    3.2584561036107935E+00 
    3.2456580862097630E+00 
    3.2774763137173810E+00 
    3.2591969125511651E+00 
    3.2461769369136588E+00 
    3.2588773917349094E+00 
    3.2333284691994519E+00 
    3.2461815399390201E+00 
    3.2337432013400789E+00 
    3.2186444753197465E+00 
    3.2318372656750798E+00 
    3.2282920538173121E+00 
    3.2108573660909170E+00 
    3.2075777845174822E+00 
    3.2198277811254057E+00 
    3.2068776290565455E+00 
    3.1960996810045663E+00 
    3.2062889626075579E+00 
    3.1870916001585603E+00 
    3.1963040632165240E+00 
    3.1844132152193949E+00 
    3.1696189005018476E+00 
    3.1600742123117693E+00 
    3.1745124759770946E+00 
    3.1666181880148656E+00 
    3.1554614166773272E+00 
    3.1843339676947751E+00 
    3.1900722569571727E+00 
    3.1743503787487235E+00 
    3.1729426551517386E+00 
    3.1514990829584688E+00 
    3.1626958965739487E+00 
    3.1611908763851160E+00 
    3.1470862261139336E+00 
    3.1434590250867731E+00 
    3.1426928587980996E+00 
    3.1310339130175344E+00 
    3.1284765160297630E+00 
    3.1398709379123084E+00 
    3.1345600633206288E+00 
    3.1240956017773560E+00 
    3.1295635049056139E+00 
    3.1151242066630336E+00 
    3.1219381919600560E+00 
    3.1139683518032655E+00 
    3.1028784884434311E+00 
    3.0962601417075333E+00 
    3.1074057021646828E+00 
    3.1028328967680872E+00 
    3.0940437496130091E+00 
    3.1165105584407544E+00 
    3.1239800347159146E+00 
    3.1120478136319649E+00 
    3.1087411411918433E+00 
    3.0922200396858717E+00 
    3.1011231058931696E+00 
    3.1016960436940955E+00 
    3.0903141610428411E+00 
    3.0843702148647698E+00 
    3.0845011518130727E+00 
    3.0754108465387597E+00 
    3.0729222213375396E+00 
    3.0830141226171546E+00 
    3.0794570329818791E+00 
    3.0701307314479540E+00 
    3.0744280250974310E+00 
    3.0623151756047413E+00 
    3.0678770188582063E+00 
    3.0615576090486116E+00 
    3.0524398368530643E+00 
    3.0470384301269680E+00 
    3.0565615026873116E+00 
    3.0530461375770304E+00 
    3.0453521038435798E+00 
    3.0645083571619414E+00 
    3.0715793733821721E+00 
    3.0618117304037336E+00 
    3.0583744199780165E+00 
    3.0439555833647223E+00 
    3.0517776256689353E+00 
    3.0524334737737586E+00 
    3.0425925423479696E+00 
    3.0368809540988955E+00 
    3.0369509705279842E+00 
    3.0291517247398656E+00 
    3.0271398852618678E+00 
    3.0359039600992550E+00 
    3.0336743342925319E+00 
    3.0254687618531362E+00 
    3.0285559078053619E+00 
    3.0180713603346727E+00 
    3.0229407522065275E+00 
    3.0176115470182632E+00 
    3.0095221157464365E+00 
    3.0047904717892213E+00 
    3.0132386149458754E+00 
    3.0102839220535249E+00 
    3.0034233253977449E+00 
    3.0206688564529989E+00 
    3.0272982048280777E+00 
    3.0185869077448682E+00 
    3.0151994719326618E+00 
    3.0025740417140545E+00 
    3.0095525491264010E+00 
    3.0108400866448095E+00 
    3.0020759700406772E+00 
    2.9957683503774515E+00 
    2.9958535822996759E+00 
    2.9888719232523009E+00 
    2.9870468842987110E+00 
    2.9950679405525387E+00 
    2.9931180483523949E+00 
    2.9854429657900767E+00 
    2.9884059937490206E+00 
    2.9789309847762513E+00 
    2.9833772190143879E+00 
    2.9785618855441700E+00 
    2.9712680560622005E+00 
    2.9670204468644163E+00 
    2.9747036438982692E+00 
    2.9721454441207094E+00 
    2.9658611122482532E+00 
    2.9812449823297285E+00 
    2.9874822345126795E+00 
    2.9797920330751491E+00 
    2.9765862956744087E+00 
    2.9651461923339246E+00 
    2.9714861307156144E+00 
    2.9727861928348385E+00 
    2.9648080644366552E+00 
    2.9588085957599630E+00 
    2.9589373292535179E+00 
    2.9525427770230053E+00 
    2.9508603527564792E+00 
    2.9582879330333403E+00 
    2.9566513791620301E+00 
    2.9496281396100770E+00 
    2.9521637317682261E+00 
    2.9434400466253705E+00 
    2.9475201911887980E+00 
    2.9431847889954570E+00 
    2.9364139442392894E+00 
    2.9325197857605008E+00 
    2.9396632538106049E+00 
    2.9372785055869355E+00 
    2.9314967811026365E+00 
    2.9458071496157330E+00 
    2.9515327460305492E+00 
    2.9444138913179319E+00 
    2.9414261127758765E+00 
    2.9308896377698437E+00 
    2.9367067525073960E+00 
    2.9379611321050914E+00 
    2.9306247258449627E+00 
    2.9250130615255157E+00 
    2.9251849791898259E+00 
    2.9193755961002021E+00 
    2.9177927249829461E+00 
    2.9245847413363895E+00 
    2.9230100241836809E+00 
    2.9164816380265512E+00 
    2.9189110050612861E+00 
    2.9110032203471117E+00 
    2.9147582369298926E+00 
    2.9108865391779957E+00 
    2.9046752040423294E+00 
    2.9010098847271424E+00 
    2.9076205221296720E+00 
    2.9050017025544559E+00 
    2.8996240891014318E+00 
    2.9130116338124949E+00 
    2.9182998906340485E+00 
    2.9117775449260286E+00 
    2.9089907508940991E+00 
    2.8989969793307062E+00 
    2.9043930954980230E+00 
    2.9057448286013119E+00 
    2.8989248004129919E+00 
    2.8938675957779156E+00 
    2.8939709844950507E+00 
    2.8886568911224999E+00 
    2.8872198750399161E+00 
    2.8933897880482085E+00 
    2.8919284795782296E+00 
    2.8858996801268817E+00 
    2.8881915876081119E+00 
    2.8809782329155009E+00 
    2.8843433955503985E+00 
    2.8807227454911026E+00 
    2.8751388698729943E+00 
    2.8718259803297190E+00 
    2.8777685825131858E+00 
    2.8756504216501844E+00 
    2.8707783301448178E+00 
    2.8827137557789966E+00 
    2.8875970918414562E+00 
    2.8816639273660645E+00 
    2.8791170266338173E+00 
    2.8702044922494427E+00 
    2.8751441578390495E+00 
    2.8761719158068599E+00 
    2.8699150205340875E+00 
    2.8653759248314654E+00 
    2.8654203101744193E+00 
    2.8605202631371638E+00 
    2.8592992898727752E+00 
    2.8648936500292175E+00 
    2.8635520150365674E+00 
    2.8581942383937271E+00 
    2.8601923618580445E+00 
    2.8536585924071729E+00 
    2.8567117854996740E+00 
    2.8534612208328527E+00 
    2.8483684918168057E+00 
    2.8454086604661448E+00 
    2.8507339164183221E+00 
    2.8488770207726031E+00 
    2.8445168160341741E+00 
    2.8552142340698121E+00 
    2.8595365082999606E+00 
    2.8541303599682570E+00 
    2.8519524677205736E+00 
    2.8439685241502421E+00 
    2.8484103642786929E+00 
    2.8492189219875934E+00 
    2.8436161551130543E+00 
    2.8397071409704639E+00 
    2.8397304239121777E+00 
    2.8353283891669143E+00 
    2.8342606239798021E+00 
    2.8392134051743878E+00 
    2.8379310760816621E+00 
    2.8331920250210518E+00 
    2.8350117037628029E+00 
    2.8292776587108102E+00 
    2.8319541403959105E+00 
    2.8291769729052563E+00 
    2.8247241977719857E+00 
    2.8220709964879274E+00 
    2.8267505140982991E+00 
    2.8247710327494207E+00 
    2.8209798585522208E+00 
    2.8305599798942032E+00 
    2.8342963088499222E+00 
    2.8294301056068227E+00 
    2.8275380243866084E+00 
    2.8203743973922992E+00 
    2.8241955815208746E+00 
    2.8249819805360459E+00 
    2.8200541447695122E+00 
    2.8169990735309822E+00 
    2.8169383609554459E+00 
    2.8131967822799036E+00 
    2.8123029916795375E+00 
    2.8164038085105103E+00 
    2.8151893050816530E+00 
    2.8111698189011292E+00 
    2.8128468250299061E+00 
    2.8079624689419127E+00 
    2.8102453247442614E+00 
    2.8076100533469113E+00 
    2.8038709176263654E+00 
    2.8016466494671284E+00 
    2.8055034377945320E+00 
    2.8041038311661941E+00 
    2.8009358460006037E+00 
    2.8088106828866146E+00 
    2.8119258086508814E+00 
    2.8077609267317722E+00 
    2.8063086918005733E+00 
    2.8003555431998426E+00 
    2.8036260401824307E+00 
    2.8040292932258821E+00 
    2.7998317200911469E+00 
    2.7975517525219953E+00 
    2.7975156205356160E+00 
    2.7943792239203047E+00 
    2.7936266935586129E+00 
    2.7969655310473205E+00 
    2.7958030408801355E+00 
    2.7925162306798992E+00 
    2.7939848607933762E+00 
    2.7900124106924196E+00 
    2.7918547470042112E+00 
    2.7896768807230776E+00 
    2.7866639633704238E+00 
    2.7847847016951093E+00 
    2.7879020464996285E+00 
    2.7865130249789272E+00 
    2.7839676760797172E+00 
    2.7905298656502637E+00 
    2.7929685365069639E+00 
    2.7894201016986782E+00 
    2.7883396963383418E+00 
    2.7833653707497166E+00 
    2.7859859336290045E+00 
    2.7862510204206230E+00 
    2.7828133443209038E+00 
    2.7814170926246509E+00 
    2.7813293865627262E+00 
    2.7788178079847001E+00 
    2.7782147603054503E+00 
    2.7807887401210714E+00 
    2.7796647738276188E+00 
    2.7771728771395030E+00 
    2.7784586903559725E+00 
    2.7752193038208590E+00 
    2.7767426449674470E+00 
    2.7749060700377139E+00 
    2.7723327154030630E+00 
    2.7706492943839760E+00 
    2.7733384062896764E+00 
    2.7721546614743251E+00 
    2.7699051908883008E+00 
    2.7754028529213177E+00 
    2.7771836402694285E+00 
    2.7742552688766593E+00 
    2.7735356229105022E+00 
    2.7692217534819470E+00 
    2.7716243962426681E+00 
    2.7716123860416557E+00 
    2.7684274342584128E+00 
    2.7675281025590004E+00 
    2.7673022463058099E+00 
    2.7650271061178016E+00 
    2.7646528610115828E+00 
    2.7666877188833614E+00 
    2.7655190436743964E+00 
    2.7636021264062323E+00 
    2.7646773909891409E+00 
    2.7624876666693359E+00 
    2.7634854199695407E+00 
    2.7622228051633986E+00 
    2.7607366963074931E+00 
    2.7597686994496868E+00 
    2.7611054702103441E+00 
    2.7601122445224537E+00 
    2.7590815396343498E+00 
    2.7622037441679761E+00 
    2.7632439762572449E+00 
    2.7609623706190298E+00 
    2.7607938949373629E+00 
    2.7584035348978913E+00 
    2.7595252609213063E+00 
    2.7591770532576931E+00 
    2.7575169931254049E+00 
    2.7583514548562733E+00 
    2.7580723806201362E+00 
    2.7572634520544743E+00 
    2.7572559148844449E+00 
    2.7575169349621458E+00 
    2.7565864174838586E+00 
    2.7562956108962200E+00 
    2.7569307499306070E+00 
    2.7564996410701288E+00 
    2.7566830802034374E+00 
    2.7561534983331404E+00 
    2.7560126804238854E+00 
    2.7558181926105383E+00 
    2.7556701603599119E+00 
    2.7551364672222958E+00 
    2.7553304856264003E+00 
    2.7555189746715749E+00 
    2.7552357343121932E+00 
    2.7542969630352023E+00 
    2.7548791091355000E+00 
    2.7545735665091242E+00 
    2.7545539287140111E+00 
    2.7537423104553627E+00 
    2.7534741186918943E+00 
    3.2317076134759066E+00 
    3.2074752936635416E+00 
    3.2101329116719151E+00 
    3.2277110622854921E+00 
    3.1871052339649859E+00 
    3.1696935235407855E+00 
    3.1842652067954504E+00 
    3.1960924269023896E+00 
    3.2194552341527620E+00 
    3.2055886850357078E+00 
    3.1957976150079475E+00 
    3.2068583404933921E+00 
    3.1901926214112750E+00 
    3.1844033214553225E+00 
    3.1730008881595846E+00 
    3.1744519525071686E+00 
    3.1744781684731280E+00 
    3.1600294519496961E+00 
    3.1549034821282746E+00 
    3.1662004201202945E+00 
    3.1610160156523288E+00 
    3.1621924884984853E+00 
    3.1509699395328177E+00 
    3.1468725062930880E+00 
    3.1837639595270031E+00 
    3.1712931614975379E+00 
    3.1651349356326759E+00 
    3.1712109590780959E+00 
    3.1594050857248437E+00 
    3.1462138298903457E+00 
    3.1477965994929664E+00 
    3.1573577773010304E+00 
    3.1594742693744613E+00 
    3.1573613133766583E+00 
    3.1478498212197756E+00 
    3.1463728275487206E+00 
    3.1345324776928334E+00 
    3.1382026341145455E+00 
    3.1297306922096051E+00 
    3.1254975932701576E+00 
    3.1381369693344876E+00 
    3.1343897981172191E+00 
    3.1252384041502630E+00 
    3.1295721607939218E+00 
    3.1179499048964794E+00 
    3.1233736736020048E+00 
    3.1177151483334415E+00 
    3.1097387648164969E+00 
    3.1244287339991619E+00 
    3.1186141760312469E+00 
    3.1111850001637507E+00 
    3.1128901382327219E+00 
    3.1121305495123806E+00 
    3.1039396980999849E+00 
    3.1000685061281690E+00 
    3.1067230547216313E+00 
    3.1028178279455032E+00 
    3.1039698450985247E+00 
    3.0964592473531272E+00 
    3.0920294075953487E+00 
    3.0834022693954908E+00 
    3.0894711411984850E+00 
    3.0834841986261394E+00 
    3.0778102068515096E+00 
    3.0927905290970945E+00 
    3.0940314385575078E+00 
    3.0846892783968967E+00 
    3.0856444749306013E+00 
    3.0731341429771128E+00 
    3.0794696063507243E+00 
    3.0767138267195691E+00 
    3.0681062268915062E+00 
    3.0736432877072435E+00 
    3.0704825891987371E+00 
    3.0633320563234512E+00 
    3.0635662488986717E+00 
    3.0664627510402442E+00 
    3.0608806272380589E+00 
    3.0555210285629091E+00 
    3.0605852440633798E+00 
    3.0543448916517701E+00 
    3.0569465739463246E+00 
    3.0507237808857588E+00 
    3.0451492304981471E+00 
    3.0386415505010635E+00 
    3.0451081632342052E+00 
    3.0403538140879012E+00 
    3.0346214957570377E+00 
    3.0495341781159957E+00 
    3.0526530408789805E+00 
    3.0439832460533776E+00 
    3.0434059555651651E+00 
    3.0313548579818628E+00 
    3.0375985525869345E+00 
    3.0363761756577299E+00 
    3.0280317093740106E+00 
    3.0296378829001447E+00 
    3.0276622801981721E+00 
    3.0209288438231319E+00 
    3.0205980629265552E+00 
    3.0247908846882221E+00 
    3.0205514082406442E+00 
    3.0147949903204765E+00 
    3.0189624420924046E+00 
    3.0129213315872896E+00 
    3.0153333360752415E+00 
    3.0099901516416385E+00 
    3.0047765905794632E+00 
    2.9986778235563976E+00 
    3.0050631881071350E+00 
    3.0010059042265080E+00 
    2.9954184593688553E+00 
    3.0096637366872705E+00 
    3.0135108415195320E+00 
    3.0055359684260097E+00 
    3.0042639771986868E+00 
    2.9928931055261674E+00 
    2.9988925399583306E+00 
    2.9983672322661339E+00 
    2.9904392867081260E+00 
    2.9902084691006521E+00 
    2.9887898291284887E+00 
    2.9825020216028224E+00 
    2.9819255107885216E+00 
    2.9865520839685482E+00 
    2.9830883456186124E+00 
    2.9773260007358657E+00 
    2.9809537903340204E+00 
    2.9749154398404505E+00 
    2.9773828600162688E+00 
    2.9725791897323139E+00 
    2.9675004491529209E+00 
    2.9620235566127273E+00 
    2.9681742684968135E+00 
    2.9645913816629190E+00 
    2.9592350064488628E+00 
    2.9727386880843065E+00 
    2.9767741733985642E+00 
    2.9693530668829617E+00 
    2.9678370525980653E+00 
    2.9571237398690045E+00 
    2.9628409141222813E+00 
    2.9626448640060539E+00 
    2.9551497187409743E+00 
    2.9540932651218692E+00 
    2.9529588667413935E+00 
    2.9470860949780624E+00 
    2.9464466373876288E+00 
    2.9510591542291924E+00 
    2.9480614036440977E+00 
    2.9424705506014561E+00 
    2.9457306587751280E+00 
    2.9399863036330820E+00 
    2.9423314533672440E+00 
    2.9379358291482580E+00 
    2.9331604292994302E+00 
    2.9281367294195699E+00 
    2.9339313603228958E+00 
    2.9306488411670655E+00 
    2.9256104027432626E+00 
    2.9383159852017995E+00 
    2.9423159843532041E+00 
    2.9353885942245683E+00 
    2.9338018784037936E+00 
    2.9237361174089642E+00 
    2.9291062189800421E+00 
    2.9290698212113995E+00 
    2.9220036021759959E+00 
    2.9207753252794535E+00 
    2.9197836051952439E+00 
    2.9143200896738839E+00 
    2.9136744592708057E+00 
    2.9180893011790729E+00 
    2.9153416146975335E+00 
    2.9101202412747802E+00 
    2.9131518953511897E+00 
    2.9076642641002222E+00 
    2.9099379314084786E+00 
    2.9058037566606600E+00 
    2.9012864655715993E+00 
    2.8965602519909779E+00 
    2.9019588348824370E+00 
    2.8987245683268954E+00 
    2.8940515689259834E+00 
    2.9061583512392954E+00 
    2.9100025596589090E+00 
    2.9034758954505668E+00 
    2.9018163204794116E+00 
    2.8923291902470254E+00 
    2.8972792804655980E+00 
    2.8974939172966425E+00 
    2.8908954491154346E+00 
    2.8898717502010731E+00 
    2.8889454784833539E+00 
    2.8840644246911475E+00 
    2.8834439365108198E+00 
    2.8873525641796673E+00 
    2.8847294011679354E+00 
    2.8799473797417283E+00 
    2.8828937687245695E+00 
    2.8778909965906290E+00 
    2.8799449771164816E+00 
    2.8760322083683767E+00 
    2.8719595874072215E+00 
    2.8676388399460619E+00 
    2.8724610183679467E+00 
    2.8696676361231903E+00 
    2.8654259360837369E+00 
    2.8762045195193209E+00 
    2.8797002880982188E+00 
    2.8736963999657048E+00 
    2.8722816108674945E+00 
    2.8637591893916738E+00 
    2.8683476038363178E+00 
    2.8682811863093836E+00 
    2.8621956437097045E+00 
    2.8615257062225621E+00 
    2.8606108885181265E+00 
    2.8561688547251602E+00 
    2.8556614825805990E+00 
    2.8590635594357376E+00 
    2.8565527384098321E+00 
    2.8523087766273920E+00 
    2.8550803143536001E+00 
    2.8506805789067151E+00 
    2.8524766851637255E+00 
    2.8488718018349588E+00 
    2.8453289432842443E+00 
    2.8413520967890493E+00 
    2.8454931687355773E+00 
    2.8428837249131820E+00 
    2.8392406602141191E+00 
    2.8487490116007645E+00 
    2.8518356236838605E+00 
    2.8463096744437770E+00 
    2.8451567929568014E+00 
    2.8375910275478717E+00 
    2.8416087494580577E+00 
    2.8414198628906684E+00 
    2.8359611375071303E+00 
    2.8359917268685697E+00 
    2.8351424014102355E+00 
    2.8311642754788120E+00 
    2.8307381827735161E+00 
    2.8335726692711325E+00 
    2.8309896151280247E+00 
    2.8273069341447035E+00 
    2.8299931429235787E+00 
    2.8262132697516753E+00 
    2.8276680527714406E+00 
    2.8243957002007285E+00 
    2.8214376773742873E+00 
    2.8178202752592916E+00 
    2.8213675835153968E+00 
    2.8188616937837900E+00 
    2.8156880811627758E+00 
    2.8240816495957626E+00 
    2.8265961906490560E+00 
    2.8215782034873795E+00 
    2.8207426101585571E+00 
    2.8139896850887163E+00 
    2.8175231778031855E+00 
    2.8171075467932019E+00 
    2.8122627718235731E+00 
    2.8131646376075388E+00 
    2.8120850093009575E+00 
    2.8087380762337588E+00 
    2.8086561559735359E+00 
    2.8105068041608736E+00 
    2.8080986626398694E+00 
    2.8052412533783602E+00 
    2.8076307340382476E+00 
    2.8048410763940952E+00 
    2.8058874967438929E+00 
    2.8029985677530771E+00 
    2.8007268950231250E+00 
    2.7975089922130310E+00 
    2.8002107341765501E+00 
    2.7979411708809567E+00 
    2.7954804354371188E+00 
    2.8022597865553331E+00 
    2.8040816072208474E+00 
    2.7997310391941714E+00 
    2.7993313848783248E+00 
    2.7937587602662579E+00 
    2.7966180637856515E+00 
    2.7959674600918873E+00 
    2.7918935059014296E+00 
    2.7937717073278678E+00 
    2.7926619941688577E+00 
    2.7898886342256515E+00 
    2.7899873437348686E+00 
    2.7910291006795847E+00 
    2.7885734545657597E+00 
    2.7864470715966996E+00 
    2.7886976869136100E+00 
    2.7867349548955800E+00 
    2.7873598301475866E+00 
    2.7848537275477501E+00 
    2.7832896208005473E+00 
    2.7804709898871964E+00 
    2.7824402262991783E+00 
    2.7803255729179974E+00 
    2.7784303202836638E+00 
    2.7838315178016062E+00 
    2.7849331305622456E+00 
    2.7812163584426806E+00 
    2.7812385177442893E+00 
    2.7766494442567642E+00 
    2.7789441770994880E+00 
    2.7780252752725239E+00 
    2.7746718795458900E+00 
    2.7775234837818972E+00 
    2.7762006964539432E+00 
    2.7740591584518604E+00 
    2.7744631246642215E+00 
    2.7745330967984576E+00 
    2.7721981855191689E+00 
    2.7708647862380595E+00 
    2.7728946574170852E+00 
    2.7717883141417303E+00 
    2.7720757005335508E+00 
    2.7698213053187599E+00 
    2.7686420906541880E+00 
    2.7658859982848720E+00 
    2.7674933632812455E+00 
    2.7654470748174602E+00 