# vtk DataFile Version 2.0
Pressure Field Data 
ASCII 
DATASET UNSTRUCTURED_GRID 

POINTS 6273 double 

    0.0000000000000000E+00     0.0000000000000000E+00     0.0000000000000000E+00 
    1.0000000000000000E+00     0.0000000000000000E+00     0.0000000000000000E+00 
    1.0000000000000000E+00     1.0000000000000000E+00     0.0000000000000000E+00 
    0.0000000000000000E+00     1.0000000000000000E+00     0.0000000000000000E+00 
    1.5624999999970249E-02     0.0000000000000000E+00     0.0000000000000000E+00 
    3.1249999999940652E-02     0.0000000000000000E+00     0.0000000000000000E+00 
    4.6874999999905617E-02     0.0000000000000000E+00     0.0000000000000000E+00 
    6.2499999999870597E-02     0.0000000000000000E+00     0.0000000000000000E+00 
    7.8124999999846401E-02     0.0000000000000000E+00     0.0000000000000000E+00 
    9.3749999999822212E-02     0.0000000000000000E+00     0.0000000000000000E+00 
    1.0937499999979799E-01     0.0000000000000000E+00     0.0000000000000000E+00 
    1.2499999999977381E-01     0.0000000000000000E+00     0.0000000000000000E+00 
    1.4062499999972811E-01     0.0000000000000000E+00     0.0000000000000000E+00 
    1.5624999999968239E-01     0.0000000000000000E+00     0.0000000000000000E+00 
    1.7187499999963671E-01     0.0000000000000000E+00     0.0000000000000000E+00 
    1.8749999999959110E-01     0.0000000000000000E+00     0.0000000000000000E+00 
    2.0312499999954539E-01     0.0000000000000000E+00     0.0000000000000000E+00 
    2.1874999999949971E-01     0.0000000000000000E+00     0.0000000000000000E+00 
    2.3437499999945391E-01     0.0000000000000000E+00     0.0000000000000000E+00 
    2.4999999999940831E-01     0.0000000000000000E+00     0.0000000000000000E+00 
    2.6562499999936218E-01     0.0000000000000000E+00     0.0000000000000000E+00 
    2.8124999999931621E-01     0.0000000000000000E+00     0.0000000000000000E+00 
    2.9687499999927008E-01     0.0000000000000000E+00     0.0000000000000000E+00 
    3.1249999999922412E-01     0.0000000000000000E+00     0.0000000000000000E+00 
    3.2812499999917810E-01     0.0000000000000000E+00     0.0000000000000000E+00 
    3.4374999999913203E-01     0.0000000000000000E+00     0.0000000000000000E+00 
    3.5937499999908601E-01     0.0000000000000000E+00     0.0000000000000000E+00 
    3.7499999999903999E-01     0.0000000000000000E+00     0.0000000000000000E+00 
    3.9062499999899403E-01     0.0000000000000000E+00     0.0000000000000000E+00 
    4.0624999999894801E-01     0.0000000000000000E+00     0.0000000000000000E+00 
    4.2187499999890188E-01     0.0000000000000000E+00     0.0000000000000000E+00 
    4.3749999999885592E-01     0.0000000000000000E+00     0.0000000000000000E+00 
    4.5312499999880979E-01     0.0000000000000000E+00     0.0000000000000000E+00 
    4.6874999999876382E-01     0.0000000000000000E+00     0.0000000000000000E+00 
    4.8437499999871780E-01     0.0000000000000000E+00     0.0000000000000000E+00 
    4.9999999999867167E-01     0.0000000000000000E+00     0.0000000000000000E+00 
    5.1562499999871325E-01     0.0000000000000000E+00     0.0000000000000000E+00 
    5.3124999999875477E-01     0.0000000000000000E+00     0.0000000000000000E+00 
    5.4687499999879630E-01     0.0000000000000000E+00     0.0000000000000000E+00 
    5.6249999999883782E-01     0.0000000000000000E+00     0.0000000000000000E+00 
    5.7812499999887934E-01     0.0000000000000000E+00     0.0000000000000000E+00 
    5.9374999999892086E-01     0.0000000000000000E+00     0.0000000000000000E+00 
    6.0937499999896239E-01     0.0000000000000000E+00     0.0000000000000000E+00 
    6.2499999999900380E-01     0.0000000000000000E+00     0.0000000000000000E+00 
    6.4062499999904521E-01     0.0000000000000000E+00     0.0000000000000000E+00 
    6.5624999999908673E-01     0.0000000000000000E+00     0.0000000000000000E+00 
    6.7187499999912825E-01     0.0000000000000000E+00     0.0000000000000000E+00 
    6.8749999999916978E-01     0.0000000000000000E+00     0.0000000000000000E+00 
    7.0312499999921130E-01     0.0000000000000000E+00     0.0000000000000000E+00 
    7.1874999999925282E-01     0.0000000000000000E+00     0.0000000000000000E+00 
    7.3437499999929434E-01     0.0000000000000000E+00     0.0000000000000000E+00 
    7.4999999999933586E-01     0.0000000000000000E+00     0.0000000000000000E+00 
    7.6562499999937739E-01     0.0000000000000000E+00     0.0000000000000000E+00 
    7.8124999999941891E-01     0.0000000000000000E+00     0.0000000000000000E+00 
    7.9687499999946043E-01     0.0000000000000000E+00     0.0000000000000000E+00 
    8.1249999999950195E-01     0.0000000000000000E+00     0.0000000000000000E+00 
    8.2812499999954348E-01     0.0000000000000000E+00     0.0000000000000000E+00 
    8.4374999999958500E-01     0.0000000000000000E+00     0.0000000000000000E+00 
    8.5937499999962652E-01     0.0000000000000000E+00     0.0000000000000000E+00 
    8.7499999999966793E-01     0.0000000000000000E+00     0.0000000000000000E+00 
    8.9062499999970934E-01     0.0000000000000000E+00     0.0000000000000000E+00 
    9.0624999999975087E-01     0.0000000000000000E+00     0.0000000000000000E+00 
    9.2187499999979239E-01     0.0000000000000000E+00     0.0000000000000000E+00 
    9.3749999999983391E-01     0.0000000000000000E+00     0.0000000000000000E+00 
    9.5312499999987543E-01     0.0000000000000000E+00     0.0000000000000000E+00 
    9.6874999999991696E-01     0.0000000000000000E+00     0.0000000000000000E+00 
    9.8437499999995848E-01     0.0000000000000000E+00     0.0000000000000000E+00 
    1.0000000000000000E+00     1.5624999999970249E-02     0.0000000000000000E+00 
    1.0000000000000000E+00     3.1249999999940652E-02     0.0000000000000000E+00 
    1.0000000000000000E+00     4.6874999999905617E-02     0.0000000000000000E+00 
    1.0000000000000000E+00     6.2499999999870597E-02     0.0000000000000000E+00 
    1.0000000000000000E+00     7.8124999999846401E-02     0.0000000000000000E+00 
    1.0000000000000000E+00     9.3749999999822212E-02     0.0000000000000000E+00 
    1.0000000000000000E+00     1.0937499999979799E-01     0.0000000000000000E+00 
    1.0000000000000000E+00     1.2499999999977381E-01     0.0000000000000000E+00 
    1.0000000000000000E+00     1.4062499999972811E-01     0.0000000000000000E+00 
    1.0000000000000000E+00     1.5624999999968239E-01     0.0000000000000000E+00 
    1.0000000000000000E+00     1.7187499999963671E-01     0.0000000000000000E+00 
    1.0000000000000000E+00     1.8749999999959110E-01     0.0000000000000000E+00 
    1.0000000000000000E+00     2.0312499999954539E-01     0.0000000000000000E+00 
    1.0000000000000000E+00     2.1874999999949971E-01     0.0000000000000000E+00 
    1.0000000000000000E+00     2.3437499999945391E-01     0.0000000000000000E+00 
    1.0000000000000000E+00     2.4999999999940831E-01     0.0000000000000000E+00 
    1.0000000000000000E+00     2.6562499999936218E-01     0.0000000000000000E+00 
    1.0000000000000000E+00     2.8124999999931621E-01     0.0000000000000000E+00 
    1.0000000000000000E+00     2.9687499999927008E-01     0.0000000000000000E+00 
    1.0000000000000000E+00     3.1249999999922412E-01     0.0000000000000000E+00 
    1.0000000000000000E+00     3.2812499999917810E-01     0.0000000000000000E+00 
    1.0000000000000000E+00     3.4374999999913203E-01     0.0000000000000000E+00 
    1.0000000000000000E+00     3.5937499999908601E-01     0.0000000000000000E+00 
    1.0000000000000000E+00     3.7499999999903999E-01     0.0000000000000000E+00 
    1.0000000000000000E+00     3.9062499999899403E-01     0.0000000000000000E+00 
    1.0000000000000000E+00     4.0624999999894801E-01     0.0000000000000000E+00 
    1.0000000000000000E+00     4.2187499999890188E-01     0.0000000000000000E+00 
    1.0000000000000000E+00     4.3749999999885592E-01     0.0000000000000000E+00 
    1.0000000000000000E+00     4.5312499999880979E-01     0.0000000000000000E+00 
    1.0000000000000000E+00     4.6874999999876382E-01     0.0000000000000000E+00 
    1.0000000000000000E+00     4.8437499999871780E-01     0.0000000000000000E+00 
    1.0000000000000000E+00     4.9999999999867167E-01     0.0000000000000000E+00 
    1.0000000000000000E+00     5.1562499999871325E-01     0.0000000000000000E+00 
    1.0000000000000000E+00     5.3124999999875477E-01     0.0000000000000000E+00 
    1.0000000000000000E+00     5.4687499999879630E-01     0.0000000000000000E+00 
    1.0000000000000000E+00     5.6249999999883782E-01     0.0000000000000000E+00 
    1.0000000000000000E+00     5.7812499999887934E-01     0.0000000000000000E+00 
    1.0000000000000000E+00     5.9374999999892086E-01     0.0000000000000000E+00 
    1.0000000000000000E+00     6.0937499999896239E-01     0.0000000000000000E+00 
    1.0000000000000000E+00     6.2499999999900380E-01     0.0000000000000000E+00 
    1.0000000000000000E+00     6.4062499999904521E-01     0.0000000000000000E+00 
    1.0000000000000000E+00     6.5624999999908673E-01     0.0000000000000000E+00 
    1.0000000000000000E+00     6.7187499999912825E-01     0.0000000000000000E+00 
    1.0000000000000000E+00     6.8749999999916978E-01     0.0000000000000000E+00 
    1.0000000000000000E+00     7.0312499999921130E-01     0.0000000000000000E+00 
    1.0000000000000000E+00     7.1874999999925282E-01     0.0000000000000000E+00 
    1.0000000000000000E+00     7.3437499999929434E-01     0.0000000000000000E+00 
    1.0000000000000000E+00     7.4999999999933586E-01     0.0000000000000000E+00 
    1.0000000000000000E+00     7.6562499999937739E-01     0.0000000000000000E+00 
    1.0000000000000000E+00     7.8124999999941891E-01     0.0000000000000000E+00 
    1.0000000000000000E+00     7.9687499999946043E-01     0.0000000000000000E+00 
    1.0000000000000000E+00     8.1249999999950195E-01     0.0000000000000000E+00 
    1.0000000000000000E+00     8.2812499999954348E-01     0.0000000000000000E+00 
[...]
CELL_DATA 6144 
SCALARS Pressure double 1 
LOOKUP_TABLE default 

    3.6042433165602428E+00 
    3.5059458126176812E+00 
    3.4901245411567658E+00 
    3.5059488693601626E+00 
    3.4452827320912163E+00 
    3.4046630560554796E+00 
    3.4263063131776907E+00 
    3.4557253561322674E+00 
    3.4452902830834726E+00 
    3.4557328844724657E+00 
    3.4263240145532130E+00 
    3.4046705782919457E+00 
    3.3843738462913668E+00 
    3.4027677800025642E+00 
    3.3838035486876525E+00 
    3.3709415077174008E+00 
    3.4029030419105610E+00 
    3.3845460994268612E+00 
    3.3714632753400138E+00 
    3.3842271034682128E+00 
    3.3585430555925857E+00 
    3.3714703366074410E+00 
    3.3589604216143685E+00 
    3.3437618842392633E+00 
    3.3570378812607782E+00 
    3.3534705886894773E+00 
    3.3359067917847374E+00 
    3.3325986793234676E+00 
    3.3449489663199063E+00 
    3.3318969248165491E+00 
    3.3210203052160261E+00 
    3.3313018445225544E+00 
    3.3119195323776753E+00 
    3.3212254402869741E+00 
    3.3092134556060104E+00 
    3.2942455696557733E+00 
    3.2845731290382356E+00 
    3.2992000483748307E+00 
    3.2912095150334806E+00 
    3.2798981510678717E+00 
    3.3091347128529818E+00 
    3.3149355983272395E+00 
    3.2990415769140231E+00 
    3.2976142459629618E+00 
    3.2758806427440152E+00 
    3.2872382995579867E+00 
    3.2857163712172128E+00 
    3.2714051955178109E+00 
    3.2677119396401983E+00 
    3.2669339329768015E+00 
    3.2550775615665644E+00 
    3.2524731964767994E+00 
    3.2640669364762980E+00 
    3.2586673506545143E+00 
    3.2480127692484695E+00 
    3.2535814286805671E+00 
    3.2388635185394601E+00 
    3.2458131082325661E+00 
    3.2376844997755452E+00 
    3.2263563302573459E+00 
    3.2195847155953721E+00 
    3.2309836604449327E+00 
    3.2263116674937562E+00 
    3.2173174343396806E+00 
    3.2402801654908640E+00 
    3.2478976644550728E+00 
    3.2357284809160372E+00 
    3.2323503249322774E+00 
    3.2154511592382953E+00 
    3.2245648985429183E+00 
    3.2251529536856571E+00 
    3.2135012235721288E+00 
    3.2074042430382645E+00 
    3.2075386789116616E+00 
    3.1982095936570203E+00 
    3.1956527321446204E+00 
    3.2060136242699482E+00 
    3.2023640885354880E+00 
    3.1927845893706936E+00 
    3.1972002374019013E+00 
    3.1847442812874549E+00 
    3.1904668447467079E+00 
    3.1839647888496345E+00 
    3.1745708243421258E+00 
    3.1689978634019504E+00 
    3.1788193616920934E+00 
    3.1751970430861203E+00 
    3.1672583071319282E+00 
    3.1870027115825597E+00 
    3.1942751275745285E+00 
    3.1842286036273872E+00 
    3.1806883692832915E+00 
    3.1658171667370674E+00 
    3.1738896998515704E+00 
    3.1745668280424248E+00 
    3.1644113472734898E+00 
    3.1585068138827039E+00 
    3.1585792476606174E+00 
    3.1505118230159952E+00 
    3.1484288169568897E+00 
    3.1574969847618815E+00 
    3.1551919499324574E+00 
    3.1466989637456684E+00 
    3.1498952182053763E+00 
    3.1390320878185607E+00 
    3.1440796424715400E+00 
    3.1385555510358802E+00 
    3.1301608288351739E+00 
    3.1252447811428654E+00 
    3.1340192014390564E+00 
    3.1309529743023035E+00 
    3.1238248493605281E+00 
    3.1417261745558061E+00 
    3.1485948019263481E+00 
    3.1395689846849839E+00 
    3.1360550701340841E+00 
    3.1229428501875462E+00 
    3.1301944249986913E+00 
    3.1315322637636847E+00 
    3.1224264534529032E+00 
    3.1158627571073962E+00 
    3.1159517042110370E+00 
    3.1086825437723729E+00 
    3.1067806186635982E+00 
    3.1151344167791128E+00 
    3.1131053428523097E+00 
    3.1051100673011613E+00 
    3.1081973767492475E+00 
    3.0983180076070114E+00 
    3.1029558055607884E+00 
    3.0979333873949604E+00 
    3.0903181537319249E+00 
    3.0858791344489509E+00 
    3.0939067388195158E+00 
    3.0912363919018344E+00 
    3.0846684810041274E+00 
    3.1007337897612266E+00 
    3.1072373490335794E+00 
    3.0992202164128626E+00 
    3.0958738740872889E+00 
    3.0839224787529611E+00 
    3.0905490212737150E+00 
    3.0919085044368120E+00 
    3.0835712013777647E+00 
    3.0772903577533479E+00 
    3.0774257374353557E+00 
    3.0707304332021215E+00 
    3.0689671889821444E+00 
    3.0767471280504863E+00 
    3.0750356839394959E+00 
    3.0676782394356397E+00 
    3.0703340622188353E+00 
    3.0611879486397542E+00 
    3.0654671321205029E+00 
    3.0609212056623236E+00 
    3.0538142314397829E+00 
    3.0497236904321259E+00 
    3.0572268931526416E+00 
    3.0547251710697361E+00 
    3.0486507665232141E+00 
    3.0636741286877451E+00 
    3.0696778110861267E+00 
    3.0622166667960640E+00 
    3.0590799729953297E+00 
    3.0480153000523558E+00 
    3.0541269723739553E+00 
    3.0554468576196467E+00 
    3.0477408242349746E+00 
    3.0418320403269363E+00 
    3.0420141453553540E+00 
    3.0359007233986826E+00 
    3.0342330793731680E+00 
    3.0413848185311023E+00 
    3.0397312533921919E+00 
    3.0328564317919002E+00 
    3.0354129389906288E+00 
    3.0270799868914193E+00 
    3.0310381525554324E+00 
    3.0269588351327115E+00 
    3.0204064890822004E+00 
    3.0165379608237468E+00 
    3.0235164778996815E+00 
    3.0207562357384887E+00 
    3.0150777156817323E+00 
    3.0292029972723133E+00 
    3.0347778505211309E+00 
    3.0279086482796047E+00 
    3.0249664236309730E+00 
    3.0144197148622185E+00 
    3.0201174499128385E+00 
    3.0215486264946767E+00 
    3.0143501521150826E+00 
    3.0089923693726677E+00 
    3.0091038983353986E+00 
    3.0034837861054160E+00 
    3.0019615677212723E+00 
    3.0084931619182069E+00 
    3.0069536718363721E+00 
    3.0005713031148376E+00 
    3.0029938540132877E+00 
    2.9953530755386688E+00 
    2.9989187427093116E+00 
    2.9950854548391037E+00 
    2.9891641963921978E+00 
    2.9856502602954200E+00 
    2.9919570780580638E+00 
    2.9897152704513643E+00 
    2.9845432483786341E+00 
    2.9972016503331993E+00 
    3.0023784625066749E+00 
    2.9960998143803841E+00 
    2.9933943321648573E+00 
    2.9839409215628203E+00 
    2.9891837252304807E+00 
    2.9902815194100625E+00 
    2.9836441160871496E+00 
    2.9788002698414555E+00 
    2.9788510646297066E+00 
    2.9736407836858065E+00 
    2.9723393234219948E+00 
    2.9782972404297365E+00 
    2.9768800342213844E+00 
    2.9711742139119646E+00 
    2.9732956900519167E+00 
    2.9663344215532734E+00 
    2.9695883789669399E+00 
    2.9661286857652707E+00 
    2.9606960979239871E+00 
    2.9575387625686327E+00 
    2.9632258016593904E+00 
    2.9612520216171787E+00 
    2.9565941987270534E+00 
    2.9680074655549684E+00 
    2.9726195083063391E+00 
    2.9668686618984830E+00 
    2.9645374118461656E+00 
    2.9560191688191431E+00 
    2.9607624414821809E+00 
    2.9616368815202279E+00 
    2.9556589700483582E+00 
    2.9514460235612670E+00 
    2.9514766831824280E+00 
    2.9467648153237525E+00 
    2.9456173809592556E+00 
    2.9509329123579935E+00 
    2.9495749488975695E+00 
    2.9444897164181656E+00 
    2.9464316726012392E+00 
    2.9402759622324774E+00 
    2.9431503464774846E+00 
    2.9401755099166418E+00 
    2.9353872425364234E+00 
    2.9325357384931170E+00 
    2.9375763560934804E+00 
    2.9354585110898497E+00 
    2.9313728084106914E+00 
    2.9416766454419068E+00 
    2.9456987695951788E+00 
    2.9404888461367142E+00 
    2.9384409988614579E+00 
    2.9307374592128106E+00 
    2.9348524851617670E+00 
    2.9357171872279912E+00 
    2.9304184901712000E+00 
    2.9270679963439643E+00 
    2.9270118784060588E+00 
    2.9229676541723872E+00 
    2.9219939164091873E+00 
    2.9264498646857326E+00 
    2.9251608000297384E+00 
    2.9207951667538561E+00 
    2.9225987158986784E+00 
    2.9172904594475844E+00 
    2.9197733417819056E+00 
    2.9169198081662673E+00 
    2.9128429592083145E+00 
    2.9104193109086673E+00 
    2.9146397165027791E+00 
    2.9131339495060100E+00 
    2.9096645277351394E+00 
    2.9182529792609011E+00 
    2.9216567514866587E+00 
    2.9171549465580870E+00 
    2.9155499010082706E+00 
    2.9090601678383847E+00 
    2.9126361007435060E+00 
    2.9131072143203061E+00 
    2.9085318040599808E+00 
    2.9059301154188755E+00 
    2.9059078966295457E+00 
    2.9024481691276041E+00 
    2.9016022908608576E+00 
    2.9053307521824414E+00 
    2.9040922936338900E+00 
    2.9004262230528055E+00 
    2.9020306941183414E+00 
    2.8975828311699581E+00 
    2.8996522251677304E+00 
    2.8972327445812058E+00 
    2.8938170219358752E+00 
    2.8916783508849884E+00 
    2.8952571081631318E+00 
    2.8937216830569215E+00 
    2.8907839982855439E+00 
    2.8982436541302850E+00 
    2.9010074180721257E+00 
    2.8970845616428513E+00 
    2.8958181759687962E+00 
    2.8901547808359869E+00 
    2.8931723378073673E+00 
    2.8935414649439162E+00 
    2.8896174744814354E+00 
    2.8877616288416390E+00 
    2.8876891824770126E+00 
    2.8846629975964042E+00 
    2.8839084540591724E+00 
    2.8871051767727076E+00 
    2.8858431644987608E+00 
    2.8826942502507045E+00 
    2.8842613049705554E+00 
    2.8801041430189178E+00 
    2.8820583506078479E+00 
    2.8796557718094560E+00 
    2.8763325492841529E+00 
    2.8743899314212067E+00 
    2.8775975191836749E+00 
    2.8761097654481484E+00 
    2.8735856309528063E+00 
    2.8804498813755877E+00 
    2.8828884383404652E+00 
    2.8791012745594138E+00 
    2.8779898889907680E+00 
    2.8728961010414986E+00 
    2.8755019443300851E+00 
    2.8755777246000327E+00 
    2.8720650102049503E+00 
    2.8712161271829122E+00 
    2.8710531269630679E+00 
    2.8688926800587762E+00 
    2.8685094200807533E+00 
    2.8704742672395631E+00 
    2.8693158494199920E+00 
    2.8674304275997358E+00 
    2.8685390346770938E+00 
    2.8662600622135810E+00 
    2.8673007966254724E+00 
    2.8659673786782065E+00 
    2.8643937882002350E+00 
    2.8633613283193111E+00 
    2.8647828222242491E+00 
    2.8637271790802159E+00 
    2.8626289544989172E+00 
    2.8659597750080543E+00 
    2.8670090382799183E+00 
    2.8646333743744643E+00 
    2.8644583656598952E+00 
    2.8619070264734114E+00 
    2.8631034633461692E+00 
    2.8627319060218825E+00 
    2.8609623831379096E+00 
    2.8618510366069807E+00 
    2.8615536101937575E+00 
    2.8606915376191928E+00 
    2.8606834999663224E+00 
    2.8609618512564809E+00 
    2.8599703218660912E+00 
    2.8596601644871829E+00 
    2.8603370216593751E+00 
    2.8598775149641131E+00 
    2.8600730226890043E+00 
    2.8595086266290295E+00 
    2.8593585363541512E+00 
    2.8591512587905399E+00 
    2.8589935057685931E+00 
    2.8584247104305178E+00 
    2.8586314757268450E+00 
    2.8588324551844257E+00 
    2.8585307874947867E+00 
    2.8575301226916379E+00 
    2.8581504726031435E+00 
    2.8578247569023585E+00 
    2.8578038535300023E+00 
    2.8569388614832039E+00 
    2.8566529449035798E+00 
    3.3569071244166633E+00 
    3.3324954865412191E+00 
    3.3351762523912711E+00 
    3.3528850421697003E+00 
    3.3119333869725547E+00 
    3.2943211458795352E+00 
    3.3090638853592416E+00 
    3.3210118162538795E+00 
    3.3445731916228567E+00 
    3.3305953813594402E+00 
    3.3207153852493723E+00 
    3.3318772699668400E+00 
    3.3150571842348167E+00 
    3.3092050009393543E+00 
    3.2976729661247770E+00 
    3.2991442267527384E+00 
    3.2991652952228332E+00 
    3.2845278006408889E+00 
    3.2793320056873885E+00 
    3.2907858213549024E+00 
    3.2855385187330231E+00 
    3.2867274482395956E+00 
    3.2753433297147065E+00 
    3.2711878812991806E+00 
    3.3085671159452867E+00 
    3.2959512321682962E+00 
    3.2897155314708471E+00 
    3.2958681332210062E+00 
    3.2839083281533501E+00 
    3.2705199597729329E+00 
    3.2721275644067140E+00 
    3.2818328770618019E+00 
    3.2839788777052674E+00 
    3.2818366080603654E+00 
    3.2721817822608386E+00 
    3.2706818512949298E+00 
    3.2586432321119161E+00 
    3.2623763026769628E+00 
    3.2537563981646658E+00 
    3.2494459148482089E+00 
    3.2623093583827929E+00 
    3.2584978222888958E+00 
    3.2491816696225428E+00 
    3.2535948569512376E+00 
    3.2417530822454594E+00 
    3.2472819247763414E+00 
    3.2415135191894207E+00 
    3.2333738351527574E+00 
    3.2483586512323868E+00 
    3.2424311328237336E+00 
    3.2348500826524882E+00 
    3.2365903656601649E+00 
    3.2358151300363476E+00 
    3.2274463770408910E+00 
    3.2234880618206110E+00 
    3.2302925490685257E+00 
    3.2263013390770570E+00 
    3.2274788093171254E+00 
    3.2197949693065215E+00 
    3.2152593331455352E+00 
    3.2064141983262822E+00 
    3.2126371943883281E+00 
    3.2064995352761789E+00 
    3.2006762195118617E+00 
    3.2160379066141180E+00 
    3.2173091227665798E+00 
    3.2077366923802679E+00 
    3.2087152570946915E+00 
    3.1958742580224584E+00 
    3.2023810924567186E+00 
    3.1995531150166037E+00 
    3.1907076829312713E+00 
    3.1963972994973315E+00 
    3.1931488013097473E+00 
    3.1857942620401127E+00 
    3.1860351835537504E+00 
    3.1890149134109080E+00 
    3.1832699071726367E+00 
    3.1777495166504464E+00 
    3.1829665580430233E+00 
    3.1765380626377944E+00 
    3.1792188692025967E+00 
    3.1728037516791630E+00 
    3.1670519759950699E+00 
    3.1603286937257598E+00 
    3.1670088370242460E+00 
    3.1620992252599098E+00 
    3.1561734536829960E+00 
    3.1715766180325189E+00 
    3.1747935754422048E+00 
    3.1658490315512116E+00 
    3.1652521360927524E+00 
    3.1527952767248673E+00 
    3.1592528109426858E+00 
    3.1579904648979800E+00 
    3.1493577482338333E+00 
    3.1510174739568093E+00 
    3.1489725089184617E+00 
    3.1419977158932171E+00 
    3.1416544534163608E+00 
    3.1459992180025664E+00 
    3.1416070453800797E+00 
    3.1356379358346138E+00 
    3.1399596845247242E+00 
    3.1336933059369452E+00 
    3.1361960702256293E+00 
    3.1306508754613773E+00 
    3.1252348040071802E+00 
    3.1188936957853537E+00 
    3.1255336659058650E+00 
    3.1213175714196297E+00 
    3.1155044997100561E+00 
    3.1303130179013343E+00 
    3.1343071708264603E+00 
    3.1260279538560947E+00 
    3.1247050074706038E+00 
    3.1128780242568159E+00 
    3.1191214265013461E+00 
    3.1185769528687053E+00 
    3.1103260310519811E+00 
    3.1100786695910738E+00 
    3.1086024216191657E+00 
    3.1020492408697891E+00 
    3.1014466729904968E+00 
    3.1062725354183778E+00 
    3.1026644167292896E+00 
    3.0966530302380457E+00 
    3.1004360900543522E+00 
    3.0941333812918121E+00 
    3.0967099536903957E+00 
    3.0916963979581320E+00 
    3.0863885306662819E+00 
    3.0806631576360806E+00 
    3.0870963766723380E+00 
    3.0833537733802774E+00 
    3.0777496406062714E+00 
    3.0918663840144767E+00 
    3.0960814252093045E+00 
    3.0883348460701545E+00 
    3.0867480990276444E+00 
    3.0755442501808803E+00 
    3.0815264645431184E+00 
    3.0813250434773169E+00 
    3.0734833065285665E+00 
    3.0723627549673052E+00 
    3.0711783625484079E+00 
    3.0650245235183347E+00 
    3.0643509820681714E+00 
    3.0691922865062797E+00 
    3.0660561033194638E+00 
    3.0601912153727930E+00 
    3.0636066971159006E+00 
    3.0575758968513926E+00 
    3.0600396071931497E+00 
    3.0554294359885081E+00 
    3.0504104358644071E+00 
    3.0451342152275425E+00 
    3.0512279419384627E+00 
    3.0477839385498502E+00 
    3.0424848274760228E+00 
    3.0558357046463027E+00 
    3.0600378129947226E+00 
    3.0527714942195208E+00 
    3.0510998462363577E+00 
    3.0405209863746685E+00 
    3.0461683324833508E+00 
    3.0461367076912520E+00 
    3.0387080203402190E+00 
    3.0373893952861590E+00 
    3.0363526597875357E+00 
    3.0305987704255468E+00 
    3.0299127616546162E+00 
    3.0345764337423797E+00 
    3.0316923172065851E+00 
    3.0261849718175324E+00 
    3.0293737875723479E+00 
    3.0235792073933490E+00 
    3.0259823361783433E+00 
    3.0216270561203467E+00 
    3.0168525802499606E+00 
    3.0118675306282499E+00 
    3.0175758314707739E+00 
    3.0141687254074383E+00 
    3.0092281778567824E+00 
    3.0220139979945011E+00 
    3.0260764597494170E+00 
    3.0191991230813948E+00 
    3.0174384320391621E+00 
    3.0074198558166261E+00 
    3.0126510229970616E+00 
    3.0128889954869646E+00 
    3.0059200698292003E+00 
    3.0047945988097862E+00 
    3.0038268026281014E+00 
    2.9986604664861432E+00 
    2.9979938543812561E+00 
    3.0021538051670311E+00 
    2.9993930814053078E+00 
    2.9943192691592500E+00 
    2.9974301368710461E+00 
    2.9921139426174097E+00 
    2.9943000819987478E+00 
    2.9901597365237316E+00 
    2.9858279926465534E+00 
    2.9812514540481136E+00 
    2.9863817794136556E+00 
    2.9834296821661432E+00 
    2.9789191036997913E+00 
    2.9903633440087249E+00 
    2.9940827922006288E+00 
    2.9877280084384616E+00 
    2.9862125378622566E+00 
    2.9771673857634400E+00 
    2.9820422073879715E+00 
    2.9819891574247728E+00 
    2.9755303367076271E+00 
    2.9747507034117215E+00 
    2.9737966122392248E+00 
    2.9690685909125922E+00 
    2.9685132425518526E+00 
    2.9721699989977965E+00 
    2.9695221109019174E+00 
    2.9649866082876013E+00 
    2.9679236506630993E+00 
    2.9632107962077807E+00 
    2.9651398214088500E+00 
    2.9613072809695575E+00 
    2.9575091195392105E+00 
    2.9532777575674674E+00 
    2.9577180569448744E+00 
    2.9549513423668241E+00 
    2.9510487649777701E+00 
    2.9612092139030657E+00 
    2.9645222254925603E+00 
    2.9586445488884401E+00 
    2.9573919817495753E+00 
    2.9493141536941048E+00 
    2.9536105120603238E+00 
    2.9534350862798679E+00 
    2.9476082455367427E+00 
    2.9475380910755073E+00 
    2.9466580602228629E+00 
    2.9423947617120390E+00 
    2.9419141567813640E+00 
    2.9450068249360775E+00 
    2.9422757778880553E+00 
    2.9383025359360562E+00 
    2.9411610671079762E+00 
    2.9370649479164523E+00 
    2.9386505089062940E+00 
    2.9351520632793671E+00 
    2.9319419956935189E+00 
    2.9280712218091751E+00 
    2.9319188197841051E+00 
    2.9292496997946111E+00 
    2.9258147391694798E+00 
    2.9348639158772225E+00 
    2.9375992833653455E+00 
    2.9322294335018673E+00 
    2.9312956295368364E+00 
    2.9240275768944515E+00 
    2.9278402442812324E+00 
    2.9274339079116993E+00 
    2.9222218437630572E+00 
    2.9230350197556358E+00 
    2.9219134095396804E+00 
    2.9182871915988953E+00 
    2.9181612280066900E+00 
    2.9202527338203006E+00 
    2.9177030635621191E+00 
    2.9145646549636242E+00 
    2.9171210192969239E+00 
    2.9140299473961879E+00 
    2.9152038122008657E+00 
    2.9120879445712999E+00 
    2.9095659963944387E+00 
    2.9060881054088230E+00 
    2.9090875147854196E+00 
    2.9066564526982201E+00 
    2.9039349804191406E+00 
    2.9113645238078085E+00 
    2.9134019902527375E+00 
    2.9087024086517053E+00 
    2.9082101919044789E+00 
    2.9021203789553915E+00 
    2.9052624533856970E+00 
    2.9046183860362671E+00 
    2.9001691011692325E+00 
    2.9019623238884558E+00 
    2.9008159236681177E+00 
    2.8977401755695880E+00 
    2.8977838488142407E+00 
    2.8990911222729738E+00 
    2.8964715629447189E+00 
    2.8940287007072798E+00 
    2.8964760684975563E+00 
    2.8941672273784058E+00 
    2.8949371661285412E+00 
    2.8921614654978751E+00 
    2.8902842747098458E+00 
    2.8870866003188627E+00 
    2.8894848298508844E+00 
    2.8871546261908079E+00 
    2.8848580942742572E+00 
    2.8911626597560698E+00 
    2.8925195171027296E+00 
    2.8883995713932693E+00 
    2.8882911263731907E+00 
    2.8829641436930209E+00 
    2.8856906714029460E+00 
    2.8848064667841165E+00 
    2.8809138553017468E+00 
    2.8834911528088298E+00 
    2.8820862018101314E+00 
    2.8793009125013476E+00 
    2.8795776993391655E+00 
    2.8802901606628364E+00 
    2.8777356695896232E+00 
    2.8756188911970422E+00 
    2.8780297884908128E+00 
    2.8759840647325312E+00 
    2.8766575449105143E+00 
    2.8738168582037904E+00 
    2.8722212131423852E+00 
    2.8693358180632460E+00 
    2.8710719366377919E+00 
    2.8687988398213107E+00 