# vtk DataFile Version 2.0
Pressure Field Data 
ASCII 
DATASET UNSTRUCTURED_GRID 

POINTS 6273 double 

    0.0000000000000000E+00     0.0000000000000000E+00     0.0000000000000000E+00 
    1.0000000000000000E+00     0.0000000000000000E+00     0.0000000000000000E+00 
    1.0000000000000000E+00     1.0000000000000000E+00     0.0000000000000000E+00 
    0.0000000000000000E+00     1.0000000000000000E+00     0.0000000000000000E+00 
    1.5624999999970249E-02     0.0000000000000000E+00     0.0000000000000000E+00 
    3.1249999999940652E-02     0.0000000000000000E+00     0.0000000000000000E+00 
    4.6874999999905617E-02     0.0000000000000000E+00     0.0000000000000000E+00 
    6.2499999999870597E-02     0.0000000000000000E+00     0.0000000000000000E+00 
    7.8124999999846401E-02     0.0000000000000000E+00     0.0000000000000000E+00 
    9.3749999999822212E-02     0.0000000000000000E+00     0.0000000000000000E+00 
    1.0937499999979799E-01     0.0000000000000000E+00     0.0000000000000000E+00 
    1.2499999999977381E-01     0.0000000000000000E+00     0.0000000000000000E+00 
    1.4062499999972811E-01     0.0000000000000000E+00     0.0000000000000000E+00 
    1.5624999999968239E-01     0.0000000000000000E+00     0.0000000000000000E+00 
    1.7187499999963671E-01     0.0000000000000000E+00     0.0000000000000000E+00 
    1.8749999999959110E-01     0.0000000000000000E+00     0.0000000000000000E+00 
    2.0312499999954539E-01     0.0000000000000000E+00     0.0000000000000000E+00 
    2.1874999999949971E-01     0.0000000000000000E+00     0.0000000000000000E+00 
    2.3437499999945391E-01     0.0000000000000000E+00     0.0000000000000000E+00 
    2.4999999999940831E-01     0.0000000000000000E+00     0.0000000000000000E+00 
    2.6562499999936218E-01     0.0000000000000000E+00     0.0000000000000000E+00 
    2.8124999999931621E-01     0.0000000000000000E+00     0.0000000000000000E+00 
    2.9687499999927008E-01     0.0000000000000000E+00     0.0000000000000000E+00 
    3.1249999999922412E-01     0.0000000000000000E+00     0.0000000000000000E+00 
    3.2812499999917810E-01     0.0000000000000000E+00     0.0000000000000000E+00 
    3.4374999999913203E-01     0.0000000000000000E+00     0.0000000000000000E+00 
    3.5937499999908601E-01     0.0000000000000000E+00     0.0000000000000000E+00 
    3.7499999999903999E-01     0.0000000000000000E+00     0.0000000000000000E+00 
    3.9062499999899403E-01     0.0000000000000000E+00     0.0000000000000000E+00 
    4.0624999999894801E-01     0.0000000000000000E+00     0.0000000000000000E+00 
    4.2187499999890188E-01     0.0000000000000000E+00     0.0000000000000000E+00 
    4.3749999999885592E-01     0.0000000000000000E+00     0.0000000000000000E+00 
    4.5312499999880979E-01     0.0000000000000000E+00     0.0000000000000000E+00 
    4.6874999999876382E-01     0.0000000000000000E+00     0.0000000000000000E+00 
    4.8437499999871780E-01     0.0000000000000000E+00     0.0000000000000000E+00 
    4.9999999999867167E-01     0.0000000000000000E+00     0.0000000000000000E+00 
    5.1562499999871325E-01     0.0000000000000000E+00     0.0000000000000000E+00 
    5.3124999999875477E-01     0.0000000000000000E+00     0.0000000000000000E+00 
    5.4687499999879630E-01     0.0000000000000000E+00     0.0000000000000000E+00 
    5.6249999999883782E-01     0.0000000000000000E+00     0.0000000000000000E+00 
    5.7812499999887934E-01     0.0000000000000000E+00     0.0000000000000000E+00 
    5.9374999999892086E-01     0.0000000000000000E+00     0.0000000000000000E+00 
    6.0937499999896239E-01     0.0000000000000000E+00     0.0000000000000000E+00 
    6.2499999999900380E-01     0.0000000000000000E+00     0.0000000000000000E+00 
    6.4062499999904521E-01     0.0000000000000000E+00     0.0000000000000000E+00 
    6.5624999999908673E-01     0.0000000000000000E+00     0.0000000000000000E+00 
    6.7187499999912825E-01     0.0000000000000000E+00     0.0000000000000000E+00 
    6.8749999999916978E-01     0.0000000000000000E+00     0.0000000000000000E+00 
    7.0312499999921130E-01     0.0000000000000000E+00     0.0000000000000000E+00 
    7.1874999999925282E-01     0.0000000000000000E+00     0.0000000000000000E+00 
    7.3437499999929434E-01     0.0000000000000000E+00     0.0000000000000000E+00 
    7.4999999999933586E-01     0.0000000000000000E+00     0.0000000000000000E+00 
    7.6562499999937739E-01     0.0000000000000000E+00     0.0000000000000000E+00 
    7.8124999999941891E-01     0.0000000000000000E+00     0.0000000000000000E+00 
    7.9687499999946043E-01     0.0000000000000000E+00     0.0000000000000000E+00 
    8.1249999999950195E-01     0.0000000000000000E+00     0.0000000000000000E+00 
    8.2812499999954348E-01     0.0000000000000000E+00     0.0000000000000000E+00 
    8.4374999999958500E-01     0.0000000000000000E+00     0.0000000000000000E+00 
    8.5937499999962652E-01     0.0000000000000000E+00     0.0000000000000000E+00 
    8.7499999999966793E-01     0.0000000000000000E+00     0.0000000000000000E+00 
    8.9062499999970934E-01     0.0000000000000000E+00     0.0000000000000000E+00 
    9.0624999999975087E-01     0.0000000000000000E+00     0.0000000000000000E+00 
    9.2187499999979239E-01     0.0000000000000000E+00     0.0000000000000000E+00 
    9.3749999999983391E-01     0.0000000000000000E+00     0.0000000000000000E+00 
    9.5312499999987543E-01     0.0000000000000000E+00     0.0000000000000000E+00 
    9.6874999999991696E-01     0.0000000000000000E+00     0.0000000000000000E+00 
    9.8437499999995848E-01     0.0000000000000000E+00     0.0000000000000000E+00 
    1.0000000000000000E+00     1.5624999999970249E-02     0.0000000000000000E+00 
    1.0000000000000000E+00     3.1249999999940652E-02     0.0000000000000000E+00 
    1.0000000000000000E+00     4.6874999999905617E-02     0.0000000000000000E+00 
    1.0000000000000000E+00     6.2499999999870597E-02     0.0000000000000000E+00 
    1.0000000000000000E+00     7.8124999999846401E-02     0.0000000000000000E+00 
    1.0000000000000000E+00     9.3749999999822212E-02     0.0000000000000000E+00 
    1.0000000000000000E+00     1.0937499999979799E-01     0.0000000000000000E+00 
    1.0000000000000000E+00     1.2499999999977381E-01     0.0000000000000000E+00 
    1.0000000000000000E+00     1.4062499999972811E-01     0.0000000000000000E+00 
    1.0000000000000000E+00     1.5624999999968239E-01     0.0000000000000000E+00 
    1.0000000000000000E+00     1.7187499999963671E-01     0.0000000000000000E+00 
    1.0000000000000000E+00     1.8749999999959110E-01     0.0000000000000000E+00 
    1.0000000000000000E+00     2.0312499999954539E-01     0.0000000000000000E+00 
    1.0000000000000000E+00     2.1874999999949971E-01     0.0000000000000000E+00 
    1.0000000000000000E+00     2.3437499999945391E-01     0.0000000000000000E+00 
    1.0000000000000000E+00     2.4999999999940831E-01     0.0000000000000000E+00 
    1.0000000000000000E+00     2.6562499999936218E-01     0.0000000000000000E+00 
    1.0000000000000000E+00     2.8124999999931621E-01     0.0000000000000000E+00 
    1.0000000000000000E+00     2.9687499999927008E-01     0.0000000000000000E+00 
    1.0000000000000000E+00     3.1249999999922412E-01     0.0000000000000000E+00 
    1.0000000000000000E+00     3.2812499999917810E-01     0.0000000000000000E+00 
    1.0000000000000000E+00     3.4374999999913203E-01     0.0000000000000000E+00 
    1.0000000000000000E+00     3.5937499999908601E-01     0.0000000000000000E+00 
    1.0000000000000000E+00     3.7499999999903999E-01     0.0000000000000000E+00 
    1.0000000000000000E+00     3.9062499999899403E-01     0.0000000000000000E+00 
    1.0000000000000000E+00     4.0624999999894801E-01     0.0000000000000000E+00 
    1.0000000000000000E+00     4.2187499999890188E-01     0.0000000000000000E+00 
    1.0000000000000000E+00     4.3749999999885592E-01     0.0000000000000000E+00 
    1.0000000000000000E+00     4.5312499999880979E-01     0.0000000000000000E+00 
    1.0000000000000000E+00     4.6874999999876382E-01     0.0000000000000000E+00 
    1.0000000000000000E+00     4.8437499999871780E-01     0.0000000000000000E+00 
    1.0000000000000000E+00     4.9999999999867167E-01     0.0000000000000000E+00 
    1.0000000000000000E+00     5.1562499999871325E-01     0.0000000000000000E+00 
    1.0000000000000000E+00     5.3124999999875477E-01     0.0000000000000000E+00 
    1.0000000000000000E+00     5.4687499999879630E-01     0.0000000000000000E+00 
    1.0000000000000000E+00     5.6249999999883782E-01     0.0000000000000000E+00 
    1.0000000000000000E+00     5.7812499999887934E-01     0.0000000000000000E+00 
    1.0000000000000000E+00     5.9374999999892086E-01     0.0000000000000000E+00 
    1.0000000000000000E+00     6.0937499999896239E-01     0.0000000000000000E+00 
    1.0000000000000000E+00     6.2499999999900380E-01     0.0000000000000000E+00 
    1.0000000000000000E+00     6.4062499999904521E-01     0.0000000000000000E+00 
    1.0000000000000000E+00     6.5624999999908673E-01     0.0000000000000000E+00 
    1.0000000000000000E+00     6.7187499999912825E-01     0.0000000000000000E+00 
    1.0000000000000000E+00     6.8749999999916978E-01     0.0000000000000000E+00 
    1.0000000000000000E+00     7.0312499999921130E-01     0.0000000000000000E+00 
    1.0000000000000000E+00     7.1874999999925282E-01     0.0000000000000000E+00 
    1.0000000000000000E+00     7.3437499999929434E-01     0.0000000000000000E+00 
    1.0000000000000000E+00     7.4999999999933586E-01     0.0000000000000000E+00 
    1.0000000000000000E+00     7.6562499999937739E-01     0.0000000000000000E+00 
    1.0000000000000000E+00     7.8124999999941891E-01     0.0000000000000000E+00 
    1.0000000000000000E+00     7.9687499999946043E-01     0.0000000000000000E+00 
    1.0000000000000000E+00     8.1249999999950195E-01     0.0000000000000000E+00 
    1.0000000000000000E+00     8.2812499999954348E-01     0.0000000000000000E+00 
[...]
CELL_DATA 6144 
SCALARS Pressure double 1 
LOOKUP_TABLE default 

    3.6738972159487515E+00 
    3.5750428016844209E+00 
    3.5590770927173758E+00 
    3.5750452791785050E+00 
    3.5133732843600178E+00 
    3.4715279004155537E+00 
    3.4938951822368942E+00 
    3.5240860557696574E+00 
    3.5133792844186758E+00 
    3.5240927383649217E+00 
    3.4939112185561125E+00 
    3.4715329236265302E+00 
    3.4503481293592753E+00 
    3.4695206798070517E+00 
    3.4497682701197694E+00 
    3.4362681297687909E+00 
    3.4696645603256289E+00 
    3.4505306102360169E+00 
    3.4368188569356306E+00 
    3.4502143358101116E+00 
    3.4231822853626248E+00 
    3.4368464993822947E+00 
    3.4236256453073106E+00 
    3.4074376063041689E+00 
    3.4215453769461570E+00 
    3.4177583356985068E+00 
    3.3989240027544976E+00 
    3.3953370417489577E+00 
    3.4086686342954184E+00 
    3.3946145503182001E+00 
    3.3827774861423947E+00 
    3.3939598596425848E+00 
    3.3727801536402784E+00 
    3.3829911558999886E+00 
    3.3698039912553583E+00 
    3.3531677188797988E+00 
    3.3422739998921354E+00 
    3.3587036946232649E+00 
    3.3497877414347226E+00 
    3.3370035142488095E+00 
    3.3697285820064544E+00 
    3.3761332492123683E+00 
    3.3585750686848383E+00 
    3.3569614297720674E+00 
    3.3324580905455177E+00 
    3.3453456173371996E+00 
    3.3436598023980508E+00 
    3.3273851874118097E+00 
    3.3230763209745322E+00 
    3.3221851284502582E+00 
    3.3084671692886034E+00 
    3.3054222028633271E+00 
    3.3188906456658249E+00 
    3.3126536583570858E+00 
    3.3002145157050662E+00 
    3.3067284707557336E+00 
    3.2894045938343512E+00 
    3.2976199210484349E+00 
    3.2880088727254919E+00 
    3.2744665341240036E+00 
    3.2662764619316520E+00 
    3.2800223851901147E+00 
    3.2744301033982843E+00 
    3.2635391477817328E+00 
    3.2911032448301443E+00 
    3.3001041654954886E+00 
    3.2857234964826185E+00 
    3.2816797423699509E+00 
    3.2612813708641011E+00 
    3.2723411941588889E+00 
    3.2730705657617754E+00 
    3.2589278517116718E+00 
    3.2514154814327654E+00 
    3.2515833274937527E+00 
    3.2400596301374356E+00 
    3.2368757150914109E+00 
    3.2497108491180411E+00 
    3.2452159123459103E+00 
    3.2333105827842163E+00 
    3.2388086181334557E+00 
    3.2232086323938005E+00 
    3.2304023159160207E+00 
    3.2222310610928893E+00 
    3.2103146631391426E+00 
    3.2031798283871735E+00 
    3.2157243592677021E+00 
    3.2111305101129251E+00 
    3.2009606355213931E+00 
    3.2260724715017064E+00 
    3.2351941824146202E+00 
    3.2226000210832368E+00 
    3.2181132203792426E+00 
    3.1991215487072480E+00 
    3.2094750186326957E+00 
    3.2103547568234552E+00 
    3.1973385735698905E+00 
    3.1896520104374710E+00 
    3.1897511405964720E+00 
    3.1792443340265972E+00 
    3.1765111233160779E+00 
    3.1883562894676993E+00 
    3.1853776464873733E+00 
    3.1742627993854984E+00 
    3.1784439205321404E+00 
    3.1641330893521067E+00 
    3.1708025757722482E+00 
    3.1635108966416889E+00 
    3.1523376911453025E+00 
    3.1457480368885888E+00 
    3.1574951540188736E+00 
    3.1534245622597195E+00 
    3.1438594202788530E+00 
    3.1677274547219301E+00 
    3.1767844573942119E+00 
    3.1649081066462639E+00 
    3.1602305178805206E+00 
    3.1426957782686245E+00 
    3.1524309668792707E+00 
    3.1542430586728103E+00 
    3.1420368240805150E+00 
    3.1330903393423650E+00 
    3.1332222225684379E+00 
    3.1233316025121316E+00 
    3.1207223059858191E+00 
    3.1321312682298750E+00 
    3.1294028459444121E+00 
    3.1184709181524815E+00 
    3.1226804709306486E+00 
    3.1090952256713966E+00 
    3.1154890703908062E+00 
    3.1085801059571510E+00 
    3.0980139875454555E+00 
    3.0918224996897083E+00 
    3.1030217680531331E+00 
    3.0993401703208225E+00 
    3.0901598455199522E+00 
    3.1124806710287460E+00 
    3.1214421124112826E+00 
    3.1104520083113667E+00 
    3.1057935549523030E+00 
    3.0891551514398592E+00 
    3.0984163972521697E+00 
    3.1003501441213452E+00 
    3.0887236349499392E+00 
    3.0797619725740102E+00 
    3.0799738339850369E+00 
    3.0704957515793039E+00 
    3.0679733320175635E+00 
    3.0790497645316868E+00 
    3.0766831593729282E+00 
    3.0662035027997878E+00 
    3.0699545805037687E+00 
    3.0568607283417597E+00 
    3.0630018326769979E+00 
    3.0565059414721127E+00 
    3.0462432334646663E+00 
    3.0403144833132352E+00 
    3.0512139015522872E+00 
    3.0476434049636030E+00 
    3.0388033594867299E+00 
    3.0605212543383007E+00 
    3.0691508790200515E+00 
    3.0585283640208876E+00 
    3.0539607335051961E+00 
    3.0379441611727942E+00 
    3.0468309807762326E+00 
    3.0488121178843905E+00 
    3.0376440488173677E+00 
    3.0287826250619956E+00 
    3.0290861257348207E+00 
    3.0200742473599504E+00 
    3.0175779825835027E+00 
    3.0282187859281069E+00 
    3.0258725139713727E+00 
    3.0156450074866901E+00 
    3.0193890413363826E+00 
    3.0069311240013512E+00 
    3.0128654805880180E+00 
    3.0067989556277657E+00 
    2.9969070942194231E+00 
    2.9910553600136311E+00 
    3.0016710644287645E+00 
    2.9975711480774057E+00 
    2.9889105383240651E+00 
    3.0102638126450909E+00 
    3.0186601344775066E+00 
    3.0084874687155359E+00 
    3.0039734344499220E+00 
    2.9880171094558183E+00 
    2.9966910111926639E+00 
    2.9989743401769853E+00 
    2.9880778726019099E+00 
    2.9795002192132927E+00 
    2.9797329909768129E+00 
    2.9710230882038795E+00 
    2.9686052657921702E+00 
    2.9788892498840336E+00 
    2.9766570172499165E+00 
    2.9666189553910565E+00 
    2.9703240784579346E+00 
    2.9582255528249428E+00 
    2.9638951732912839E+00 
    2.9578856705790857E+00 
    2.9483674410512961E+00 
    2.9427044381519250E+00 
    2.9529710544885885E+00 
    2.9494874436172274E+00 
    2.9410373027488523E+00 
    2.9614179713979860E+00 
    2.9697135874839202E+00 
    2.9599389129728562E+00 
    2.9554729461065681E+00 
    2.9402403729386677E+00 
    2.9487772758955280E+00 
    2.9507427086642162E+00 
    2.9400318311782936E+00 
    2.9314267302827948E+00 
    2.9316112287615668E+00 
    2.9228318553095525E+00 
    2.9205407067266878E+00 
    2.9308472985263103E+00 
    2.9287083748860123E+00 
    2.9188180571667983E+00 
    2.9223405134314340E+00 
    2.9100985570946727E+00 
    2.9158831953212516E+00 
    2.9098510516817013E+00 
    2.8998763303542434E+00 
    2.8938489196853570E+00 
    2.9046986821683602E+00 
    2.9012063922043567E+00 
    2.8921198818757663E+00 
    2.9134427350788621E+00 
    2.9217401297211736E+00 
    2.9118267751988771E+00 
    2.9073784847475994E+00 
    2.8910822229438957E+00 
    2.9004742291300456E+00 
    2.9023664403511673E+00 
    2.8904896335603723E+00 
    2.8814911438858410E+00 
    2.8814374851746143E+00 
    2.8710344685212945E+00 
    2.8685988909786855E+00 
    2.8801728420309023E+00 
    2.8772345423859380E+00 
    2.8662311005461203E+00 
    2.8702389382777223E+00 
    2.8575406770578904E+00 
    2.8633557097472022E+00 
    2.8575731291696451E+00 
    2.8483278628119342E+00 
    2.8431125476651444E+00 
    2.8527154711924512E+00 
    2.8488590511860004E+00 
    2.8411348145316895E+00 
    2.8607552910878158E+00 
    2.8691914635196816E+00 
    2.8588640676666754E+00 
    2.8546463546652725E+00 
    2.8401937793478931E+00 
    2.8479048615336588E+00 
    2.8498390728529688E+00 
    2.8399737177093654E+00 
    2.8330336750733833E+00 
    2.8330547412822766E+00 
    2.8256833345921244E+00 
    2.8238657295609504E+00 
    2.8322199676893298E+00 
    2.8301494848528330E+00 
    2.8220060151639563E+00 
    2.8251254908986141E+00 
    2.8155121791955890E+00 
    2.8199695604126540E+00 
    2.8149582971100786E+00 
    2.8077523645789375E+00 
    2.8036105420716875E+00 
    2.8110301185042790E+00 
    2.8085247837269560E+00 
    2.8024412652789237E+00 
    2.8176011110220136E+00 
    2.8240343229271656E+00 
    2.8160362036435291E+00 
    2.8129146603331607E+00 
    2.8015918594240512E+00 
    2.8078207690007115E+00 
    2.8089096100974364E+00 
    2.8009810365032384E+00 
    2.7959488333660860E+00 
    2.7959993177097915E+00 
    2.7901916400029219E+00 
    2.7887497710788494E+00 
    2.7951689203228134E+00 
    2.7932926942188647E+00 
    2.7870199173438976E+00 
    2.7895785808530937E+00 
    2.7822432023404078E+00 
    2.7856127105544131E+00 
    2.7817438150844387E+00 
    2.7763366482464575E+00 
    2.7731067767908315E+00 
    2.7786582440271799E+00 
    2.7763160921463812E+00 
    2.7718033672625069E+00 
    2.7835447930172394E+00 
    2.7883111466471511E+00 
    2.7819139459564206E+00 
    2.7797021252300298E+00 
    2.7709251681332119E+00 
    2.7755347685074447E+00 
    2.7762574972540905E+00 
    2.7702406504249342E+00 
    2.7673387040822193E+00 
    2.7672638088813528E+00 
    2.7630765205822643E+00 
    2.7620683707335680E+00 
    2.7664742609706554E+00 
    2.7647654017923875E+00 
    2.7605396883382780E+00 
    2.7625507660635784E+00 
    2.7573883312490652E+00 
    2.7597504749632917E+00 
    2.7569361745226471E+00 
    2.7532046927857166E+00 
    2.7509821366463623E+00 
    2.7546406728682244E+00 
    2.7529649258575803E+00 
    2.7500238832961625E+00 
    2.7578121927063615E+00 
    2.7608045443239360E+00 
    2.7561721053776589E+00 
    2.7549966155066583E+00 
    2.7491574680321977E+00 
    2.7522353390166625E+00 
    2.7522494562824886E+00 
    2.7481474375314980E+00 
    2.7471729924130086E+00 
    2.7469300667064789E+00 
    2.7442480703864582E+00 
    2.7437806496840147E+00 
    2.7461833620327574E+00 
    2.7447419779987539E+00 
    2.7424115603277257E+00 
    2.7437951361854962E+00 
    2.7409699934297582E+00 
    2.7422628491587484E+00 
    2.7405993687333177E+00 
    2.7386425681005075E+00 
    2.7373554457378853E+00 
    2.7391223972271854E+00 
    2.7378063044804346E+00 
    2.7364414338406244E+00 
    2.7405818921489074E+00 
    2.7418862199371388E+00 
    2.7389272175784773E+00 
    2.7387128794038564E+00 
    2.7355403400800076E+00 
    2.7370274533484853E+00 
    2.7365609941104121E+00 
    2.7343609088276080E+00 
    2.7354750028775334E+00 
    2.7351038746162559E+00 
    2.7340312673094296E+00 
    2.7340215752390358E+00 
    2.7343660560476093E+00 
    2.7331305718836871E+00 
    2.7327469340793171E+00 
    2.7335895422733500E+00 
    2.7330184636918493E+00 
    2.7332615740630435E+00 
    2.7325592627560402E+00 
    2.7323726927668837E+00 
    2.7321147955358493E+00 
    2.7319183473111139E+00 
    2.7312107371962280E+00 
    2.7314681293242820E+00 
    2.7317171002695151E+00 
    2.7313394619328339E+00 
    2.7300963348662166E+00 
    2.7308690405776939E+00 
    2.7304646934016632E+00 
    2.7304383983604268E+00 
    2.7293622184363984E+00 
    2.7290074603357164E+00 
    3.4214039623518335E+00 
    3.3952269698135904E+00 
    3.3981340366323267E+00 
    3.4171283326040554E+00 
    3.3727961150066927E+00 
    3.3532523328479713E+00 
    3.3696394280618698E+00 
    3.3827582706664998E+00 
    3.4082614926429389E+00 
    3.3931931478382582E+00 
    3.3824449600783257E+00 
    3.3945914977601896E+00 
    3.3762666964197483E+00 
    3.3698079471107074E+00 
    3.3570251405846059E+00 
    3.3586881955467027E+00 
    3.3586648548242835E+00 
    3.3422231680210674E+00 
    3.3363594477912071E+00 
    3.3493079138048345E+00 
    3.3434539156560361E+00 
    3.3447642913263791E+00 
    3.3318434593583630E+00 
    3.3271340841675134E+00 
    3.3691797680260214E+00 
    3.3551651848966144E+00 
    3.3481865418283605E+00 
    3.3550734114917371E+00 
    3.3416392683800979E+00 
    3.3263795904405637E+00 
    3.3282230280092135E+00 
    3.3392958806866675E+00 
    3.3417225386798677E+00 
    3.3393013612135340E+00 
    3.3282865545217004E+00 
    3.3265685878400002E+00 
    3.3126618395654832E+00 
    3.3169874221479327E+00 
    3.3069771175056766E+00 
    3.3019417397410504E+00 
    3.3169085519654193E+00 
    3.3124908845708245E+00 
    3.3016302976072804E+00 
    3.3067874755324809E+00 
    3.2928940012262071E+00 
    3.2994028973615603E+00 
    3.2926097504078196E+00 
    3.2829524076647254E+00 
    3.3006801912471020E+00 
    3.2936997739526856E+00 
    3.2847045636748065E+00 
    3.2867690615496481E+00 
    3.2858536792672588E+00 
    3.2758390218850617E+00 
    3.2710735099923580E+00 
    3.2792621782140858E+00 
    3.2744682672857306E+00 
    3.2758850879422039E+00 
    3.2666029075661189E+00 
    3.2610869331558265E+00 
    3.2502428102313403E+00 
    3.2578860251744710E+00 
    3.2503683700970094E+00 
    3.2431747258412376E+00 
    3.2620391121395280E+00 
    3.2635924911757548E+00 
    3.2519072207936284E+00 
    3.2530961552957067E+00 
    3.2372291017061503E+00 
    3.2453031716992959E+00 
    3.2418204195840605E+00 
    3.2308065151202405E+00 
    3.2378581907730366E+00 
    3.2338172450185492E+00 
    3.2245979940648564E+00 
    3.2248907321434301E+00 
    3.2286524777547845E+00 
    3.2214360788337424E+00 
    3.2144429406142994E+00 
    3.2210418092942033E+00 
    3.2128814384159967E+00 
    3.2162933269323473E+00 
    3.2081352588364695E+00 
    3.2007583034195339E+00 
    3.1920895349001435E+00 
    3.2007211516536676E+00 
    3.1944155411430639E+00 
    3.1867288668714298E+00 
    3.2065890351159414E+00 
    3.2107109147449844E+00 
    3.1992821653669852E+00 
    3.1984927773618885E+00 
    3.1823620409672806E+00 
    3.1907582933968239E+00 
    3.1891520071513759E+00 
    3.1779162726169448E+00 
    3.1799803098630650E+00 
    3.1773306105452304E+00 
    3.1681639414313678E+00 
    3.1676868985725202E+00 
    3.1734584708934666E+00 
    3.1677131988217528E+00 
    3.1597970009787248E+00 
    3.1654964449339529E+00 
    3.1571500056366655E+00 
    3.1604976473282256E+00 
    3.1531359154304703E+00 
    3.1458554473383877E+00 
    3.1373383630577396E+00 
    3.1463138850027756E+00 
    3.1406836454180476E+00 
    3.1328102287853157E+00 
    3.1527387724127851E+00 
    3.1580946572911279E+00 
    3.1470792709337219E+00 
    3.1452640990526977E+00 
    3.1293082143033697E+00 
    3.1377679309583622E+00 
    3.1370861257880329E+00 
    3.1259178270587573E+00 
    3.1253687628980713E+00 
    3.1234124406262072E+00 
    3.1144371669822690E+00 
    3.1135608188866155E+00 
    3.1202891922900067E+00 
    3.1154215407945993E+00 
    3.1071047120335225E+00 
    3.1122674917626227E+00 
    3.1034874512378812E+00 
    3.1070984431321276E+00 
    3.1001935610073814E+00 
    3.0927416969077437E+00 
    3.0847758362362510E+00 
    3.0938430324189996E+00 
    3.0886813200506276E+00 
    3.0807804413441575E+00 
    3.1005355543569610E+00 
    3.1064418304954322E+00 
    3.0957578182343912E+00 
    3.0934713743274607E+00 
    3.0777797084937402E+00 
    3.0862019089012498E+00 
    3.0860127279521352E+00 
    3.0750064784140458E+00 
    3.0730462633245579E+00 
    3.0714718878407985E+00 
    3.0627083675561573E+00 
    3.0616603694403208E+00 
    3.0687605851359381E+00 
    3.0644320108125909E+00 
    3.0559682542215287E+00 
    3.0607687970870328E+00 
    3.0519710373940812E+00 
    3.0555988212475489E+00 
    3.0490306403383030E+00 
    3.0416580195392551E+00 
    3.0340691181151893E+00 
    3.0430407251465095E+00 
    3.0381508957782812E+00 
    3.0303624100829518E+00 
    3.0498003961253426E+00 
    3.0559673402006977E+00 
    3.0455970312796765E+00 
    3.0430478082775383E+00 
    3.0276616656048669E+00 
    3.0359316912553833E+00 
    3.0360415936879837E+00 
    3.0252237977614964E+00 
    3.0226634780359651E+00 
    3.0213090294913409E+00 
    3.0127687458415258E+00 
    3.0116065690642086E+00 
    3.0188638781354640E+00 
    3.0148118863478133E+00 
    3.0064725536285191E+00 
    3.0110845855402988E+00 
    3.0021766933376415E+00 
    3.0059208559698254E+00 
    2.9994880840364049E+00 
    2.9920944179404758E+00 
    2.9846549554321071E+00 
    2.9935098316528959E+00 
    2.9885095166767783E+00 
    2.9808745107954988E+00 
    3.0003702939656534E+00 
    3.0066668503433061E+00 
    2.9964704076194848E+00 
    2.9935988777952525E+00 
    2.9783715023494879E+00 
    2.9863945195637562E+00 
    2.9870092961019776E+00 
    2.9764179554841466E+00 
    2.9737047999212183E+00 
    2.9724827032433621E+00 
    2.9644077067493213E+00 
    2.9631385439844729E+00 
    2.9701621912413270E+00 
    2.9662018874932579E+00 
    2.9580032388789341E+00 
    2.9626853729318272E+00 
    2.9539106528197454E+00 
    2.9576004885686547E+00 
    2.9511649360113963E+00 
    2.9439173732006578E+00 
    2.9366722194214918E+00 
    2.9453064637416984E+00 
    2.9407902075906209E+00 
    2.9332271500443801E+00 
    2.9519558020639933E+00 
    2.9581943065307659E+00 
    2.9482800733257730E+00 
    2.9455059712786715E+00 
    2.9307558890687919E+00 
    2.9388415192939994E+00 
    2.9391554859925999E+00 
    2.9286029855051150E+00 
    2.9257362108322584E+00 
    2.9245324757065330E+00 
    2.9163716414171268E+00 
    2.9150667801466330E+00 
    2.9221895914017644E+00 
    2.9181841312641623E+00 
    2.9097926565869110E+00 
    2.9146735711333127E+00 
    2.9056640976116754E+00 
    2.9095141431598002E+00 
    2.9026913227507407E+00 
    2.8947955161702699E+00 
    2.8863921308667524E+00 
    2.8961819506067306E+00 
    2.8911963753504919E+00 
    2.8823808535591611E+00 
    2.9033006610204852E+00 
    2.9099592931019567E+00 
    2.8995105535662922E+00 
    2.8964577735166106E+00 
    2.8794936675240410E+00 
    2.8890841095431945E+00 
    2.8895400205855553E+00 
    2.8768848325525900E+00 
    2.8736055016743078E+00 
    2.8724253210479054E+00 
    2.8634368015403520E+00 
    2.8620404611895740E+00 
    2.8697355240084805E+00 
    2.8649827479695658E+00 
    2.8564181270615938E+00 
    2.8615294294932196E+00 
    2.8528115084136085E+00 
    2.8562974415966655E+00 
    2.8499086447206001E+00 
    2.8433354245253835E+00 
    2.8365343022048086E+00 
    2.8441821913938612E+00 
    2.8396299425458156E+00 
    2.8329902919121595E+00 
    2.8502580683574830E+00 
    2.8562678246225057E+00 
    2.8463296993426686E+00 
    2.8438710029227994E+00 
    2.8303720214957746E+00 
    2.8375233874030150E+00 
    2.8374889457280461E+00 
    2.8279360711058454E+00 
    2.8270513113733631E+00 
    2.8256234199324930E+00 
    2.8189324695307558E+00 
    2.8182438931366742E+00 
    2.8232270836462559E+00 
    2.8193469538146738E+00 
    2.8130652594478156E+00 
    2.8172498404690325E+00 
    2.8109223791815001E+00 
    2.8134472660099794E+00 
    2.8081475884608853E+00 
    2.8032263550152834E+00 
    2.7975486990464749E+00 
    2.8032111190012960E+00 
    2.7993798368904526E+00 
    2.7944018944951137E+00 
    2.8077700762247897E+00 
    2.8121855121873387E+00 
    2.8040205039262287E+00 
    2.8025048889358026E+00 
    2.7918840949956678E+00 
    2.7974240542880944E+00 
    2.7969431271995506E+00 
    2.7893080981679530E+00 
    2.7903153626186175E+00 
    2.7889029122446263E+00 
    2.7836662666558918E+00 
    2.7833619971105032E+00 
    2.7865302562559595E+00 
    2.7827487962305324E+00 
    2.7782129561728355E+00 
    2.7819173446231114E+00 
    2.7775107125251171E+00 
    2.7790968602737007E+00 
    2.7748040241733634E+00 
    2.7715071409560759E+00 
    2.7669126089004208E+00 
    2.7708185106438958E+00 
    2.7674594649020952E+00 
    2.7639008479220659E+00 
    2.7738591160724568E+00 
    2.7766517875597234E+00 
    2.7700996182645681E+00 
    2.7694818595771418E+00 
    2.7613772991227030E+00 
    2.7654753776243362E+00 
    2.7644866024596122E+00 
    2.7586718133052135E+00 
    2.7616960806634894E+00 
    2.7599306029562625E+00 
    2.7563166487424691E+00 
    2.7566880001142784E+00 
    2.7576012051054977E+00 
    2.7542388992244367E+00 
    2.7517257402021928E+00 
    2.7547042944529685E+00 
    2.7525816331385373E+00 
    2.7532028552796857E+00 
    2.7499440891501026E+00 
    2.7483029392297200E+00 
    2.7447873084402752E+00 
    2.7467154905655669E+00 
    2.7439308544630601E+00 