# vtk DataFile Version 2.0
Pressure Field Data 
ASCII 
DATASET UNSTRUCTURED_GRID 

POINTS 6273 double 

    0.0000000000000000E+00     0.0000000000000000E+00     0.0000000000000000E+00 
    1.0000000000000000E+00     0.0000000000000000E+00     0.0000000000000000E+00 
    1.0000000000000000E+00     1.0000000000000000E+00     0.0000000000000000E+00 
    0.0000000000000000E+00     1.0000000000000000E+00     0.0000000000000000E+00 
    1.5624999999970249E-02     0.0000000000000000E+00     0.0000000000000000E+00 
    3.1249999999940652E-02     0.0000000000000000E+00     0.0000000000000000E+00 
    4.6874999999905617E-02     0.0000000000000000E+00     0.0000000000000000E+00 
    6.2499999999870597E-02     0.0000000000000000E+00     0.0000000000000000E+00 
    7.8124999999846401E-02     0.0000000000000000E+00     0.0000000000000000E+00 
    9.3749999999822212E-02     0.0000000000000000E+00     0.0000000000000000E+00 
    1.0937499999979799E-01     0.0000000000000000E+00     0.0000000000000000E+00 
    1.2499999999977381E-01     0.0000000000000000E+00     0.0000000000000000E+00 
    1.4062499999972811E-01     0.0000000000000000E+00     0.0000000000000000E+00 
    1.5624999999968239E-01     0.0000000000000000E+00     0.0000000000000000E+00 
    1.7187499999963671E-01     0.0000000000000000E+00     0.0000000000000000E+00 
    1.8749999999959110E-01     0.0000000000000000E+00     0.0000000000000000E+00 
    2.0312499999954539E-01     0.0000000000000000E+00     0.0000000000000000E+00 
    2.1874999999949971E-01     0.0000000000000000E+00     0.0000000000000000E+00 
    2.3437499999945391E-01     0.0000000000000000E+00     0.0000000000000000E+00 
    2.4999999999940831E-01     0.0000000000000000E+00     0.0000000000000000E+00 
    2.6562499999936218E-01     0.0000000000000000E+00     0.0000000000000000E+00 
    2.8124999999931621E-01     0.0000000000000000E+00     0.0000000000000000E+00 
    2.9687499999927008E-01     0.0000000000000000E+00     0.0000000000000000E+00 
    3.1249999999922412E-01     0.0000000000000000E+00     0.0000000000000000E+00 
    3.2812499999917810E-01     0.0000000000000000E+00     0.0000000000000000E+00 
    3.4374999999913203E-01     0.0000000000000000E+00     0.0000000000000000E+00 
    3.5937499999908601E-01     0.0000000000000000E+00     0.0000000000000000E+00 
    3.7499999999903999E-01     0.0000000000000000E+00     0.0000000000000000E+00 
    3.9062499999899403E-01     0.0000000000000000E+00     0.0000000000000000E+00 
    4.0624999999894801E-01     0.0000000000000000E+00     0.0000000000000000E+00 
    4.2187499999890188E-01     0.0000000000000000E+00     0.0000000000000000E+00 
    4.3749999999885592E-01     0.0000000000000000E+00     0.0000000000000000E+00 
    4.5312499999880979E-01     0.0000000000000000E+00     0.0000000000000000E+00 
    4.6874999999876382E-01     0.0000000000000000E+00     0.0000000000000000E+00 
    4.8437499999871780E-01     0.0000000000000000E+00     0.0000000000000000E+00 
    4.9999999999867167E-01     0.0000000000000000E+00     0.0000000000000000E+00 
    5.1562499999871325E-01     0.0000000000000000E+00     0.0000000000000000E+00 
    5.3124999999875477E-01     0.0000000000000000E+00     0.0000000000000000E+00 
    5.4687499999879630E-01     0.0000000000000000E+00     0.0000000000000000E+00 
    5.6249999999883782E-01     0.0000000000000000E+00     0.0000000000000000E+00 
    5.7812499999887934E-01     0.0000000000000000E+00     0.0000000000000000E+00 
    5.9374999999892086E-01     0.0000000000000000E+00     0.0000000000000000E+00 
    6.0937499999896239E-01     0.0000000000000000E+00     0.0000000000000000E+00 
    6.2499999999900380E-01     0.0000000000000000E+00     0.0000000000000000E+00 
    6.4062499999904521E-01     0.0000000000000000E+00     0.0000000000000000E+00 
    6.5624999999908673E-01     0.0000000000000000E+00     0.0000000000000000E+00 
    6.7187499999912825E-01     0.0000000000000000E+00     0.0000000000000000E+00 
    6.8749999999916978E-01     0.0000000000000000E+00     0.0000000000000000E+00 
    7.0312499999921130E-01     0.0000000000000000E+00     0.0000000000000000E+00 
    7.1874999999925282E-01     0.0000000000000000E+00     0.0000000000000000E+00 
    7.3437499999929434E-01     0.0000000000000000E+00     0.0000000000000000E+00 
    7.4999999999933586E-01     0.0000000000000000E+00     0.0000000000000000E+00 
    7.6562499999937739E-01     0.0000000000000000E+00     0.0000000000000000E+00 
    7.8124999999941891E-01     0.0000000000000000E+00     0.0000000000000000E+00 
    7.9687499999946043E-01     0.0000000000000000E+00     0.0000000000000000E+00 
    8.1249999999950195E-01     0.0000000000000000E+00     0.0000000000000000E+00 
    8.2812499999954348E-01     0.0000000000000000E+00     0.0000000000000000E+00 
    8.4374999999958500E-01     0.0000000000000000E+00     0.0000000000000000E+00 
    8.5937499999962652E-01     0.0000000000000000E+00     0.0000000000000000E+00 
    8.7499999999966793E-01     0.0000000000000000E+00     0.0000000000000000E+00 
    8.9062499999970934E-01     0.0000000000000000E+00     0.0000000000000000E+00 
    9.0624999999975087E-01     0.0000000000000000E+00     0.0000000000000000E+00 
    9.2187499999979239E-01     0.0000000000000000E+00     0.0000000000000000E+00 
    9.3749999999983391E-01     0.0000000000000000E+00     0.0000000000000000E+00 
    9.5312499999987543E-01     0.0000000000000000E+00     0.0000000000000000E+00 
    9.6874999999991696E-01     0.0000000000000000E+00     0.0000000000000000E+00 
    9.8437499999995848E-01     0.0000000000000000E+00     0.0000000000000000E+00 
    1.0000000000000000E+00     1.5624999999970249E-02     0.0000000000000000E+00 
    1.0000000000000000E+00     3.1249999999940652E-02     0.0000000000000000E+00 
    1.0000000000000000E+00     4.6874999999905617E-02     0.0000000000000000E+00 
    1.0000000000000000E+00     6.2499999999870597E-02     0.0000000000000000E+00 
    1.0000000000000000E+00     7.8124999999846401E-02     0.0000000000000000E+00 
    1.0000000000000000E+00     9.3749999999822212E-02     0.0000000000000000E+00 
    1.0000000000000000E+00     1.0937499999979799E-01     0.0000000000000000E+00 
    1.0000000000000000E+00     1.2499999999977381E-01     0.0000000000000000E+00 
    1.0000000000000000E+00     1.4062499999972811E-01     0.0000000000000000E+00 
    1.0000000000000000E+00     1.5624999999968239E-01     0.0000000000000000E+00 
    1.0000000000000000E+00     1.7187499999963671E-01     0.0000000000000000E+00 
    1.0000000000000000E+00     1.8749999999959110E-01     0.0000000000000000E+00 
    1.0000000000000000E+00     2.0312499999954539E-01     0.0000000000000000E+00 
    1.0000000000000000E+00     2.1874999999949971E-01     0.0000000000000000E+00 
    1.0000000000000000E+00     2.3437499999945391E-01     0.0000000000000000E+00 
    1.0000000000000000E+00     2.4999999999940831E-01     0.0000000000000000E+00 
    1.0000000000000000E+00     2.6562499999936218E-01     0.0000000000000000E+00 
    1.0000000000000000E+00     2.8124999999931621E-01     0.0000000000000000E+00 
    1.0000000000000000E+00     2.9687499999927008E-01     0.0000000000000000E+00 
    1.0000000000000000E+00     3.1249999999922412E-01     0.0000000000000000E+00 
    1.0000000000000000E+00     3.2812499999917810E-01     0.0000000000000000E+00 
    1.0000000000000000E+00     3.4374999999913203E-01     0.0000000000000000E+00 
    1.0000000000000000E+00     3.5937499999908601E-01     0.0000000000000000E+00 
    1.0000000000000000E+00     3.7499999999903999E-01     0.0000000000000000E+00 
    1.0000000000000000E+00     3.9062499999899403E-01     0.0000000000000000E+00 
    1.0000000000000000E+00     4.0624999999894801E-01     0.0000000000000000E+00 
    1.0000000000000000E+00     4.2187499999890188E-01     0.0000000000000000E+00 
    1.0000000000000000E+00     4.3749999999885592E-01     0.0000000000000000E+00 
    1.0000000000000000E+00     4.5312499999880979E-01     0.0000000000000000E+00 
    1.0000000000000000E+00     4.6874999999876382E-01     0.0000000000000000E+00 
    1.0000000000000000E+00     4.8437499999871780E-01     0.0000000000000000E+00 
    1.0000000000000000E+00     4.9999999999867167E-01     0.0000000000000000E+00 
    1.0000000000000000E+00     5.1562499999871325E-01     0.0000000000000000E+00 
    1.0000000000000000E+00     5.3124999999875477E-01     0.0000000000000000E+00 
    1.0000000000000000E+00     5.4687499999879630E-01     0.0000000000000000E+00 
    1.0000000000000000E+00     5.6249999999883782E-01     0.0000000000000000E+00 
    1.0000000000000000E+00     5.7812499999887934E-01     0.0000000000000000E+00 
    1.0000000000000000E+00     5.9374999999892086E-01     0.0000000000000000E+00 
    1.0000000000000000E+00     6.0937499999896239E-01     0.0000000000000000E+00 
    1.0000000000000000E+00     6.2499999999900380E-01     0.0000000000000000E+00 
    1.0000000000000000E+00     6.4062499999904521E-01     0.0000000000000000E+00 
    1.0000000000000000E+00     6.5624999999908673E-01     0.0000000000000000E+00 
    1.0000000000000000E+00     6.7187499999912825E-01     0.0000000000000000E+00 
    1.0000000000000000E+00     6.8749999999916978E-01     0.0000000000000000E+00 
    1.0000000000000000E+00     7.0312499999921130E-01     0.0000000000000000E+00 
    1.0000000000000000E+00     7.1874999999925282E-01     0.0000000000000000E+00 
    1.0000000000000000E+00     7.3437499999929434E-01     0.0000000000000000E+00 
    1.0000000000000000E+00     7.4999999999933586E-01     0.0000000000000000E+00 
    1.0000000000000000E+00     7.6562499999937739E-01     0.0000000000000000E+00 
    1.0000000000000000E+00     7.8124999999941891E-01     0.0000000000000000E+00 
    1.0000000000000000E+00     7.9687499999946043E-01     0.0000000000000000E+00 
    1.0000000000000000E+00     8.1249999999950195E-01     0.0000000000000000E+00 
    1.0000000000000000E+00     8.2812499999954348E-01     0.0000000000000000E+00 
[...]
CELL_DATA 6144 
SCALARS Pressure double 1 
LOOKUP_TABLE default 

    3.6807131308040590E+00 
    3.5824256779191619E+00 
    3.5666070407295658E+00 
    3.5824287443021863E+00 
    3.5217808588518502E+00 
    3.4811836442331292E+00 
    3.5028136223276647E+00 
    3.5322185711552097E+00 
    3.5217884355736198E+00 
    3.5322261144225351E+00 
    3.5028313536291598E+00 
    3.4811912067691613E+00 
    3.4609108909133282E+00 
    3.4792904425030216E+00 
    3.4603407310907337E+00 
    3.4474905355448597E+00 
    3.4794255458756651E+00 
    3.4610829630169864E+00 
    3.4480117709988529E+00 
    3.4607638688443485E+00 
    3.4351048234635000E+00 
    3.4480183788089480E+00 
    3.4355217072645088E+00 
    3.4203416277968146E+00 
    3.4336022213234143E+00 
    3.4300390135035066E+00 
    3.4124990801797828E+00 
    3.4091962387125530E+00 
    3.4215279969374728E+00 
    3.4084947864570112E+00 
    3.3976363859154977E+00 
    3.4079008859369728E+00 
    3.3885527217625988E+00 
    3.3978413817996622E+00 
    3.3858517576348106E+00 
    3.3709158862143527E+00 
    3.3612669950822611E+00 
    3.3758591361727195E+00 
    3.3678863523966283E+00 
    3.3566034784899910E+00 
    3.3857729216091346E+00 
    3.3915622586106120E+00 
    3.3757000001130049E+00 
    3.3742762829791322E+00 
    3.3525961373737241E+00 
    3.3639241587436914E+00 
    3.3624053480737151E+00 
    3.3481322199371748E+00 
    3.3444511279960487E+00 
    3.3436753004920674E+00 
    3.3318552770943581E+00 
    3.3292595575550288E+00 
    3.3408166016344869E+00 
    3.3354333409502281E+00 
    3.3248137522186036E+00 
    3.3303638762689141E+00 
    3.3156972263316979E+00 
    3.3226218723846843E+00 
    3.3145224634108543E+00 
    3.3032381085165912E+00 
    3.2964946577299492E+00 
    3.3078470273482412E+00 
    3.3031932584593875E+00 
    3.2942367162254627E+00 
    3.3171082835656081E+00 
    3.3246985443210679E+00 
    3.3125729349350568E+00 
    3.3092079348129895E+00 
    3.2923782439254596E+00 
    3.3014532743230092E+00 
    3.3020385336932176E+00 
    3.2904363741943374E+00 
    3.2843675649892896E+00 
    3.2845013468380033E+00 
    3.2752161156622379E+00 
    3.2726717925440219E+00 
    3.2829832571293895E+00 
    3.2793506687460803E+00 
    3.2698176840519104E+00 
    3.2742116184343981E+00 
    3.2618186725108029E+00 
    3.2675117239219684E+00 
    3.2610431879730828E+00 
    3.2516999270208666E+00 
    3.2461584408745567E+00 
    3.2559251533627864E+00 
    3.2523224386440925E+00 
    3.2444286214340017E+00 
    3.2640650660330826E+00 
    3.2713004705228594E+00 
    3.2613051197515324E+00 
    3.2577838173193001E+00 
    3.2429956209650754E+00 
    3.2510221871286675E+00 
    3.2516953592269751E+00 
    3.2415975809132673E+00 
    3.2357286070422595E+00 
    3.2358005708819713E+00 
    3.2277823621811432E+00 
    3.2257124334303739E+00 
    3.2347247320453856E+00 
    3.2324334677339572E+00 
    3.2239932745537021E+00 
    3.2271695438582468E+00 
    3.2163759261163039E+00 
    3.2213907696148811E+00 
    3.2159024246731329E+00 
    3.2075637542902622E+00 
    3.2026815394695336E+00 
    3.2113960367835857E+00 
    3.2083502325020281E+00 
    3.2012712399687557E+00 
    3.2190521666251590E+00 
    3.2258768075917907E+00 
    3.2169086709018289E+00 
    3.2134180452125150E+00 
    3.2003951659810994E+00 
    3.2075966097254223E+00 
    3.2089251264523648E+00 
    3.1998820097947589E+00 
    3.1933655944320862E+00 
    3.1934538144424676E+00 
    3.1862374607157706E+00 
    3.1843496870497470E+00 
    3.1926422659762537E+00 
    3.1906276232593846E+00 
    3.1826912435589985E+00 
    3.1857557807756600E+00 
    3.1759507633508890E+00 
    3.1805533378098989E+00 
    3.1755689408955603E+00 
    3.1680128181348861E+00 
    3.1636089715730167E+00 
    3.1715731975057677E+00 
    3.1689233895897511E+00 
    3.1624076665350933E+00 
    3.1783476536077666E+00 
    3.1848021557635646E+00 
    3.1768450305354055E+00 
    3.1735246558560988E+00 
    3.1616672559492671E+00 
    3.1682410793675078E+00 
    3.1695894958711803E+00 
    3.1613182056108267E+00 
    3.1550895409726198E+00 
    3.1552236297317653E+00 
    3.1485836990884413E+00 
    3.1468353811949323E+00 
    3.1545502873358888E+00 
    3.1528524604043175E+00 
    3.1455566809130624E+00 
    3.1481904486767727E+00 
    3.1391222493291604E+00 
    3.1433647195143632E+00 
    3.1388575421120484E+00 
    3.1318125947962057E+00 
    3.1277582531986443E+00 
    3.1351950125075785E+00 
    3.1327147515778946E+00 
    3.1266944127161711E+00 
    3.1415862019959673E+00 
    3.1475384584853736E+00 
    3.1401402953807227E+00 
    3.1370312399793661E+00 
    3.1260639958470082E+00 
    3.1321212888304482E+00 
    3.1334288836483890E+00 
    3.1257910114659069E+00 
    3.1199376835854697E+00 
    3.1201178087019930E+00 
    3.1140605920545172E+00 
    3.1124086902899277E+00 
    3.1194937034282382E+00 
    3.1178544776902299E+00 
    3.1110438917480341E+00 
    3.1135770016423403E+00 
    3.1053228543905651E+00 
    3.1092433591360469E+00 
    3.1052024126075417E+00 
    3.0987133228729578E+00 
    3.0948824302723854E+00 
    3.1017926227051156E+00 
    3.0990584487980177E+00 
    3.0934358296708910E+00 
    3.1074242616889558E+00 
    3.1129458053175960E+00 
    3.1061406820149444E+00 
    3.1032275094713571E+00 
    3.0927833198071135E+00 
    3.0984250654044483E+00 
    3.0998412232644945E+00 
    3.0927128909429551E+00 
    3.0874117294252748E+00 
    3.0875216164146262E+00 
    3.0819584179160708E+00 
    3.0804521385771833E+00 
    3.0869161602048392E+00 
    3.0853908880006387E+00 
    3.0790745413636138E+00 
    3.0814729362521924E+00 
    3.0739119382814870E+00 
    3.0774401713097150E+00 
    3.0736464243457013E+00 
    3.0677882116528075E+00 
    3.0643117718193431E+00 
    3.0705504157097163E+00 
    3.0683314933283525E+00 
    3.0632156305186173E+00 
    3.0757389256397532E+00 
    3.0808607093361320E+00 
    3.0746462658332803E+00 
    3.0719707099766929E+00 
    3.0626183116668124E+00 
    3.0678044130613968E+00 
    3.0688887418013104E+00 
    3.0623223823415033E+00 
    3.0575366279598364E+00 
    3.0575860552431524E+00 
    3.0524339648597234E+00 
    3.0511477154362132E+00 
    3.0570370501497632E+00 
    3.0556336006381519E+00 
    3.0499934092034744E+00 
    3.0520919317865318E+00 
    3.0452112174049999E+00 
    3.0484273356752887E+00 
    3.0450068643548645E+00 
    3.0396384198326492E+00 
    3.0365182832757860E+00 
    3.0421368730189431E+00 
    3.0401848654683743E+00 
    3.0355833802593644E+00 
    3.0468615053372932E+00 
    3.0514186176174860E+00 
    3.0457323734041473E+00 
    3.0434304392421305E+00 
    3.0350129930099277E+00 
    3.0396992805121053E+00 
    3.0405608084191607E+00 
    3.0346536424095047E+00 
    3.0304995610118808E+00 
    3.0305286056075889E+00 
    3.0258755483669111E+00 
    3.0247433855070751E+00 
    3.0299895561241272E+00 
    3.0286454103404044E+00 
    3.0236263259190066E+00 
    3.0255453109165704E+00 
    3.0194701533621333E+00 
    3.0223067126760506E+00 
    3.0193693908973627E+00 
    3.0146453942431024E+00 
    3.0118317859086772E+00 
    3.0168029888805563E+00 
    3.0147112847464927E+00 
    3.0106822466435323E+00 
    3.0208474055341381E+00 
    3.0248145279835579E+00 
    3.0196697994680415E+00 
    3.0176522579156857E+00 
    3.0100520944907232E+00 
    3.0141106887096609E+00 
    3.0149597621592950E+00 
    3.0097320421696288E+00 
    3.0064402053685919E+00 
    3.0063829033633440E+00 
    3.0023972189559900E+00 
    3.0014391824063269E+00 
    3.0058257158973274E+00 
    3.0045503491361556E+00 
    3.0002523108313448E+00 
    3.0020316643544791E+00 
    2.9968063016992792E+00 
    2.9992500030647484E+00 
    2.9964388554966539E+00 
    2.9924285024850041E+00 
    2.9900441312424522E+00 
    2.9941924402020654E+00 
    2.9927070077523479E+00 
    2.9892974489580171E+00 
    2.9977452963511331E+00 
    3.0010921290539581E+00 
    2.9966554929647544E+00 
    2.9950810834499220E+00 
    2.9886970345736077E+00 
    2.9922124584108998E+00 
    2.9926693590335018E+00 
    2.9881683869722599E+00 
    2.9856335338179414E+00 
    2.9856080897249275E+00 
    2.9822136489682189E+00 
    2.9813870639112281E+00 
    2.9850356825697211E+00 
    2.9838114959932831E+00 
    2.9802232358483418E+00 
    2.9818004610398874E+00 
    2.9774510612920237E+00 
    2.9794731137697088E+00 
    2.9771035678512803E+00 
    2.9737734203021087E+00 
    2.9716911868102711E+00 
    2.9751699709320247E+00 
    2.9736652818183340E+00 
    2.9708138922493053E+00 
    2.9780805517596751E+00 
    2.9807762980637778E+00 
    2.9769300353485146E+00 
    2.9757037248952303E+00 
    2.9701902196790719E+00 
    2.9731198555567806E+00 
    2.9734655190005723E+00 
    2.9696488339564993E+00 
    2.9678967553734199E+00 
    2.9678228019581123E+00 
    2.9649187970290107E+00 
    2.9641954999379099E+00 
    2.9672500824871917E+00 
    2.9660223419375065E+00 
    2.9630397946973215E+00 
    2.9645304950174682E+00 
    2.9605825203321534E+00 
    2.9624463167292734E+00 
    2.9601775642742392E+00 
    2.9569487171503948E+00 
    2.9549830961030610E+00 
    2.9582015051323940E+00 
    2.9567275755758802E+00 
    2.9541567588637228E+00 
    2.9609193439941901E+00 
    2.9631860335162958E+00 
    2.9596182514968721E+00 
    2.9585893834184205E+00 
    2.9534515834715265E+00 
    2.9561127165442556E+00 
    2.9562215328365431E+00 
    2.9526368658177793E+00 
    2.9517699249298701E+00 
    2.9516017022805148E+00 
    2.9494638625744729E+00 
    2.9490856064025310E+00 
    2.9510324821477125E+00 
    2.9498830083801786E+00 
    2.9480167181853667E+00 
    2.9491145759809148E+00 
    2.9468596705178318E+00 
    2.9478890370450377E+00 
    2.9465695427784495E+00 
    2.9450131503779415E+00 
    2.9439916790353653E+00 
    2.9453972864851208E+00 
    2.9443527056103918E+00 
    2.9432669215762899E+00 
    2.9465599656213808E+00 
    2.9475913580211235E+00 
    2.9452453819492344E+00 
    2.9450748420194688E+00 
    2.9425525025261585E+00 
    2.9437353163264963E+00 
    2.9433666851850613E+00 
    2.9416176727609291E+00 
    2.9424978065086105E+00 
    2.9422034913323496E+00 
    2.9413509036957435E+00 
    2.9413429981204113E+00 
    2.9416180209986100E+00 
    2.9406371692204938E+00 
    2.9403307328135875E+00 
    2.9410002000465201E+00 
    2.9405458308745702E+00 
    2.9407391711353275E+00 
    2.9401809683044804E+00 
    2.9400325476716578E+00 
    2.9398275468264101E+00 
    2.9396715097582264E+00 
    2.9391089752270410E+00 
    2.9393134796304454E+00 
    2.9395121457633162E+00 
    2.9392136026982967E+00 
    2.9382241280889128E+00 
    2.9388377117415598E+00 
    2.9385156514588187E+00 
    2.9384949562044405E+00 
    2.9376394881529877E+00 
    2.9373567813312338E+00 
    3.4334716833113208E+00 
    3.4090931976425525E+00 
    3.4117696839841694E+00 
    3.4294543215414381E+00 
    3.3885665655374670E+00 
    3.3709913252325032E+00 
    3.3857025036164599E+00 
    3.3976281488538675E+00 
    3.4211528293992512E+00 
    3.4071955832359930E+00 
    3.3973320116641683E+00 
    3.4084752078241189E+00 
    3.3916836289046057E+00 
    3.3858430582433283E+00 
    3.3743349373417515E+00 
    3.3758024676159422E+00 
    3.3758244960911172E+00 
    3.3612218150234883E+00 
    3.3560388889214234E+00 
    3.3674637830510741E+00 
    3.3622280701131442E+00 
    3.3634147091047453E+00 
    3.3520603695023059E+00 
    3.3479156020458949E+00 
    3.3852048903203573E+00 
    3.3726157746468535E+00 
    3.3663943528400324E+00 
    3.3725328334505762E+00 
    3.3606014187047717E+00 
    3.3472493622721533E+00 
    3.3488523779023933E+00 
    3.3585311441578969E+00 
    3.3606717023338022E+00 
    3.3585348347252801E+00 
    3.3489064055201632E+00 
    3.3474106988103025E+00 
    3.3354085667495683E+00 
    3.3391300606243064E+00 
    3.3305373773385205E+00 
    3.3262411231453863E+00 
    3.3390633592233350E+00 
    3.3352636843431704E+00 
    3.3259778272828933E+00 
    3.3303763955768222E+00 
    3.3185749728256981E+00 
    3.3240845055781594E+00 
    3.3183363048469738E+00 
    3.3102266170557360E+00 
    3.3251572583501359E+00 
    3.3192504960126308E+00 
    3.3116973655919839E+00 
    3.3134312065257321E+00 
    3.3126588118299103E+00 
    3.3043227264383948E+00 
    3.3003804211799372E+00 
    3.3071573824416891E+00 
    3.3031820072117775E+00 
    3.3043547781021414E+00 
    3.2967027454396312E+00 
    3.2921865702987008E+00 
    3.2833814306936304E+00 
    3.2895761041141767E+00 
    3.2834660840396439E+00 
    3.2776701855011607E+00 
    3.2929618633997828E+00 
    3.2942275005625410E+00 
    3.2846973132392367E+00 
    3.2856716113157898E+00 
    3.2728912753942212E+00 
    3.2793666678450721E+00 
    3.2765519031572090E+00 
    3.2677500768567977E+00 
    3.2734118949956934E+00 
    3.2701794462448630E+00 
    3.2628623499485676E+00 
    3.2631020930070598E+00 
    3.2660664214701689E+00 
    3.2603512169605513E+00 
    3.2548603692640725E+00 
    3.2600494333805425E+00 
    3.2536555567908203E+00 
    3.2563217872142918E+00 
    3.2499419076582119E+00 
    3.2442227200392222E+00 
    3.2375389143749662E+00 
    3.2441798208952823E+00 
    3.2392986077653698E+00 
    3.2334083492203254E+00 
    3.2487215330035255E+00 
    3.2519204253328851E+00 
    3.2430262019816110E+00 
    3.2424329833988175E+00 
    3.2300505007383147E+00 
    3.2364688190531767E+00 
    3.2352136988214704E+00 
    3.2266337896507680E+00 
    3.2282841454871791E+00 
    3.2262517688187891E+00 
    3.2193212650172613E+00 
    3.2189804040006407E+00 
    3.2232970295164951E+00 
    3.2189326938195335E+00 
    3.2130027043066076E+00 
    3.2172962638610940E+00 
    3.2110714118352370E+00 
    3.2135574086484606E+00 
    3.2080491916204639E+00 
    3.2026704228484597E+00 
    3.1963736608423590E+00 
    3.2029667763965817E+00 
    3.1987796800430996E+00 
    3.1930080811785673E+00 
    3.2077131930037353E+00 
    3.2116802125474768E+00 
    3.2034567066545785E+00 
    3.2021432734664201E+00 
    3.1903999379400174E+00 
    3.1965985566416562E+00 
    3.1960574025655553E+00 
    3.1878656793919147E+00 
    3.1876221533131770E+00 
    3.1861562537639521E+00 
    3.1796518345001972E+00 
    3.1790542376275113E+00 
    3.1838430497253096E+00 
    3.1802611549350961E+00 
    3.1742956990763331E+00 
    3.1780504253832529E+00 
    3.1717966124117258E+00 
    3.1743529400629980E+00 
    3.1693778165479762E+00 
    3.1641122981559464E+00 
    3.1584324177936756E+00 
    3.1648134776827481E+00 
    3.1611000121410409E+00 
    3.1555415545266796E+00 
    3.1695454830183061E+00 
    3.1737272594801280E+00 
    3.1660403043158380E+00 
    3.1644668336166037E+00 
    3.1533531249778983E+00 
    3.1592865644179144E+00 
    3.1590858123926471E+00 
    3.1513077267242844E+00 
    3.1502002121818666E+00 
    3.1490246737209304E+00 
    3.1429226343437260E+00 
    3.1422556489153814E+00 
    3.1470541374572210E+00 
    3.1439430047161232E+00 
    3.1381288869073258E+00 
    3.1415160239916591E+00 
    3.1355385016095383E+00 
    3.1379800776954934E+00 
    3.1334092573910484E+00 
    3.1284355325521807E+00 
    3.1232056310836773E+00 
    3.1292438437760266E+00 
    3.1258293102962695E+00 
    3.1205784887840085E+00 
    3.1338101294799361E+00 
    3.1379745636445366E+00 
    3.1307704679912147E+00 
    3.1291149015324606E+00 
    3.1186306757016711E+00 
    3.1242267822755729E+00 
    3.1241938018909816E+00 
    3.1168319194448602E+00 
    3.1155317804866360E+00 
    3.1145028715059677E+00 
    3.1088027549403501E+00 
    3.1081246056452070E+00 
    3.1127412819992863E+00 
    3.1098817742090485E+00 
    3.1044277805767133E+00 
    3.1075878980185725E+00 
    3.1018508369202693E+00 
    3.1042296001986016E+00 
    3.0999150092053300E+00 
    3.0951886909071478E+00 
    3.0902512831542110E+00 
    3.0959016717161516E+00 
    3.0925261935438226E+00 
    3.0876355501827031E+00 
    3.1002951378714201E+00 
    3.1043165707955067E+00 
    3.0975038905241155E+00 
    3.0957625338173900E+00 
    3.0858425076685023E+00 
    3.0910214274290668E+00 
    3.0912544011024159E+00 
    3.0843540968111882E+00 
    3.0832499738833699E+00 
    3.0822892318752997E+00 
    3.0771760754006103E+00 
    3.0765185781240900E+00 
    3.0806304546063186E+00 
    3.0778945007696663E+00 
    3.0728756465362856E+00 
    3.0759563691063878E+00 
    3.0706995042587826E+00 
    3.0728604809340285E+00 
    3.0687622615181596E+00 
    3.0644795421945314E+00 
    3.0599503392492093E+00 
    3.0650224501404040E+00 
    3.0620994371821952E+00 
    3.0576394985587978E+00 
    3.0689589381512792E+00 
    3.0726358392362667E+00 
    3.0663461308927338E+00 
    3.0648502471730752E+00 
    3.0559027927785083E+00 
    3.0607239087256648E+00 
    3.0606674903554683E+00 
    3.0542783569771412E+00 
    3.0535224574185169E+00 
    3.0525748730495255E+00 
    3.0479006583881154E+00 
    3.0473550029801935E+00 
    3.0509622619070105E+00 
    3.0483390450164980E+00 
    3.0438591594443962E+00 
    3.0467657032183824E+00 
    3.0421129217025555E+00 
    3.0440162659867074E+00 
    3.0402262028131632E+00 
    3.0364769907886227E+00 
    3.0322931076729995E+00 
    3.0366761001145957E+00 
    3.0339383420669268E+00 
    3.0300852989478559E+00 
    3.0401220701830787E+00 
    3.0433913679991695E+00 
    3.0375794868800963E+00 
    3.0363467131598378E+00 
    3.0283656573972819E+00 
    3.0326091279815408E+00 
    3.0324300735496648E+00 
    3.0266727080369171E+00 
    3.0266256230494046E+00 
    3.0257503357389335E+00 
    3.0215413510602960E+00 
    3.0210719798099301E+00 
    3.0241134862341479E+00 
    3.0214092610657493E+00 
    3.0174923129441438E+00 
    3.0203187878726014E+00 
    3.0162844175693682E+00 
    3.0178441843694572E+00 
    3.0143884079498275E+00 
    3.0112275948485818E+00 
    3.0074046968133410E+00 
    3.0111937117904790E+00 
    3.0085550244752590E+00 
    3.0051708423741545E+00 
    3.0140936223636063E+00 
    3.0167855049253829E+00 
    3.0114823144047063E+00 
    3.0105685508655191E+00 
    3.0033994143531659E+00 
    3.0071581745726981E+00 
    3.0067486963164911E+00 
    3.0016071000308280E+00 
    3.0024422624688603E+00 
    3.0013274597038033E+00 
    2.9977555417573236E+00 
    2.9976391610998689E+00 
    2.9996814373566054E+00 
    2.9971576233058204E+00 
    2.9940751207909666E+00 
    2.9965998911256930E+00 
    2.9935692993450451E+00 
    2.9947172916310603E+00 
    2.9916452431652929E+00 
    2.9891737007640136E+00 
    2.9857464874953252E+00 
    2.9886857733883838E+00 
    2.9862855536869990E+00 
    2.9836167025373488E+00 
    2.9909167784701571E+00 
    2.9929104090526777E+00 
    2.9882785040245041E+00 
    2.9878060336167938E+00 
    2.9818190374505611E+00 
    2.9849043527139365E+00 
    2.9842572910702905E+00 
    2.9798827160500352E+00 
    2.9816990190948802E+00 
    2.9805585936468595E+00 
    2.9775447358134928E+00 
    2.9776007719691573E+00 
    2.9788509496647855E+00 
    2.9762628330660190E+00 
    2.9738873573282349E+00 
    2.9762947514262130E+00 
    2.9740599292272942E+00 
    2.9747984237139606E+00 
    2.9720796468153314E+00 
    2.9702721653976565E+00 
    2.9671613124532561E+00 
    2.9694596510787461E+00 
    2.9671754458895574E+00 
    2.9649734202579592E+00 
    2.9710730731177648E+00 
    2.9723730854350445E+00 
    2.9683371092815696E+00 
    2.9682602588547655E+00 
    2.9631007720148781E+00 
    2.9657266676437359E+00 
    2.9648303784840948E+00 
    2.9610605620532833E+00 
    2.9637216391169572E+00 
    2.9623340089454580E+00 
    2.9597108693100442E+00 
    2.9600232451773301E+00 
    2.9605643159407373E+00 
    2.9580570459089333E+00 
    2.9561474543450807E+00 
    2.9584662038555471E+00 
    2.9566147258743891E+00 
    2.9572191058998452E+00 
    2.9544678579728396E+00 
    2.9528468633296665E+00 
    2.9499347784287240E+00 
    2.9517392659028343E+00 
    2.9494656650643258E+00 