# vtk DataFile Version 2.0
Pressure Field Data 
ASCII 
DATASET UNSTRUCTURED_GRID 

POINTS 6273 double 

    0.0000000000000000E+00     0.0000000000000000E+00     0.0000000000000000E+00 
    1.0000000000000000E+00     0.0000000000000000E+00     0.0000000000000000E+00 
    1.0000000000000000E+00     1.0000000000000000E+00     0.0000000000000000E+00 
    0.0000000000000000E+00     1.0000000000000000E+00     0.0000000000000000E+00 
    1.5624999999970249E-02     0.0000000000000000E+00     0.0000000000000000E+00 
    3.1249999999940652E-02     0.0000000000000000E+00     0.0000000000000000E+00 
    4.6874999999905617E-02     0.0000000000000000E+00     0.0000000000000000E+00 
    6.2499999999870597E-02     0.0000000000000000E+00     0.0000000000000000E+00 
    7.8124999999846401E-02     0.0000000000000000E+00     0.0000000000000000E+00 
    9.3749999999822212E-02     0.0000000000000000E+00     0.0000000000000000E+00 
    1.0937499999979799E-01     0.0000000000000000E+00     0.0000000000000000E+00 
    1.2499999999977381E-01     0.0000000000000000E+00     0.0000000000000000E+00 
    1.4062499999972811E-01     0.0000000000000000E+00     0.0000000000000000E+00 
    1.5624999999968239E-01     0.0000000000000000E+00     0.0000000000000000E+00 
    1.7187499999963671E-01     0.0000000000000000E+00     0.0000000000000000E+00 
    1.8749999999959110E-01     0.0000000000000000E+00     0.0000000000000000E+00 
    2.0312499999954539E-01     0.0000000000000000E+00     0.0000000000000000E+00 
    2.1874999999949971E-01     0.0000000000000000E+00     0.0000000000000000E+00 
    2.3437499999945391E-01     0.0000000000000000E+00     0.0000000000000000E+00 
    2.4999999999940831E-01     0.0000000000000000E+00     0.0000000000000000E+00 
    2.6562499999936218E-01     0.0000000000000000E+00     0.0000000000000000E+00 
    2.8124999999931621E-01     0.0000000000000000E+00     0.0000000000000000E+00 
    2.9687499999927008E-01     0.0000000000000000E+00     0.0000000000000000E+00 
    3.1249999999922412E-01     0.0000000000000000E+00     0.0000000000000000E+00 
    3.2812499999917810E-01     0.0000000000000000E+00     0.0000000000000000E+00 
    3.4374999999913203E-01     0.0000000000000000E+00     0.0000000000000000E+00 
    3.5937499999908601E-01     0.0000000000000000E+00     0.0000000000000000E+00 
    3.7499999999903999E-01     0.0000000000000000E+00     0.0000000000000000E+00 
    3.9062499999899403E-01     0.0000000000000000E+00     0.0000000000000000E+00 
    4.0624999999894801E-01     0.0000000000000000E+00     0.0000000000000000E+00 
    4.2187499999890188E-01     0.0000000000000000E+00     0.0000000000000000E+00 
    4.3749999999885592E-01     0.0000000000000000E+00     0.0000000000000000E+00 
    4.5312499999880979E-01     0.0000000000000000E+00     0.0000000000000000E+00 
    4.6874999999876382E-01     0.0000000000000000E+00     0.0000000000000000E+00 
    4.8437499999871780E-01     0.0000000000000000E+00     0.0000000000000000E+00 
    4.9999999999867167E-01     0.0000000000000000E+00     0.0000000000000000E+00 
    5.1562499999871325E-01     0.0000000000000000E+00     0.0000000000000000E+00 
    5.3124999999875477E-01     0.0000000000000000E+00     0.0000000000000000E+00 
    5.4687499999879630E-01     0.0000000000000000E+00     0.0000000000000000E+00 
    5.6249999999883782E-01     0.0000000000000000E+00     0.0000000000000000E+00 
    5.7812499999887934E-01     0.0000000000000000E+00     0.0000000000000000E+00 
    5.9374999999892086E-01     0.0000000000000000E+00     0.0000000000000000E+00 
    6.0937499999896239E-01     0.0000000000000000E+00     0.0000000000000000E+00 
    6.2499999999900380E-01     0.0000000000000000E+00     0.0000000000000000E+00 
    6.4062499999904521E-01     0.0000000000000000E+00     0.0000000000000000E+00 
    6.5624999999908673E-01     0.0000000000000000E+00     0.0000000000000000E+00 
    6.7187499999912825E-01     0.0000000000000000E+00     0.0000000000000000E+00 
    6.8749999999916978E-01     0.0000000000000000E+00     0.0000000000000000E+00 
    7.0312499999921130E-01     0.0000000000000000E+00     0.0000000000000000E+00 
    7.1874999999925282E-01     0.0000000000000000E+00     0.0000000000000000E+00 
    7.3437499999929434E-01     0.0000000000000000E+00     0.0000000000000000E+00 
    7.4999999999933586E-01     0.0000000000000000E+00     0.0000000000000000E+00 
    7.6562499999937739E-01     0.0000000000000000E+00     0.0000000000000000E+00 
    7.8124999999941891E-01     0.0000000000000000E+00     0.0000000000000000E+00 
    7.9687499999946043E-01     0.0000000000000000E+00     0.0000000000000000E+00 
    8.1249999999950195E-01     0.0000000000000000E+00     0.0000000000000000E+00 
    8.2812499999954348E-01     0.0000000000000000E+00     0.0000000000000000E+00 
    8.4374999999958500E-01     0.0000000000000000E+00     0.0000000000000000E+00 
    8.5937499999962652E-01     0.0000000000000000E+00     0.0000000000000000E+00 
    8.7499999999966793E-01     0.0000000000000000E+00     0.0000000000000000E+00 
    8.9062499999970934E-01     0.0000000000000000E+00     0.0000000000000000E+00 
    9.0624999999975087E-01     0.0000000000000000E+00     0.0000000000000000E+00 
    9.2187499999979239E-01     0.0000000000000000E+00     0.0000000000000000E+00 
    9.3749999999983391E-01     0.0000000000000000E+00     0.0000000000000000E+00 
    9.5312499999987543E-01     0.0000000000000000E+00     0.0000000000000000E+00 
    9.6874999999991696E-01     0.0000000000000000E+00     0.0000000000000000E+00 
    9.8437499999995848E-01     0.0000000000000000E+00     0.0000000000000000E+00 
    1.0000000000000000E+00     1.5624999999970249E-02     0.0000000000000000E+00 
    1.0000000000000000E+00     3.1249999999940652E-02     0.0000000000000000E+00 
    1.0000000000000000E+00     4.6874999999905617E-02     0.0000000000000000E+00 
    1.0000000000000000E+00     6.2499999999870597E-02     0.0000000000000000E+00 
    1.0000000000000000E+00     7.8124999999846401E-02     0.0000000000000000E+00 
    1.0000000000000000E+00     9.3749999999822212E-02     0.0000000000000000E+00 
    1.0000000000000000E+00     1.0937499999979799E-01     0.0000000000000000E+00 
    1.0000000000000000E+00     1.2499999999977381E-01     0.0000000000000000E+00 
    1.0000000000000000E+00     1.4062499999972811E-01     0.0000000000000000E+00 
    1.0000000000000000E+00     1.5624999999968239E-01     0.0000000000000000E+00 
    1.0000000000000000E+00     1.7187499999963671E-01     0.0000000000000000E+00 
    1.0000000000000000E+00     1.8749999999959110E-01     0.0000000000000000E+00 
    1.0000000000000000E+00     2.0312499999954539E-01     0.0000000000000000E+00 
    1.0000000000000000E+00     2.1874999999949971E-01     0.0000000000000000E+00 
    1.0000000000000000E+00     2.3437499999945391E-01     0.0000000000000000E+00 
    1.0000000000000000E+00     2.4999999999940831E-01     0.0000000000000000E+00 
    1.0000000000000000E+00     2.6562499999936218E-01     0.0000000000000000E+00 
    1.0000000000000000E+00     2.8124999999931621E-01     0.0000000000000000E+00 
    1.0000000000000000E+00     2.9687499999927008E-01     0.0000000000000000E+00 
    1.0000000000000000E+00     3.1249999999922412E-01     0.0000000000000000E+00 
    1.0000000000000000E+00     3.2812499999917810E-01     0.0000000000000000E+00 
    1.0000000000000000E+00     3.4374999999913203E-01     0.0000000000000000E+00 
    1.0000000000000000E+00     3.5937499999908601E-01     0.0000000000000000E+00 
    1.0000000000000000E+00     3.7499999999903999E-01     0.0000000000000000E+00 
    1.0000000000000000E+00     3.9062499999899403E-01     0.0000000000000000E+00 
    1.0000000000000000E+00     4.0624999999894801E-01     0.0000000000000000E+00 
    1.0000000000000000E+00     4.2187499999890188E-01     0.0000000000000000E+00 
    1.0000000000000000E+00     4.3749999999885592E-01     0.0000000000000000E+00 
    1.0000000000000000E+00     4.5312499999880979E-01     0.0000000000000000E+00 
    1.0000000000000000E+00     4.6874999999876382E-01     0.0000000000000000E+00 
    1.0000000000000000E+00     4.8437499999871780E-01     0.0000000000000000E+00 
    1.0000000000000000E+00     4.9999999999867167E-01     0.0000000000000000E+00 
    1.0000000000000000E+00     5.1562499999871325E-01     0.0000000000000000E+00 
    1.0000000000000000E+00     5.3124999999875477E-01     0.0000000000000000E+00 
    1.0000000000000000E+00     5.4687499999879630E-01     0.0000000000000000E+00 
    1.0000000000000000E+00     5.6249999999883782E-01     0.0000000000000000E+00 
    1.0000000000000000E+00     5.7812499999887934E-01     0.0000000000000000E+00 
    1.0000000000000000E+00     5.9374999999892086E-01     0.0000000000000000E+00 
    1.0000000000000000E+00     6.0937499999896239E-01     0.0000000000000000E+00 
    1.0000000000000000E+00     6.2499999999900380E-01     0.0000000000000000E+00 
    1.0000000000000000E+00     6.4062499999904521E-01     0.0000000000000000E+00 
    1.0000000000000000E+00     6.5624999999908673E-01     0.0000000000000000E+00 
    1.0000000000000000E+00     6.7187499999912825E-01     0.0000000000000000E+00 
    1.0000000000000000E+00     6.8749999999916978E-01     0.0000000000000000E+00 
    1.0000000000000000E+00     7.0312499999921130E-01     0.0000000000000000E+00 
    1.0000000000000000E+00     7.1874999999925282E-01     0.0000000000000000E+00 
    1.0000000000000000E+00     7.3437499999929434E-01     0.0000000000000000E+00 
    1.0000000000000000E+00     7.4999999999933586E-01     0.0000000000000000E+00 
    1.0000000000000000E+00     7.6562499999937739E-01     0.0000000000000000E+00 
    1.0000000000000000E+00     7.8124999999941891E-01     0.0000000000000000E+00 
    1.0000000000000000E+00     7.9687499999946043E-01     0.0000000000000000E+00 
    1.0000000000000000E+00     8.1249999999950195E-01     0.0000000000000000E+00 
    1.0000000000000000E+00     8.2812499999954348E-01     0.0000000000000000E+00 
[...]
CELL_DATA 6144 
SCALARS Pressure double 1 
LOOKUP_TABLE default 

    3.5590558760836686E+00 
    3.4607960049836408E+00 
    3.4449846050965127E+00 
    3.4607991015280928E+00 
    3.4002013192826226E+00 
    3.3596658145069336E+00 
    3.3812593133843265E+00 
    3.4106255484772561E+00 
    3.4002089770010291E+00 
    3.4106331366943796E+00 
    3.3812771337815608E+00 
    3.3596735068925097E+00 
    3.3394383295187078E+00 
    3.3577783343753342E+00 
    3.3388685348082272E+00 
    3.3260509249109202E+00 
    3.3579129934433443E+00 
    3.3396098793423006E+00 
    3.3265706759763227E+00 
    3.3392905190158348E+00 
    3.3137002477414970E+00 
    3.3265760348406834E+00 
    3.3141157912678136E+00 
    3.2989865079521832E+00 
    3.3122047524296736E+00 
    3.3086527820159097E+00 
    3.2911785494792345E+00 
    3.2878902259157776E+00 
    3.3001709511229866E+00 
    3.2871895882666755E+00 
    3.2763813924199967E+00 
    3.2865989505262974E+00 
    3.2673448876899549E+00 
    3.2765860058688077E+00 
    3.2646580125560529E+00 
    3.2498104387283533E+00 
    3.2402265303048883E+00 
    3.2547227082804935E+00 
    3.2467988842555555E+00 
    3.2355946429432625E+00 
    3.2645789188640317E+00 
    3.2703364099844774E+00 
    3.2545617280346137E+00 
    3.2531479850845622E+00 
    3.2316153654564177E+00 
    3.2428615776629059E+00 
    3.2413513673475789E+00 
    3.2271832817184780E+00 
    3.2235357840073759E+00 
    3.2227659778427111E+00 
    3.2110463572769272E+00 
    3.2084745228238543E+00 
    3.2199302023536589E+00 
    3.2145920538234498E+00 
    3.2040691477810634E+00 
    3.2095680374583808E+00 
    3.1950430618504657E+00 
    3.2018987555305740E+00 
    3.1938800757140311E+00 
    3.1827168856153372E+00 
    3.1760513557681715E+00 
    3.1872749001361527E+00 
    3.1826715579484088E+00 
    3.1738192823179228E+00 
    3.1964387086118018E+00 
    3.2039536979028949E+00 
    3.1919485754937034E+00 
    3.1886199256798666E+00 
    3.1719824434485067E+00 
    3.1809503701161277E+00 
    3.1815279375149337E+00 
    3.1700629615968952E+00 
    3.1640719697095800E+00 
    3.1642039690697610E+00 
    3.1550401202549256E+00 
    3.1525304862376129E+00 
    3.1627052030983847E+00 
    3.1591195984804417E+00 
    3.1497153283457280E+00 
    3.1540491068546528E+00 
    3.1418305709874064E+00 
    3.1474419260162514E+00 
    3.1410662256720845E+00 
    3.1318633507708298E+00 
    3.1264090562390376E+00 
    3.1360240832754336E+00 
    3.1324757216546151E+00 
    3.1247062809769113E+00 
    3.1440437790404778E+00 
    3.1511767977889487E+00 
    3.1413231951436464E+00 
    3.1378542212461391E+00 
    3.1232959427006448E+00 
    3.1311951951728858E+00 
    3.1318575340565298E+00 
    3.1219196212607310E+00 
    3.1161487624039772E+00 
    3.1162194888700947E+00 
    3.1083375811215235E+00 
    3.1063038277271979E+00 
    3.1151615519405920E+00 
    3.1129085912731842E+00 
    3.1046144899284793E+00 
    3.1077353186190426E+00 
    3.0971341221146997E+00 
    3.1020584125067074E+00 
    3.0966691090085998E+00 
    3.0884856037479502E+00 
    3.0836971036547576E+00 
    3.0922457651416546E+00 
    3.0892566302902371E+00 
    3.0823136126835942E+00 
    3.0997612324581465E+00 
    3.1064642380877543E+00 
    3.0976559389485661E+00 
    3.0942296194250578E+00 
    3.0814541393724126E+00 
    3.0885167991528997E+00 
    3.0898197215905818E+00 
    3.0809502560197837E+00 
    3.0745640761984103E+00 
    3.0746503932069413E+00 
    3.0675801646295144E+00 
    3.0657314783239227E+00 
    3.0738549047977513E+00 
    3.0718804700523732E+00 
    3.0641068583314017E+00 
    3.0671082470365922E+00 
    3.0575087725280055E+00 
    3.0620139725729962E+00 
    3.0571348212800005E+00 
    3.0497420751739748E+00 
    3.0454355155637054E+00 
    3.0532246610895757E+00 
    3.0506318316828351E+00 
    3.0442602673847587E+00 
    3.0598538667437252E+00 
    3.0661729708009759E+00 
    3.0583819954136220E+00 
    3.0551331291691883E+00 
    3.0435356157010918E+00 
    3.0499637509969273E+00 
    3.0512819176161301E+00 
    3.0431931872339995E+00 
    3.0371076887109947E+00 
    3.0372383767015285E+00 
    3.0307513402769506E+00 
    3.0290441238060515E+00 
    3.0365798490515981E+00 
    3.0349200385572277E+00 
    3.0277942023012487E+00 
    3.0303668750782164E+00 
    3.0215134692362593E+00 
    3.0256547332698829E+00 
    3.0212545750387161E+00 
    3.0143805481730799E+00 
    3.0104260525008697E+00 
    3.0176798695561073E+00 
    3.0152590486658744E+00 
    3.0093875534940766E+00 
    3.0239167885792240E+00 
    3.0297276018621186E+00 
    3.0225034344198347E+00 
    3.0194701536985975E+00 
    3.0087714808045605E+00 
    3.0146789863706225E+00 
    3.0159532062511976E+00 
    3.0085032705987573E+00 
    3.0028012293144872E+00 
    3.0029761413262595E+00 
    2.9970735563758741E+00 
    2.9954647926109694E+00 
    3.0023667792362314E+00 
    3.0007675774533400E+00 
    2.9941332481948280E+00 
    2.9966017310138122E+00 
    2.9885638864793043E+00 
    2.9923810376282480E+00 
    2.9884456798887391E+00 
    2.9821300931443488E+00 
    2.9784025709408244E+00 
    2.9851255629566129E+00 
    2.9824632884901376E+00 
    2.9769937938922637E+00 
    2.9906068736402549E+00 
    2.9959825505977324E+00 
    2.9893538194664098E+00 
    2.9865198008115885E+00 
    2.9763569211941374E+00 
    2.9818451948509130E+00 
    2.9832208400574003E+00 
    2.9762850351122832E+00 
    2.9711370903647354E+00 
    2.9712427912325783E+00 
    2.9658353383453955E+00 
    2.9643724532985010E+00 
    2.9706522972707226E+00 
    2.9691667067485348E+00 
    2.9630303938008380E+00 
    2.9653623471425528E+00 
    2.9580189779557862E+00 
    2.9614451184249897E+00 
    2.9577595879878573E+00 
    2.9520731812012122E+00 
    2.9486990948179250E+00 
    2.9547522308649796E+00 
    2.9525961975338624E+00 
    2.9476331052429634E+00 
    2.9597882386280365E+00 
    2.9647605119963933E+00 
    2.9587218790020477E+00 
    2.9561271763506407E+00 
    2.9470501845891031E+00 
    2.9520819024019538E+00 
    2.9531304383329386E+00 
    2.9467578199394580E+00 
    2.9421276463937303E+00 
    2.9421737503403183E+00 
    2.9371797126450105E+00 
    2.9359345083097756E+00 
    2.9416384877565656E+00 
    2.9402733928241696E+00 
    2.9348106360900985E+00 
    2.9368463805245777E+00 
    2.9301835879502844E+00 
    2.9332973618158507E+00 
    2.9299834298568928E+00 
    2.9247882657375581E+00 
    2.9217687994471615E+00 
    2.9272028723368781E+00 
    2.9253103561581311E+00 
    2.9208606712699319E+00 
    2.9317738045432322E+00 
    2.9361830905985715E+00 
    2.9306724325085836E+00 
    2.9284488205874850E+00 
    2.9203037706219028E+00 
    2.9248363402023885E+00 
    2.9256641073966105E+00 
    2.9199481850936007E+00 
    2.9159496036062520E+00 
    2.9159748063401989E+00 
    2.9114798333235816E+00 
    2.9103883730097833E+00 
    2.9154492766950160E+00 
    2.9141435250679795E+00 
    2.9093012281294270E+00 
    2.9111579129021199E+00 
    2.9052980781421636E+00 
    2.9080335736201000E+00 
    2.9051971001189170E+00 
    2.9006444785352090E+00 
    2.8979321273602054E+00 
    2.9027187941153030E+00 
    2.9006976349747751E+00 
    2.8968191282871993E+00 
    2.9066145905032541E+00 
    2.9104356220839227E+00 
    2.9054662421084658E+00 
    2.9035284432358921E+00 
    2.8962040510926808E+00 
    2.9001125008832664E+00 
    2.9009213439402179E+00 
    2.8958830353415079E+00 
    2.8927428364361498E+00 
    2.8926830805094674E+00 
    2.8888521639229996E+00 
    2.8879350883734469E+00 
    2.8921397639085882E+00 
    2.8909022677354002E+00 
    2.8867814702139811E+00 
    2.8884962148866018E+00 
    2.8834878995464006E+00 
    2.8858291690021605E+00 
    2.8831296709242631E+00 
    2.8792923416534570E+00 
    2.8770101022357588E+00 
    2.8809719827704248E+00 
    2.8795407579669074E+00 
    2.8762857767345666E+00 
    2.8843679721280391E+00 
    2.8875668104316823E+00 
    2.8833024641219227E+00 
    2.8818065648139299E+00 
    2.8756974403281861E+00 
    2.8790562754025055E+00 
    2.8794781130180231E+00 
    2.8751707378359579E+00 
    2.8728017221832514E+00 
    2.8727690111430606E+00 
    2.8695405720758491E+00 
    2.8687620192166676E+00 
    2.8722102831539997E+00 
    2.8710247897296557E+00 
    2.8676315637707765E+00 
    2.8691391347790760E+00 
    2.8650343006546639E+00 
    2.8669395054581219E+00 
    2.8646941693068282E+00 
    2.8615715298888174E+00 
    2.8596230126128579E+00 
    2.8628638513585072E+00 
    2.8614344180916897E+00 
    2.8587854751042743E+00 
    2.8655895955572088E+00 
    2.8681178704604711E+00 
    2.8644640022980594E+00 
    2.8633337124261997E+00 
    2.8581753348954115E+00 
    2.8609002181004861E+00 
    2.8611919631521645E+00 
    2.8576259748937294E+00 
    2.8561118951079618E+00 
    2.8560301998080750E+00 
    2.8533926602419699E+00 
    2.8527465587136986E+00 
    2.8554792923390280E+00 
    2.8543226022632839E+00 
    2.8516769349341433E+00 
    2.8530247539936391E+00 
    2.8495525986821426E+00 
    2.8511965819802465E+00 
    2.8492350725822617E+00 
    2.8464054100397975E+00 
    2.8445632849293907E+00 
    2.8475466731615127E+00 
    2.8462612262198044E+00 
    2.8437510689692269E+00 
    2.8498042947578752E+00 
    2.8517316541542912E+00 
    2.8486154341183352E+00 
    2.8478018558100300E+00 
    2.8430407974053149E+00 
    2.8456965367936413E+00 
    2.8457311706167889E+00 
    2.8422459529948192E+00 
    2.8413061117087350E+00 
    2.8410876594054097E+00 
    2.8389053776831652E+00 
    2.8385310643020656E+00 
    2.8404865820179945E+00 
    2.8393399779856581E+00 
    2.8374926034455159E+00 
    2.8385680248825449E+00 
    2.8363695803929585E+00 
    2.8373721649949206E+00 
    2.8360901891549561E+00 
    2.8345799212363527E+00 
    2.8335900841497206E+00 
    2.8349518844392634E+00 
    2.8339384742925460E+00 
    2.8328873573004452E+00 
    2.8360722360473400E+00 
    2.8370708427716815E+00 
    2.8347967677662291E+00 
    2.8346346909164764E+00 
    2.8321945550314460E+00 
    2.8333391982514158E+00 
    2.8329807578320332E+00 
    2.8312883675531140E+00 
    2.8321427181084853E+00 
    2.8318573797160811E+00 
    2.8310315198648559E+00 
    2.8310239300104216E+00 
    2.8312898873084942E+00 
    2.8303394620960014E+00 
    2.8300431052924213E+00 
    2.8306916675129528E+00 
    2.8302516762022480E+00 
    2.8304389293361867E+00 
    2.8298982012964875E+00 
    2.8297544619525410E+00 
    2.8295558819135547E+00 
    2.8294047067443810E+00 
    2.8288598117645494E+00 
    2.8290579259274553E+00 
    2.8292502125048231E+00 
    2.8289607632071556E+00 
    2.8280025602880601E+00 
    2.8285969894343088E+00 
    2.8282851313512496E+00 
    2.8282650524802317E+00 
    2.8274364144568915E+00 
    2.8271626644933834E+00 
    3.3120747766878278E+00 
    3.2877875424600247E+00 
    3.2904522498409912E+00 
    3.3080704079708534E+00 
    3.2673586197468762E+00 
    3.2498853937016019E+00 
    3.2645095535633040E+00 
    3.2763737846717045E+00 
    3.2997974260302692E+00 
    3.2858967954332874E+00 
    3.2760784705039825E+00 
    3.2871701960483559E+00 
    3.2704571590207996E+00 
    3.2646485805500816E+00 
    3.2532063918493828E+00 
    3.2546636483239046E+00 
    3.2546882953438097E+00 
    3.2401816400723780E+00 
    3.2350342302959465E+00 
    3.2463793293596961E+00 
    3.2411756111309673E+00 
    3.2423559141525828E+00 
    3.2310837532834280E+00 
    3.2269684922872743E+00 
    3.2640096620357841E+00 
    3.2514943541546288E+00 
    3.2453123413542260E+00 
    3.2514118689280771E+00 
    3.2395587547448450E+00 
    3.2263069495867009E+00 
    3.2278973319601345E+00 
    3.2375027929082587E+00 
    3.2396283436129569E+00 
    3.2375063843391541E+00 
    3.2279508529503347E+00 
    3.2264668141864572E+00 
    3.2145655078783535E+00 
    3.2182550062109962E+00 
    3.2097375623221267E+00 
    3.2054806573430139E+00 
    3.2181889555076055E+00 
    3.2144220142552937E+00 
    3.2052199327121640E+00 
    3.2095781110223718E+00 
    3.1978883037592820E+00 
    3.2033444127693818E+00 
    3.1976520796971739E+00 
    3.1896254137443201E+00 
    3.2044061584946366E+00 
    3.1985568257607646E+00 
    3.1910809155685902E+00 
    3.1927968951310262E+00 
    3.1920324399781212E+00 
    3.1837867912340969E+00 
    3.1798887822038262E+00 
    3.1865895242118416E+00 
    3.1826578780227597E+00 
    3.1838176994928111E+00 
    3.1762537333404302E+00 
    3.1717913529337176E+00 
    3.1630970172512232E+00 
    3.1692133344156130E+00 
    3.1631799164303667E+00 
    3.1574599245473807E+00 
    3.1725577440680075E+00 
    3.1738079672439761E+00 
    3.1643948228548853E+00 
    3.1653572524843683E+00 
    3.1527449878949891E+00 
    3.1591332753712820E+00 
    3.1563551940371251E+00 
    3.1476742424792423E+00 
    3.1532585907967099E+00 
    3.1500707469192175E+00 
    3.1428573456324607E+00 
    3.1430936884333192E+00 
    3.1460156679400515E+00 
    3.1403832213248686E+00 
    3.1349741135483185E+00 
    3.1400855242527523E+00 
    3.1337873082205991E+00 
    3.1364133025571146E+00 
    3.1301311560444964E+00 
    3.1245020679780708E+00 
    3.1179278125588175E+00 
    3.1244601732061366E+00 
    3.1196578412226645E+00 
    3.1138659100140900E+00 
    3.1289298119120659E+00 
    3.1320788226305440E+00 
    3.1233242109894475E+00 
    3.1227409848724315E+00 
    3.1105647033138610E+00 
    3.1168743463159436E+00 
    3.1156395027289685E+00 
    3.1072060664470653E+00 
    3.1088293601385213E+00 
    3.1068321888315151E+00 
    3.1000243509433267E+00 
    3.0996898707066824E+00 
    3.1039291870339425E+00 
    3.0996423949964269E+00 
    3.0938205326201964E+00 
    3.0980357158822778E+00 
    3.0919254146027302E+00 
    3.0943652473638621E+00 
    3.0889596661069656E+00 
    3.0836838636585906E+00 
    3.0775102210862122E+00 
    3.0839738987810121E+00 
    3.0798674646890167E+00 
    3.0742105546324905E+00 
    3.0886294024606253E+00 
    3.0925216381126135E+00 
    3.0844527617575115E+00 
    3.0831652791854247E+00 
    3.0716537285763552E+00 
    3.0777283557266415E+00 
    3.0771968767734923E+00 
    3.0691692708122473E+00 
    3.0689344145110500E+00 
    3.0674977183464009E+00 
    3.0611281827223045E+00 
    3.0605438898618216E+00 
    3.0652312664357728E+00 
    3.0617226573771723E+00 
    3.0558838388337004E+00 
    3.0595597095203066E+00 
    3.0534403672002606E+00 
    3.0559411545934010E+00 
    3.0510726659042757E+00 
    3.0459236849248001E+00 
    3.0403700434647862E+00 
    3.0466074355293471E+00 
    3.0429750799988451E+00 
    3.0375425957428894E+00 
    3.0512348742566653E+00 
    3.0553252993399029E+00 
    3.0478037139529395E+00 
    3.0462662845870914E+00 
    3.0354018975420636E+00 
    3.0412006043824378E+00 
    3.0410024798915090E+00 
    3.0334005412673166E+00 
    3.0323260103077239E+00 
    3.0311757738514888E+00 
    3.0252166365920345E+00 
    3.0245670690206996E+00 
    3.0292490257056484E+00 
    3.0262081272698556E+00 
    3.0205334207317094E+00 
    3.0238416558391816E+00 
    3.0180099256266395E+00 
    3.0203911313133980E+00 
    3.0159293295709833E+00 
    3.0110795775798955E+00 
    3.0059779890487741E+00 
    3.0118640121835507E+00 
    3.0085314856190579E+00 
    3.0034132718279398E+00 
    3.0163167377642153E+00 
    3.0203782795901750E+00 
    3.0133464246400146E+00 
    3.0117341755917759E+00 
    3.0015108363550187E+00 
    3.0069659439829706E+00 
    3.0069303853842873E+00 
    2.9997527847911374E+00 
    2.9984991689838565E+00 
    2.9974929935895234E+00 
    2.9919405866517952E+00 
    2.9912831016764425E+00 
    2.9957729043999994E+00 
    2.9929825858451831E+00 
    2.9876741874725781E+00 
    2.9907544906796151E+00 
    2.9851737896803594E+00 
    2.9874865704720648E+00 
    2.9832843679968772E+00 
    2.9786890471418763E+00 
    2.9738832066045280E+00 
    2.9793758685897274E+00 
    2.9760881855662218E+00 
    2.9713337515659037E+00 
    2.9836477758660220E+00 
    2.9875579927718348E+00 
    2.9809235995618386E+00 
    2.9792338727781491E+00 
    2.9695842180856924E+00 
    2.9746201009317761E+00 
    2.9748409870366226E+00 
    2.9681291253468736E+00 
    2.9670775874990327E+00 
    2.9661377568572838E+00 
    2.9611698278047611E+00 
    2.9605359831990574E+00 
    2.9645195137661333E+00 
    2.9618533004925891E+00 
    2.9569831688366688E+00 
    2.9599803330442858E+00 
    2.9548833216401467E+00 
    2.9569768443444682E+00 
    2.9529943752650407E+00 
    2.9488438070771843E+00 
    2.9444446964009674E+00 
    2.9493596853264319E+00 
    2.9465172967340232E+00 
    2.9421944014436110E+00 
    2.9531747553678951E+00 
    2.9567375148290882E+00 
    2.9506263157896511E+00 
    2.9491819519526064E+00 
    2.9405006690520610E+00 
    2.9451758897540814E+00 
    2.9451123768483609E+00 
    2.9389132841010253E+00 
    2.9382143397448695E+00 
    2.9372864651732029E+00 
    2.9327579980521712E+00 
    2.9322370262139854E+00 
    2.9357139445643177E+00 
    2.9331601967674730E+00 
    2.9288291452848263E+00 
    2.9316515678208028E+00 
    2.9271587678193036E+00 
    2.9289941353099445E+00 
    2.9253199654330784E+00 
    2.9217011856680526E+00 
    2.9176468590244138E+00 
    2.9218770043018965E+00 
    2.9192191656066839E+00 
    2.9154986185697953E+00 
    2.9252027376551988E+00 
    2.9283562798822858E+00 
    2.9227235004688148E+00 
    2.9215418843219529E+00 
    2.9138219135617072E+00 
    2.9179232356109184E+00 
    2.9177369380984732E+00 
    2.9121672213186933E+00 
    2.9121729620009078E+00 
    2.9113129411767260E+00 
    2.9072495147863697E+00 
    2.9068082852170165E+00 
    2.9097172745019906E+00 
    2.9070880838017397E+00 
    2.9033197847260386E+00 
    2.9060585923835403E+00 
    2.9021862061801582E+00 
    2.9036788892413843E+00 
    2.9003383611314639E+00 
    2.8973066610722449E+00 
    2.8936129248679450E+00 
    2.8972481564364490E+00 
    2.8946925196441780E+00 
    2.8914420902121352E+00 
    2.9000297106374977E+00 
    2.9026083649055998E+00 
    2.8974846064594240E+00 
    2.8966214639208170E+00 
    2.8897154996345606E+00 
    2.8933315228388721E+00 
    2.8929167787124870E+00 
    2.8879627841285611E+00 
    2.8888451932814982E+00 
    2.8877513446613396E+00 
    2.8843223605161312E+00 
    2.8842289225477558E+00 
    2.8861469792532479E+00 
    2.8836949271259429E+00 
    2.8807567177131763E+00 
    2.8831964455981289E+00 
    2.8803208391371142E+00 
    2.8814031874866304E+00 
    2.8784471144632620E+00 
    2.8761042806343236E+00 
    2.8728100277051611E+00 
    2.8755962207339629E+00 
    2.8732783453758803E+00 
    2.8707435318445116E+00 
    2.8777099405541744E+00 
    2.8795924847794812E+00 
    2.8751390328154094E+00 
    2.8747146103306043E+00 
    2.8689928814685248E+00 
    2.8719329870579422E+00 
    2.8712818848424613E+00 
    2.8670998039145106E+00 
    2.8689621471253659E+00 
    2.8678399642020520E+00 
    2.8649816178317149E+00 
    2.8650664102385601E+00 
    2.8661789212917865E+00 
    2.8636742920260869E+00 
    2.8614623337262457E+00 
    2.8637688490655293E+00 
    2.8617129603157840E+00 
    2.8623763377995797E+00 
    2.8597962819451475E+00 
    2.8581507821729173E+00 
    2.8552357765439149E+00 
    2.8573118259392345E+00 
    2.8551386230621376E+00 
    2.8531447559884420E+00 
    2.8587767361785605E+00 
    2.8599442344260644E+00 
    2.8561158169715499E+00 
    2.8561073402894190E+00 
    2.8513297984601342E+00 
    2.8537318908772455E+00 
    2.8528165849932043E+00 
    2.8493257080087337E+00 
    2.8521321035627625E+00 
    2.8507872071659817E+00 
    2.8485016974707906E+00 
    2.8488807430907261E+00 
    2.8490830422173588E+00 
    2.8466882192598009E+00 
    2.8451871018127610E+00 
    2.8473083646274100E+00 
    2.8459788842366045E+00 
    2.8463672580440731E+00 
    2.8439434423232073E+00 
    2.8425249920256785E+00 
    2.8396245815818699E+00 
    2.8414567166481883E+00 
    2.8392986714488093E+00 