# vtk DataFile Version 2.0
Pressure Field Data 
ASCII 
DATASET UNSTRUCTURED_GRID 

POINTS 289 double 

    0.0000000000000000E+00     0.0000000000000000E+00     0.0000000000000000E+00 
    1.0000000000000000E+00     0.0000000000000000E+00     0.0000000000000000E+00 
    1.0000000000000000E+00     1.0000000000000000E+00     0.0000000000000000E+00 
    0.0000000000000000E+00     1.0000000000000000E+00     0.0000000000000000E+00 
    6.2499999999872928E-02     0.0000000000000000E+00     0.0000000000000000E+00 
    1.2499999999977310E-01     0.0000000000000000E+00     0.0000000000000000E+00 
    1.8749999999959341E-01     0.0000000000000000E+00     0.0000000000000000E+00 
    2.4999999999941089E-01     0.0000000000000000E+00     0.0000000000000000E+00 
    3.1249999999922851E-01     0.0000000000000000E+00     0.0000000000000000E+00 
    3.7499999999904610E-01     0.0000000000000000E+00     0.0000000000000000E+00 
    4.3749999999886358E-01     0.0000000000000000E+00     0.0000000000000000E+00 
    4.9999999999869210E-01     0.0000000000000000E+00     0.0000000000000000E+00 
    5.6249999999884603E-01     0.0000000000000000E+00     0.0000000000000000E+00 
    6.2499999999901090E-01     0.0000000000000000E+00     0.0000000000000000E+00 
    6.8749999999917577E-01     0.0000000000000000E+00     0.0000000000000000E+00 
    7.4999999999934064E-01     0.0000000000000000E+00     0.0000000000000000E+00 
    8.1249999999950551E-01     0.0000000000000000E+00     0.0000000000000000E+00 
    8.7499999999967026E-01     0.0000000000000000E+00     0.0000000000000000E+00 
    9.3749999999983513E-01     0.0000000000000000E+00     0.0000000000000000E+00 
    1.0000000000000000E+00     6.2499999999872928E-02     0.0000000000000000E+00 
    1.0000000000000000E+00     1.2499999999977310E-01     0.0000000000000000E+00 
    1.0000000000000000E+00     1.8749999999959341E-01     0.0000000000000000E+00 
    1.0000000000000000E+00     2.4999999999941089E-01     0.0000000000000000E+00 
    1.0000000000000000E+00     3.1249999999922851E-01     0.0000000000000000E+00 
    1.0000000000000000E+00     3.7499999999904610E-01     0.0000000000000000E+00 
    1.0000000000000000E+00     4.3749999999886358E-01     0.0000000000000000E+00 
    1.0000000000000000E+00     4.9999999999869210E-01     0.0000000000000000E+00 
    1.0000000000000000E+00     5.6249999999884603E-01     0.0000000000000000E+00 
    1.0000000000000000E+00     6.2499999999901090E-01     0.0000000000000000E+00 
    1.0000000000000000E+00     6.8749999999917577E-01     0.0000000000000000E+00 
    1.0000000000000000E+00     7.4999999999934064E-01     0.0000000000000000E+00 
    1.0000000000000000E+00     8.1249999999950551E-01     0.0000000000000000E+00 
    1.0000000000000000E+00     8.7499999999967026E-01     0.0000000000000000E+00 
    1.0000000000000000E+00     9.3749999999983513E-01     0.0000000000000000E+00 
    9.3749999999973976E-01     1.0000000000000000E+00     0.0000000000000000E+00 
    8.7499999999950118E-01     1.0000000000000000E+00     0.0000000000000000E+00 
    8.1249999999991318E-01     1.0000000000000000E+00     0.0000000000000000E+00 
    7.5000000000034706E-01     1.0000000000000000E+00     0.0000000000000000E+00 
    6.8750000000078049E-01     1.0000000000000000E+00     0.0000000000000000E+00 
    6.2500000000121403E-01     1.0000000000000000E+00     0.0000000000000000E+00 
    5.6250000000164757E-01     1.0000000000000000E+00     0.0000000000000000E+00 
    5.0000000000205946E-01     1.0000000000000000E+00     0.0000000000000000E+00 
    4.3750000000182099E-01     1.0000000000000000E+00     0.0000000000000000E+00 
    3.7500000000156092E-01     1.0000000000000000E+00     0.0000000000000000E+00 
    3.1250000000130068E-01     1.0000000000000000E+00     0.0000000000000000E+00 
    2.5000000000104050E-01     1.0000000000000000E+00     0.0000000000000000E+00 
    1.8750000000078040E-01     1.0000000000000000E+00     0.0000000000000000E+00 
    1.2500000000052031E-01     1.0000000000000000E+00     0.0000000000000000E+00 
    6.2500000000260125E-02     1.0000000000000000E+00     0.0000000000000000E+00 
    0.0000000000000000E+00     9.3749999999973976E-01     0.0000000000000000E+00 
    0.0000000000000000E+00     8.7499999999950118E-01     0.0000000000000000E+00 
    0.0000000000000000E+00     8.1249999999991318E-01     0.0000000000000000E+00 
    0.0000000000000000E+00     7.5000000000034706E-01     0.0000000000000000E+00 
    0.0000000000000000E+00     6.8750000000078049E-01     0.0000000000000000E+00 
    0.0000000000000000E+00     6.2500000000121403E-01     0.0000000000000000E+00 
    0.0000000000000000E+00     5.6250000000164757E-01     0.0000000000000000E+00 
    0.0000000000000000E+00     5.0000000000205946E-01     0.0000000000000000E+00 
    0.0000000000000000E+00     4.3750000000182099E-01     0.0000000000000000E+00 
    0.0000000000000000E+00     3.7500000000156092E-01     0.0000000000000000E+00 
    0.0000000000000000E+00     3.1250000000130068E-01     0.0000000000000000E+00 
    0.0000000000000000E+00     2.5000000000104050E-01     0.0000000000000000E+00 
    0.0000000000000000E+00     1.8750000000078040E-01     0.0000000000000000E+00 
    0.0000000000000000E+00     1.2500000000052031E-01     0.0000000000000000E+00 
    0.0000000000000000E+00     6.2500000000260125E-02     0.0000000000000000E+00 
    6.2499999999897131E-02     6.2500000000235922E-02     0.0000000000000000E+00 
    6.2499999999921327E-02     1.2500000000047351E-01     0.0000000000000000E+00 
    6.2499999999945530E-02     1.8750000000070621E-01     0.0000000000000000E+00 
    6.2499999999969733E-02     2.5000000000093858E-01     0.0000000000000000E+00 
    6.2499999999993928E-02     3.1250000000117117E-01     0.0000000000000000E+00 
    6.2500000000018124E-02     3.7500000000140382E-01     0.0000000000000000E+00 
    6.2500000000042327E-02     4.3750000000163619E-01     0.0000000000000000E+00 
    6.2500000000066530E-02     5.0000000000184897E-01     0.0000000000000000E+00 
    6.2500000000090733E-02     5.6250000000147260E-01     0.0000000000000000E+00 
    6.2500000000114922E-02     6.2500000000107636E-01     0.0000000000000000E+00 
    6.2500000000139125E-02     6.8750000000068034E-01     0.0000000000000000E+00 
    6.2500000000163328E-02     7.5000000000028411E-01     0.0000000000000000E+00 
    6.2500000000187531E-02     8.1249999999988787E-01     0.0000000000000000E+00 
    6.2500000000211720E-02     8.7499999999951172E-01     0.0000000000000000E+00 
    6.2500000000235922E-02     9.3749999999974565E-01     0.0000000000000000E+00 
    1.2499999999981980E-01     6.2500000000211733E-02     0.0000000000000000E+00 
    1.2499999999986650E-01     1.2500000000042691E-01     0.0000000000000000E+00 
    1.2499999999991319E-01     1.8750000000063199E-01     0.0000000000000000E+00 
    1.2499999999995989E-01     2.5000000000083678E-01     0.0000000000000000E+00 
    1.2500000000000661E-01     3.1250000000104172E-01     0.0000000000000000E+00 
    1.2500000000005329E-01     3.7500000000124661E-01     0.0000000000000000E+00 
    1.2500000000010000E-01     4.3750000000145117E-01     0.0000000000000000E+00 
    1.2500000000014669E-01     5.0000000000163858E-01     0.0000000000000000E+00 
    1.2500000000019340E-01     5.6250000000129741E-01     0.0000000000000000E+00 
    1.2500000000024011E-01     6.2500000000093847E-01     0.0000000000000000E+00 
    1.2500000000028680E-01     6.8750000000057998E-01     0.0000000000000000E+00 
    1.2500000000033351E-01     7.5000000000022127E-01     0.0000000000000000E+00 
    1.2500000000038020E-01     8.1249999999986211E-01     0.0000000000000000E+00 
    1.2500000000042691E-01     8.7499999999952238E-01     0.0000000000000000E+00 
    1.2500000000047359E-01     9.3749999999975164E-01     0.0000000000000000E+00 
    1.8749999999966760E-01     6.2500000000187531E-02     0.0000000000000000E+00 
    1.8749999999974179E-01     1.2500000000038020E-01     0.0000000000000000E+00 
    1.8749999999981601E-01     1.8750000000055780E-01     0.0000000000000000E+00 
    1.8749999999989009E-01     2.5000000000073502E-01     0.0000000000000000E+00 
    1.8749999999996431E-01     3.1250000000091221E-01     0.0000000000000000E+00 
    1.8750000000003850E-01     3.7500000000108941E-01     0.0000000000000000E+00 
    1.8750000000011269E-01     4.3750000000126649E-01     0.0000000000000000E+00 
    1.8750000000018691E-01     5.0000000000142808E-01     0.0000000000000000E+00 
    1.8750000000026110E-01     5.6250000000112244E-01     0.0000000000000000E+00 
    1.8750000000033529E-01     6.2500000000080080E-01     0.0000000000000000E+00 
    1.8750000000040951E-01     6.8750000000047962E-01     0.0000000000000000E+00 
    1.8750000000048361E-01     7.5000000000015843E-01     0.0000000000000000E+00 
    1.8750000000055780E-01     8.1249999999983680E-01     0.0000000000000000E+00 
    1.8750000000063199E-01     8.7499999999953304E-01     0.0000000000000000E+00 
    1.8750000000070621E-01     9.3749999999975764E-01     0.0000000000000000E+00 
    2.4999999999951281E-01     6.2500000000163314E-02     0.0000000000000000E+00 
    2.4999999999961461E-01     1.2500000000033351E-01     0.0000000000000000E+00 
    2.4999999999971650E-01     1.8750000000048361E-01     0.0000000000000000E+00 
    2.4999999999981831E-01     2.5000000000063310E-01     0.0000000000000000E+00 
    2.4999999999992020E-01     3.1250000000078260E-01     0.0000000000000000E+00 
    2.5000000000002198E-01     3.7500000000093209E-01     0.0000000000000000E+00 
    2.5000000000012390E-01     4.3750000000108180E-01     0.0000000000000000E+00 
    2.5000000000022571E-01     5.0000000000121769E-01     0.0000000000000000E+00 
    2.5000000000032763E-01     5.6250000000094724E-01     0.0000000000000000E+00 
    2.5000000000042938E-01     6.2500000000066314E-01     0.0000000000000000E+00 
    2.5000000000053119E-01     6.8750000000037925E-01     0.0000000000000000E+00 
[...]
CELL_DATA 256 
SCALARS Pressure double 1 
LOOKUP_TABLE default 

    8.5626723876385935E-01 
    7.6035404560507858E-01 
    7.0265643769954411E-01 
    6.6271769598837660E-01 
    6.3235716756120874E-01 
    6.0788393409521690E-01 
    5.8746037743580348E-01 
    5.7009840390413191E-01 
    5.5524131018469591E-01 
    5.4256531655929940E-01 
    5.3187618923170110E-01 
    5.2305046174987779E-01 
    5.1596222978418749E-01 
    5.1027188678062496E-01 
    5.0660856440498037E-01 
    5.0540443612175567E-01 
    7.6035448534583217E-01 
    7.2920118917765353E-01 
    6.9168981543144048E-01 
    6.5873734991311161E-01 
    6.3103719751254739E-01 
    6.0763030056847889E-01 
    5.8760739751273372E-01 
    5.7033354063112551E-01 
    5.5540370423878416E-01 
    5.4256943522116874E-01 
    5.3168096230677886E-01 
    5.2264667852256352E-01 
    5.1537387461661754E-01 
    5.0957435366195303E-01 
    5.0558511454384603E-01 
    5.0432044540170096E-01 
    7.0265755470517210E-01 
    6.9169049585824094E-01 
    6.7029185014418513E-01 
    6.4647815042293399E-01 
    6.2364368423815797E-01 
    6.0281767230199634E-01 
    5.8415950312116671E-01 
    5.6758093749782501E-01 
    5.5296416844072982E-01 
    5.4022260988587689E-01 
    5.2930687294224876E-01 
    5.2019366382125354E-01 
    5.1284952251001692E-01 
    5.0707279432157715E-01 
    5.0289054443060610E-01 
    5.0170479470499840E-01 
    6.6271968668254022E-01 
    6.5873889044326217E-01 
    6.4647902681555003E-01 
    6.2995176290391630E-01 
    6.1203919132979134E-01 
    5.9431638269308706E-01 
    5.7753894344480816E-01 
    5.6205271650331434E-01 
    5.4802662063198815E-01 
    5.3556337282911493E-01 
    5.2474391195233849E-01 
    5.1563967040896019E-01 
    5.0829698178413640E-01 
    5.0260635217964189E-01 
    4.9835506092877530E-01 
    4.9733936500639780E-01 
    6.3236025285675657E-01 
    6.3103978762677848E-01 
    6.2364560569130945E-01 
    6.1204025948306817E-01 
    5.9811391661042501E-01 
    5.8327243888511471E-01 
    5.6842976573559278E-01 
    5.5415870644791654E-01 
    5.4083350675929487E-01 
    5.2872341189016048E-01 
    5.1804232728487254E-01 
    5.0897004878920482E-01 
    5.0164560242493073E-01 
    4.9604850575524023E-01 
    4.9182809577607811E-01 
    4.9105689863692575E-01 
    6.0788828303360865E-01 
    6.0763413559394175E-01 
    6.0282081897398032E-01 
    5.9431868096018381E-01 
    5.8327368916334221E-01 
    5.7074672637898571E-01 
    5.5758123790043745E-01 
    5.4441261605050106E-01 
    5.3172640857542974E-01 
    5.1991387695310720E-01 
    5.0930823117402957E-01 
    5.0020255081753628E-01 
    4.9284144926181050E-01 
    4.8729968547892683E-01 
    4.8318734675637365E-01 
    4.8272122353320879E-01 
    5.8746609483878132E-01 
    5.8761261509136531E-01 
    5.8416404319543591E-01 
    5.7754263095959568E-01 
    5.6843242249657133E-01 
    5.5758266997561567E-01 
    5.4568871885255210E-01 
    5.3335467511533907E-01 
    5.2110414555396767E-01 
    5.0940575138958777E-01 
    4.9869395964107371E-01 
    4.8937909219485137E-01 
    4.8183225611237884E-01 
    4.7625020604275181E-01 
    4.7228331901829596E-01 
    4.7217113092392976E-01 
    5.7010560927050091E-01 
    5.7034025115362041E-01 
    5.6758700776730253E-01 
    5.6205796639537564E-01 
    5.5416295570092144E-01 
    5.4441568856036948E-01 
    5.3335635246720448E-01 
    5.2151335620113703E-01 
    5.0939852664650842E-01 
    4.9751971918130833E-01 
    4.8639530932523811E-01 
    4.7656042591790831E-01 
    4.6854663080348530E-01 
    4.6273070907373937E-01 
    4.5889297535558093E-01 
    4.5918264601433784E-01 
    5.5525011251048317E-01 
    5.5541201825731501E-01 
    5.5297190289544496E-01 
    5.4803362950106316E-01 
    5.4083959543443538E-01 
    5.3173140605252633E-01 
    5.2110784650194886E-01 
    5.0940063770238786E-01 
    4.9707275915304661E-01 
    4.8463459916936386E-01 
    4.7266689947808199E-01 
    4.6183666493487857E-01 
    4.5288324654603274E-01 
    4.4645842710916378E-01 
    4.4259492042370197E-01 
    4.4331591670633919E-01 
    5.4257584406438930E-01 
    5.4257950492480922E-01 
    5.4023218777566062E-01 
    5.3557236070102787E-01 
    5.2873161241060340E-01 
    5.1992110875352138E-01 
    5.0941185438821779E-01 
    4.9752449916369779E-01 
    4.8463757185451967E-01 
    4.7121793080950464E-01 
    4.5786825209166165E-01 
    4.4537613428193057E-01 
    4.3473646490010448E-01 
    4.2701713954825693E-01 
    4.2271983880620417E-01 
    4.2381319107976184E-01 
    5.3188863257484453E-01 
    5.3169300312299017E-01 
    5.2931856884767170E-01 
    5.2475517056058285E-01 
    5.1805289843807167E-01 
    5.0931789712328956E-01 
    4.9870263099758089E-01 
    4.8640313990149303E-01 
    4.7267387588765603E-01 
    4.5787306929929217E-01 
    4.4254508632765277E-01 
    4.2753222611490505E-01 
    4.1408839924973667E-01 
    4.0385798150585128E-01 
    3.9819661586571126E-01 
    3.9937256133040056E-01 
    5.2306495980726442E-01 
    5.2266090382672703E-01 
    5.2020787606999130E-01 
    5.1565367765388159E-01 
    5.0898333760799330E-01 
    5.0021472913615250E-01 
    4.8938999530496735E-01 
    4.7657089921895307E-01 
    4.6184841776326269E-01 
    4.4538817459817998E-01 
    4.2754014014056585E-01 
    4.0903024106833508E-01 
    3.9123474534892633E-01 
    3.7642653194289599E-01 
    3.6726059386678206E-01 
    3.6728993391230730E-01 
    5.1597912015175040E-01 
    5.1539066287606916E-01 
    5.1286685690159839E-01 
    5.0831430912565723E-01 
    5.0166200785987247E-01 
    4.9285641493288290E-01 
    4.8184464380029440E-01 
    4.6855745035774476E-01 
    4.5289944867201837E-01 
    4.3475939481451564E-01 
    4.1410844703897776E-01 
    3.9124303417748929E-01 
    3.6724885777870153E-01 
    3.4469740789669551E-01 
    3.2784057247296666E-01 
    3.2321714425109999E-01 
    5.1029273597138758E-01 
    5.0959377856335197E-01 
    5.0709321251893003E-01 
    5.0262681818295840E-01 
    4.9606849423748145E-01 
    4.8731933479611628E-01 
    4.7626497374384935E-01 
    4.6273522127383587E-01 
    4.4647456099938349E-01 
    4.2705844488129624E-01 
    4.0390103141799849E-01 
    3.7644304886242291E-01 
    3.4469200359704188E-01 
    3.1033411214151052E-01 
    2.7838441712677248E-01 
    2.6065583884973081E-01 
    5.0662825560243763E-01 
    5.0560535152336372E-01 
    5.0291290312212877E-01 
    4.9837783435271027E-01 
    4.9185244609828610E-01 
    4.8321676609271985E-01 
    4.7231407062547515E-01 
    4.5888499872675254E-01 
    4.4259544253561173E-01 
    4.2279871412619074E-01 
    3.9828003471789741E-01 
    3.6727482065793871E-01 
    3.2780836501619270E-01 
    2.7836457963705225E-01 
    2.1959407661432348E-01 
    1.6597680033542331E-01 
    5.0542396442051829E-01 
    5.0434071877601960E-01 
    5.0172727062115385E-01 
    4.9736306799170965E-01 
    4.9108322054972742E-01 
    4.8275513320034735E-01 
    4.7221143310682745E-01 
    4.5916732810550781E-01 
    4.4328773686810113E-01 
    4.2391280064252806E-01 
    3.9949249174573626E-01 
    3.6729251025457543E-01 
    3.2314988355558655E-01 
    2.6061030343002095E-01 
    1.6596202231889051E-01 
    0.0000000000000000E+00 

SCALARS Saturarion double 1 
LOOKUP_TABLE default 

    1.0000000000000000E+00 
    9.9771535735031014E-01 
    9.9339653998316257E-01 
    9.8564560698622306E-01 
    9.7441252769079512E-01 
    9.6074618923664490E-01 
    9.4519731635189697E-01 
    9.2819109746856443E-01 
    9.0997555725156121E-01 
    8.9058913088389891E-01 
    8.7006259727531543E-01 
    8.4856426827717135E-01 
    8.2103700392645096E-01 
    7.3841658617822437E-01 
    2.0679464814688203E-01 
    1.0000288989010840E-06 
    9.9771486144193777E-01 
    9.9550995247557295E-01 
    9.9102180838926213E-01 
    9.8374618245773537E-01 
    9.7324810270678963E-01 
    9.6020487692543277E-01 
    9.4520693978581327E-01 
    9.2868608552806897E-01 
    9.1089315858074593E-01 
    8.9188719114383364E-01 
    8.7168571800802641E-01 
    8.5043145442643375E-01 
    8.2394769763139131E-01 
    7.5192578801265542E-01 
    2.8880484946789864E-01 
    2.0240107047560567E-05 
    9.9339522328338825E-01 
    9.9102090746005178E-01 
    9.8584627945335479E-01 
    9.7870239956680938E-01 
    9.6909144914840362E-01 
    9.5713300236760945E-01 
    9.4318776884719657E-01 
    9.2762010715304544E-01 
    9.1067248776314835E-01 
    8.9243851433710031E-01 
    8.7293865070730792E-01 
    8.5209294537502223E-01 
    8.2673617689500545E-01 
    7.6804584953551347E-01 
    3.5761938160009732E-01 
    1.3300378354865237E-04 
    9.8564315281077175E-01 
    9.8374380331593447E-01 
    9.7870047649838476E-01 
    9.7147505706264581E-01 
    9.6250360273897229E-01 
    9.5157462457265807E-01 
    9.3878327837765152E-01 
    9.2437297506013139E-01 
    9.0854408383439744E-01 
    8.9140692951094935E-01 
    8.7293015126583418E-01 
    8.5294718291374727E-01 
    8.2974585846140669E-01 
    7.7848414463613780E-01 
    4.2595988937822271E-01 
    6.1500018051417857E-04 
    9.7440889401675967E-01 
    9.7324627614476267E-01 
    9.6908904888063119E-01 
    9.6250056255812289E-01 
    9.5408320988498341E-01 
    9.4405652345497582E-01 
    9.3242891808364636E-01 
    9.1930006065856207E-01 
    9.0480152855305229E-01 
    8.8899363024808886E-01 
    8.7177473425010155E-01 
    8.5304366751957872E-01 
    8.3141703939733025E-01 
    7.8642856300633524E-01 
    4.9188149302341022E-01 
    2.2744714687397997E-03 
    9.6073691441690234E-01 
    9.6020210411288709E-01 
    9.5713228093584490E-01 
    9.5157040400420545E-01 
    9.4405170381606440E-01 
    9.3498067104724880E-01 
    9.2453843716260642E-01 
    9.1280141140541338E-01 
    8.9981311207081682E-01 
    8.8550069028722578E-01 
    8.6969219531798192E-01 
    8.5230835159878249E-01 
    8.3221812820055485E-01 
    7.9152415801818010E-01 
    5.4470424116065919E-01 
    6.5816007319223603E-03 
    9.4518325023091665E-01 
    9.4519959887134242E-01 
    9.4318547229215211E-01 
    9.3878080745631398E-01 
    9.3242259711500153E-01 
    9.2453268617238049E-01 
    9.1540666157896922E-01 
    9.0518776326805339E-01 
    8.9386525564675134E-01 
    8.8121814444227753E-01 
    8.6693544972496883E-01 
    8.5094991682027876E-01 
    8.3246417858045751E-01 
    7.9562344442072563E-01 
    5.8643754111924362E-01 
    1.6795374270119134E-02 
    9.2817291925270640E-01 
    9.2867482523751466E-01 
    9.2761215507217143E-01 
    9.2436974094896640E-01 
    9.1929769855187249E-01 
    9.1279532154286591E-01 
    9.0518360767527306E-01 
    8.9663729076926624E-01 
    8.8710168179040338E-01 
    8.7626796988343614E-01 
    8.6365425663886675E-01 
    8.4911779800421794E-01 
    8.3229869612351004E-01 
    7.9909543490310686E-01 
    6.2053226048117094E-01 
    3.1754199092252355E-02 
    9.0995030494648577E-01 
    9.1087927641981026E-01 
    9.1066193984067634E-01 
    9.0853623262324734E-01 
    9.0480283211152657E-01 
    8.9981418525309498E-01 
    8.9386324865582145E-01 
    8.8710218595079138E-01 
    8.7946637673073202E-01 
    8.7060331100678068E-01 
    8.5992165426825007E-01 
    8.4701290525021611E-01 
    8.3178271478591992E-01 
    8.0280231113080203E-01 
    6.4897041725536531E-01 
    6.4138741615096695E-02 
    8.9055979787336426E-01 
    8.9187411832395258E-01 
    8.9243325152892061E-01 
    8.9139644506844862E-01 
    8.8899054346768380E-01 
    8.8550751539712680E-01 
    8.8122303452240858E-01 
    8.7627048385339035E-01 
    8.7060627140331415E-01 
    8.6393920371780875E-01 
    8.5561968584996495E-01 
    8.4483974839263587E-01 
    8.3134056631581343E-01 
    8.0651387281951115E-01 
    6.7558111287304246E-01 
    1.0786474857554691E-01 
    8.7003659322450988E-01 
    8.7167628558532462E-01 
    8.7294392348100058E-01 
    8.7293133688924784E-01 
    8.7176837484805958E-01 
    8.6968962681242157E-01 
    8.6693934981835152E-01 
    8.6365806911367970E-01 
    8.5992560867346224E-01 
    8.5562423920371766E-01 
    8.5018576235210441E-01 
    8.4240027668386042E-01 
    8.3125848663815149E-01 
    8.1079891576931162E-01 
    7.0111012442305976E-01 
    1.7651717696170857E-01 
    8.4853526192527029E-01 
    8.5043443998793034E-01 
    8.5211881825022129E-01 
    8.5296820585832234E-01 
    8.5305144958768353E-01 
    8.5229845464489429E-01 
    8.5093374759120410E-01 
    8.4910879847227871E-01 
    8.4701223017998406E-01 
    8.4484605238201160E-01 
    8.4241096744797006E-01 
    8.3854997608514492E-01 
    8.3119525103009950E-01 
    8.1549910424112315E-01 
    7.2731421058204648E-01 
    2.8285264071949462E-01 
    8.2106002663335187E-01 
    8.2402325801730980E-01 
    8.2682290663412750E-01 
    8.2976142223988436E-01 
    8.3140552132585843E-01 
    8.3220871969873988E-01 
    8.3244628982476454E-01 
    8.3227732796796994E-01 
    8.3177285344318330E-01 
    8.3134413189879197E-01 
    8.3127025022341616E-01 
    8.3121185598761382E-01 
    8.2926886208533424E-01 
    8.2013948824817973E-01 
    7.5297109729473366E-01 
    3.9755568596691437E-01 
    7.3890300344161763E-01 
    7.5210233648105163E-01 
    7.6795392450839517E-01 
    7.7834581905697531E-01 
    7.8626235644162878E-01 
    7.9163746490933928E-01 
    7.9562901981855783E-01 
    7.9919882444752399E-01 
    8.0280541226105195E-01 
    8.0651840034616373E-01 
    8.1082933137725965E-01 
    8.1551712515636909E-01 
    8.2016379430996833E-01 
    8.2064811440956587E-01 
    7.8031465602549244E-01 
    5.0575576182550341E-01 
    2.0885356471291358E-01 
    2.8759957846841866E-01 
    3.5756730047951724E-01 
    4.2719162284092571E-01 
    4.9121281293755648E-01 
    5.4431257364341379E-01 
    5.8641120866637431E-01 
    6.2334339820550966E-01 
    6.5399099567687158E-01 
    6.7656327807241867E-01 
    7.0175337298298845E-01 
    7.2463826197056946E-01 
    7.5239265872365324E-01 
    7.8064329590646853E-01 
    7.8098559579100835E-01 
    6.0187557370434563E-01 
    1.0000255513430894E-06 
    1.8412310473509436E-05 
    1.4055739741168657E-04 
    6.8150634843055070E-04 
    2.1961344874150890E-03 
    6.3820206491404909E-03 
    1.7428289087779849E-02 
    3.8336177800125437E-02 
    5.9814966180727180E-02 
    1.0456891749397555E-01 
    1.8027478596684260E-01 
    2.8594199457425767E-01 
    3.9820002935647747E-01 
    5.0639966050702212E-01 
    6.0162429058837674E-01 
    6.0162282225322805E-01 
