# vtk DataFile Version 2.0
Pressure Field Data 
ASCII 
DATASET UNSTRUCTURED_GRID 

POINTS 289 double 

    0.0000000000000000E+00     0.0000000000000000E+00     0.0000000000000000E+00 
    1.0000000000000000E+00     0.0000000000000000E+00     0.0000000000000000E+00 
    1.0000000000000000E+00     1.0000000000000000E+00     0.0000000000000000E+00 
    0.0000000000000000E+00     1.0000000000000000E+00     0.0000000000000000E+00 
    6.2499999999872928E-02     0.0000000000000000E+00     0.0000000000000000E+00 
    1.2499999999977310E-01     0.0000000000000000E+00     0.0000000000000000E+00 
    1.8749999999959341E-01     0.0000000000000000E+00     0.0000000000000000E+00 
    2.4999999999941089E-01     0.0000000000000000E+00     0.0000000000000000E+00 
    3.1249999999922851E-01     0.0000000000000000E+00     0.0000000000000000E+00 
    3.7499999999904610E-01     0.0000000000000000E+00     0.0000000000000000E+00 
    4.3749999999886358E-01     0.0000000000000000E+00     0.0000000000000000E+00 
    4.9999999999869210E-01     0.0000000000000000E+00     0.0000000000000000E+00 
    5.6249999999884603E-01     0.0000000000000000E+00     0.0000000000000000E+00 
    6.2499999999901090E-01     0.0000000000000000E+00     0.0000000000000000E+00 
    6.8749999999917577E-01     0.0000000000000000E+00     0.0000000000000000E+00 
    7.4999999999934064E-01     0.0000000000000000E+00     0.0000000000000000E+00 
    8.1249999999950551E-01     0.0000000000000000E+00     0.0000000000000000E+00 
    8.7499999999967026E-01     0.0000000000000000E+00     0.0000000000000000E+00 
    9.3749999999983513E-01     0.0000000000000000E+00     0.0000000000000000E+00 
    1.0000000000000000E+00     6.2499999999872928E-02     0.0000000000000000E+00 
    1.0000000000000000E+00     1.2499999999977310E-01     0.0000000000000000E+00 
    1.0000000000000000E+00     1.8749999999959341E-01     0.0000000000000000E+00 
    1.0000000000000000E+00     2.4999999999941089E-01     0.0000000000000000E+00 
    1.0000000000000000E+00     3.1249999999922851E-01     0.0000000000000000E+00 
    1.0000000000000000E+00     3.7499999999904610E-01     0.0000000000000000E+00 
    1.0000000000000000E+00     4.3749999999886358E-01     0.0000000000000000E+00 
    1.0000000000000000E+00     4.9999999999869210E-01     0.0000000000000000E+00 
    1.0000000000000000E+00     5.6249999999884603E-01     0.0000000000000000E+00 
    1.0000000000000000E+00     6.2499999999901090E-01     0.0000000000000000E+00 
    1.0000000000000000E+00     6.8749999999917577E-01     0.0000000000000000E+00 
    1.0000000000000000E+00     7.4999999999934064E-01     0.0000000000000000E+00 
    1.0000000000000000E+00     8.1249999999950551E-01     0.0000000000000000E+00 
    1.0000000000000000E+00     8.7499999999967026E-01     0.0000000000000000E+00 
    1.0000000000000000E+00     9.3749999999983513E-01     0.0000000000000000E+00 
    9.3749999999973976E-01     1.0000000000000000E+00     0.0000000000000000E+00 
    8.7499999999950118E-01     1.0000000000000000E+00     0.0000000000000000E+00 
    8.1249999999991318E-01     1.0000000000000000E+00     0.0000000000000000E+00 
    7.5000000000034706E-01     1.0000000000000000E+00     0.0000000000000000E+00 
    6.8750000000078049E-01     1.0000000000000000E+00     0.0000000000000000E+00 
    6.2500000000121403E-01     1.0000000000000000E+00     0.0000000000000000E+00 
    5.6250000000164757E-01     1.0000000000000000E+00     0.0000000000000000E+00 
    5.0000000000205946E-01     1.0000000000000000E+00     0.0000000000000000E+00 
    4.3750000000182099E-01     1.0000000000000000E+00     0.0000000000000000E+00 
    3.7500000000156092E-01     1.0000000000000000E+00     0.0000000000000000E+00 
    3.1250000000130068E-01     1.0000000000000000E+00     0.0000000000000000E+00 
    2.5000000000104050E-01     1.0000000000000000E+00     0.0000000000000000E+00 
    1.8750000000078040E-01     1.0000000000000000E+00     0.0000000000000000E+00 
    1.2500000000052031E-01     1.0000000000000000E+00     0.0000000000000000E+00 
    6.2500000000260125E-02     1.0000000000000000E+00     0.0000000000000000E+00 
    0.0000000000000000E+00     9.3749999999973976E-01     0.0000000000000000E+00 
    0.0000000000000000E+00     8.7499999999950118E-01     0.0000000000000000E+00 
    0.0000000000000000E+00     8.1249999999991318E-01     0.0000000000000000E+00 
    0.0000000000000000E+00     7.5000000000034706E-01     0.0000000000000000E+00 
    0.0000000000000000E+00     6.8750000000078049E-01     0.0000000000000000E+00 
    0.0000000000000000E+00     6.2500000000121403E-01     0.0000000000000000E+00 
    0.0000000000000000E+00     5.6250000000164757E-01     0.0000000000000000E+00 
    0.0000000000000000E+00     5.0000000000205946E-01     0.0000000000000000E+00 
    0.0000000000000000E+00     4.3750000000182099E-01     0.0000000000000000E+00 
    0.0000000000000000E+00     3.7500000000156092E-01     0.0000000000000000E+00 
    0.0000000000000000E+00     3.1250000000130068E-01     0.0000000000000000E+00 
    0.0000000000000000E+00     2.5000000000104050E-01     0.0000000000000000E+00 
    0.0000000000000000E+00     1.8750000000078040E-01     0.0000000000000000E+00 
    0.0000000000000000E+00     1.2500000000052031E-01     0.0000000000000000E+00 
    0.0000000000000000E+00     6.2500000000260125E-02     0.0000000000000000E+00 
    6.2499999999897131E-02     6.2500000000235922E-02     0.0000000000000000E+00 
    6.2499999999921327E-02     1.2500000000047351E-01     0.0000000000000000E+00 
    6.2499999999945530E-02     1.8750000000070621E-01     0.0000000000000000E+00 
    6.2499999999969733E-02     2.5000000000093858E-01     0.0000000000000000E+00 
    6.2499999999993928E-02     3.1250000000117117E-01     0.0000000000000000E+00 
    6.2500000000018124E-02     3.7500000000140382E-01     0.0000000000000000E+00 
    6.2500000000042327E-02     4.3750000000163619E-01     0.0000000000000000E+00 
    6.2500000000066530E-02     5.0000000000184897E-01     0.0000000000000000E+00 
    6.2500000000090733E-02     5.6250000000147260E-01     0.0000000000000000E+00 
    6.2500000000114922E-02     6.2500000000107636E-01     0.0000000000000000E+00 
    6.2500000000139125E-02     6.8750000000068034E-01     0.0000000000000000E+00 
    6.2500000000163328E-02     7.5000000000028411E-01     0.0000000000000000E+00 
    6.2500000000187531E-02     8.1249999999988787E-01     0.0000000000000000E+00 
    6.2500000000211720E-02     8.7499999999951172E-01     0.0000000000000000E+00 
    6.2500000000235922E-02     9.3749999999974565E-01     0.0000000000000000E+00 
    1.2499999999981980E-01     6.2500000000211733E-02     0.0000000000000000E+00 
    1.2499999999986650E-01     1.2500000000042691E-01     0.0000000000000000E+00 
    1.2499999999991319E-01     1.8750000000063199E-01     0.0000000000000000E+00 
    1.2499999999995989E-01     2.5000000000083678E-01     0.0000000000000000E+00 
    1.2500000000000661E-01     3.1250000000104172E-01     0.0000000000000000E+00 
    1.2500000000005329E-01     3.7500000000124661E-01     0.0000000000000000E+00 
    1.2500000000010000E-01     4.3750000000145117E-01     0.0000000000000000E+00 
    1.2500000000014669E-01     5.0000000000163858E-01     0.0000000000000000E+00 
    1.2500000000019340E-01     5.6250000000129741E-01     0.0000000000000000E+00 
    1.2500000000024011E-01     6.2500000000093847E-01     0.0000000000000000E+00 
    1.2500000000028680E-01     6.8750000000057998E-01     0.0000000000000000E+00 
    1.2500000000033351E-01     7.5000000000022127E-01     0.0000000000000000E+00 
    1.2500000000038020E-01     8.1249999999986211E-01     0.0000000000000000E+00 
    1.2500000000042691E-01     8.7499999999952238E-01     0.0000000000000000E+00 
    1.2500000000047359E-01     9.3749999999975164E-01     0.0000000000000000E+00 
    1.8749999999966760E-01     6.2500000000187531E-02     0.0000000000000000E+00 
    1.8749999999974179E-01     1.2500000000038020E-01     0.0000000000000000E+00 
    1.8749999999981601E-01     1.8750000000055780E-01     0.0000000000000000E+00 
    1.8749999999989009E-01     2.5000000000073502E-01     0.0000000000000000E+00 
    1.8749999999996431E-01     3.1250000000091221E-01     0.0000000000000000E+00 
    1.8750000000003850E-01     3.7500000000108941E-01     0.0000000000000000E+00 
    1.8750000000011269E-01     4.3750000000126649E-01     0.0000000000000000E+00 
    1.8750000000018691E-01     5.0000000000142808E-01     0.0000000000000000E+00 
    1.8750000000026110E-01     5.6250000000112244E-01     0.0000000000000000E+00 
    1.8750000000033529E-01     6.2500000000080080E-01     0.0000000000000000E+00 
    1.8750000000040951E-01     6.8750000000047962E-01     0.0000000000000000E+00 
    1.8750000000048361E-01     7.5000000000015843E-01     0.0000000000000000E+00 
    1.8750000000055780E-01     8.1249999999983680E-01     0.0000000000000000E+00 
    1.8750000000063199E-01     8.7499999999953304E-01     0.0000000000000000E+00 
    1.8750000000070621E-01     9.3749999999975764E-01     0.0000000000000000E+00 
    2.4999999999951281E-01     6.2500000000163314E-02     0.0000000000000000E+00 
    2.4999999999961461E-01     1.2500000000033351E-01     0.0000000000000000E+00 
    2.4999999999971650E-01     1.8750000000048361E-01     0.0000000000000000E+00 
    2.4999999999981831E-01     2.5000000000063310E-01     0.0000000000000000E+00 
    2.4999999999992020E-01     3.1250000000078260E-01     0.0000000000000000E+00 
    2.5000000000002198E-01     3.7500000000093209E-01     0.0000000000000000E+00 
    2.5000000000012390E-01     4.3750000000108180E-01     0.0000000000000000E+00 
    2.5000000000022571E-01     5.0000000000121769E-01     0.0000000000000000E+00 
    2.5000000000032763E-01     5.6250000000094724E-01     0.0000000000000000E+00 
    2.5000000000042938E-01     6.2500000000066314E-01     0.0000000000000000E+00 
    2.5000000000053119E-01     6.8750000000037925E-01     0.0000000000000000E+00 
[...]
CELL_DATA 256 
SCALARS Pressure double 1 
LOOKUP_TABLE default 

    6.1515797790981364E-01 
    5.1688814513117531E-01 
    4.5510449605509146E-01 
    4.0946311723898920E-01 
    3.7190000611228358E-01 
    3.3675978880619073E-01 
    3.1547326438023310E-01 
    3.0261258646553174E-01 
    2.9235401472792288E-01 
    2.8390189106207170E-01 
    2.7705402737499257E-01 
    2.7166523137659621E-01 
    2.6761997888556188E-01 
    2.6481148396471327E-01 
    2.6312412775535571E-01 
    2.6241426574569360E-01 
    5.1688856820246654E-01 
    4.8410859594872463E-01 
    4.4296724334812615E-01 
    4.0474735913458526E-01 
    3.7027927279913553E-01 
    3.3668455177603596E-01 
    3.1565230977650199E-01 
    3.0283510130280589E-01 
    2.9247826306999569E-01 
    2.8388948152626547E-01 
    2.7688065051088390E-01 
    2.7132442234409554E-01 
    2.6712204456553407E-01 
    2.6418356361497064E-01 
    2.6241410155003098E-01 
    2.6170438703204357E-01 
    4.5510445045691250E-01 
    4.4296722086749335E-01 
    4.1838674436814238E-01 
    3.8978014812460843E-01 
    3.6032736644316299E-01 
    3.3140245252372313E-01 
    3.1285829147777672E-01 
    3.0089848406823250E-01 
    2.9082126188820528E-01 
    2.8231970720664734E-01 
    2.7529539601503517E-01 
    2.6967578289456057E-01 
    2.6540114306190510E-01 
    2.6241273814994581E-01 
    2.6064415463939522E-01 
    2.6001725130782655E-01 
    4.0946169188602671E-01 
    4.0474734115681044E-01 
    3.8978085189173511E-01 
    3.6885961462816841E-01 
    3.4439407572813974E-01 
    3.2250557153223125E-01 
    3.0777522207343372E-01 
    2.9700507528661252E-01 
    2.8747154996115398E-01 
    2.7922984416212915E-01 
    2.7230233768004336E-01 
    2.6669580559187939E-01 
    2.6240735422410444E-01 
    2.5942145584631943E-01 
    2.5770575762967113E-01 
    2.5720997504746523E-01 
    3.7189919239132657E-01 
    3.7028024009753846E-01 
    3.6033138257303332E-01 
    3.4439743101334308E-01 
    3.2699533488451116E-01 
    3.1248717520569635E-01 
    3.0127644936345788E-01 
    2.9156544957131747E-01 
    2.8265440713778750E-01 
    2.7474274610850213E-01 
    2.6795885935385172E-01 
    2.6239325001004998E-01 
    2.5810956391057677E-01 
    2.5514467757127618E-01 
    2.5350552718682101E-01 
    2.5316836677996601E-01 
    3.3676983363916457E-01 
    3.3668966773631936E-01 
    3.3140478142414265E-01 
    3.2250608082616916E-01 
    3.1248624601778852E-01 
    3.0292632917202839E-01 
    2.9387701258812510E-01 
    2.8501870287722653E-01 
    2.7665822287904124E-01 
    2.6904006969306399E-01 
    2.6236704532121802E-01 
    2.5680661554400325E-01 
    2.5249362359155969E-01 
    2.4952577091667452E-01 
    2.4795595187260630E-01 
    2.4778783917617941E-01 
    3.1547534181350440E-01 
    3.1565382518101487E-01 
    3.1285850171821861E-01 
    3.0777395863338469E-01 
    3.0127462662922283E-01 
    2.9387617927536985E-01 
    2.8587217728897080E-01 
    2.7772153023819102E-01 
    2.6977617695065165E-01 
    2.6233419880522435E-01 
    2.5566130165804757E-01 
    2.4999807514632111E-01 
    2.4555670812978087E-01 
    2.4250787401940505E-01 
    2.4096224256695864E-01 
    2.4095584102034887E-01 
    3.0261015435500022E-01 
    3.0283359142037902E-01 
    3.0089766555010866E-01 
    2.9700406226349135E-01 
    2.9156430866867328E-01 
    2.8501791463476195E-01 
    2.7772120728554406E-01 
    2.7003824670626864E-01 
    2.6231063511947011E-01 
    2.5486083564787448E-01 
    2.4800357744556892E-01 
    2.4205049749562421E-01 
    2.3730195327931317E-01 
    2.3402272918449635E-01 
    2.3240473786300339E-01 
    2.3253045191337504E-01 
    2.9235226929682628E-01 
    2.9247682646080575E-01 
    2.9082017693188250E-01 
    2.8747057175596524E-01 
    2.8265348817353009E-01 
    2.7665750257558835E-01 
    2.6977573621722967E-01 
    2.6231044699088951E-01 
    2.5457142179409897E-01 
    2.4688169078264571E-01 
    2.3958893189666125E-01 
    2.3307299476337709E-01 
    2.2773823746212846E-01 
    2.2397920620250020E-01 
    2.2211522724871718E-01 
    2.2231017757565136E-01 
    2.8390049704884335E-01 
    2.8388820468396891E-01 
    2.8231861529451080E-01 
    2.7922888938076690E-01 
    2.7474190556295541E-01 
    2.6903938415642042E-01 
    2.6233370765678338E-01 
    2.5486053887916199E-01 
    2.4688156026528688E-01 
    2.3869662352142818E-01 
    2.3066396202934641E-01 
    2.2322128763152210E-01 
    2.1689257530753867E-01 
    2.1225572144724733E-01 
    2.0984445557011991E-01 
    2.0998676259301174E-01 
    2.7705283799367875E-01 
    2.7687951388228482E-01 
    2.7529436564703980E-01 
    2.7230142123207685E-01 
    2.6795805765922270E-01 
    2.6236637551089115E-01 
    2.5566078302194400E-01 
    2.4800321413841631E-01 
    2.3958871158163111E-01 
    2.3066386336853034E-01 
    2.2156035168926802E-01 
    2.1274167385946452E-01 
    2.0484909288838857E-01 
    1.9870750013429020E-01 
    1.9521756828555120E-01 
    1.9506389997957455E-01 
    2.7166417099858114E-01 
    2.7132339130588851E-01 
    2.6967482016003053E-01 
    2.6669493134313860E-01 
    2.6239247580644365E-01 
    2.5680595430599396E-01 
    2.4999753885984330E-01 
    2.4205009052370130E-01 
    2.3307271155753487E-01 
    2.2322111527657226E-01 
    2.1274159606152832E-01 
    2.0204887851914008E-01 
    1.9184105439002486E-01 
    1.8321898994649025E-01 
    1.7767921418388566E-01 
    1.7670206544125061E-01 
    2.6761900228567104E-01 
    2.6712108813038482E-01 
    2.6540023574698529E-01 
    2.6240651678753735E-01 
    2.5810881117972806E-01 
    2.5249296804737020E-01 
    2.4555615949487619E-01 
    2.3730151597140117E-01 
    2.2773790921011450E-01 
    2.1689234809461491E-01 
    2.0484895500609748E-01 
    1.9184099240953684E-01 
    1.7843967032548230E-01 
    1.6588267777312973E-01 
    1.5646327865924828E-01 
    1.5338862091093020E-01 
    2.6481056060326225E-01 
    2.6418265658809414E-01 
    2.6241187002528626E-01 
    2.5942064538708737E-01 
    2.5514393988426010E-01 
    2.4952511828852730E-01 
    2.4250731553346694E-01 
    2.3402226951223057E-01 
    2.2397884493238635E-01 
    2.1225545350475478E-01 
    1.9870731685569973E-01 
    1.8321888034648939E-01 
    1.6588262949326030E-01 
    1.4750226485479673E-01 
    1.3078586223806249E-01 
    1.2215273454642374E-01 
    2.6312323495802398E-01 
    2.6241322330960731E-01 
    2.6064330949603898E-01 
    2.5770496246014585E-01 
    2.5350479660449154E-01 
    2.4795529793107662E-01 
    2.4096167422156983E-01 
    2.3240426015931570E-01 
    2.2211484096912459E-01 
    2.0984415745895429E-01 
    1.9521735166188636E-01 
    1.7767906975727535E-01 
    1.5646319522333799E-01 
    1.3078582727791829E-01 
    1.0120742966590715E-01 
    7.6469182290973020E-02 
    2.6241338568466455E-01 
    2.6170352011449521E-01 
    2.6001641371787204E-01 
    2.5720918265773557E-01 
    2.5316763391122249E-01 
    2.4778717791162172E-01 
    2.4095526050741170E-01 
    2.3252995767199020E-01 
    2.2230977127700480E-01 
    2.0998644212579584E-01 
    1.9506365989701405E-01 
    1.7670189748727747E-01 
    1.5338851466844117E-01 
    1.2215267791158091E-01 
    7.6469161661447599E-02 
    0.0000000000000000E+00 

SCALARS Saturarion double 1 
LOOKUP_TABLE default 

    9.9999999605905499E-01 
    9.8196640947172975E-01 
    9.5114670562057246E-01 
    9.0358338860112353E-01 
    8.4897926153589820E-01 
    7.0931503534028306E-01 
    9.3630624553165218E-02 
    1.0000018212882513E-06 
    1.0000000000002075E-06 
    9.9999999999999995E-07 
    9.9999999999999995E-07 
    9.9999999999999995E-07 
    9.9999999999999995E-07 
    9.9999999999999995E-07 
    9.9999999999999995E-07 
    9.9999999999999995E-07 
    9.8195893422475955E-01 
    9.6458937408275591E-01 
    9.3486638676053102E-01 
    8.9329508882922892E-01 
    8.4227045915730148E-01 
    6.9956815989991450E-01 
    8.2606650189241640E-02 
    1.9127683065806510E-06 
    1.0000000367948192E-06 
    1.0000000000000016E-06 
    9.9999999999999995E-07 
    9.9999999999999995E-07 
    9.9999999999999995E-07 
    9.9999999999999995E-07 
    9.9999999999999995E-07 
    9.9999999999999995E-07 
    9.5113255450868972E-01 
    9.3485209165886962E-01 
    9.0560244968980363E-01 
    8.7462445799294242E-01 
    8.2419393463609347E-01 
    6.0426431580495665E-01 
    2.1806840991852424E-02 
    3.1221100534288931E-06 
    1.0000000642411585E-06 
    1.0000000000000006E-06 
    9.9999999999999995E-07 
    9.9999999999999995E-07 
    9.9999999999999995E-07 
    9.9999999999999995E-07 
    9.9999999999999995E-07 
    9.9999999999999995E-07 
    9.0355908861529011E-01 
    8.9327024483783823E-01 
    8.7465065477579906E-01 
    8.4839256223926962E-01 
    7.8072769296868527E-01 
    3.3805123204117182E-01 
    5.0772915932158354E-04 
    1.0069929534888022E-06 
    1.0000000000741911E-06 
    9.9999999999999995E-07 
    9.9999999999999995E-07 
    9.9999999999999995E-07 
    9.9999999999999995E-07 
    9.9999999999999995E-07 
    9.9999999999999995E-07 
    9.9999999999999995E-07 
    8.4909484127574641E-01 
    8.4226101606304382E-01 
    8.2415197023827147E-01 
    7.8075285763923585E-01 
    5.1274773131664431E-01 
    3.6920839148473661E-02 
    1.0763366328647985E-05 
    1.0000013935898909E-06 
    1.0000000000000002E-06 
    9.9999999999999995E-07 
    9.9999999999999995E-07 
    9.9999999999999995E-07 
    9.9999999999999995E-07 
    9.9999999999999995E-07 
    9.9999999999999995E-07 
    9.9999999999999995E-07 
    7.1008192313848750E-01 
    6.9973512117776793E-01 
    6.0393362490961910E-01 
    3.3870346388844147E-01 
    3.7194064360312432E-02 
    2.3878102678584365E-05 
    1.0000070778945743E-06 
    1.0000000000000622E-06 
    9.9999999999999995E-07 
    9.9999999999999995E-07 
    9.9999999999999995E-07 
    9.9999999999999995E-07 
    9.9999999999999995E-07 
    9.9999999999999995E-07 
    9.9999999999999995E-07 
    9.9999999999999995E-07 
    9.4657643573622510E-02 
    8.2676223422516334E-02 
    2.1809556623194955E-02 
    5.0957851619095956E-04 
    1.0910262601189140E-05 
    1.0000072263563770E-06 
    1.0000000000001482E-06 
    9.9999999999999995E-07 
    9.9999999999999995E-07 
    9.9999999999999995E-07 
    9.9999999999999995E-07 
    9.9999999999999995E-07 
    9.9999999999999995E-07 
    9.9999999999999995E-07 
    9.9999999999999995E-07 
    9.9999999999999995E-07 
    1.0000020036543807E-06 
    1.9898979559114787E-06 
    3.1482627548475892E-06 
    1.0070431549155631E-06 
    1.0000014324930285E-06 
    1.0000000000000633E-06 
    9.9999999999999995E-07 
    9.9999999999999995E-07 
    9.9999999999999995E-07 
    9.9999999999999995E-07 
    9.9999999999999995E-07 
    9.9999999999999995E-07 
    9.9999999999999995E-07 
    9.9999999999999995E-07 
    9.9999999999999995E-07 
    9.9999999999999995E-07 
    1.0000000000002289E-06 
    1.0000000401704062E-06 
    1.0000000652062914E-06 
    1.0000000000752590E-06 
    1.0000000000000002E-06 
    9.9999999999999995E-07 
    9.9999999999999995E-07 
    9.9999999999999995E-07 
    9.9999999999999995E-07 
    9.9999999999999995E-07 
    9.9999999999999995E-07 
    9.9999999999999995E-07 
    9.9999999999999995E-07 
    9.9999999999999995E-07 
    9.9999999999999995E-07 
    9.9999999999999995E-07 
    9.9999999999999995E-07 
    1.0000000000000019E-06 
    1.0000000000000006E-06 
    9.9999999999999995E-07 
    9.9999999999999995E-07 
    9.9999999999999995E-07 
    9.9999999999999995E-07 
    9.9999999999999995E-07 
    9.9999999999999995E-07 
    9.9999999999999995E-07 
    9.9999999999999995E-07 
    9.9999999999999995E-07 
    9.9999999999999995E-07 
    9.9999999999999995E-07 
    9.9999999999999995E-07 
    9.9999999999999995E-07 
    9.9999999999999995E-07 
    9.9999999999999995E-07 
    9.9999999999999995E-07 
    9.9999999999999995E-07 
    9.9999999999999995E-07 
    9.9999999999999995E-07 
    9.9999999999999995E-07 
    9.9999999999999995E-07 
    9.9999999999999995E-07 
    9.9999999999999995E-07 
    9.9999999999999995E-07 
    9.9999999999999995E-07 
    9.9999999999999995E-07 
    9.9999999999999995E-07 
    9.9999999999999995E-07 
    9.9999999999999995E-07 
    9.9999999999999995E-07 
    9.9999999999999995E-07 
    9.9999999999999995E-07 
    9.9999999999999995E-07 
    9.9999999999999995E-07 
    9.9999999999999995E-07 
    9.9999999999999995E-07 
    9.9999999999999995E-07 
    9.9999999999999995E-07 
    9.9999999999999995E-07 
    9.9999999999999995E-07 
    9.9999999999999995E-07 
    9.9999999999999995E-07 
    9.9999999999999995E-07 
    9.9999999999999995E-07 
    9.9999999999999995E-07 
    9.9999999999999995E-07 
    9.9999999999999995E-07 
    9.9999999999999995E-07 
    9.9999999999999995E-07 
    9.9999999999999995E-07 
    9.9999999999999995E-07 
    9.9999999999999995E-07 
    9.9999999999999995E-07 
    9.9999999999999995E-07 
    9.9999999999999995E-07 
    9.9999999999999995E-07 
    9.9999999999999995E-07 
    9.9999999999999995E-07 
    9.9999999999999995E-07 
    9.9999999999999995E-07 
    9.9999999999999995E-07 
    9.9999999999999995E-07 
    9.9999999999999995E-07 
    9.9999999999999995E-07 
    9.9999999999999995E-07 
    9.9999999999999995E-07 
    9.9999999999999995E-07 
    9.9999999999999995E-07 
    9.9999999999999995E-07 
    9.9999999999999995E-07 
    9.9999999999999995E-07 
    9.9999999999999995E-07 
    9.9999999999999995E-07 
    9.9999999999999995E-07 
    9.9999999999999995E-07 
    9.9999999999999995E-07 
    9.9999999999999995E-07 
    9.9999999999999995E-07 
    9.9999999999999995E-07 
    9.9999999999999995E-07 
    9.9999999999999995E-07 
    9.9999999999999995E-07 
    9.9999999999999995E-07 
    9.9999999999999995E-07 
    9.9999999999999995E-07 
    9.9999999999999995E-07 
    9.9999999999999995E-07 
    9.9999999999999995E-07 
    9.9999999999999995E-07 
    9.9999999999999995E-07 
    9.9999999999999995E-07 
    9.9999999999999995E-07 
    9.9999999999999995E-07 
    9.9999999999999995E-07 
    9.9999999999999995E-07 
    9.9999999999999995E-07 
    9.9999999999999995E-07 
    9.9999999999999995E-07 
    9.9999999999999995E-07 
    9.9999999999999995E-07 
    9.9999999999999995E-07 
    9.9999999999999995E-07 
    9.9999999999999995E-07 
    9.9999999999999995E-07 
    9.9999999999999995E-07 
    9.9999999999999995E-07 
    9.9999999999999995E-07 
    9.9999999999999995E-07 
    1.0000000212610286E-06 
