# vtk DataFile Version 2.0
Pressure Field Data 
ASCII 
DATASET UNSTRUCTURED_GRID 

POINTS 289 double 

    0.0000000000000000E+00     0.0000000000000000E+00     0.0000000000000000E+00 
    1.0000000000000000E+00     0.0000000000000000E+00     0.0000000000000000E+00 
    1.0000000000000000E+00     1.0000000000000000E+00     0.0000000000000000E+00 
    0.0000000000000000E+00     1.0000000000000000E+00     0.0000000000000000E+00 
    6.2499999999872928E-02     0.0000000000000000E+00     0.0000000000000000E+00 
    1.2499999999977310E-01     0.0000000000000000E+00     0.0000000000000000E+00 
    1.8749999999959341E-01     0.0000000000000000E+00     0.0000000000000000E+00 
    2.4999999999941089E-01     0.0000000000000000E+00     0.0000000000000000E+00 
    3.1249999999922851E-01     0.0000000000000000E+00     0.0000000000000000E+00 
    3.7499999999904610E-01     0.0000000000000000E+00     0.0000000000000000E+00 
    4.3749999999886358E-01     0.0000000000000000E+00     0.0000000000000000E+00 
    4.9999999999869210E-01     0.0000000000000000E+00     0.0000000000000000E+00 
    5.6249999999884603E-01     0.0000000000000000E+00     0.0000000000000000E+00 
    6.2499999999901090E-01     0.0000000000000000E+00     0.0000000000000000E+00 
    6.8749999999917577E-01     0.0000000000000000E+00     0.0000000000000000E+00 
    7.4999999999934064E-01     0.0000000000000000E+00     0.0000000000000000E+00 
    8.1249999999950551E-01     0.0000000000000000E+00     0.0000000000000000E+00 
    8.7499999999967026E-01     0.0000000000000000E+00     0.0000000000000000E+00 
    9.3749999999983513E-01     0.0000000000000000E+00     0.0000000000000000E+00 
    1.0000000000000000E+00     6.2499999999872928E-02     0.0000000000000000E+00 
    1.0000000000000000E+00     1.2499999999977310E-01     0.0000000000000000E+00 
    1.0000000000000000E+00     1.8749999999959341E-01     0.0000000000000000E+00 
    1.0000000000000000E+00     2.4999999999941089E-01     0.0000000000000000E+00 
    1.0000000000000000E+00     3.1249999999922851E-01     0.0000000000000000E+00 
    1.0000000000000000E+00     3.7499999999904610E-01     0.0000000000000000E+00 
    1.0000000000000000E+00     4.3749999999886358E-01     0.0000000000000000E+00 
    1.0000000000000000E+00     4.9999999999869210E-01     0.0000000000000000E+00 
    1.0000000000000000E+00     5.6249999999884603E-01     0.0000000000000000E+00 
    1.0000000000000000E+00     6.2499999999901090E-01     0.0000000000000000E+00 
    1.0000000000000000E+00     6.8749999999917577E-01     0.0000000000000000E+00 
    1.0000000000000000E+00     7.4999999999934064E-01     0.0000000000000000E+00 
    1.0000000000000000E+00     8.1249999999950551E-01     0.0000000000000000E+00 
    1.0000000000000000E+00     8.7499999999967026E-01     0.0000000000000000E+00 
    1.0000000000000000E+00     9.3749999999983513E-01     0.0000000000000000E+00 
    9.3749999999973976E-01     1.0000000000000000E+00     0.0000000000000000E+00 
    8.7499999999950118E-01     1.0000000000000000E+00     0.0000000000000000E+00 
    8.1249999999991318E-01     1.0000000000000000E+00     0.0000000000000000E+00 
    7.5000000000034706E-01     1.0000000000000000E+00     0.0000000000000000E+00 
    6.8750000000078049E-01     1.0000000000000000E+00     0.0000000000000000E+00 
    6.2500000000121403E-01     1.0000000000000000E+00     0.0000000000000000E+00 
    5.6250000000164757E-01     1.0000000000000000E+00     0.0000000000000000E+00 
    5.0000000000205946E-01     1.0000000000000000E+00     0.0000000000000000E+00 
    4.3750000000182099E-01     1.0000000000000000E+00     0.0000000000000000E+00 
    3.7500000000156092E-01     1.0000000000000000E+00     0.0000000000000000E+00 
    3.1250000000130068E-01     1.0000000000000000E+00     0.0000000000000000E+00 
    2.5000000000104050E-01     1.0000000000000000E+00     0.0000000000000000E+00 
    1.8750000000078040E-01     1.0000000000000000E+00     0.0000000000000000E+00 
    1.2500000000052031E-01     1.0000000000000000E+00     0.0000000000000000E+00 
    6.2500000000260125E-02     1.0000000000000000E+00     0.0000000000000000E+00 
    0.0000000000000000E+00     9.3749999999973976E-01     0.0000000000000000E+00 
    0.0000000000000000E+00     8.7499999999950118E-01     0.0000000000000000E+00 
    0.0000000000000000E+00     8.1249999999991318E-01     0.0000000000000000E+00 
    0.0000000000000000E+00     7.5000000000034706E-01     0.0000000000000000E+00 
    0.0000000000000000E+00     6.8750000000078049E-01     0.0000000000000000E+00 
    0.0000000000000000E+00     6.2500000000121403E-01     0.0000000000000000E+00 
    0.0000000000000000E+00     5.6250000000164757E-01     0.0000000000000000E+00 
    0.0000000000000000E+00     5.0000000000205946E-01     0.0000000000000000E+00 
    0.0000000000000000E+00     4.3750000000182099E-01     0.0000000000000000E+00 
    0.0000000000000000E+00     3.7500000000156092E-01     0.0000000000000000E+00 
    0.0000000000000000E+00     3.1250000000130068E-01     0.0000000000000000E+00 
    0.0000000000000000E+00     2.5000000000104050E-01     0.0000000000000000E+00 
    0.0000000000000000E+00     1.8750000000078040E-01     0.0000000000000000E+00 
    0.0000000000000000E+00     1.2500000000052031E-01     0.0000000000000000E+00 
    0.0000000000000000E+00     6.2500000000260125E-02     0.0000000000000000E+00 
    6.2499999999897131E-02     6.2500000000235922E-02     0.0000000000000000E+00 
    6.2499999999921327E-02     1.2500000000047351E-01     0.0000000000000000E+00 
    6.2499999999945530E-02     1.8750000000070621E-01     0.0000000000000000E+00 
    6.2499999999969733E-02     2.5000000000093858E-01     0.0000000000000000E+00 
    6.2499999999993928E-02     3.1250000000117117E-01     0.0000000000000000E+00 
    6.2500000000018124E-02     3.7500000000140382E-01     0.0000000000000000E+00 
    6.2500000000042327E-02     4.3750000000163619E-01     0.0000000000000000E+00 
    6.2500000000066530E-02     5.0000000000184897E-01     0.0000000000000000E+00 
    6.2500000000090733E-02     5.6250000000147260E-01     0.0000000000000000E+00 
    6.2500000000114922E-02     6.2500000000107636E-01     0.0000000000000000E+00 
    6.2500000000139125E-02     6.8750000000068034E-01     0.0000000000000000E+00 
    6.2500000000163328E-02     7.5000000000028411E-01     0.0000000000000000E+00 
    6.2500000000187531E-02     8.1249999999988787E-01     0.0000000000000000E+00 
    6.2500000000211720E-02     8.7499999999951172E-01     0.0000000000000000E+00 
    6.2500000000235922E-02     9.3749999999974565E-01     0.0000000000000000E+00 
    1.2499999999981980E-01     6.2500000000211733E-02     0.0000000000000000E+00 
    1.2499999999986650E-01     1.2500000000042691E-01     0.0000000000000000E+00 
    1.2499999999991319E-01     1.8750000000063199E-01     0.0000000000000000E+00 
    1.2499999999995989E-01     2.5000000000083678E-01     0.0000000000000000E+00 
    1.2500000000000661E-01     3.1250000000104172E-01     0.0000000000000000E+00 
    1.2500000000005329E-01     3.7500000000124661E-01     0.0000000000000000E+00 
    1.2500000000010000E-01     4.3750000000145117E-01     0.0000000000000000E+00 
    1.2500000000014669E-01     5.0000000000163858E-01     0.0000000000000000E+00 
    1.2500000000019340E-01     5.6250000000129741E-01     0.0000000000000000E+00 
    1.2500000000024011E-01     6.2500000000093847E-01     0.0000000000000000E+00 
    1.2500000000028680E-01     6.8750000000057998E-01     0.0000000000000000E+00 
    1.2500000000033351E-01     7.5000000000022127E-01     0.0000000000000000E+00 
    1.2500000000038020E-01     8.1249999999986211E-01     0.0000000000000000E+00 
    1.2500000000042691E-01     8.7499999999952238E-01     0.0000000000000000E+00 
    1.2500000000047359E-01     9.3749999999975164E-01     0.0000000000000000E+00 
    1.8749999999966760E-01     6.2500000000187531E-02     0.0000000000000000E+00 
    1.8749999999974179E-01     1.2500000000038020E-01     0.0000000000000000E+00 
    1.8749999999981601E-01     1.8750000000055780E-01     0.0000000000000000E+00 
    1.8749999999989009E-01     2.5000000000073502E-01     0.0000000000000000E+00 
    1.8749999999996431E-01     3.1250000000091221E-01     0.0000000000000000E+00 
    1.8750000000003850E-01     3.7500000000108941E-01     0.0000000000000000E+00 
    1.8750000000011269E-01     4.3750000000126649E-01     0.0000000000000000E+00 
    1.8750000000018691E-01     5.0000000000142808E-01     0.0000000000000000E+00 
    1.8750000000026110E-01     5.6250000000112244E-01     0.0000000000000000E+00 
    1.8750000000033529E-01     6.2500000000080080E-01     0.0000000000000000E+00 
    1.8750000000040951E-01     6.8750000000047962E-01     0.0000000000000000E+00 
    1.8750000000048361E-01     7.5000000000015843E-01     0.0000000000000000E+00 
    1.8750000000055780E-01     8.1249999999983680E-01     0.0000000000000000E+00 
    1.8750000000063199E-01     8.7499999999953304E-01     0.0000000000000000E+00 
    1.8750000000070621E-01     9.3749999999975764E-01     0.0000000000000000E+00 
    2.4999999999951281E-01     6.2500000000163314E-02     0.0000000000000000E+00 
    2.4999999999961461E-01     1.2500000000033351E-01     0.0000000000000000E+00 
    2.4999999999971650E-01     1.8750000000048361E-01     0.0000000000000000E+00 
    2.4999999999981831E-01     2.5000000000063310E-01     0.0000000000000000E+00 
    2.4999999999992020E-01     3.1250000000078260E-01     0.0000000000000000E+00 
    2.5000000000002198E-01     3.7500000000093209E-01     0.0000000000000000E+00 
    2.5000000000012390E-01     4.3750000000108180E-01     0.0000000000000000E+00 
    2.5000000000022571E-01     5.0000000000121769E-01     0.0000000000000000E+00 
    2.5000000000032763E-01     5.6250000000094724E-01     0.0000000000000000E+00 
    2.5000000000042938E-01     6.2500000000066314E-01     0.0000000000000000E+00 
    2.5000000000053119E-01     6.8750000000037925E-01     0.0000000000000000E+00 
[...]
CELL_DATA 256 
SCALARS Pressure double 1 
LOOKUP_TABLE default 

    8.5181990314045686E-01 
    7.5593152686483867E-01 
    6.9828061589705870E-01 
    6.5841584062143810E-01 
    6.2816170184015541E-01 
    6.0382802340785580E-01 
    5.8357495226095546E-01 
    5.6641163477413725E-01 
    5.5177868144871056E-01 
    5.3934986249254735E-01 
    5.2892787327769686E-01 
    5.2038654592101952E-01 
    5.1361786426383615E-01 
    5.0838115146088780E-01 
    5.0456134481777659E-01 
    5.0332168011144962E-01 
    7.5593164060225182E-01 
    7.2479400973980124E-01 
    6.8732208963915553E-01 
    6.5443623621788560E-01 
    6.2683367260330136E-01 
    6.0355660962422253E-01 
    5.8369438010125085E-01 
    5.6660988807871715E-01 
    5.5189588558587765E-01 
    5.3930175387116563E-01 
    5.2867479486062363E-01 
    5.1992031374404735E-01 
    5.1296053355567695E-01 
    5.0759987924084926E-01 
    5.0355048585080586E-01 
    5.0226069740777568E-01 
    6.9828084663771250E-01 
    6.8732222265812259E-01 
    6.6595501162109794E-01 
    6.4219905460743776E-01 
    6.1945113204280278E-01 
    5.9874190910831560E-01 
    5.8023054062656731E-01 
    5.6382776478767416E-01 
    5.4941451105316930E-01 
    5.3690275760821737E-01 
    5.2624085732082038E-01 
    5.1740275231820898E-01 
    5.1036421951273236E-01 
    5.0499685062125332E-01 
    5.0089395555224003E-01 
    4.9972424566436469E-01 
    6.5841617270205244E-01 
    6.5443647238310898E-01 
    6.4219917258386028E-01 
    6.2571846615265692E-01 
    6.0787849378400771E-01 
    5.9025594843624096E-01 
    5.7360728985121068E-01 
    5.5827863246789233E-01 
    5.4443892562104634E-01 
    5.3219081548933111E-01 
    5.2161467020165753E-01 
    5.1278017535270293E-01 
    5.0573816476581523E-01 
    5.0043519028810723E-01 
    4.9644563975852490E-01 
    4.9550555556213893E-01 
    6.2816216140740100E-01 
    6.2683400127342914E-01 
    6.1945132639128153E-01 
    6.0787857458929861E-01 
    5.9400775372587555E-01 
    5.7924646466703855E-01 
    5.6451023133793965E-01 
    5.5037324977227864E-01 
    5.3721122563976731E-01 
    5.2529540071246894E-01 
    5.1484206571500390E-01 
    5.0603198421049123E-01 
    4.9900942238106177E-01 
    4.9380557763956784E-01 
    4.9004442786908486E-01 
    4.8940930292105522E-01 
    6.0382861812313549E-01 
    6.0355704493289597E-01 
    5.9874215390329277E-01 
    5.9025603201061549E-01 
    5.7924644298843853E-01 
    5.6677599821853109E-01 
    5.5368998641935607E-01 
    5.4062590970336699E-01 
    5.2807215157505549E-01 
    5.1642447828405702E-01 
    5.0602238143651890E-01 
    4.9716486784354796E-01 
    4.9010729938521269E-01 
    4.8498280119991916E-01 
    4.8149888933115376E-01 
    4.8121866066306035E-01 
    5.8357566655069737E-01 
    5.8369491369575544E-01 
    5.8023081712811131E-01 
    5.7360729339611427E-01 
    5.6451002888549950E-01 
    5.5368974221244516E-01 
    5.4184349113440966E-01 
    5.2957783610063702E-01 
    5.1742041831336816E-01 
    5.0584680711781693E-01 
    4.9530169984887040E-01 
    4.8620715636151302E-01 
    4.7895235328260716E-01 
    4.7380380525830207E-01 
    4.7057589232238628E-01 
    4.7068381999330655E-01 
    5.6641251532940762E-01 
    5.6661053349445889E-01 
    5.6382806560172205E-01 
    5.5827850905094634E-01 
    5.5037272433011464E-01 
    5.4062515680283274E-01 
    5.2957719331357345E-01 
    5.1775979804786898E-01 
    5.0568983313736660E-01 
    4.9388399280297091E-01 
    4.8287368137208475E-01 
    4.7321004316301618E-01 
    4.6544873870212611E-01 
    4.6004784193181114E-01 
    4.5699357284745046E-01 
    4.5752229322154514E-01 
    5.5177981926110675E-01 
    5.5189671402360663E-01 
    5.4941488824004370E-01 
    5.4443871133602550E-01 
    5.3721033155063491E-01 
    5.2807067745738001E-01 
    5.1741870613585805E-01 
    5.0568853840504802E-01 
    4.9334902118499707E-01 
    4.8092060085476074E-01 
    4.6899793784780752E-01 
    4.5826459391501179E-01 
    4.4948373543494119E-01 
    4.4339050538447972E-01 
    4.4024793318499306E-01 
    4.4118074707637961E-01 
    5.3935141136011655E-01 
    5.3930293148759789E-01 
    5.3690338614397048E-01 
    5.3219068320623730E-01 
    5.2529425278810982E-01 
    5.1642219676082235E-01 
    5.0584361323374949E-01 
    4.9388067498698834E-01 
    4.8091839386370788E-01 
    4.6743492842852025E-01 
    4.5404696771473413E-01 
    4.4155557695390985E-01 
    4.3096877908459263E-01 
    4.2341819608410713E-01 
    4.1961864402946847E-01 
    4.2074946601084307E-01 
    5.2893012612709767E-01 
    5.2867662517415759E-01 
    5.2624209812781364E-01 
    5.2161502725648812E-01 
    5.1484103862639308E-01 
    5.0601941832845632E-01 
    4.9529659686082950E-01 
    4.8286734719084123E-01 
    4.6899245984518900E-01 
    4.5404404895583733E-01 
    4.3858373125110811E-01 
    4.2346582304007874E-01 
    4.0994006711117958E-01 
    3.9966425989634491E-01 
    3.9411516398460716E-01 
    3.9492380336562477E-01 
    5.2038983359638313E-01 
    5.1992316537342409E-01 
    5.1740513947829969E-01 
    5.1278177392068580E-01 
    5.0603196736111533E-01 
    4.9716189065362715E-01 
    4.8619977390443736E-01 
    4.7319890088937727E-01 
    4.5825397558699271E-01 
    4.4154909180349655E-01 
    4.2346329219801743E-01 
    4.0474661180623428E-01 
    3.8676407611695218E-01 
    3.7174296278533148E-01 
    3.6234698146559402E-01 
    3.6146420003465335E-01 
    5.1362261172449275E-01 
    5.1296486940818808E-01 
    5.1036847492504045E-01 
    5.0574200634359523E-01 
    4.9901194235077695E-01 
    4.9010635789674845E-01 
    4.7894325417514588E-01 
    4.6542924623833298E-01 
    4.4946367803017584E-01 
    4.3095778849367727E-01 
    4.0993606930388043E-01 
    3.8676211034302482E-01 
    3.6254065881282288E-01 
    3.3976987584050894E-01 
    3.2266776672522984E-01 
    3.1692045368207111E-01 
    5.0838863157861447E-01 
    5.0760625885648547E-01 
    5.0500325332506724E-01 
    5.0044118067030319E-01 
    4.9381190519029389E-01 
    4.8498907056766782E-01 
    4.7379859519631085E-01 
    4.6001347803419501E-01 
    4.4335022786724726E-01 
    4.2340179019710128E-01 
    3.9966318726970507E-01 
    3.7174022688036784E-01 
    3.3976366870159863E-01 
    3.0537234938925756E-01 
    2.7356511627181868E-01 
    2.5511509145818340E-01 
    5.0456858655116144E-01 
    5.0355822883529633E-01 
    5.0090330531132754E-01 
    4.9645357390253114E-01 
    4.9005281846431220E-01 
    4.8152042027770731E-01 
    4.7060055641053572E-01 
    4.5693586069633907E-01 
    4.4015815259796182E-01 
    4.1960153741001971E-01 
    3.9413252540423249E-01 
    3.6235073782183108E-01 
    3.2264764677188257E-01 
    2.7353359601178689E-01 
    2.1567887129987701E-01 
    1.6249273697689143E-01 
    5.0332902804481117E-01 
    5.0226873247967430E-01 
    4.9973407339765286E-01 
    4.9551361035129909E-01 
    4.8941712962724193E-01 
    4.8124871405479502E-01 
    4.7073410184446524E-01 
    4.5745419183699615E-01 
    4.4102972757422426E-01 
    4.2073175566739207E-01 
    3.9496517950351606E-01 
    3.6147781328597245E-01 
    3.1688214287501648E-01 
    2.5504898350593558E-01 
    1.6247033716036990E-01 
    0.0000000000000000E+00 

SCALARS Saturarion double 1 
LOOKUP_TABLE default 

    1.0000000000000000E+00 
    9.9788711131344288E-01 
    9.9388653166636654E-01 
    9.8670905752732196E-01 
    9.7627976032941810E-01 
    9.6350710802335593E-01 
    9.4885389871370662E-01 
    9.3268168890745307E-01 
    9.1520376309013329E-01 
    8.9644238882922955E-01 
    8.7634005088494371E-01 
    8.5512774910137668E-01 
    8.3080952087037374E-01 
    7.7413970052271852E-01 
    3.5766469215893953E-01 
    3.3291794619874898E-06 
    9.9788667405043630E-01 
    9.9584742390043834E-01 
    9.9168851519174250E-01 
    9.8494517401636772E-01 
    9.7519667734279047E-01 
    9.6300634900754334E-01 
    9.4887547368715963E-01 
    9.3317400511831849E-01 
    9.1611737839094021E-01 
    8.9774371783010476E-01 
    8.7798721175069383E-01 
    8.5701581860450493E-01 
    8.3330571111323060E-01 
    7.8143911480799910E-01 
    4.3714505176202756E-01 
    5.6982568214336256E-04 
    9.9388536489909163E-01 
    9.9168771842147951E-01 
    9.8689859733421836E-01 
    9.8026448351928386E-01 
    9.7131796504797785E-01 
    9.6013210669908933E-01 
    9.4699806791682839E-01 
    9.3222066022336847E-01 
    9.1599972351517256E-01 
    8.9838937429406895E-01 
    8.7934506761980546E-01 
    8.5886578685261550E-01 
    8.3562643329720410E-01 
    7.9154386183141912E-01 
    5.1941555595180067E-01 
    4.1139921230159068E-03 
    9.8670681526620774E-01 
    9.8494300124858902E-01 
    9.8026275983288857E-01 
    9.7353870343250493E-01 
    9.6516703584686214E-01 
    9.5492951470314735E-01 
    9.4288192423168404E-01 
    9.2921445422912108E-01 
    9.1407492062318163E-01 
    8.9752165847116916E-01 
    8.7948741857994595E-01 
    8.5984367855917676E-01 
    8.3778818814244316E-01 
    7.9891396089278666E-01 
    5.8392385512012968E-01 
    1.4548581679951095E-02 
    9.7627654581694345E-01 
    9.7519504977715443E-01 
    9.7131584746069377E-01 
    9.6516434525064165E-01 
    9.5728827632282831E-01 
    9.4787894931636996E-01 
    9.3691829089898426E-01 
    9.2445989997277445E-01 
    9.1058311240924783E-01 
    8.9530893378929877E-01 
    8.7850869394534870E-01 
    8.5998466539197527E-01 
    8.3933303340323118E-01 
    8.0448965412136908E-01 
    6.2708130065502588E-01 
    3.3571492458644707E-02 
    9.6349903746563970E-01 
    9.6300403226306786E-01 
    9.6013153197531376E-01 
    9.5492572486062799E-01 
    9.4787457109204909E-01 
    9.3934296534192308E-01 
    9.2947859316308123E-01 
    9.1831542764506080E-01 
    9.0586126830449587E-01 
    8.9203577183763771E-01 
    8.7663203207643492E-01 
    8.5940238119614398E-01 
    8.4005609779686841E-01 
    8.0827961765425571E-01 
    6.5729370501512607E-01 
    5.6639049612231075E-02 
    9.4884161284200996E-01 
    9.4886921634100074E-01 
    9.4699611547587659E-01 
    9.4287963652217133E-01 
    9.3691243204265129E-01 
    9.2947317027024279E-01 
    9.2081952876327100E-01 
    9.1106018243492060E-01 
    9.0017778205824595E-01 
    8.8798037641456184E-01 
    8.7412092244607320E-01 
    8.5833006776940390E-01 
    8.4033003853932431E-01 
    8.1123960984231747E-01 
    6.7919295766167975E-01 
    8.5041553219034782E-02 
    9.3266584115031281E-01 
    9.3316446558083854E-01 
    9.3221350617281706E-01 
    9.2921127875164922E-01 
    9.2445739083483380E-01 
    9.1830914236790395E-01 
    9.1105553136851358E-01 
    9.0285454895828210E-01 
    8.9367675698399052E-01 
    8.8326816870391645E-01 
    8.7112133559370220E-01 
    8.5685601622642571E-01 
    8.4029432097079071E-01 
    8.1371709326628305E-01 
    6.9574837878083062E-01 
    1.1348341479057568E-01 
    9.1518075929642506E-01 
    9.1610494592211167E-01 
    9.1598953417784434E-01 
    9.1406689817274756E-01 
    9.1058360581278730E-01 
    9.0586102733403639E-01 
    9.0017400741464015E-01 
    8.9367560393010637E-01 
    8.8634053428280379E-01 
    8.7787333505332965E-01 
    8.6767716173839149E-01 
    8.5511915490340351E-01 
    8.4004705946772573E-01 
    8.1628782571422165E-01 
    7.0973054631657806E-01 
    1.6425280361568015E-01 
    8.9641302259477107E-01 
    8.9772964328372584E-01 
    8.9838227433379680E-01 
    8.9751004126337564E-01 
    8.9530510642765460E-01 
    8.9204135866167955E-01 
    8.8798359067190036E-01 
    8.8326873482458401E-01 
    8.7787481521661337E-01 
    8.7153977927263637E-01 
    8.6364078982017034E-01 
    8.5325616798574389E-01 
    8.3988932747765221E-01 
    8.1902279049354232E-01 
    7.2492093565827909E-01 
    2.1990599681864850E-01 
    8.7631308104657402E-01 
    8.7797450333629645E-01 
    8.7934451127150959E-01 
    8.7948427384234962E-01 
    8.7850164174245704E-01 
    8.7663044960477798E-01 
    8.7412615687675299E-01 
    8.7112637521139080E-01 
    8.6768125737142276E-01 
    8.6364381057844875E-01 
    8.5847692816710952E-01 
    8.5103105038674376E-01 
    8.4006370213944692E-01 
    8.2266823388109156E-01 
    7.4012978451779265E-01 
    2.9344201164243527E-01 
    8.5509613340436208E-01 
    8.5700985972358867E-01 
    8.5887803366976512E-01 
    8.5985636229571438E-01 
    8.5999185030273606E-01 
    8.5939687793875497E-01 
    8.5831921525399724E-01 
    8.5685175221155718E-01 
    8.5512247212833614E-01 
    8.5326194837437697E-01 
    8.5103605815383543E-01 
    8.4736819016565401E-01 
    8.4020049829342147E-01 
    8.2657206531695304E-01 
    7.5875844174216001E-01 
    3.7809888112796786E-01 
    8.3079470794751309E-01 
    8.3333893180663665E-01 
    8.3569281850120891E-01 
    8.3782327387578415E-01 
    8.3934040048301684E-01 
    8.4005250732817349E-01 
    8.4031007084870102E-01 
    8.4027179614781089E-01 
    8.4003645349373979E-01 
    8.3988849430323043E-01 
    8.4006684086337824E-01 
    8.4020705586711786E-01 
    8.3840735497277386E-01 
    8.3060330964401097E-01 
    7.7942636053917991E-01 
    4.6686119060246017E-01 
    7.7437227862276670E-01 
    7.8158779301240533E-01 
    7.9162895028180880E-01 
    7.9880097693223318E-01 
    8.0436717480530129E-01 
    8.0826306794988256E-01 
    8.1124418056747538E-01 
    8.1375415125358430E-01 
    8.1634925086403087E-01 
    8.1906493026809146E-01 
    8.2267563021969747E-01 
    8.2658590459454895E-01 
    8.3062011958345117E-01 
    8.3095914486175793E-01 
    8.0165709820901798E-01 
    5.5530458468428534E-01 
    3.5982659652766574E-01 
    4.3579820343675574E-01 
    5.1920038085259734E-01 
    5.8552164507139526E-01 
    6.2796998078674826E-01 
    6.5647756260483492E-01 
    6.7843223168161304E-01 
    6.9607549070503272E-01 
    7.1125674971727826E-01 
    7.2599561493051135E-01 
    7.4106490507905221E-01 
    7.5855723026996857E-01 
    7.7972113944974275E-01 
    8.0142256165111592E-01 
    8.0349346476299033E-01 
    6.3325547745284916E-01 
    3.9525455733836660E-06 
    5.1182171424577307E-04 
    4.1804414334561451E-03 
    1.5699457257453853E-02 
    3.3142085508420113E-02 
    5.4205165033058528E-02 
    8.6363327728315731E-02 
    1.2685235659138624E-01 
    1.5866779012215396E-01 
    2.1617228802861263E-01 
    2.9307297914844910E-01 
    3.8005665621561935E-01 
    4.6767464604419179E-01 
    5.5634307395201044E-01 
    6.3825249988437960E-01 
    6.3966515742968033E-01 
