# vtk DataFile Version 2.0
Pressure Field Data 
ASCII 
DATASET UNSTRUCTURED_GRID 

POINTS 289 double 

    0.0000000000000000E+00     0.0000000000000000E+00     0.0000000000000000E+00 
    1.0000000000000000E+00     0.0000000000000000E+00     0.0000000000000000E+00 
    1.0000000000000000E+00     1.0000000000000000E+00     0.0000000000000000E+00 
    0.0000000000000000E+00     1.0000000000000000E+00     0.0000000000000000E+00 
    6.2499999999872928E-02     0.0000000000000000E+00     0.0000000000000000E+00 
    1.2499999999977310E-01     0.0000000000000000E+00     0.0000000000000000E+00 
    1.8749999999959341E-01     0.0000000000000000E+00     0.0000000000000000E+00 
    2.4999999999941089E-01     0.0000000000000000E+00     0.0000000000000000E+00 
    3.1249999999922851E-01     0.0000000000000000E+00     0.0000000000000000E+00 
    3.7499999999904610E-01     0.0000000000000000E+00     0.0000000000000000E+00 
    4.3749999999886358E-01     0.0000000000000000E+00     0.0000000000000000E+00 
    4.9999999999869210E-01     0.0000000000000000E+00     0.0000000000000000E+00 
    5.6249999999884603E-01     0.0000000000000000E+00     0.0000000000000000E+00 
    6.2499999999901090E-01     0.0000000000000000E+00     0.0000000000000000E+00 
    6.8749999999917577E-01     0.0000000000000000E+00     0.0000000000000000E+00 
    7.4999999999934064E-01     0.0000000000000000E+00     0.0000000000000000E+00 
    8.1249999999950551E-01     0.0000000000000000E+00     0.0000000000000000E+00 
    8.7499999999967026E-01     0.0000000000000000E+00     0.0000000000000000E+00 
    9.3749999999983513E-01     0.0000000000000000E+00     0.0000000000000000E+00 
    1.0000000000000000E+00     6.2499999999872928E-02     0.0000000000000000E+00 
    1.0000000000000000E+00     1.2499999999977310E-01     0.0000000000000000E+00 
    1.0000000000000000E+00     1.8749999999959341E-01     0.0000000000000000E+00 
    1.0000000000000000E+00     2.4999999999941089E-01     0.0000000000000000E+00 
    1.0000000000000000E+00     3.1249999999922851E-01     0.0000000000000000E+00 
    1.0000000000000000E+00     3.7499999999904610E-01     0.0000000000000000E+00 
    1.0000000000000000E+00     4.3749999999886358E-01     0.0000000000000000E+00 
    1.0000000000000000E+00     4.9999999999869210E-01     0.0000000000000000E+00 
    1.0000000000000000E+00     5.6249999999884603E-01     0.0000000000000000E+00 
    1.0000000000000000E+00     6.2499999999901090E-01     0.0000000000000000E+00 
    1.0000000000000000E+00     6.8749999999917577E-01     0.0000000000000000E+00 
    1.0000000000000000E+00     7.4999999999934064E-01     0.0000000000000000E+00 
    1.0000000000000000E+00     8.1249999999950551E-01     0.0000000000000000E+00 
    1.0000000000000000E+00     8.7499999999967026E-01     0.0000000000000000E+00 
    1.0000000000000000E+00     9.3749999999983513E-01     0.0000000000000000E+00 
    9.3749999999973976E-01     1.0000000000000000E+00     0.0000000000000000E+00 
    8.7499999999950118E-01     1.0000000000000000E+00     0.0000000000000000E+00 
    8.1249999999991318E-01     1.0000000000000000E+00     0.0000000000000000E+00 
    7.5000000000034706E-01     1.0000000000000000E+00     0.0000000000000000E+00 
    6.8750000000078049E-01     1.0000000000000000E+00     0.0000000000000000E+00 
    6.2500000000121403E-01     1.0000000000000000E+00     0.0000000000000000E+00 
    5.6250000000164757E-01     1.0000000000000000E+00     0.0000000000000000E+00 
    5.0000000000205946E-01     1.0000000000000000E+00     0.0000000000000000E+00 
    4.3750000000182099E-01     1.0000000000000000E+00     0.0000000000000000E+00 
    3.7500000000156092E-01     1.0000000000000000E+00     0.0000000000000000E+00 
    3.1250000000130068E-01     1.0000000000000000E+00     0.0000000000000000E+00 
    2.5000000000104050E-01     1.0000000000000000E+00     0.0000000000000000E+00 
    1.8750000000078040E-01     1.0000000000000000E+00     0.0000000000000000E+00 
    1.2500000000052031E-01     1.0000000000000000E+00     0.0000000000000000E+00 
    6.2500000000260125E-02     1.0000000000000000E+00     0.0000000000000000E+00 
    0.0000000000000000E+00     9.3749999999973976E-01     0.0000000000000000E+00 
    0.0000000000000000E+00     8.7499999999950118E-01     0.0000000000000000E+00 
    0.0000000000000000E+00     8.1249999999991318E-01     0.0000000000000000E+00 
    0.0000000000000000E+00     7.5000000000034706E-01     0.0000000000000000E+00 
    0.0000000000000000E+00     6.8750000000078049E-01     0.0000000000000000E+00 
    0.0000000000000000E+00     6.2500000000121403E-01     0.0000000000000000E+00 
    0.0000000000000000E+00     5.6250000000164757E-01     0.0000000000000000E+00 
    0.0000000000000000E+00     5.0000000000205946E-01     0.0000000000000000E+00 
    0.0000000000000000E+00     4.3750000000182099E-01     0.0000000000000000E+00 
    0.0000000000000000E+00     3.7500000000156092E-01     0.0000000000000000E+00 
    0.0000000000000000E+00     3.1250000000130068E-01     0.0000000000000000E+00 
    0.0000000000000000E+00     2.5000000000104050E-01     0.0000000000000000E+00 
    0.0000000000000000E+00     1.8750000000078040E-01     0.0000000000000000E+00 
    0.0000000000000000E+00     1.2500000000052031E-01     0.0000000000000000E+00 
    0.0000000000000000E+00     6.2500000000260125E-02     0.0000000000000000E+00 
    6.2499999999897131E-02     6.2500000000235922E-02     0.0000000000000000E+00 
    6.2499999999921327E-02     1.2500000000047351E-01     0.0000000000000000E+00 
    6.2499999999945530E-02     1.8750000000070621E-01     0.0000000000000000E+00 
    6.2499999999969733E-02     2.5000000000093858E-01     0.0000000000000000E+00 
    6.2499999999993928E-02     3.1250000000117117E-01     0.0000000000000000E+00 
    6.2500000000018124E-02     3.7500000000140382E-01     0.0000000000000000E+00 
    6.2500000000042327E-02     4.3750000000163619E-01     0.0000000000000000E+00 
    6.2500000000066530E-02     5.0000000000184897E-01     0.0000000000000000E+00 
    6.2500000000090733E-02     5.6250000000147260E-01     0.0000000000000000E+00 
    6.2500000000114922E-02     6.2500000000107636E-01     0.0000000000000000E+00 
    6.2500000000139125E-02     6.8750000000068034E-01     0.0000000000000000E+00 
    6.2500000000163328E-02     7.5000000000028411E-01     0.0000000000000000E+00 
    6.2500000000187531E-02     8.1249999999988787E-01     0.0000000000000000E+00 
    6.2500000000211720E-02     8.7499999999951172E-01     0.0000000000000000E+00 
    6.2500000000235922E-02     9.3749999999974565E-01     0.0000000000000000E+00 
    1.2499999999981980E-01     6.2500000000211733E-02     0.0000000000000000E+00 
    1.2499999999986650E-01     1.2500000000042691E-01     0.0000000000000000E+00 
    1.2499999999991319E-01     1.8750000000063199E-01     0.0000000000000000E+00 
    1.2499999999995989E-01     2.5000000000083678E-01     0.0000000000000000E+00 
    1.2500000000000661E-01     3.1250000000104172E-01     0.0000000000000000E+00 
    1.2500000000005329E-01     3.7500000000124661E-01     0.0000000000000000E+00 
    1.2500000000010000E-01     4.3750000000145117E-01     0.0000000000000000E+00 
    1.2500000000014669E-01     5.0000000000163858E-01     0.0000000000000000E+00 
    1.2500000000019340E-01     5.6250000000129741E-01     0.0000000000000000E+00 
    1.2500000000024011E-01     6.2500000000093847E-01     0.0000000000000000E+00 
    1.2500000000028680E-01     6.8750000000057998E-01     0.0000000000000000E+00 
    1.2500000000033351E-01     7.5000000000022127E-01     0.0000000000000000E+00 
    1.2500000000038020E-01     8.1249999999986211E-01     0.0000000000000000E+00 
    1.2500000000042691E-01     8.7499999999952238E-01     0.0000000000000000E+00 
    1.2500000000047359E-01     9.3749999999975164E-01     0.0000000000000000E+00 
    1.8749999999966760E-01     6.2500000000187531E-02     0.0000000000000000E+00 
    1.8749999999974179E-01     1.2500000000038020E-01     0.0000000000000000E+00 
    1.8749999999981601E-01     1.8750000000055780E-01     0.0000000000000000E+00 
    1.8749999999989009E-01     2.5000000000073502E-01     0.0000000000000000E+00 
    1.8749999999996431E-01     3.1250000000091221E-01     0.0000000000000000E+00 
    1.8750000000003850E-01     3.7500000000108941E-01     0.0000000000000000E+00 
    1.8750000000011269E-01     4.3750000000126649E-01     0.0000000000000000E+00 
    1.8750000000018691E-01     5.0000000000142808E-01     0.0000000000000000E+00 
    1.8750000000026110E-01     5.6250000000112244E-01     0.0000000000000000E+00 
    1.8750000000033529E-01     6.2500000000080080E-01     0.0000000000000000E+00 
    1.8750000000040951E-01     6.8750000000047962E-01     0.0000000000000000E+00 
    1.8750000000048361E-01     7.5000000000015843E-01     0.0000000000000000E+00 
    1.8750000000055780E-01     8.1249999999983680E-01     0.0000000000000000E+00 
    1.8750000000063199E-01     8.7499999999953304E-01     0.0000000000000000E+00 
    1.8750000000070621E-01     9.3749999999975764E-01     0.0000000000000000E+00 
    2.4999999999951281E-01     6.2500000000163314E-02     0.0000000000000000E+00 
    2.4999999999961461E-01     1.2500000000033351E-01     0.0000000000000000E+00 
    2.4999999999971650E-01     1.8750000000048361E-01     0.0000000000000000E+00 
    2.4999999999981831E-01     2.5000000000063310E-01     0.0000000000000000E+00 
    2.4999999999992020E-01     3.1250000000078260E-01     0.0000000000000000E+00 
    2.5000000000002198E-01     3.7500000000093209E-01     0.0000000000000000E+00 
    2.5000000000012390E-01     4.3750000000108180E-01     0.0000000000000000E+00 
    2.5000000000022571E-01     5.0000000000121769E-01     0.0000000000000000E+00 
    2.5000000000032763E-01     5.6250000000094724E-01     0.0000000000000000E+00 
    2.5000000000042938E-01     6.2500000000066314E-01     0.0000000000000000E+00 
    2.5000000000053119E-01     6.8750000000037925E-01     0.0000000000000000E+00 
[...]
CELL_DATA 256 
SCALARS Pressure double 1 
LOOKUP_TABLE default 

    8.5223487325526648E-01 
    7.5627856083656964E-01 
    6.9849979795057937E-01 
    6.5843209317772611E-01 
    6.2788580864024923E-01 
    6.0316949594390534E-01 
    5.8245028908858543E-01 
    5.6474539045027572E-01 
    5.4950278849688750E-01 
    5.3640305398568189E-01 
    5.2525783660929803E-01 
    5.1594263888174130E-01 
    5.0826834527583875E-01 
    5.0165570308535190E-01 
    4.9849054529396225E-01 
    4.9744397146909625E-01 
    7.5627850951769582E-01 
    7.2509826745348183E-01 
    6.8751851424082133E-01 
    6.5445018631625107E-01 
    6.2658003307291410E-01 
    6.0294738411886939E-01 
    5.8264616538959046E-01 
    5.6504557012978929E-01 
    5.4974433786685417E-01 
    5.3649747760905087E-01 
    5.2515968766877141E-01 
    5.1563691363570419E-01 
    5.0777440070606739E-01 
    5.0101751026729602E-01 
    4.9750057873821230E-01 
    4.9641036624700180E-01 
    6.9849954354089094E-01 
    6.8751834691843727E-01 
    6.6606558897297996E-01 
    6.4215200295123098E-01 
    6.1916761037973544E-01 
    5.9813951185379677E-01 
    5.7922802726169931E-01 
    5.6234697038167769E-01 
    5.4738053744751725E-01 
    5.3424392944504961E-01 
    5.2288973624752155E-01 
    5.1329063242480544E-01 
    5.0536014123284756E-01 
    4.9865121974424353E-01 
    4.9492076989110712E-01 
    4.9389549947093586E-01 
    6.5843148103090654E-01 
    6.5444968116178059E-01 
    6.4215169338977973E-01 
    6.2554484497440610E-01 
    6.0750779781409137E-01 
    5.8961307020494946E-01 
    5.7261515948759045E-01 
    5.5685967555575344E-01 
    5.4251524937304763E-01 
    5.2968367288330320E-01 
    5.1844465208145862E-01 
    5.0886553751796648E-01 
    5.0094805527046815E-01 
    4.9436535093472439E-01 
    4.9050139894125283E-01 
    4.8961963859593327E-01 
    6.2788472942583551E-01 
    6.2657904045680557E-01 
    6.1916681158468279E-01 
    6.0750732788897888E-01 
    5.9348770094131376E-01 
    5.7851107509781230E-01 
    5.6348905245278869E-01 
    5.4899232508738605E-01 
    5.3539216314995974E-01 
    5.2295283198000175E-01 
    5.1188261126260848E-01 
    5.0235597222252959E-01 
    4.9447218464811299E-01 
    4.8801146494381881E-01 
    4.8406029833293701E-01 
    4.8337482247436619E-01 
    6.0316779062212744E-01 
    6.0294576961032564E-01 
    5.9813805903680972E-01 
    5.8961192213304237E-01 
    5.7851038910823260E-01 
    5.6589182424927309E-01 
    5.5259709235145127E-01 
    5.3925821376495797E-01 
    5.2635475993840497E-01 
    5.1426764000243685E-01 
    5.0331779676088340E-01 
    4.9378798807748953E-01 
    4.8588584736062035E-01 
    4.7950375131821082E-01 
    4.7546964592938934E-01 
    4.7500195417170843E-01 
    5.8244775185100917E-01 
    5.8264374972583988E-01 
    5.7922575792486131E-01 
    5.7261312715327672E-01 
    5.6348741588398066E-01 
    5.5259609604333504E-01 
    5.4063240813971591E-01 
    5.2819635593721193E-01 
    5.1580254506181633E-01 
    5.0390322451339098E-01 
    4.9291167341231956E-01 
    4.8321799226885770E-01 
    4.7515148630902165E-01 
    4.6873775721093047E-01 
    4.6455739925162559E-01 
    4.6431201156909208E-01 
    5.6474187559090738E-01 
    5.6504218206572387E-01 
    5.6234372322366155E-01 
    5.5685660325450759E-01 
    5.4898952852911820E-01 
    5.3925592095207897E-01 
    5.2819493958421626E-01 
    5.1633074659621703E-01 
    5.0416396393497076E-01 
    4.9218104106303234E-01 
    4.8086962912177911E-01 
    4.7072999206859129E-01 
    4.6223625446794914E-01 
    4.5558403452095447E-01 
    4.5110852298094112E-01 
    4.5107156026616363E-01 
    5.4949822696067718E-01 
    5.4973988964588572E-01 
    5.4737622509873018E-01 
    5.4251107867856940E-01 
    5.3538812949685322E-01 
    5.2635099033110166E-01 
    5.1579934379463288E-01 
    5.0416190821935136E-01 
    4.9189069294234750E-01 
    4.7947292605972958E-01 
    4.6745120382430738E-01 
    4.5644023173496978E-01 
    4.4709629758959879E-01 
    4.3985319598128092E-01 
    4.3484954171425660E-01 
    4.3499900896626797E-01 
    5.3639750507653605E-01 
    5.3649204018067953E-01 
    5.3423862432344171E-01 
    5.2967846997652479E-01 
    5.2294760616065816E-01 
    5.1426233028152735E-01 
    5.0389792906132558E-01 
    4.9217621445366000E-01 
    4.7946964109242057E-01 
    4.6622576123365628E-01 
    4.5300687817783719E-01 
    4.4053297582958922E-01 
    4.2968687559865176E-01 
    4.2125785145965161E-01 
    4.1539176063876720E-01 
    4.1572209419962464E-01 
    5.2525145527872219E-01 
    5.2515347445350202E-01 
    5.2288372665245009E-01 
    5.1843867350190176E-01 
    5.1187635504214590E-01 
    5.0331098628474635E-01 
    4.9290403924213699E-01 
    4.8086124942358394E-01 
    4.6744316059176644E-01 
    4.5300132424661499E-01 
    4.3804617530783113E-01 
    4.2334494445620446E-01 
    4.1002201178864933E-01 
    3.9940632127860815E-01 
    3.9216243693958064E-01 
    3.9266219426470811E-01 
    5.1593563792408270E-01 
    5.1563028380761045E-01 
    5.1328446963070828E-01 
    5.0885926784880520E-01 
    5.0234901242583296E-01 
    4.9378000146875811E-01 
    4.8320816553858070E-01 
    4.7071743059657112E-01 
    4.5642589609278367E-01 
    4.4051931431154029E-01 
    4.2333557931163945E-01 
    4.0552734272812274E-01 
    3.8833262212589492E-01 
    3.7376298568182581E-01 
    3.6390763004834714E-01 
    3.6426525544845761E-01 
    5.0826152346326203E-01 
    5.0776806363532667E-01 
    5.0535436444187454E-01 
    5.0094163201241748E-01 
    4.9446478925084031E-01 
    4.8587778474863247E-01 
    4.7514113443862460E-01 
    4.6221979777088695E-01 
    4.4707448192508970E-01 
    4.2966267214442094E-01 
    4.0999876456578938E-01 
    3.8831768673761091E-01 
    3.6549726312937025E-01 
    3.4388103195903325E-01 
    3.2755212106946419E-01 
    3.2536149308086354E-01 
    5.0164996545420615E-01 
    5.0101114961941040E-01 
    4.9864569075123211E-01 
    4.9435893023774719E-01 
    4.8800393886239779E-01 
    4.7949711566160719E-01 
    4.6873225820928044E-01 
    4.5556708168517412E-01 
    4.3982439853639671E-01 
    4.2122251562987190E-01 
    3.9936248905504673E-01 
    3.7372439594105705E-01 
    3.4386578025827153E-01 
    3.1088358516779546E-01 
    2.7965079748046473E-01 
    2.6535109848782795E-01 
    4.9848408858473847E-01 
    4.9749417842058463E-01 
    4.9491498287400570E-01 
    4.9049404454796075E-01 
    4.8405111458938488E-01 
    4.7546060676235052E-01 
    4.6454681685965987E-01 
    4.5108258401042362E-01 
    4.3480702263127508E-01 
    4.1534442897032342E-01 
    3.9208917904502305E-01 
    3.6382619982615072E-01 
    3.2752240888054601E-01 
    2.7966751428524089E-01 
    2.2050587413239683E-01 
    1.6864864773646851E-01 
    4.9743727501611623E-01 
    4.9640376774120193E-01 
    4.9388930241802120E-01 
    4.8961218730734424E-01 
    4.8336534906991485E-01 
    4.7499138411470326E-01 
    4.6429806144981384E-01 
    4.5104489646989532E-01 
    4.3495665658843452E-01 
    4.1567368363588686E-01 
    3.9257821602891296E-01 
    3.6415360676131464E-01 
    3.2532470786621809E-01 
    2.6542623909009033E-01 
    1.6869465375387732E-01 
    0.0000000000000000E+00 

SCALARS Saturarion double 1 
LOOKUP_TABLE default 

    1.0000000000000000E+00 
    9.9741341306419651E-01 
    9.9253738449266404E-01 
    9.8377796860144440E-01 
    9.7115000315697131E-01 
    9.5597154567149123E-01 
    9.3895169735860018E-01 
    9.2062017619829295E-01 
    9.0126207617056742E-01 
    8.8094443256721988E-01 
    8.5980883077579295E-01 
    8.3692138882365896E-01 
    7.9738524567183244E-01 
    5.9217851926075005E-01 
    1.5275023818288231E-02 
    1.0000001570072032E-06 
    9.9741280898392948E-01 
    9.9491662829527805E-01 
    9.8985256272416888E-01 
    9.8164331931508730E-01 
    9.6984666494798788E-01 
    9.5536141805956620E-01 
    9.3893783346842929E-01 
    9.2110882228844060E-01 
    9.0216746289429139E-01 
    8.8221320686184324E-01 
    8.6136972505486786E-01 
    8.3886941334991472E-01 
    8.0195406961771509E-01 
    6.5509783829549972E-01 
    5.9413183491283821E-02 
    3.6441947827556776E-06 
    9.9253579721642715E-01 
    9.8985147384354666E-01 
    9.8400120010783720E-01 
    9.7597037887050131E-01 
    9.6521494667375973E-01 
    9.5195012573302296E-01 
    9.3666439554835301E-01 
    9.1982475355837678E-01 
    9.0174455168849366E-01 
    8.8258812810218645E-01 
    8.6240020270539519E-01 
    8.4031379317288390E-01 
    8.0778574999943853E-01 
    6.9282677609892696E-01 
    1.2034341673494106E-01 
    9.3906363358960225E-06 
    9.8377515616194366E-01 
    9.8164058120510334E-01 
    9.7596809053938061E-01 
    9.6787867345174339E-01 
    9.5788135102745131E-01 
    9.4578537126878670E-01 
    9.3176459657857047E-01 
    9.1616449921057852E-01 
    8.9928082603590564E-01 
    8.8129094527250507E-01 
    8.6214959364914689E-01 
    8.4139993848379580E-01 
    8.1256648434916923E-01 
    7.1796054365344386E-01 
    1.8144839812989264E-01 
    9.1544419395998947E-06 
    9.7114556528598472E-01 
    9.6984443735964754E-01 
    9.6521203699020619E-01 
    9.5787771941434297E-01 
    9.4854330971630796E-01 
    9.3748352234416099E-01 
    9.2476773755938402E-01 
    9.1058929933781385E-01 
    8.9515890226465966E-01 
    8.7856202192637445E-01 
    8.6075573523578186E-01 
    8.4154866515197635E-01 
    8.1482054918262037E-01 
    7.3307597923597556E-01 
    2.2490133474172930E-01 
    6.3550349342101286E-06 
    9.5596006403491585E-01 
    9.5535779886474381E-01 
    9.5194923197190118E-01 
    9.4578053757804914E-01 
    9.3747804893297015E-01 
    9.2752271054032642E-01 
    9.1616952571454935E-01 
    9.0357074422756700E-01 
    8.8978843638691918E-01 
    8.7472067610356974E-01 
    8.5832733682303053E-01 
    8.4050909554010522E-01 
    8.1607585777231184E-01 
    7.4310297085183685E-01 
    2.6084607332372106E-01 
    9.0522995602082081E-06 
    9.3893438466601864E-01 
    9.3892852836347929E-01 
    9.3666172117740787E-01 
    9.3176212954085225E-01 
    9.2476101818210232E-01 
    9.1616370536471281E-01 
    9.0633830567565876E-01 
    8.9546445271723907E-01 
    8.8347196486942303E-01 
    8.7006407893681548E-01 
    8.5510039144563565E-01 
    8.3870870107368056E-01 
    8.1688072764820785E-01 
    7.5130363647237619E-01 
    3.0317034508554808E-01 
    5.1613018120095724E-05 
    9.2059798433883255E-01 
    9.2109475950113140E-01 
    9.1981609038691836E-01 
    9.1616188098737639E-01 
    9.1058814308660740E-01 
    9.0356643127074909E-01 
    8.9546239416303064E-01 
    8.8643331133452730E-01 
    8.7631375371300213E-01 
    8.6470607178435754E-01 
    8.5130321754090832E-01 
    8.3634067348564334E-01 
    8.1688491410075381E-01 
    7.6043728568922331E-01 
    3.4745977223781677E-01 
    1.0666678838666090E-04 
    9.0123446425365372E-01 
    9.0215274674051660E-01 
    9.0173505801021558E-01 
    8.9927438876981625E-01 
    8.9516263112966798E-01 
    8.8979331284026186E-01 
    8.8347457392719730E-01 
    8.7631779665920495E-01 
    8.6816748132099597E-01 
    8.5860557317285779E-01 
    8.4712366682454021E-01 
    8.3372125025108634E-01 
    8.1650620288978881E-01 
    7.6784839452924636E-01 
    4.0503449183511059E-01 
    4.5012922027290388E-04 
    8.8091711192999134E-01 
    8.8220443472206678E-01 
    8.8258876817470588E-01 
    8.8128393602333033E-01 
    8.7856052417641750E-01 
    8.7472962360289674E-01 
    8.7007155531414693E-01 
    8.6471134715622033E-01 
    8.5861128940552323E-01 
    8.5146129981925067E-01 
    8.4251174287442387E-01 
    8.3113925485527285E-01 
    8.1608870226453079E-01 
    7.7490074847909973E-01 
    4.7283163753411284E-01 
    2.0954032274532971E-03 
    8.5978662230818781E-01 
    8.6136946951862903E-01 
    8.6241889131608140E-01 
    8.6215875663929908E-01 
    8.6074945411059656E-01 
    8.5832196259526472E-01 
    8.5510128274103248E-01 
    8.5130393637338797E-01 
    8.4712927045661568E-01 
    8.4252477216812205E-01 
    8.3677300782639552E-01 
    8.2846262652956659E-01 
    8.1603187119075593E-01 
    7.8178046544135182E-01 
    5.5208511581982445E-01 
    1.3173209788930934E-02 
    8.3691622820193734E-01 
    8.3890152007713670E-01 
    8.4036331981419843E-01 
    8.4142378204640056E-01 
    8.4154911924565967E-01 
    8.4049352011226397E-01 
    8.3869115960193452E-01 
    8.3633126304928340E-01 
    8.3372151205365885E-01 
    8.3115671418504311E-01 
    8.2848717073331513E-01 
    8.2432549675389521E-01 
    8.1607937534417008E-01 
    7.8958568449057254E-01 
    6.1592380586962203E-01 
    6.1526467465639563E-02 
    7.9753478329254657E-01 
    8.0210671775545750E-01 
    8.0783822324288634E-01 
    8.1249089321750334E-01 
    8.1479487014116025E-01 
    8.1610220113115339E-01 
    8.1689627770237139E-01 
    8.1689350540166394E-01 
    8.1653209793870629E-01 
    8.1610877028028039E-01 
    8.1606859698721279E-01 
    8.1610248625955528E-01 
    8.1369230756150268E-01 
    7.9735996813771248E-01 
    6.7593062820092031E-01 
    2.1184903421521889E-01 
    5.9421267790465104E-01 
    6.5510788077177307E-01 
    6.9252030078597504E-01 
    7.1780018452426375E-01 
    7.3327233249840118E-01 
    7.4315785778682286E-01 
    7.5131316780347934E-01 
    7.6061213090437518E-01 
    7.6818015724373256E-01 
    7.7508497391195763E-01 
    7.8189849752326468E-01 
    7.8953740859367361E-01 
    7.9734114072821705E-01 
    7.9768902654082807E-01 
    7.2410039291049499E-01 
    3.8672856164865005E-01 
    1.5912182499286401E-02 
    5.8713769550665144E-02 
    1.2016460720820074E-01 
    1.8221894851605799E-01 
    2.2484234680818996E-01 
    2.6106119128065119E-01 
    3.0370808301281160E-01 
    3.5268549438037106E-01 
    4.0561250334636756E-01 
    4.7562911330722518E-01 
    5.5395995307431656E-01 
    6.1763006214000848E-01 
    6.7661389608550881E-01 
    7.2394187166708457E-01 
    7.2085889863547603E-01 
    5.1796917011830779E-01 
    1.0000001641539545E-06 
    3.3985180519507929E-06 
    9.6336969903149955E-06 
    9.7850115635717812E-06 
    5.9106655754835467E-06 
    9.4390919662036706E-06 
    5.9727427550608699E-05 
    1.5724436495011422E-04 
    3.2086481911224648E-04 
    2.1713921425983219E-03 
    1.4542503409972870E-02 
    6.0647405012112236E-02 
    2.0848271050132403E-01 
    3.8567900802408039E-01 
    5.1784125613276966E-01 
    5.1806918848570305E-01 
