# vtk DataFile Version 2.0
Pressure Field Data 
ASCII 
DATASET UNSTRUCTURED_GRID 

POINTS 7441 double 

    0.0000000000000000E+00     0.0000000000000000E+00     0.0000000000000000E+00 
    1.0000000000000000E+00     0.0000000000000000E+00     0.0000000000000000E+00 
    1.0000000000000000E+00     1.0000000000000000E+00     0.0000000000000000E+00 
    0.0000000000000000E+00     1.0000000000000000E+00     0.0000000000000000E+00 
    2.6388888888826079E-01     0.0000000000000000E+00     0.0000000000000000E+00 
    4.8611111110983568E-01     0.0000000000000000E+00     0.0000000000000000E+00 
    4.5833333333213888E-01     0.0000000000000000E+00     0.0000000000000000E+00 
    4.3055555555444203E-01     0.0000000000000000E+00     0.0000000000000000E+00 
    4.0277777777674523E-01     0.0000000000000000E+00     0.0000000000000000E+00 
    3.7499999999904832E-01     0.0000000000000000E+00     0.0000000000000000E+00 
    3.4722222222135152E-01     0.0000000000000000E+00     0.0000000000000000E+00 
    3.1944444444365461E-01     0.0000000000000000E+00     0.0000000000000000E+00 
    2.9166666666595781E-01     0.0000000000000000E+00     0.0000000000000000E+00 
    5.1388888888760953E-01     0.0000000000000000E+00     0.0000000000000000E+00 
    2.3611111111056399E-01     0.0000000000000000E+00     0.0000000000000000E+00 
    2.0833333333286691E-01     0.0000000000000000E+00     0.0000000000000000E+00 
    1.8055555555516931E-01     0.0000000000000000E+00     0.0000000000000000E+00 
    1.5277777777747251E-01     0.0000000000000000E+00     0.0000000000000000E+00 
    1.2499999999976660E-01     0.0000000000000000E+00     0.0000000000000000E+00 
    9.7222222222041035E-02     0.0000000000000000E+00     0.0000000000000000E+00 
    6.9444444444307585E-02     0.0000000000000000E+00     0.0000000000000000E+00 
    4.1666666666583550E-02     0.0000000000000000E+00     0.0000000000000000E+00 
    7.6388888888826756E-01     0.0000000000000000E+00     0.0000000000000000E+00 
    9.8611111111107452E-01     0.0000000000000000E+00     0.0000000000000000E+00 
    9.5833333333322368E-01     0.0000000000000000E+00     0.0000000000000000E+00 
    9.3055555555537284E-01     0.0000000000000000E+00     0.0000000000000000E+00 
    9.0277777777752188E-01     0.0000000000000000E+00     0.0000000000000000E+00 
    8.7499999999967093E-01     0.0000000000000000E+00     0.0000000000000000E+00 
    8.4722222222182020E-01     0.0000000000000000E+00     0.0000000000000000E+00 
    8.1944444444396924E-01     0.0000000000000000E+00     0.0000000000000000E+00 
    7.9166666666611840E-01     0.0000000000000000E+00     0.0000000000000000E+00 
    1.3888888888862600E-02     0.0000000000000000E+00     0.0000000000000000E+00 
    7.3611111111041660E-01     0.0000000000000000E+00     0.0000000000000000E+00 
    7.0833333333256565E-01     0.0000000000000000E+00     0.0000000000000000E+00 
    6.8055555555471492E-01     0.0000000000000000E+00     0.0000000000000000E+00 
    6.5277777777686397E-01     0.0000000000000000E+00     0.0000000000000000E+00 
    6.2499999999901323E-01     0.0000000000000000E+00     0.0000000000000000E+00 
    5.9722222222116228E-01     0.0000000000000000E+00     0.0000000000000000E+00 
    5.6944444444331144E-01     0.0000000000000000E+00     0.0000000000000000E+00 
    5.4166666666546048E-01     0.0000000000000000E+00     0.0000000000000000E+00 
    2.7777777777710932E-01     0.0000000000000000E+00     0.0000000000000000E+00 
    4.9999999999868411E-01     0.0000000000000000E+00     0.0000000000000000E+00 
    4.7222222222098731E-01     0.0000000000000000E+00     0.0000000000000000E+00 
    4.4444444444329051E-01     0.0000000000000000E+00     0.0000000000000000E+00 
    4.1666666666559360E-01     0.0000000000000000E+00     0.0000000000000000E+00 
    3.8888888888789669E-01     0.0000000000000000E+00     0.0000000000000000E+00 
    3.6111111111019989E-01     0.0000000000000000E+00     0.0000000000000000E+00 
    3.3333333333250298E-01     0.0000000000000000E+00     0.0000000000000000E+00 
    3.0555555555480618E-01     0.0000000000000000E+00     0.0000000000000000E+00 
    5.2777777777653501E-01     0.0000000000000000E+00     0.0000000000000000E+00 
    2.4999999999941239E-01     0.0000000000000000E+00     0.0000000000000000E+00 
    2.2222222222171559E-01     0.0000000000000000E+00     0.0000000000000000E+00 
    1.9444444444401809E-01     0.0000000000000000E+00     0.0000000000000000E+00 
    1.6666666666632060E-01     0.0000000000000000E+00     0.0000000000000000E+00 
    1.3888888888862441E-01     0.0000000000000000E+00     0.0000000000000000E+00 
    1.1111111111090879E-01     0.0000000000000000E+00     0.0000000000000000E+00 
    8.3333333333173276E-02     0.0000000000000000E+00     0.0000000000000000E+00 
    5.5555555555441907E-02     0.0000000000000000E+00     0.0000000000000000E+00 
    7.4999999999934208E-01     0.0000000000000000E+00     0.0000000000000000E+00 
    9.7222222222214916E-01     0.0000000000000000E+00     0.0000000000000000E+00 
    9.4444444444429820E-01     0.0000000000000000E+00     0.0000000000000000E+00 
    9.1666666666644736E-01     0.0000000000000000E+00     0.0000000000000000E+00 
    8.8888888888859641E-01     0.0000000000000000E+00     0.0000000000000000E+00 
    8.6111111111074556E-01     0.0000000000000000E+00     0.0000000000000000E+00 
    8.3333333333289472E-01     0.0000000000000000E+00     0.0000000000000000E+00 
    8.0555555555504388E-01     0.0000000000000000E+00     0.0000000000000000E+00 
    7.7777777777719292E-01     0.0000000000000000E+00     0.0000000000000000E+00 
    2.7777777777725190E-02     0.0000000000000000E+00     0.0000000000000000E+00 
    7.2222222222149113E-01     0.0000000000000000E+00     0.0000000000000000E+00 
    6.9444444444364029E-01     0.0000000000000000E+00     0.0000000000000000E+00 
    6.6666666666578944E-01     0.0000000000000000E+00     0.0000000000000000E+00 
    6.3888888888793860E-01     0.0000000000000000E+00     0.0000000000000000E+00 
    6.1111111111008776E-01     0.0000000000000000E+00     0.0000000000000000E+00 
    5.8333333333223691E-01     0.0000000000000000E+00     0.0000000000000000E+00 
    5.5555555555438596E-01     0.0000000000000000E+00     0.0000000000000000E+00 
    1.0000000000000000E+00     2.6388888888826079E-01     0.0000000000000000E+00 
    1.0000000000000000E+00     4.8611111110983568E-01     0.0000000000000000E+00 
    1.0000000000000000E+00     4.5833333333213888E-01     0.0000000000000000E+00 
    1.0000000000000000E+00     4.3055555555444203E-01     0.0000000000000000E+00 
    1.0000000000000000E+00     4.0277777777674523E-01     0.0000000000000000E+00 
    1.0000000000000000E+00     3.7499999999904832E-01     0.0000000000000000E+00 
    1.0000000000000000E+00     3.4722222222135152E-01     0.0000000000000000E+00 
    1.0000000000000000E+00     3.1944444444365461E-01     0.0000000000000000E+00 
    1.0000000000000000E+00     2.9166666666595781E-01     0.0000000000000000E+00 
    1.0000000000000000E+00     5.1388888888760953E-01     0.0000000000000000E+00 
    1.0000000000000000E+00     2.3611111111056399E-01     0.0000000000000000E+00 
    1.0000000000000000E+00     2.0833333333286691E-01     0.0000000000000000E+00 
    1.0000000000000000E+00     1.8055555555516931E-01     0.0000000000000000E+00 
    1.0000000000000000E+00     1.5277777777747251E-01     0.0000000000000000E+00 
    1.0000000000000000E+00     1.2499999999976660E-01     0.0000000000000000E+00 
    1.0000000000000000E+00     9.7222222222041035E-02     0.0000000000000000E+00 
    1.0000000000000000E+00     6.9444444444307585E-02     0.0000000000000000E+00 
    1.0000000000000000E+00     4.1666666666583550E-02     0.0000000000000000E+00 
    1.0000000000000000E+00     7.6388888888826756E-01     0.0000000000000000E+00 
    1.0000000000000000E+00     9.8611111111107452E-01     0.0000000000000000E+00 
    1.0000000000000000E+00     9.5833333333322368E-01     0.0000000000000000E+00 
    1.0000000000000000E+00     9.3055555555537284E-01     0.0000000000000000E+00 
    1.0000000000000000E+00     9.0277777777752188E-01     0.0000000000000000E+00 
    1.0000000000000000E+00     8.7499999999967093E-01     0.0000000000000000E+00 
    1.0000000000000000E+00     8.4722222222182020E-01     0.0000000000000000E+00 
    1.0000000000000000E+00     8.1944444444396924E-01     0.0000000000000000E+00 
    1.0000000000000000E+00     7.9166666666611840E-01     0.0000000000000000E+00 
    1.0000000000000000E+00     1.3888888888862600E-02     0.0000000000000000E+00 
    1.0000000000000000E+00     7.3611111111041660E-01     0.0000000000000000E+00 
    1.0000000000000000E+00     7.0833333333256565E-01     0.0000000000000000E+00 
    1.0000000000000000E+00     6.8055555555471492E-01     0.0000000000000000E+00 
    1.0000000000000000E+00     6.5277777777686397E-01     0.0000000000000000E+00 
    1.0000000000000000E+00     6.2499999999901323E-01     0.0000000000000000E+00 
    1.0000000000000000E+00     5.9722222222116228E-01     0.0000000000000000E+00 
    1.0000000000000000E+00     5.6944444444331144E-01     0.0000000000000000E+00 
    1.0000000000000000E+00     5.4166666666546048E-01     0.0000000000000000E+00 
    1.0000000000000000E+00     2.7777777777710932E-01     0.0000000000000000E+00 
    1.0000000000000000E+00     4.9999999999868411E-01     0.0000000000000000E+00 
    1.0000000000000000E+00     4.7222222222098731E-01     0.0000000000000000E+00 
    1.0000000000000000E+00     4.4444444444329051E-01     0.0000000000000000E+00 
    1.0000000000000000E+00     4.1666666666559360E-01     0.0000000000000000E+00 
    1.0000000000000000E+00     3.8888888888789669E-01     0.0000000000000000E+00 
    1.0000000000000000E+00     3.6111111111019989E-01     0.0000000000000000E+00 
    1.0000000000000000E+00     3.3333333333250298E-01     0.0000000000000000E+00 
[...]
CELL_DATA 14592 
SCALARS Pressure double 1 
LOOKUP_TABLE default 

    8.6758964958074536E-01 
    8.6178625851055202E-01 
    8.5465226356511370E-01 
    8.6340621632244785E-01 
    8.4906586118963845E-01 
    8.4977219379135294E-01 
    8.4354689521106352E-01 
    8.5702477547372558E-01 
    8.4308421504127351E-01 
    8.3775848091331440E-01 
    8.3303821915239928E-01 
    8.3745495128683123E-01 
    8.5818597586036738E-01 
    8.5122967379530989E-01 
    8.4375813547779388E-01 
    8.5203628089742101E-01 
    8.2842270961541264E-01 
    8.2684647490857577E-01 
    8.2123040570374173E-01 
    8.3143773735345028E-01 
    8.1872682680420139E-01 
    8.2351610079858673E-01 
    8.2199081852485634E-01 
    8.3043912244495410E-01 
    8.1212742035499752E-01 
    8.0769039852062896E-01 
    7.9883395664008572E-01 
    8.1392465002845826E-01 
    8.3684229880864569E-01 
    8.3670624909081681E-01 
    8.2909300296282207E-01 
    8.4451170341899218E-01 
    8.2582137600586314E-01 
    8.2386268776650784E-01 
    8.1581923009290713E-01 
    8.1839119338689637E-01 
    8.0825243832930804E-01 
    8.0793551450328516E-01 
    7.9986095012177982E-01 
    8.1611517945941603E-01 
    8.0110429633355262E-01 
    7.9287186195677850E-01 
    7.8534095496926026E-01 
    7.9221917969612343E-01 
    8.1039560771489993E-01 
    8.0793432280042699E-01 
    7.9939304620615492E-01 
    8.0215388205927018E-01 
    8.4506232184144570E-01 
    8.3701806220267239E-01 
    8.2889672818714843E-01 
    8.3731032534749161E-01 
    8.2078009595572443E-01 
    8.2069905584343517E-01 
    8.1249712308928201E-01 
    8.2882471954264436E-01 
    8.1282029861777261E-01 
    8.0392736908598050E-01 
    7.9318834331283616E-01 
    8.0464902091993973E-01 
    8.2864569125057108E-01 
    8.1970533978502891E-01 
    8.1206913031133077E-01 
    8.1855852643687754E-01 
    3.4981818238219736E-01 
    3.4879483924391419E-01 
    3.5684030992653204E-01 
    3.3954497117196358E-01 
    3.5566565944045619E-01 
    3.4697874324134548E-01 
    3.4619793968984647E-01 
    3.3887977016775594E-01 
    3.6298560704423299E-01 
    3.6166598488447654E-01 
    3.6822689618679394E-01 
    3.5358327144334167E-01 
    3.2994150574841158E-01 
    3.2962143769279351E-01 
    3.3783172940027067E-01 
    3.2090404416440232E-01 
    3.6675876939376706E-01 
    3.5929965939086900E-01 
    3.5825424775591985E-01 
    3.5268059947628905E-01 
    3.5115513622425976E-01 
    3.4448444926324512E-01 
    3.3712733560545627E-01 
    3.4495034649423151E-01 
    3.5052471469222984E-01 
    3.4379667788711427E-01 
    3.4354945149733768E-01 
    3.3714166741417712E-01 
    3.3746768050647002E-01 
    3.2939969907975314E-01 
    3.2950760059282064E-01 
    3.2098225606040981E-01 
    3.7254229048637333E-01 
    3.7094103940796480E-01 
    3.7599173312717898E-01 
    3.6410519281662063E-01 
    3.7394729959449580E-01 
    3.6799398776493397E-01 
    3.6674346530205748E-01 
    3.6290940559868384E-01 
    3.7745781511603049E-01 
    3.7328197994832918E-01 
    3.7641790295950994E-01 
    3.7144757592895450E-01 
    3.5642413943673734E-01 
    3.5564069019595868E-01 
    3.6077182106915512E-01 
    3.4953790916272526E-01 
    3.1237539160918121E-01 
    3.1309533873482331E-01 
    3.2173892933188525E-01 
    3.0493261372924879E-01 
    3.2236585123489775E-01 
    3.1481233550813620E-01 
    3.1839265207881950E-01 
    3.0839434633326424E-01 
    3.3025422984102515E-01 
    3.3089513303091639E-01 
    3.3717233980805444E-01 
    3.2470947580764220E-01 
    2.9703084433475907E-01 
    2.9600529220130845E-01 
    3.0636191165650573E-01 
    2.8483307138821112E-01 
    7.4746939641725363E-01 
    7.4990313493635175E-01 
    7.5393953242188905E-01 
    7.4839687209835237E-01 
    7.5696143492402890E-01 
    7.5631351807757763E-01 
    7.6001697463903584E-01 
    7.5196914186167196E-01 
    7.6031213124470098E-01 
    7.6278313674728127E-01 
    7.6073050939964548E-01 
    7.6335862963108736E-01 
    7.5114583584961503E-01 
    7.5555612140526340E-01 
    7.6031082572860387E-01 
    7.5503843406499649E-01 
    7.6354934316114631E-01 
    7.6888310688481809E-01 
    7.7229326625306471E-01 
    7.6729224635994409E-01 
    7.7813757193441790E-01 
    7.7475872607195262E-01 
    7.7647111463731844E-01 
    7.6919579011032668E-01 
    7.8198309837093649E-01 
    7.8817580925709430E-01 
    7.9223555233668297E-01 
    7.8288475655635748E-01 
    7.6515064403505328E-01 
    7.6566054437894338E-01 
    7.7134670240092429E-01 
    7.6020106279517574E-01 
    7.7049304953667275E-01 
    7.7741945885210373E-01 
    7.8366141068625850E-01 
    7.7817260853102632E-01 
    7.9067709810512243E-01 
    7.9124408347243969E-01 
    7.9794462799801602E-01 
    7.8509406762401890E-01 
    7.9715478879355672E-01 
    8.0409816802378176E-01 
    8.1067422676291401E-01 
    8.0456078623566141E-01 
    7.8602378751007840E-01 
    7.9144656479213382E-01 
    7.9792702907844926E-01 
    7.8997053644424087E-01 
    7.5967426538986871E-01 
    7.6544762582200865E-01 
    7.7160458235445706E-01 
    7.6485202154823129E-01 
    7.7780765743967328E-01 
    7.7798890490729422E-01 
    7.8474207623619141E-01 
    7.7118664577372731E-01 
    7.8362851338234152E-01 
    7.9013618120944240E-01 
    7.9496848034715972E-01 
    7.9140832962957086E-01 
    7.7053402881708766E-01 
    7.7740473587258196E-01 
    7.8458513068886682E-01 
    7.7704027896379180E-01 
    2.9130546613586406E-01 
    2.9835906683356678E-01 
    2.9247849971460216E-01 
    3.1121479735034430E-01 
    2.9884121265486513E-01 
    3.1229104590382567E-01 
    3.1688358598230254E-01 
    3.1915087586375018E-01 
    2.9034384026789145E-01 
    2.9599787278878392E-01 
    2.8823945963944630E-01 
    3.0922479582561868E-01 
    3.3083994815992773E-01 
    3.3600196513769187E-01 
    3.2875547783702841E-01 
    3.4559800553299341E-01 
    2.9412454669197730E-01 
    3.0731654240370165E-01 
    3.1309094394509829E-01 
    3.1447253569350514E-01 
    3.2547478295783672E-01 
    3.3167329179173427E-01 
    3.4258946536595491E-01 
    3.2656428062840703E-01 
    3.3129400341588600E-01 
    3.4284768897876738E-01 
    3.4104897900972092E-01 
    3.4744888824406095E-01 
    3.3313882733563371E-01 
    3.4371572030906250E-01 
    3.4732051781636086E-01 
    3.5008232354401542E-01 
    2.8669787119314738E-01 
    2.9271796998895788E-01 
    2.8528893711084619E-01 
    3.0615276282110077E-01 
    2.9126110753590750E-01 
    3.0501928118306376E-01 
    3.1147042810641823E-01 
    3.1245201064254380E-01 
    2.8361510819871733E-01 
    2.8928408982720405E-01 
    2.8149141144092638E-01 
    3.0299863288558510E-01 
    3.2599855874689204E-01 
    3.3272244083143449E-01 
    3.2748099858012142E-01 
    3.3607767532299326E-01 
    3.5669597166830730E-01 
    3.5861026117526423E-01 
    3.5552719010911854E-01 
    3.6018052737574668E-01 
    3.5421375744145805E-01 
    3.5984241020119972E-01 
    3.6226100997755117E-01 
    3.6214677858044064E-01 
    3.5020963587896980E-01 
    3.5229054572885238E-01 
    3.4814763388385450E-01 
    3.5879673890141794E-01 
    3.6299075010092902E-01 
    3.6591788607047054E-01 
    3.6791632960983311E-01 
    3.7245203349425116E-01 
    4.3528810983991184E-01 
    4.4051897160859338E-01 
    4.4415387157874031E-01 
    4.3482870482567609E-01 
    4.4937827391867952E-01 
    4.4937827391867952E-01 
    4.4937827391867952E-01 
    4.4013428624233147E-01 
    4.5415666808197230E-01 
    4.5534195305480529E-01 
    4.6304073607487323E-01 
    4.4937827391867952E-01 
    4.3629476144672646E-01 
    4.4040662558607241E-01 
    4.4937827391867952E-01 
    4.3272311808848796E-01 
    4.6413681552411623E-01 
    4.5566627893576317E-01 
    4.5722957127093472E-01 
    4.4937827391867952E-01 
    4.5302731187363837E-01 
    4.5231451315028853E-01 
    4.4940944693609575E-01 
    4.5052328104923289E-01 
    4.5663920396195917E-01 
    4.5888358037880517E-01 
    4.6314810491749187E-01 
    4.5207655377421208E-01 
    4.4796333671490096E-01 
    4.4486514404172506E-01 
    4.4305510476140791E-01 
    4.3590688635975172E-01 
    4.7384548456792841E-01 
    4.7454689733119582E-01 
    4.8642229031504325E-01 
    4.6680655541829907E-01 
    4.9103782551812680E-01 
    4.8403099437882946E-01 
    4.8896868281234052E-01 
    4.7219446436109169E-01 
    5.0512196835881662E-01 
    5.1042092567774733E-01 
    5.2614362267114956E-01 
    5.0240764608941690E-01 
    4.6624511854609979E-01 
    4.7046177525492155E-01 
    4.8069171281379292E-01 
    4.6549649435080431E-01 
    4.3033369515480341E-01 
    4.3591226697993707E-01 
    4.3841084051453072E-01 
    4.3031166414140370E-01 
    4.4006756595481278E-01 
    4.3437886150006066E-01 
    4.3558369469090569E-01 
    4.2693110946709711E-01 
    4.4746094546435428E-01 
    4.5007216123705673E-01 
    4.5823777762019252E-01 
    4.4435314834530137E-01 
    4.2031266301565040E-01 
    4.1687949265786850E-01 
    4.2762843257746597E-01 
    4.0977201465336754E-01 
    6.7200497028736517E-01 
    6.7384320838053635E-01 
    6.6391874911728455E-01 
    6.8541463850063356E-01 
    6.6591153809206494E-01 
    6.7821392285091942E-01 
    6.7981893216738798E-01 
    6.8761865282484158E-01 
    6.5464354659867885E-01 
    6.5616807625447127E-01 
    6.4577225881897371E-01 
    6.6830761945920658E-01 
    6.9913771335299069E-01 
    7.0184519921920785E-01 
    6.9167797484669413E-01 
    7.1263352873886798E-01 
    6.4759233208843892E-01 
    6.5903372050955511E-01 
    6.6042569352179348E-01 
    6.6928318238659879E-01 
    6.7136565989400099E-01 
    6.8133919023447054E-01 
    6.9204554907503901E-01 
    6.8071912505645371E-01 
    6.7246417374722867E-01 
    6.8292548653353147E-01 
    6.8386535338922472E-01 
    6.9250296538346090E-01 
    6.9169215563251751E-01 
    7.0257043678620745E-01 
    7.0235142640406023E-01 
    7.1401867501173188E-01 
    6.3821289585254448E-01 
    6.4017864710223837E-01 
    6.3143809352242686E-01 
    6.5104919930068361E-01 
    6.3353619078964774E-01 
    6.4399142404896570E-01 
    6.4586850135853613E-01 
    6.5270205481104249E-01 
    6.2527516378620995E-01 
    6.2774245105301629E-01 
    6.2027835552158028E-01 
    6.3780627178505100E-01 
    6.6321019506006107E-01 
    6.6459580767490289E-01 
    6.5595149596544267E-01 
    6.7475494307755934E-01 
    7.2377483746111249E-01 
    7.2270635160631669E-01 
    7.1247537553897566E-01 
    7.3123647435846306E-01 
    7.1229479108055926E-01 
    7.2175156172890542E-01 
    7.2181632250983130E-01 
    7.3097219412353487E-01 
    7.0257924552810769E-01 
    7.0296964435946385E-01 
    6.9394904826838222E-01 
    7.1237469683948418E-01 
    7.3953685249521339E-01 
    7.3644314770923558E-01 
    7.3132943104740467E-01 
    7.4097145143611420E-01 
    1.0754322110381048E-01 
    1.1669119243210924E-01 
    1.2718741139937428E-01 
    1.1514883176316099E-01 
    1.3641273948422664E-01 
    1.3544348500330733E-01 
    1.4493986641101947E-01 
    1.2482724812033844E-01 
    1.4649257918828684E-01 
    1.5555721766059583E-01 
    1.6522104324689421E-01 
    1.5488787023171241E-01 
    1.2362682843225485E-01 
    1.3379460407746288E-01 
    1.4435317893548633E-01 
    1.3337586075908930E-01 
    1.7412817655881369E-01 
    1.7357240268372570E-01 
    1.8250984702683126E-01 
    1.6409783237918724E-01 
    1.8210336671702337E-01 
    1.7309334351827138E-01 
    1.7338161646433869E-01 
    1.6379695819774054E-01 
    1.9083112133240671E-01 
    1.9080800113128624E-01 
    1.9909090110055472E-01 
    1.8273560927809060E-01 
    1.5415843070802784E-01 
    1.5419259982865544E-01 
    1.6426703885633806E-01 
    1.4384440206055410E-01 
    1.8354714092505314E-01 
    1.9258898581672509E-01 
    2.0265435453132385E-01 
    1.9194937176000354E-01 
    2.0553170356198949E-01 
    2.1069916122156682E-01 
    2.1342772598175314E-01 
    2.0068111941077771E-01 
    2.0986450385438249E-01 
    2.1654834069017831E-01 
    2.2311183653092437E-01 
    2.1733684050366928E-01 
    1.9980947173780622E-01 
    2.0802605164070134E-01 
    2.1826308139569234E-01 
    2.0688723613025692E-01 
    1.4501448633842207E-01 
    1.5506829888710605E-01 
    1.6457040612219487E-01 
    1.5597284719999180E-01 
    1.7440874384125787E-01 
    1.7438716730967180E-01 
    1.8358634569128415E-01 
    1.6539981617865662E-01 
    1.8396256171314024E-01 
    1.9300134730170015E-01 
    1.9983390881017035E-01 
    1.9327673306471818E-01 
    1.6612486731353865E-01 
    1.7506508375549840E-01 
    1.8344768159971864E-01 
    1.7581910147756968E-01 
    7.1944143641184866E-01 
    7.1574142134655472E-01 
    7.2303586969355171E-01 
    7.0481528379406910E-01 
    7.1928366859122150E-01 
    7.0856572360871461E-01 
    7.0500743174201785E-01 
    7.0153701418469405E-01 
    7.2625014615091354E-01 
    7.2255888393613144E-01 
    7.2927379447151419E-01 
    7.1206014768044201E-01 
    6.9143286332865683E-01 
    6.8871093326012967E-01 
    6.9453154891620583E-01 
    6.8006639085977705E-01 
    7.2576618185322717E-01 
    7.1585889397168623E-01 
    7.1322704409784432E-01 
    7.0848353063553571E-01 
    7.0456133870455262E-01 
    6.9885906619318217E-01 
    6.8935482934892023E-01 
    6.9660332221298027E-01 
    7.0683928747194702E-01 
    6.9367671327270597E-01 
    6.8925875303121853E-01 
    6.8596622690206788E-01 
    6.9099175629346998E-01 
    6.8745311098954365E-01 
    6.8351099136967530E-01 
    6.8203549666319874E-01 
    7.3211569741801685E-01 
    7.2871925371435631E-01 
    7.3500460077272800E-01 
    7.1900067900248987E-01 
    7.3185292312422290E-01 
    7.2134278090984105E-01 
    7.2343065206834201E-01 
    7.1592639560162863E-01 
    7.3830437983229869E-01 
    7.3624505150912778E-01 
    7.4149855339627069E-01 
    7.2850793812481607E-01 
    7.1245612919174517E-01 
    7.0816516160142196E-01 
    7.1411406687491841E-01 
    6.9662027591096365E-01 
    6.7044789288118467E-01 
    6.6622685819246930E-01 
    6.7269846875372385E-01 
    6.5570021346713980E-01 
    6.6834349079324140E-01 
    6.5738825864331840E-01 
    6.5267205369451675E-01 
    6.5125131861013030E-01 
    6.7494947735436317E-01 
    6.7055214589790491E-01 
    6.7760163539760532E-01 
    6.5916887744776131E-01 
    6.4083681615843213E-01 
    6.3571470307710931E-01 
    6.4153138311641822E-01 
    6.2485667312907256E-01 
    2.5060194146232334E-01 
    2.4729131052003872E-01 
    2.4498659041333570E-01 
    2.4341627067671365E-01 
    2.4089983079174257E-01 
    2.3940933207632065E-01 
    2.3938126744749963E-01 
    2.4101100691939620E-01 
    2.3765164056604618E-01 
    2.3445287249675881E-01 
    2.3124529245688971E-01 
    2.3742274383122508E-01 
    2.4101100691939620E-01 
    2.4101100691939620E-01 
    2.3970364645173470E-01 
    2.3881875043707670E-01 
    2.2698895253990409E-01 
    2.2776914007109525E-01 
    2.2343692173576149E-01 
    2.3329880004259695E-01 
    2.2588246241277649E-01 
    2.3109779339907210E-01 
    2.3015949561597085E-01 
    2.3464608717353611E-01 
    2.2076716657488732E-01 
    2.1928033873457090E-01 
    2.1307529268405620E-01 
    2.2446258944078551E-01 
    2.3803549275850727E-01 
    2.3763059150447344E-01 
    2.3530343182604782E-01 
    2.3679388414275027E-01 
    2.2198930924574287E-01 
    2.1649747855520193E-01 
    2.1089419303085694E-01 
    2.1717417475985790E-01 
    2.0446390523301106E-01 
    2.0498350929898451E-01 
    1.9891569640489590E-01 
    2.1202588203994713E-01 
    1.9795259872388510E-01 
    1.9091311355196644E-01 
    1.8383066546609084E-01 
    1.9121929027213330E-01 
    2.1450864045014628E-01 
    2.0820685415537499E-01 
    2.0115321203119380E-01 
    2.0710671494016913E-01 
    2.3899773726012724E-01 
    2.3535956760167276E-01 
    2.3144897947322562E-01 
    2.3628697462588111E-01 
    2.2831433275917007E-01 
    2.2379791179290665E-01 
    2.2012049215103349E-01 
    2.3096562487437289E-01 
    2.2412807743867927E-01 
    2.1937460173910139E-01 
    2.1315745133821828E-01 
    2.2135330521866337E-01 
    2.3335266306515023E-01 
    2.2845955449513769E-01 
    2.2227059717182135E-01 
    2.2953874252581424E-01 
    4.9819686095964777E-01 
    4.9555892109152078E-01 
    4.8608064128759865E-01 
    5.0238474243587228E-01 
    4.8301063126914268E-01 
    4.8951416761780975E-01 
    4.8610023155248611E-01 
    4.9862430416484932E-01 
    4.7343605680352330E-01 
    4.7041996630979821E-01 
    4.6076034367601115E-01 
    4.7685821837336756E-01 
    4.9704432051825820E-01 
    4.9316478644209355E-01 
    4.9098707198289659E-01 
    5.0213029182652702E-01 
    4.5795879046574139E-01 
    4.6469920331278314E-01 
    4.6198864949701735E-01 
    4.7377131064842676E-01 
    4.6798251601811902E-01 
    4.7611734174117659E-01 
    4.7986118781561782E-01 
    4.7940045079177707E-01 
    4.6527323678818355E-01 
    4.7004648531857018E-01 
    4.6728119242322996E-01 
    4.7633636912041322E-01 
    4.8724261715909190E-01 
    4.8534437864141611E-01 
    4.8161290800463896E-01 
    4.9842359861418739E-01 
    4.4805664863896749E-01 
    4.4552309276648827E-01 
    4.3517364051328977E-01 
    4.5285455359612881E-01 
    4.3292333313227876E-01 
    4.4111805024596651E-01 
    4.3923940793348060E-01 
    4.5054717263120725E-01 
    4.2183085305468027E-01 
    4.1988554725736016E-01 
    4.0707369785755476E-01 
    4.2933379800673460E-01 
    4.5713593976982103E-01 
    4.5499211756246610E-01 
    4.4656857703590946E-01 
    4.6069394482134007E-01 
    5.0928841702587679E-01 
    5.0582806915946132E-01 
    4.9135676533868783E-01 
    5.1684269145602812E-01 
    4.8796445287133194E-01 
    4.9940387646155765E-01 
    4.9643479670961288E-01 
    5.1348128539639193E-01 
    4.7429140286320148E-01 
    4.7090585809341867E-01 
    4.6958855487654566E-01 
    4.8279578253768851E-01 
    5.2410773621818962E-01 
    5.2054677653911197E-01 
    5.0678991103306259E-01 
    5.3094704188886765E-01 
    6.4838411895370041E-01 
    6.4298186556546311E-01 
    6.4271859943151788E-01 
    6.3798438012684633E-01 
    6.3727803144292938E-01 
    6.3286454463275277E-01 
    6.2759303820617374E-01 
    6.3408672602940075E-01 
    6.3639000001054025E-01 
    6.3013948504275819E-01 
    6.2896171917029320E-01 
    6.2525951347473385E-01 
    6.3648184448663703E-01 
    6.3236627082622976E-01 
    6.2532130534289587E-01 
    6.2507380850165117E-01 
    6.2209642424285150E-01 
    6.1694379690743428E-01 
    6.1025519571523190E-01 
    6.1847624180711225E-01 
    6.0604726511227169E-01 
    6.0835720684235517E-01 
    6.1064593343339646E-01 
    6.1334702525744667E-01 
    5.9979653456423021E-01 
    5.9781079338579846E-01 
    5.9234336560091050E-01 
    6.0557512473163211E-01 
    6.2061588592501837E-01 
    6.1560594660412693E-01 
    6.0883610615002692E-01 
    6.1677459961086756E-01 
    6.2047402823847553E-01 
    6.1300735129014361E-01 
    6.1082269103064035E-01 
    6.0783468493732840E-01 
    6.0272077605450902E-01 
    5.9742232633196357E-01 
    5.8929460027588187E-01 
    6.0037779271682723E-01 
    6.0000320109465766E-01 
    5.9138286840227305E-01 
    5.8805730041172255E-01 
    5.8609078434794437E-01 
    5.9605011495989768E-01 
    5.8832396753878879E-01 
    5.8449022037728204E-01 