# vtk DataFile Version 2.0
Pressure Field Data 
ASCII 
DATASET UNSTRUCTURED_GRID 

POINTS 1681 double 

    0.0000000000000000E+00     0.0000000000000000E+00     0.0000000000000000E+00 
    1.0000000000000000E+00     0.0000000000000000E+00     0.0000000000000000E+00 
    1.0000000000000000E+00     1.0000000000000000E+00     0.0000000000000000E+00 
    0.0000000000000000E+00     1.0000000000000000E+00     0.0000000000000000E+00 
    5.2499999999875258E-01     0.0000000000000000E+00     0.0000000000000000E+00 
    7.4999999999856765E-02     0.0000000000000000E+00     0.0000000000000000E+00 
    1.2499999999975850E-01     0.0000000000000000E+00     0.0000000000000000E+00 
    1.7499999999962990E-01     0.0000000000000000E+00     0.0000000000000000E+00 
    2.2499999999948389E-01     0.0000000000000000E+00     0.0000000000000000E+00 
    2.7499999999933789E-01     0.0000000000000000E+00     0.0000000000000000E+00 
    3.2499999999919210E-01     0.0000000000000000E+00     0.0000000000000000E+00 
    3.7499999999904610E-01     0.0000000000000000E+00     0.0000000000000000E+00 
    4.2499999999890020E-01     0.0000000000000000E+00     0.0000000000000000E+00 
    4.7499999999875958E-01     0.0000000000000000E+00     0.0000000000000000E+00 
    2.4999999999949701E-02     0.0000000000000000E+00     0.0000000000000000E+00 
    5.7499999999887907E-01     0.0000000000000000E+00     0.0000000000000000E+00 
    6.2499999999901101E-01     0.0000000000000000E+00     0.0000000000000000E+00 
    6.7499999999914273E-01     0.0000000000000000E+00     0.0000000000000000E+00 
    7.2499999999927467E-01     0.0000000000000000E+00     0.0000000000000000E+00 
    7.7499999999940661E-01     0.0000000000000000E+00     0.0000000000000000E+00 
    8.2499999999953844E-01     0.0000000000000000E+00     0.0000000000000000E+00 
    8.7499999999967026E-01     0.0000000000000000E+00     0.0000000000000000E+00 
    9.2499999999980220E-01     0.0000000000000000E+00     0.0000000000000000E+00 
    9.7499999999993414E-01     0.0000000000000000E+00     0.0000000000000000E+00 
    5.4999999999881310E-01     0.0000000000000000E+00     0.0000000000000000E+00 
    9.9999999999814140E-02     0.0000000000000000E+00     0.0000000000000000E+00 
    1.4999999999970290E-01     0.0000000000000000E+00     0.0000000000000000E+00 
    1.9999999999955689E-01     0.0000000000000000E+00     0.0000000000000000E+00 
    2.4999999999941089E-01     0.0000000000000000E+00     0.0000000000000000E+00 
    2.9999999999926502E-01     0.0000000000000000E+00     0.0000000000000000E+00 
    3.4999999999911913E-01     0.0000000000000000E+00     0.0000000000000000E+00 
    3.9999999999897312E-01     0.0000000000000000E+00     0.0000000000000000E+00 
    4.4999999999882723E-01     0.0000000000000000E+00     0.0000000000000000E+00 
    4.9999999999869210E-01     0.0000000000000000E+00     0.0000000000000000E+00 
    4.9999999999899403E-02     0.0000000000000000E+00     0.0000000000000000E+00 
    5.9999999999894504E-01     0.0000000000000000E+00     0.0000000000000000E+00 
    6.4999999999907687E-01     0.0000000000000000E+00     0.0000000000000000E+00 
    6.9999999999920870E-01     0.0000000000000000E+00     0.0000000000000000E+00 
    7.4999999999934064E-01     0.0000000000000000E+00     0.0000000000000000E+00 
    7.9999999999947247E-01     0.0000000000000000E+00     0.0000000000000000E+00 
    8.4999999999960441E-01     0.0000000000000000E+00     0.0000000000000000E+00 
    8.9999999999973623E-01     0.0000000000000000E+00     0.0000000000000000E+00 
    9.4999999999986817E-01     0.0000000000000000E+00     0.0000000000000000E+00 
    1.0000000000000000E+00     5.2499999999875258E-01     0.0000000000000000E+00 
    1.0000000000000000E+00     7.4999999999856765E-02     0.0000000000000000E+00 
    1.0000000000000000E+00     1.2499999999975850E-01     0.0000000000000000E+00 
    1.0000000000000000E+00     1.7499999999962990E-01     0.0000000000000000E+00 
    1.0000000000000000E+00     2.2499999999948389E-01     0.0000000000000000E+00 
    1.0000000000000000E+00     2.7499999999933789E-01     0.0000000000000000E+00 
    1.0000000000000000E+00     3.2499999999919210E-01     0.0000000000000000E+00 
    1.0000000000000000E+00     3.7499999999904610E-01     0.0000000000000000E+00 
    1.0000000000000000E+00     4.2499999999890020E-01     0.0000000000000000E+00 
    1.0000000000000000E+00     4.7499999999875958E-01     0.0000000000000000E+00 
    1.0000000000000000E+00     2.4999999999949701E-02     0.0000000000000000E+00 
    1.0000000000000000E+00     5.7499999999887907E-01     0.0000000000000000E+00 
    1.0000000000000000E+00     6.2499999999901101E-01     0.0000000000000000E+00 
    1.0000000000000000E+00     6.7499999999914273E-01     0.0000000000000000E+00 
    1.0000000000000000E+00     7.2499999999927467E-01     0.0000000000000000E+00 
    1.0000000000000000E+00     7.7499999999940661E-01     0.0000000000000000E+00 
    1.0000000000000000E+00     8.2499999999953844E-01     0.0000000000000000E+00 
    1.0000000000000000E+00     8.7499999999967026E-01     0.0000000000000000E+00 
    1.0000000000000000E+00     9.2499999999980220E-01     0.0000000000000000E+00 
    1.0000000000000000E+00     9.7499999999993414E-01     0.0000000000000000E+00 
    1.0000000000000000E+00     5.4999999999881310E-01     0.0000000000000000E+00 
    1.0000000000000000E+00     9.9999999999814140E-02     0.0000000000000000E+00 
    1.0000000000000000E+00     1.4999999999970290E-01     0.0000000000000000E+00 
    1.0000000000000000E+00     1.9999999999955689E-01     0.0000000000000000E+00 
    1.0000000000000000E+00     2.4999999999941089E-01     0.0000000000000000E+00 
    1.0000000000000000E+00     2.9999999999926502E-01     0.0000000000000000E+00 
    1.0000000000000000E+00     3.4999999999911913E-01     0.0000000000000000E+00 
    1.0000000000000000E+00     3.9999999999897312E-01     0.0000000000000000E+00 
    1.0000000000000000E+00     4.4999999999882723E-01     0.0000000000000000E+00 
    1.0000000000000000E+00     4.9999999999869210E-01     0.0000000000000000E+00 
    1.0000000000000000E+00     4.9999999999899403E-02     0.0000000000000000E+00 
    1.0000000000000000E+00     5.9999999999894504E-01     0.0000000000000000E+00 
    1.0000000000000000E+00     6.4999999999907687E-01     0.0000000000000000E+00 
    1.0000000000000000E+00     6.9999999999920870E-01     0.0000000000000000E+00 
    1.0000000000000000E+00     7.4999999999934064E-01     0.0000000000000000E+00 
    1.0000000000000000E+00     7.9999999999947247E-01     0.0000000000000000E+00 
    1.0000000000000000E+00     8.4999999999960441E-01     0.0000000000000000E+00 
    1.0000000000000000E+00     8.9999999999973623E-01     0.0000000000000000E+00 
    1.0000000000000000E+00     9.4999999999986817E-01     0.0000000000000000E+00 
    4.7500000000196618E-01     1.0000000000000000E+00     0.0000000000000000E+00 
    9.2499999999968763E-01     1.0000000000000000E+00     0.0000000000000000E+00 
    8.7499999999961831E-01     1.0000000000000000E+00     0.0000000000000000E+00 
    8.2499999999982654E-01     1.0000000000000000E+00     0.0000000000000000E+00 
    7.7500000000017355E-01     1.0000000000000000E+00     0.0000000000000000E+00 
    7.2500000000052045E-01     1.0000000000000000E+00     0.0000000000000000E+00 
    6.7500000000086724E-01     1.0000000000000000E+00     0.0000000000000000E+00 
    6.2500000000121403E-01     1.0000000000000000E+00     0.0000000000000000E+00 
    5.7500000000156093E-01     1.0000000000000000E+00     0.0000000000000000E+00 
    5.2500000000189684E-01     1.0000000000000000E+00     0.0000000000000000E+00 
    9.7499999999989595E-01     1.0000000000000000E+00     0.0000000000000000E+00 
    4.2500000000176902E-01     1.0000000000000000E+00     0.0000000000000000E+00 
    3.7500000000156092E-01     1.0000000000000000E+00     0.0000000000000000E+00 
    3.2500000000135282E-01     1.0000000000000000E+00     0.0000000000000000E+00 
    2.7500000000114472E-01     1.0000000000000000E+00     0.0000000000000000E+00 
    2.2500000000093659E-01     1.0000000000000000E+00     0.0000000000000000E+00 
    1.7500000000072849E-01     1.0000000000000000E+00     0.0000000000000000E+00 
    1.2500000000052039E-01     1.0000000000000000E+00     0.0000000000000000E+00 
    7.5000000000312261E-02     1.0000000000000000E+00     0.0000000000000000E+00 
    2.5000000000104109E-02     1.0000000000000000E+00     0.0000000000000000E+00 
    4.5000000000187301E-01     1.0000000000000000E+00     0.0000000000000000E+00 
    8.9999999999958358E-01     1.0000000000000000E+00     0.0000000000000000E+00 
    8.4999999999965303E-01     1.0000000000000000E+00     0.0000000000000000E+00 
    8.0000000000000004E-01     1.0000000000000000E+00     0.0000000000000000E+00 
    7.5000000000034706E-01     1.0000000000000000E+00     0.0000000000000000E+00 
    7.0000000000069384E-01     1.0000000000000000E+00     0.0000000000000000E+00 
    6.5000000000104063E-01     1.0000000000000000E+00     0.0000000000000000E+00 
    6.0000000000138742E-01     1.0000000000000000E+00     0.0000000000000000E+00 
    5.5000000000173432E-01     1.0000000000000000E+00     0.0000000000000000E+00 
    5.0000000000205946E-01     1.0000000000000000E+00     0.0000000000000000E+00 
    9.4999999999979179E-01     1.0000000000000000E+00     0.0000000000000000E+00 
    4.0000000000166491E-01     1.0000000000000000E+00     0.0000000000000000E+00 
    3.5000000000145681E-01     1.0000000000000000E+00     0.0000000000000000E+00 
    3.0000000000124871E-01     1.0000000000000000E+00     0.0000000000000000E+00 
    2.5000000000104061E-01     1.0000000000000000E+00     0.0000000000000000E+00 
    2.0000000000083251E-01     1.0000000000000000E+00     0.0000000000000000E+00 
    1.5000000000062441E-01     1.0000000000000000E+00     0.0000000000000000E+00 
    1.0000000000041630E-01     1.0000000000000000E+00     0.0000000000000000E+00 
[...]
CELL_DATA 1600 
SCALARS Pressure double 1 
LOOKUP_TABLE default 

    1.0852190247778766E+00 
    1.0393838451648925E+00 
    1.0370301696127888E+00 
    1.0696752293684884E+00 
    1.0573079554259206E+00 
    1.0334795069120017E+00 
    1.0293869151760136E+00 
    1.0472156592834165E+00 
    1.0387872254054920E+00 
    1.0251187569188254E+00 
    1.0208744499826596E+00 
    1.0316053993196646E+00 
    1.0253789491690297E+00 
    1.0167605388512289E+00 
    1.0128294633287165E+00 
    1.0199006634523828E+00 
    1.0150200404900205E+00 
    1.0091025257814767E+00 
    1.0055835052156092E+00 
    1.0106257088046611E+00 
    1.0066340205203170E+00 
    1.0022671229334545E+00 
    9.9914361883281910E-01 
    1.0029812128314051E+00 
    9.9961804050263192E-01 
    9.9620152281393515E-01 
    9.9342906474172277E-01 
    9.9650595435759570E-01 
    9.9361443125608107E-01 
    9.9081496341732567E-01 
    9.8834880278317283E-01 
    9.9091906522221029E-01 
    9.8840015275761295E-01 
    9.8602124055876916E-01 
    9.8382397934896815E-01 
    9.8604164945845607E-01 
    9.8383041662805459E-01 
    9.8174975142640464E-01 
    9.7979222977285507E-01 
    9.8175563810778421E-01 
    9.7980834180772258E-01 
    9.7794595430670606E-01 
    9.7620619750564586E-01 
    9.7798107765870956E-01 
    9.7626766185681324E-01 
    9.7456893954307067E-01 
    9.7303075326876354E-01 
    9.7466293092656442E-01 
    9.7316260466067195E-01 
    9.7158874920189142E-01 
    9.7024051395125499E-01 
    9.7176316108780936E-01 
    9.7046170873987436E-01 
    9.6898408243756828E-01 
    9.6781786465203690E-01 
    9.6925589635697140E-01 
    9.6814387730268847E-01 
    9.6674062880686762E-01 
    9.6575147271606410E-01 
    9.6712425239598021E-01 
    9.6619598325094924E-01 
    9.6484979794806358E-01 
    9.6403527717795723E-01 
    9.6535840550322682E-01 
    9.6461121368138081E-01 
    9.6330788195665484E-01 
    9.6266784965858476E-01 
    9.6395439731766153E-01 
    9.6338828860871051E-01 
    9.6211566490926981E-01 
    9.6165259409518278E-01 
    9.6291403979056966E-01 
    9.6253514644726523E-01 
    9.6128219860760744E-01 
    9.6099310654063241E-01 
    9.6224121224353576E-01 
    9.6200684269481318E-01 
    9.6076214238796420E-01 
    9.6063541754681414E-01 
    9.6187770670703976E-01 
    1.0162942782583637E+00 
    9.9977413829410300E-01 
    9.9941699659895733E-01 
    1.0155551681692394E+00 
    1.0141964839833488E+00 
    9.9872555629294868E-01 
    9.9773773168806046E-01 
    1.0123651195755716E+00 
    1.0101983959648906E+00 
    9.9650006808329039E-01 
    9.9506125717076133E-01 
    1.0078108379954906E+00 
    1.0052935889854027E+00 
    9.9346746541429876E-01 
    9.9175986403165173E-01 
    1.0027152309711693E+00 
    1.0001257127044678E+00 
    9.8997402440300919E-01 
    9.8814008818628685E-01 
    9.9756048135746922E-01 
    9.9504422039712326E-01 
    9.8628288435058675E-01 
    9.8442241596837643E-01 
    9.9259356117875530E-01 
    9.9021937596885767E-01 
    9.8257460701438226E-01 
    9.8075196958886557E-01 
    9.8792837922074961E-01 
    9.8572440719484888E-01 
    9.7896422028766850E-01 
    9.7721899919132083E-01 
    9.8360935105859781E-01 
    9.8158385431449224E-01 
    9.7552226344425652E-01 
    9.7387862114426116E-01 
    9.7964771221225533E-01 
    9.7780022744158046E-01 
    9.7229162193125929E-01 
    9.7076409950318798E-01 
    9.7604042720500583E-01 
    9.7436721760915568E-01 
    9.6929823480861677E-01 
    9.6789572901589460E-01 
    9.7277944454936149E-01 
    9.7127603632481374E-01 
    9.6655799873038295E-01 
    9.6528619610298005E-01 
    9.6985599711750414E-01 
    9.6851844793077246E-01 
    9.6408126350389201E-01 
    9.6294408828934785E-01 
    9.6726265594493954E-01 
    9.6608805607063342E-01 
    9.6187548766161091E-01 
    9.6087620019412123E-01 
    9.6499421993933399E-01 
    9.6398088743436605E-01 
    9.5994695722492362E-01 
    9.5908856745619542E-01 
    9.6304797350848126E-01 
    9.6219555489949327E-01 
    9.5830181093076794E-01 
    9.5758751688004040E-01 
    9.6142386340858699E-01 
    9.6073333097790958E-01 
    9.5694663101648358E-01 
    9.5638010986191435E-01 
    9.6012456700774373E-01 
    9.5959835397564952E-01 
    9.5588904257903240E-01 
    9.5547551766766459E-01 
    9.5915628897522254E-01 
    9.5880205083087000E-01 
    9.5514328497681045E-01 
    9.5487752022690864E-01 
    9.5852268166605004E-01 
    9.5829885888098565E-01 
    9.5466369476944934E-01 
    9.5454822740174416E-01 
    9.5817685665384222E-01 
    9.8592082403391668E-01 
    9.7331338474843410E-01 
    9.7316943165899594E-01 
    9.8570656802682377E-01 
    9.8528549326320580E-01 
    9.7288492456108433E-01 
    9.7246653842385034E-01 
    9.8467135404421990E-01 
    9.8388316694679079E-01 
    9.7192384071868609E-01 
    9.7126795723160197E-01 
    9.8294278954359304E-01 
    9.8187285489238341E-01 
    9.7051078715856010E-01 
    9.6966486317073008E-01 
    9.8069572730925036E-01 
    9.7943286714908773E-01 
    9.6874303572398335E-01 
    9.6775812267397576E-01 
    9.7810442866908043E-01 
    9.7672856667566532E-01 
    9.6672231575755863E-01 
    9.6564681203008640E-01 
    9.7532113016751198E-01 
    9.7389596854744465E-01 
    9.6454208297485466E-01 
    9.6341777047902766E-01 
    9.7246502852694339E-01 
    9.7103846454167375E-01 
    9.6228253720194801E-01 
    9.6114428820662523E-01 
    9.6962504733601762E-01 
    9.6823231251611874E-01 
    9.6001019379235331E-01 
    9.5888661349465809E-01 
    9.6686661461718515E-01 
    9.6553329287903966E-01 
    9.5777913086192545E-01 
    9.5669283632642843E-01 
    9.6423700514827326E-01 
    9.6298171495800866E-01 
    9.5563228493897501E-01 
    9.5460142705784190E-01 
    9.6177074685056496E-01 
    9.6060707431774450E-01 
    9.5360391747280038E-01 
    9.5264306737516014E-01 
    9.5949328267174872E-01 
    9.5843157885749963E-01 
    9.5172176727160940E-01 
    9.5084271468832482E-01 
    9.5742400789578141E-01 
    9.5647246489825244E-01 
    9.5000845713850346E-01 
    9.4922131025820278E-01 
    9.5557863080279837E-01 
    9.5474404304038030E-01 
    9.4848336626646534E-01 
    9.4779670519323567E-01 
    9.5397025717890782E-01 
    9.5325871967686371E-01 
    9.4716332298750372E-01 
    9.4658505392277537E-01 
    9.5261079343962463E-01 
    9.5202792644422995E-01 
    9.4606382687484625E-01 
    9.4560152292042599E-01 
    9.5151146369522432E-01 
    9.5106275708551280E-01 
    9.4519994654544037E-01 
    9.4486218421976254E-01 
    9.5068426578969478E-01 
    9.5037947617119933E-01 
    9.4459153765251935E-01 
    9.4436069102293108E-01 
    9.5012922705027891E-01 
    9.4992471281365543E-01 
    9.4416557506319720E-01 
    9.4406214945588907E-01 
    9.4981577443038911E-01 
    9.6130531996950663E-01 
    9.4955687299627356E-01 
    9.4947964075697888E-01 
    9.6120198035959103E-01 
    9.6099735297095656E-01 
    9.4932652618877944E-01 
    9.4909997757268494E-01 
    9.6069540462215275E-01 
    9.6030153362206117E-01 
    9.4880315582482022E-01 
    9.4843970952738221E-01 
    9.5982189049095212E-01 
    9.5926332691047267E-01 
    9.4801399109837292E-01 
    9.4753088649581674E-01 
    9.5863342540212726E-01 
    9.5794019337885805E-01 
    9.4699561338038918E-01 
    9.4641356466665605E-01 
    9.5719181028585520E-01 
    9.5639637512709619E-01 
    9.4579029985577046E-01 
    9.4513139582833494E-01 
    9.5556171242301757E-01 
    9.5469544947587792E-01 
    9.4444247534687209E-01 
    9.4372908257199717E-01 
    9.5380495751515737E-01 
    9.5289713487801364E-01 
    9.4299658054736579E-01 
    9.4225012555443666E-01 
    9.5197848396086948E-01 
    9.5105509879527272E-01 
    9.4149470146849124E-01 
    9.4073499800572247E-01 
    9.5013260704211255E-01 
    9.4921614371103180E-01 
    9.3997544549368328E-01 
    9.3922026344050846E-01 
    9.4831049953912072E-01 
    9.4742009702041574E-01 
    9.3847342736449979E-01 
    9.3773862480042824E-01 
    9.4654893170528676E-01 
    9.4570073378514929E-01 
    9.3701939230618103E-01 
    9.3631904199912575E-01 
    9.4487898568387385E-01 
    9.4408682980041547E-01 
    9.3564065939179009E-01 
    9.3498718460891284E-01 
    9.4332721821845256E-01 
    9.4260295360841129E-01 
    9.3436143898274904E-01 
    9.3376604076783198E-01 
    9.4191664889544513E-01 
    9.4127070931148016E-01 
    9.3320346635186269E-01 
    9.3267614133463872E-01 
    9.4066748299070069E-01 
    9.4010925880459983E-01 
    9.3218638791029540E-01 
    9.3173642381727817E-01 
    9.3959818852059152E-01 
    9.3913646989469413E-01 
    9.3132849691043751E-01 
    9.3096479382848463E-01 
    9.3872632507719234E-01 
    9.3837003773264349E-01 
    9.3064784064244377E-01 
    9.3038219431165259E-01 
    9.3807151531437882E-01 
    9.3783353082219678E-01 
    9.3016966701033366E-01 
    9.2997704210073640E-01 
    9.3762337953751229E-01 
    9.3744315699948244E-01 
    9.2981342013064849E-01 
    9.2972919452112091E-01 
    9.3734846813909656E-01 
    9.3786915297841289E-01 
    9.2611590814746936E-01 
    9.2606896462010002E-01 
    9.3780975540788647E-01 
    9.3769175877546895E-01 
    9.2597550687784813E-01 
    9.2583635070549708E-01 
    9.3751659373944529E-01 
    9.3728613199044508E-01 
    9.2565270731760485E-01 
    9.2542624042046484E-01 
    9.3700276412246475E-01 
    9.3666944633485028E-01 
    9.2515901254381483E-01 
    9.2485334350257586E-01 
    9.3628947522809391E-01 
    9.3586636189080585E-01 
    9.2451175740641922E-01 
    9.2413705700103543E-01 
    9.3540390876269064E-01 
    9.3490610776085259E-01 
    9.2373223082622258E-01 
    9.2330037596405046E-01 
    9.3437703635646618E-01 
    9.3382092872535738E-01 
    9.2284470389827011E-01 
    9.2236847285455970E-01 
    9.3324200493571041E-01 
    9.3264437827425983E-01 
    9.2187488509200788E-01 
    9.2136716122404894E-01 
    9.3203212506701505E-01 
    9.3140926145072456E-01 
    9.2084850910335603E-01 
    9.2032205687178703E-01 
    9.3077962369296841E-01 
    9.3014687066629786E-01 
    9.1979082852557659E-01 
    9.1925785389811077E-01 
    9.2951462380769112E-01 
    9.2888633682314992E-01 
    9.1872608688179280E-01 
    9.1819833214608904E-01 
    9.2826523974351849E-01 
    9.2765454094231803E-01 
    9.1767739583611940E-01 
    9.1716599785276365E-01 
    9.2705727910685143E-01 
    9.2647628637328028E-01 
    9.1666668460680945E-01 
    9.1618196978532362E-01 
    9.2591432601715873E-01 
    9.2537409359893075E-01 
    9.1571431198904019E-01 
    9.1526603835561604E-01 
    9.2485809704266453E-01 
    9.2436869463403903E-01 
    9.1483934821939661E-01 
    9.1443643766396354E-01 
    9.2390826180853747E-01 
    9.2347905804585817E-01 
    9.1405940659345952E-01 
    9.1371022964744686E-01 
    9.2308322496211292E-01 
    9.2272296580159463E-01 
    9.1339088377749389E-01 
    9.1310329460384421E-01 
    9.2240039034202070E-01 
    9.2211810812845552E-01 
    9.1285013715490193E-01 
    9.1263547421072511E-01 
    9.2188066739430674E-01 
    9.2168812588348692E-01 
    9.1245533255702538E-01 
    9.1227957993751119E-01 
    9.2150761427893901E-01 
    9.2135472131211149E-01 
    9.1213559733631611E-01 
    9.1206657242139788E-01 
    9.2127801284727306E-01 
    9.1421390180393625E-01 
    9.0210678622234097E-01 
    9.0207506298772744E-01 
    9.1417579436047924E-01 
    9.1409982288024638E-01 
    9.0201180657123625E-01 
    9.0191740994422320E-01 
    9.1398650351828337E-01 
    9.1383668756907788E-01 
    9.0179251859096976E-01 
    9.0163801202038441E-01 
    9.1365158121347412E-01 
    9.1343266770188114E-01 
    9.0145500722112326E-01 
    9.0124481963475900E-01 
    9.1318164967219595E-01 
    9.1290043122087616E-01 
    9.0100895258658364E-01 
    9.0074913801559919E-01 
    9.1259118491383762E-01 
    9.1225622689102448E-01 
    9.0046722385443245E-01 
    9.0016508238095205E-01 
    9.1189793695025867E-01 
    9.1151883309249460E-01 
    8.9984471740653693E-01 
    8.9950816073185436E-01 
    9.1112146395868987E-01 
    9.1070833802396844E-01 
    8.9915740171069392E-01 
    8.9879450735956790E-01 
    9.1028203179305522E-01 
    9.0984513609098383E-01 
    8.9842160942126892E-01 
    8.9804080502796990E-01 
    9.0940019078164203E-01 
    9.0894969359139410E-01 
    8.9765416577726842E-01 
    8.9726387194533330E-01 
    9.0849619919105984E-01 
    9.0804222486426622E-01 
    8.9687208602950219E-01 
    8.9648087839766699E-01 
    9.0759017429633571E-01 
    9.0714250679201314E-01 
    8.9609240584295524E-01 
    8.9570879896142008E-01 
    9.0670161993429177E-01 
    9.0626976439424034E-01 
    8.9533205711289099E-01 
    8.9496421516776170E-01 
    9.0584921075196212E-01 
    9.0544219572751139E-01 
    8.9460734097171013E-01 
    8.9426338111058656E-01 
    9.0505081569683765E-01 
    9.0467707131401975E-01 
    8.9393417688529164E-01 
    8.9362165836791974E-01 
    9.0432298530396737E-01 
    9.0399044662598060E-01 
    8.9332765246295964E-01 
    8.9305378881039965E-01 
    9.0368115790046410E-01 
    9.0339681015841522E-01 
    8.9280177056413579E-01 
    8.9257350852833428E-01 
    9.0313903823885211E-01 
    9.0291045484403576E-01 
    8.9237207766960613E-01 
    8.9219964433767407E-01 
    9.0271425818628714E-01 
    9.0253910032734197E-01 
    8.9203231539856898E-01 
    8.9185104223429834E-01 
    9.0236106429154350E-01 
    9.0222592249028033E-01 
    8.9172089690933332E-01 
    8.9166654416662716E-01 
    9.0216602228231646E-01 
    8.8975654556377992E-01 
    8.7713831035238943E-01 
    8.7711489356486916E-01 
    8.8972956071523712E-01 
    8.8967576135765991E-01 
    8.7706820510824290E-01 
    8.7699853657442417E-01 
    8.8959548006956701E-01 
    8.8948922415111054E-01 
    8.7690628522546854E-01 
    8.7679200416198688E-01 
    8.8935766027088359E-01 
    8.8920166937621414E-01 
    8.7665641682525475E-01 
    8.7650042034469111E-01 
    8.8902231296657819E-01 
    8.8882082620777303E-01 
    8.7632504123492805E-01 
    8.7613145864974484E-01 
    8.8859861638469007E-01 
    8.8835718497057559E-01 
    8.7592090701029079E-01 
    8.7569463168233375E-01 
    8.8809805120313512E-01 
    8.8782282574268412E-01 
    8.7545394745617977E-01 
    8.7520019035993957E-01 
    8.8753314120970439E-01 
    8.8723061879770593E-01 
    8.7493469208356933E-01 
    8.7465887274429222E-01 
    8.8691694485894146E-01 
    8.8659388457730037E-01 
    8.7437423611336740E-01 
    8.7408229842836238E-01 
    8.8626320755757626E-01 
    8.8592668458290247E-01 
    8.7378459397895758E-01 
    8.7348275990781465E-01 
    8.8558618196076722E-01 
    8.8524357229316208E-01 
    8.7317844532686451E-01 
    8.7287326077192373E-01 
    8.8490068698658086E-01 
    8.8455941492820478E-01 
    8.7256890346761329E-01 
    8.7226706437459145E-01 
    8.8422165300912414E-01 
    8.8388922543266024E-01 
    8.7196938715043948E-01 
    8.7167756331244739E-01 
    8.8356397712426149E-01 
    8.8324780441213668E-01 
    8.7139332851139051E-01 
    8.7111836104226814E-01 
    8.8294255391332011E-01 
    8.8265001074546245E-01 
    8.7085432324018697E-01 
    8.7060298500719302E-01 
    8.8237206068768370E-01 
    8.8211058403382248E-01 
    8.7036611963208455E-01 
    8.7014554424011337E-01 
    8.8186742079701452E-01 
    8.8164468931576623E-01 
    8.6994353823767967E-01 
    8.6976351909718175E-01 
    8.8144531111239233E-01 
    8.8127385921586188E-01 
    8.6961036440341077E-01 
    8.6948540499512050E-01 
    8.8113294116087104E-01 
    8.8098587021380748E-01 
    8.6935024521387549E-01 
    8.6918874669223167E-01 
    8.8081022465317693E-01 
    8.8068042122553192E-01 
    8.6906903703923788E-01 
    8.6901211599467099E-01 
    8.8062357115752254E-01 
    8.6423747757845493E-01 
    8.5104732601133326E-01 
    8.5102849086224530E-01 
    8.6421672240563041E-01 
    8.6417534429324339E-01 
    8.5099094255164132E-01 
    8.5093489418963775E-01 
    8.6411359035359347E-01 
    8.6403179465249003E-01 
    8.5086064848785958E-01 
    8.5076865179132433E-01 
    8.6393043177624673E-01 
    8.6381014217304919E-01 
    8.5065948716436712E-01 
    8.5053383362207968E-01 
    8.6367169976378400E-01 
    8.6351597004782066E-01 
    8.5039243278117027E-01 
    8.5023614037765094E-01 
    8.6334395411664233E-01 
    8.6315668605344043E-01 
    8.5006582459558977E-01 
    8.4988232545316578E-01 
    8.6295517947413136E-01 
    8.6274053530810291E-01 
    8.4968658732745928E-01 
    8.4947957414184816E-01 
    8.6251387419918402E-01 
    8.6227630753059636E-01 
    8.4926226072281785E-01 
    8.4903574156574713E-01 
    8.6202906134810509E-01 
    8.6177347007173322E-01 
    8.4880122436505534E-01 
    8.4855992160178151E-01 
    8.6151086809215027E-01 
    8.6124259524159164E-01 
    8.4831305250927358E-01 
    8.4806196772134956E-01 
    8.6097012862437761E-01 
    8.6069495168972188E-01 
    8.4780802915476605E-01 
    8.4755254316747886E-01 
    8.6041848475451888E-01 
    8.6014227841443691E-01 
    8.4729693693523433E-01 
    8.4704261862457708E-01 
    8.5986786437445850E-01 
    8.5959669853106302E-01 
    8.4679093185192678E-01 
    8.4654326281310766E-01 
    8.5933031306943553E-01 
    8.5907029062943130E-01 
    8.4630105060872240E-01 
    8.4606565216754648E-01 
    8.5881811863921054E-01 
    8.5857521793367586E-01 
    8.4583832626135513E-01 
    8.4562040183835852E-01 
    8.5834313348564273E-01 
    8.5812335714551857E-01 
    8.4541315368795555E-01 
    8.4521785763772272E-01 
    8.5791735340059350E-01 
    8.5772715667335042E-01 
    8.4503635960968215E-01 
    8.4487143315612923E-01 
    8.5755593231058869E-01 
    8.5740727668544214E-01 
    8.4472477991338357E-01 
    8.4458430370367854E-01 
    8.5727777563501850E-01 
    8.5713448671806236E-01 
    8.4442252582687216E-01 
    8.4427609778799628E-01 
    8.5698453102344219E-01 
    8.5688213260078339E-01 
    8.4418698357379640E-01 
    8.4414236484314020E-01 
    8.5683131723248307E-01 
    8.3756634497376503E-01 
    8.2379752916244042E-01 
    8.2378067696331558E-01 
    8.3754878785705544E-01 
    8.3751378888778427E-01 
    8.2374708175137079E-01 
    8.2369694664525106E-01 
    8.3746154497311598E-01 
    8.3739236435347986E-01 
    8.2363058953422308E-01 
    8.2354842521485050E-01 
    8.3730667408055715E-01 
    8.3720501153126659E-01 
    8.2345096798820561E-01 
    8.2333877704585878E-01 
    8.3708798830989550E-01 
    8.3695626559639946E-01 
    8.2321244717874165E-01 
    8.2307260421217543E-01 
    8.3681056693243705E-01 
    8.3665162754434863E-01 
    8.2291989908572050E-01 
    8.2275500832741544E-01 
    8.3648018702582683E-01 
    8.3629706730930853E-01 
    8.2257869126609018E-01 
    8.2239177493989324E-01 
    8.3610313242835732E-01 
    8.3589929439140165E-01 
    8.2219513579927073E-01 
    8.2198975779899885E-01 
    8.3568656633391869E-01 
    8.3546606260921941E-01 
    8.2177671527494733E-01 
    8.2155711844710611E-01 
    8.3523892231008212E-01 
    8.3500631346823717E-01 
    8.2133210083613251E-01 
    8.2110289403119763E-01 
    8.3476949519028187E-01 
    8.3452975155913534E-01 
    8.2087074655535852E-01 
    8.2063689223861713E-01 
    8.3428834066565138E-01 
    8.3404660325962432E-01 
    8.2040263343723030E-01 
    8.2016927692335118E-01 
    8.3380587005954343E-01 
    8.3356744118892478E-01 
    8.1993808911593946E-01 
    8.1971041405192124E-01 
    8.3333264651167482E-01 
    8.3310285243264937E-01 
    8.1948763007443859E-01 
    8.1927111111952688E-01 
    8.3287938906311265E-01 
    8.3266354102756668E-01 
    8.1906227736653869E-01 
    8.1886277136521057E-01 
    8.3245667143653801E-01 
    8.3226019132145546E-01 
    8.1867451517461387E-01 
    8.1850011703691261E-01 
    8.3207576404289396E-01 
    8.3190582069629571E-01 
    8.1834349716630672E-01 
    8.1820913887989555E-01 
    8.3175338056837056E-01 
    8.3161843727359708E-01 
    8.1809726554391882E-01 
    8.1795871597486813E-01 