# vtk DataFile Version 2.0
Pressure Field Data 
ASCII 
DATASET UNSTRUCTURED_GRID 

POINTS 1681 double 

    0.0000000000000000E+00     0.0000000000000000E+00     0.0000000000000000E+00 
    1.0000000000000000E+00     0.0000000000000000E+00     0.0000000000000000E+00 
    1.0000000000000000E+00     1.0000000000000000E+00     0.0000000000000000E+00 
    0.0000000000000000E+00     1.0000000000000000E+00     0.0000000000000000E+00 
    5.2499999999875258E-01     0.0000000000000000E+00     0.0000000000000000E+00 
    7.4999999999856765E-02     0.0000000000000000E+00     0.0000000000000000E+00 
    1.2499999999975850E-01     0.0000000000000000E+00     0.0000000000000000E+00 
    1.7499999999962990E-01     0.0000000000000000E+00     0.0000000000000000E+00 
    2.2499999999948389E-01     0.0000000000000000E+00     0.0000000000000000E+00 
    2.7499999999933789E-01     0.0000000000000000E+00     0.0000000000000000E+00 
    3.2499999999919210E-01     0.0000000000000000E+00     0.0000000000000000E+00 
    3.7499999999904610E-01     0.0000000000000000E+00     0.0000000000000000E+00 
    4.2499999999890020E-01     0.0000000000000000E+00     0.0000000000000000E+00 
    4.7499999999875958E-01     0.0000000000000000E+00     0.0000000000000000E+00 
    2.4999999999949701E-02     0.0000000000000000E+00     0.0000000000000000E+00 
    5.7499999999887907E-01     0.0000000000000000E+00     0.0000000000000000E+00 
    6.2499999999901101E-01     0.0000000000000000E+00     0.0000000000000000E+00 
    6.7499999999914273E-01     0.0000000000000000E+00     0.0000000000000000E+00 
    7.2499999999927467E-01     0.0000000000000000E+00     0.0000000000000000E+00 
    7.7499999999940661E-01     0.0000000000000000E+00     0.0000000000000000E+00 
    8.2499999999953844E-01     0.0000000000000000E+00     0.0000000000000000E+00 
    8.7499999999967026E-01     0.0000000000000000E+00     0.0000000000000000E+00 
    9.2499999999980220E-01     0.0000000000000000E+00     0.0000000000000000E+00 
    9.7499999999993414E-01     0.0000000000000000E+00     0.0000000000000000E+00 
    5.4999999999881310E-01     0.0000000000000000E+00     0.0000000000000000E+00 
    9.9999999999814140E-02     0.0000000000000000E+00     0.0000000000000000E+00 
    1.4999999999970290E-01     0.0000000000000000E+00     0.0000000000000000E+00 
    1.9999999999955689E-01     0.0000000000000000E+00     0.0000000000000000E+00 
    2.4999999999941089E-01     0.0000000000000000E+00     0.0000000000000000E+00 
    2.9999999999926502E-01     0.0000000000000000E+00     0.0000000000000000E+00 
    3.4999999999911913E-01     0.0000000000000000E+00     0.0000000000000000E+00 
    3.9999999999897312E-01     0.0000000000000000E+00     0.0000000000000000E+00 
    4.4999999999882723E-01     0.0000000000000000E+00     0.0000000000000000E+00 
    4.9999999999869210E-01     0.0000000000000000E+00     0.0000000000000000E+00 
    4.9999999999899403E-02     0.0000000000000000E+00     0.0000000000000000E+00 
    5.9999999999894504E-01     0.0000000000000000E+00     0.0000000000000000E+00 
    6.4999999999907687E-01     0.0000000000000000E+00     0.0000000000000000E+00 
    6.9999999999920870E-01     0.0000000000000000E+00     0.0000000000000000E+00 
    7.4999999999934064E-01     0.0000000000000000E+00     0.0000000000000000E+00 
    7.9999999999947247E-01     0.0000000000000000E+00     0.0000000000000000E+00 
    8.4999999999960441E-01     0.0000000000000000E+00     0.0000000000000000E+00 
    8.9999999999973623E-01     0.0000000000000000E+00     0.0000000000000000E+00 
    9.4999999999986817E-01     0.0000000000000000E+00     0.0000000000000000E+00 
    1.0000000000000000E+00     5.2499999999875258E-01     0.0000000000000000E+00 
    1.0000000000000000E+00     7.4999999999856765E-02     0.0000000000000000E+00 
    1.0000000000000000E+00     1.2499999999975850E-01     0.0000000000000000E+00 
    1.0000000000000000E+00     1.7499999999962990E-01     0.0000000000000000E+00 
    1.0000000000000000E+00     2.2499999999948389E-01     0.0000000000000000E+00 
    1.0000000000000000E+00     2.7499999999933789E-01     0.0000000000000000E+00 
    1.0000000000000000E+00     3.2499999999919210E-01     0.0000000000000000E+00 
    1.0000000000000000E+00     3.7499999999904610E-01     0.0000000000000000E+00 
    1.0000000000000000E+00     4.2499999999890020E-01     0.0000000000000000E+00 
    1.0000000000000000E+00     4.7499999999875958E-01     0.0000000000000000E+00 
    1.0000000000000000E+00     2.4999999999949701E-02     0.0000000000000000E+00 
    1.0000000000000000E+00     5.7499999999887907E-01     0.0000000000000000E+00 
    1.0000000000000000E+00     6.2499999999901101E-01     0.0000000000000000E+00 
    1.0000000000000000E+00     6.7499999999914273E-01     0.0000000000000000E+00 
    1.0000000000000000E+00     7.2499999999927467E-01     0.0000000000000000E+00 
    1.0000000000000000E+00     7.7499999999940661E-01     0.0000000000000000E+00 
    1.0000000000000000E+00     8.2499999999953844E-01     0.0000000000000000E+00 
    1.0000000000000000E+00     8.7499999999967026E-01     0.0000000000000000E+00 
    1.0000000000000000E+00     9.2499999999980220E-01     0.0000000000000000E+00 
    1.0000000000000000E+00     9.7499999999993414E-01     0.0000000000000000E+00 
    1.0000000000000000E+00     5.4999999999881310E-01     0.0000000000000000E+00 
    1.0000000000000000E+00     9.9999999999814140E-02     0.0000000000000000E+00 
    1.0000000000000000E+00     1.4999999999970290E-01     0.0000000000000000E+00 
    1.0000000000000000E+00     1.9999999999955689E-01     0.0000000000000000E+00 
    1.0000000000000000E+00     2.4999999999941089E-01     0.0000000000000000E+00 
    1.0000000000000000E+00     2.9999999999926502E-01     0.0000000000000000E+00 
    1.0000000000000000E+00     3.4999999999911913E-01     0.0000000000000000E+00 
    1.0000000000000000E+00     3.9999999999897312E-01     0.0000000000000000E+00 
    1.0000000000000000E+00     4.4999999999882723E-01     0.0000000000000000E+00 
    1.0000000000000000E+00     4.9999999999869210E-01     0.0000000000000000E+00 
    1.0000000000000000E+00     4.9999999999899403E-02     0.0000000000000000E+00 
    1.0000000000000000E+00     5.9999999999894504E-01     0.0000000000000000E+00 
    1.0000000000000000E+00     6.4999999999907687E-01     0.0000000000000000E+00 
    1.0000000000000000E+00     6.9999999999920870E-01     0.0000000000000000E+00 
    1.0000000000000000E+00     7.4999999999934064E-01     0.0000000000000000E+00 
    1.0000000000000000E+00     7.9999999999947247E-01     0.0000000000000000E+00 
    1.0000000000000000E+00     8.4999999999960441E-01     0.0000000000000000E+00 
    1.0000000000000000E+00     8.9999999999973623E-01     0.0000000000000000E+00 
    1.0000000000000000E+00     9.4999999999986817E-01     0.0000000000000000E+00 
    4.7500000000196618E-01     1.0000000000000000E+00     0.0000000000000000E+00 
    9.2499999999968763E-01     1.0000000000000000E+00     0.0000000000000000E+00 
    8.7499999999961831E-01     1.0000000000000000E+00     0.0000000000000000E+00 
    8.2499999999982654E-01     1.0000000000000000E+00     0.0000000000000000E+00 
    7.7500000000017355E-01     1.0000000000000000E+00     0.0000000000000000E+00 
    7.2500000000052045E-01     1.0000000000000000E+00     0.0000000000000000E+00 
    6.7500000000086724E-01     1.0000000000000000E+00     0.0000000000000000E+00 
    6.2500000000121403E-01     1.0000000000000000E+00     0.0000000000000000E+00 
    5.7500000000156093E-01     1.0000000000000000E+00     0.0000000000000000E+00 
    5.2500000000189684E-01     1.0000000000000000E+00     0.0000000000000000E+00 
    9.7499999999989595E-01     1.0000000000000000E+00     0.0000000000000000E+00 
    4.2500000000176902E-01     1.0000000000000000E+00     0.0000000000000000E+00 
    3.7500000000156092E-01     1.0000000000000000E+00     0.0000000000000000E+00 
    3.2500000000135282E-01     1.0000000000000000E+00     0.0000000000000000E+00 
    2.7500000000114472E-01     1.0000000000000000E+00     0.0000000000000000E+00 
    2.2500000000093659E-01     1.0000000000000000E+00     0.0000000000000000E+00 
    1.7500000000072849E-01     1.0000000000000000E+00     0.0000000000000000E+00 
    1.2500000000052039E-01     1.0000000000000000E+00     0.0000000000000000E+00 
    7.5000000000312261E-02     1.0000000000000000E+00     0.0000000000000000E+00 
    2.5000000000104109E-02     1.0000000000000000E+00     0.0000000000000000E+00 
    4.5000000000187301E-01     1.0000000000000000E+00     0.0000000000000000E+00 
    8.9999999999958358E-01     1.0000000000000000E+00     0.0000000000000000E+00 
    8.4999999999965303E-01     1.0000000000000000E+00     0.0000000000000000E+00 
    8.0000000000000004E-01     1.0000000000000000E+00     0.0000000000000000E+00 
    7.5000000000034706E-01     1.0000000000000000E+00     0.0000000000000000E+00 
    7.0000000000069384E-01     1.0000000000000000E+00     0.0000000000000000E+00 
    6.5000000000104063E-01     1.0000000000000000E+00     0.0000000000000000E+00 
    6.0000000000138742E-01     1.0000000000000000E+00     0.0000000000000000E+00 
    5.5000000000173432E-01     1.0000000000000000E+00     0.0000000000000000E+00 
    5.0000000000205946E-01     1.0000000000000000E+00     0.0000000000000000E+00 
    9.4999999999979179E-01     1.0000000000000000E+00     0.0000000000000000E+00 
    4.0000000000166491E-01     1.0000000000000000E+00     0.0000000000000000E+00 
    3.5000000000145681E-01     1.0000000000000000E+00     0.0000000000000000E+00 
    3.0000000000124871E-01     1.0000000000000000E+00     0.0000000000000000E+00 
    2.5000000000104061E-01     1.0000000000000000E+00     0.0000000000000000E+00 
    2.0000000000083251E-01     1.0000000000000000E+00     0.0000000000000000E+00 
    1.5000000000062441E-01     1.0000000000000000E+00     0.0000000000000000E+00 
    1.0000000000041630E-01     1.0000000000000000E+00     0.0000000000000000E+00 
[...]
CELL_DATA 1600 
SCALARS Pressure double 1 
LOOKUP_TABLE default 

    1.0736516766667341E+00 
    1.0278301694833782E+00 
    1.0254769653444649E+00 
    1.0581086819968772E+00 
    1.0457424692234660E+00 
    1.0219272820422771E+00 
    1.0178363293635972E+00 
    1.0356519245264204E+00 
    1.0272261352799097E+00 
    1.0135705619549851E+00 
    1.0093294961522787E+00 
    1.0200478631144714E+00 
    1.0138257826353581E+00 
    1.0052196256056438E+00 
    1.0012932720100574E+00 
    1.0083525490329293E+00 
    1.0034775804852112E+00 
    9.9757167569819916E-01 
    9.9405852997219701E-01 
    9.9908942002343581E-01 
    9.9510433696028988E-01 
    9.9074846880370260E-01 
    9.8763165326248670E-01 
    9.9145849223752391E-01 
    9.8810256953047382E-01 
    9.8469654203065271E-01 
    9.8193130164341436E-01 
    9.8499795530067091E-01 
    9.8211406811186419E-01 
    9.7932459430862406E-01 
    9.7686595149185951E-01 
    9.7942644840018167E-01 
    9.7691534374406896E-01 
    9.7454598173074747E-01 
    9.7235634243122515E-01 
    9.7456466534132058E-01 
    9.7236123394386675E-01 
    9.7028972461712426E-01 
    9.6833976358922380E-01 
    9.7029419630192904E-01 
    9.6835454705045387E-01 
    9.6650096480586400E-01 
    9.6476856954457213E-01 
    9.6653480574954376E-01 
    9.6482876061509160E-01 
    9.6313852903618147E-01 
    9.6160738967920023E-01 
    9.6323122299747110E-01 
    9.6173788962804974E-01 
    9.6017223774417515E-01 
    9.5883063753083320E-01 
    9.6034521708290077E-01 
    9.5905029438045875E-01 
    9.5758060327222250E-01 
    9.5642052635475405E-01 
    9.5785075266063380E-01 
    9.5674472914956399E-01 
    9.5534915819496002E-01 
    9.5436558202939792E-01 
    9.5573081012122318E-01 
    9.5480794488641785E-01 
    9.5346918713967177E-01 
    9.5265963613510851E-01 
    9.5397545781042992E-01 
    9.5323303178404228E-01 
    9.5193689110682322E-01 
    9.5130118306179612E-01 
    9.5258064553217880E-01 
    9.5201862092633072E-01 
    9.5075299462383256E-01 
    9.5029345229024320E-01 
    9.5154796711545131E-01 
    9.5117205767722701E-01 
    9.4992604011936244E-01 
    9.4964216204224727E-01 
    9.5088306725145644E-01 
    9.5065209999253630E-01 
    9.4941475705323986E-01 
    9.4928832501021110E-01 
    9.5052329482403053E-01 
    1.0047626501797640E+00 
    9.8827329491856630E-01 
    9.8791676983029819E-01 
    1.0040240397654001E+00 
    1.0026664241939311E+00 
    9.8722658612140424E-01 
    9.8624068113185170E-01 
    1.0008367866516761E+00 
    9.9867250600316326E-01 
    9.8500558538812377E-01 
    9.8356995523037483E-01 
    9.9628813655296555E-01 
    9.9377476757121574E-01 
    9.8197992465045369E-01 
    9.8027663075280491E-01 
    9.9120091530309618E-01 
    9.8861647408310849E-01 
    9.7849558579286366E-01 
    9.7666685706882472E-01 
    9.8605680877212853E-01 
    9.8354652205072302E-01 
    9.7481521115255498E-01 
    9.7296060567852172E-01 
    9.8110217677625855E-01 
    9.7873458735556673E-01 
    9.7111892611917605E-01 
    9.6930264621893614E-01 
    9.7645041723212500E-01 
    9.7425345447801093E-01 
    9.6752144122185102E-01 
    9.6578290602937356E-01 
    9.7214554210043302E-01 
    9.7012727645253405E-01 
    9.6409295307498954E-01 
    9.6245614938800650E-01 
    9.6819840885511399E-01 
    9.6635820156794672E-01 
    9.6087600665822459E-01 
    9.5935532157174752E-01 
    9.6460564421426853E-01 
    9.6293960800437262E-01 
    9.5789624047082023E-01 
    9.5650043201859325E-01 
    9.6135890677657043E-01 
    9.5986243843383956E-01 
    9.5516928090584874E-01 
    9.5390390908777778E-01 
    9.5844917899007198E-01 
    9.5711822324317253E-01 
    9.5270523035492682E-01 
    9.5157410347112781E-01 
    9.5586881376146071E-01 
    9.5470036227372290E-01 
    9.5051131794191079E-01 
    9.4951758617470738E-01 
    9.5361241940911678E-01 
    9.5260470594175184E-01 
    9.4859361452051028E-01 
    9.4774018766683932E-01 
    9.5167712027698859E-01 
    9.5082972555473744E-01 
    9.4695806475402400E-01 
    9.4624805668434098E-01 
    9.5006274335297647E-01 
    9.4937659785506645E-01 
    9.4561109459240900E-01 
    9.4504813093564921E-01 
    9.4877189720521327E-01 
    9.4824942767586073E-01 
    9.4456025374879504E-01 
    9.4414938361052081E-01 
    9.4781063494028905E-01 
    9.4745918894133074E-01 
    9.4381938722384817E-01 
    9.4355891223225208E-01 
    9.4718519461348316E-01 
    9.4696493764356537E-01 
    9.4334860707426627E-01 
    9.4323325003204139E-01 
    9.4684313538045706E-01 
    9.7446002551551048E-01 
    9.6190098227290399E-01 
    9.6175765600816632E-01 
    9.7424643431276547E-01 
    9.7382668311412657E-01 
    9.6147437458313290E-01 
    9.6105775716188258E-01 
    9.7321449126714477E-01 
    9.7242881320017283E-01 
    9.6051732050795979E-01 
    9.5986417163900684E-01 
    9.7149146702894085E-01 
    9.7042506774369519E-01 
    9.5911019012250909E-01 
    9.5826786543113640E-01 
    9.6925194265811576E-01 
    9.6799349423879755E-01 
    9.5735000271888815E-01 
    9.5636938809175809E-01 
    9.6666982121492417E-01 
    9.6529904120655263E-01 
    9.5533819248779306E-01 
    9.5426759279388651E-01 
    9.6389697915575923E-01 
    9.6247745558544928E-01 
    9.5316802831818004E-01 
    9.5204910131383147E-01 
    9.6105238077474120E-01 
    9.5963186931324029E-01 
    9.5091943637910781E-01 
    9.4978690131507193E-01 
    9.5822464939630692E-01 
    9.5683821530281998E-01 
    9.4865863035511599E-01 
    9.4754094982153914E-01 
    9.5547888442665363E-01 
    9.5415196162592142E-01 
    9.4643941227592843E-01 
    9.4535907571204392E-01 
    9.5286206929030648E-01 
    9.5161313686918503E-01 
    9.4430446313507854E-01 
    9.4327949533781674E-01 
    9.5040845724357137E-01 
    9.4925097115130597E-01 
    9.4228779576815147E-01 
    9.4133264333504041E-01 
    9.4814323177319459E-01 
    9.4708741506812077E-01 
    9.4041689721905153E-01 
    9.3954322115022848E-01 
    9.4608553333366729E-01 
    9.4513944770253044E-01 
    9.3871412585189418E-01 
    9.3793188764679192E-01 
    9.4425080484537016E-01 
    9.4342110658686595E-01 
    9.3719855559678256E-01 
    9.3651615778785646E-01 
    9.4265186924021749E-01 
    9.4194449734136509E-01 
    9.3588662660815281E-01 
    9.3531171566529669E-01 
    9.4130030732247572E-01 
    9.4072069432710226E-01 
    9.3479324635547811E-01 
    9.3433296150843959E-01 
    9.4020695175404079E-01 
    9.3976036392333229E-01 
    9.3393244322728497E-01 
    9.3359427679494578E-01 
    9.3938313800820972E-01 
    9.3907897405488494E-01 
    9.3332183135048852E-01 
    9.3309321119930333E-01 
    9.3883320836667816E-01 
    9.3863219034063794E-01 
    9.3290064622295510E-01 
    9.3279781254039917E-01 
    9.3852350803079576E-01 
    9.4994807902983003E-01 
    9.3826036866131757E-01 
    9.3818357277297759E-01 
    9.4984527291962961E-01 
    9.4964168404219407E-01 
    9.3803132051794302E-01 
    9.3780605498815717E-01 
    9.4934124210473525E-01 
    9.4894932977101565E-01 
    9.3751094082677222E-01 
    9.3714961555764587E-01 
    9.4847209105658536E-01 
    9.4791634916578515E-01 
    9.3672640222201420E-01 
    9.3624616102131686E-01 
    9.4728964671544602E-01 
    9.4659996366084853E-01 
    9.3571409332091593E-01 
    9.3513557321433782E-01 
    9.4585546182018110E-01 
    9.4506421946569186E-01 
    9.3451613269245171E-01 
    9.3386131652832594E-01 
    9.4423403318440513E-01 
    9.4337249430901216E-01 
    9.3317671392072610E-01 
    9.3246783810761058E-01 
    9.4248693641822501E-01 
    9.4158422481233639E-01 
    9.3174002509748566E-01 
    9.3099840521918631E-01 
    9.4067083091823389E-01 
    9.3975281834468882E-01 
    9.3024793643278381E-01 
    9.2949328415239252E-01 
    9.3883578563447756E-01 
    9.3792484032099233E-01 
    9.2873885562192837E-01 
    9.2798884671631032E-01 
    9.3702474508528544E-01 
    9.3613989452181301E-01 
    9.2724720953735018E-01 
    9.2651760935046334E-01 
    9.3527425778305961E-01 
    9.3443153758297393E-01 
    9.2580355933381175E-01 
    9.2510834918966123E-01 
    9.3361518782831288E-01 
    9.3282832349434819E-01 
    9.2443504367694096E-01 
    9.2378656308743257E-01 
    9.3207386803153658E-01 
    9.3135459405828880E-01 
    9.2316571006513282E-01 
    9.2257508736626825E-01 
    9.3067308320183939E-01 
    9.3003170776484989E-01 
    9.2201715842836751E-01 
    9.2149433803083669E-01 
    9.2943277758442611E-01 
    9.2887853578438839E-01 
    9.2100894095871200E-01 
    9.2056318345996901E-01 
    9.2837107785709483E-01 
    9.2791253029527565E-01 
    9.2015932159752689E-01 
    9.1979956276492869E-01 
    9.2750502619696740E-01 
    9.2715066130372592E-01 
    9.1948636860997168E-01 
    9.1922408780692155E-01 
    9.2685289836969853E-01 
    9.2661494037081127E-01 
    9.1901551456567865E-01 
    9.1882941857141553E-01 
    9.2640821796661299E-01 
    9.2622991407069466E-01 
    9.1866804428942550E-01 
    9.1858261302144073E-01 
    9.2613478604465616E-01 
    9.2663839421341521E-01 
    9.1495570340565524E-01 
    9.1490909685263599E-01 
    9.2657936662174767E-01 
    9.2646211602597717E-01 
    9.1481632185729678E-01 
    9.1467820311621872E-01 
    9.2628808491193160E-01 
    9.2605914804682132E-01 
    9.1449594812348522E-01 
    9.1427120824201535E-01 
    9.2577768025181140E-01 
    9.2544661741027023E-01 
    9.1400603544929548E-01 
    9.1370273805134794E-01 
    9.2506924168884563E-01 
    9.2464904868272046E-01 
    9.1336382135250171E-01 
    9.1299206216015349E-01 
    9.2418981609968032E-01 
    9.2369550592554317E-01 
    9.1259042237100985E-01 
    9.1216197555350642E-01 
    9.2317016678266905E-01 
    9.2261800522207194E-01 
    9.1170991125299483E-01 
    9.1123746748043699E-01 
    9.2204321650611176E-01 
    9.2144989188034920E-01 
    9.1074782844929403E-01 
    9.1024419707445992E-01 
    9.2084208592745920E-01 
    9.2022379309737590E-01 
    9.0972976369632197E-01 
    9.0920763939883165E-01 
    9.1959882970086715E-01 
    9.1897083577993621E-01 
    9.0868083110822495E-01 
    9.0815234945276713E-01 
    9.1834341222085525E-01 
    9.1771999206007027E-01 
    9.0762512843076515E-01 
    9.0710195413967420E-01 
    9.1710378624917677E-01 
    9.1649798289876794E-01 
    9.0658561332149890E-01 
    9.0607880790924411E-01 
    9.1590560228997020E-01 
    9.1532946122770242E-01 
    9.0558406954551562E-01 
    9.0510389873475428E-01 
    9.1477230968060008E-01 
    9.1423683236534903E-01 
    9.0464074370806180E-01 
    9.0419692632592241E-01 
    9.1372553178267923E-01 
    9.1324076660305842E-01 
    9.0377464738414226E-01 
    9.0337611220205893E-01 
    9.1278491822693253E-01 
    9.1236026106346313E-01 
    9.0300344331010907E-01 
    9.0265865966201986E-01 
    9.1196896546931328E-01 
    9.1161328192807678E-01 
    9.0234381159021015E-01 
    9.0206089735382344E-01 
    9.1129537433339858E-01 
    9.1101779184416376E-01 
    9.0181252853451888E-01 
    9.0160292231946138E-01 
    9.1078501280289548E-01 
    9.1059853207712849E-01 
    9.0143072616532693E-01 
    9.0126522191632008E-01 
    9.1042603819739076E-01 
    9.1027596875842431E-01 
    9.0112475842714368E-01 
    9.0105506127321022E-01 
    9.1019852407817869E-01 
    9.0312895464689491E-01 
    8.9110166299338744E-01 
    8.9107024231423282E-01 
    9.0309116692967595E-01 
    9.0301583702505428E-01 
    8.9100758655759926E-01 
    8.9091408122273563E-01 
    9.0290347974276974E-01 
    9.0275493983650823E-01 
    8.9079036606140438E-01 
    8.9063731741034324E-01 
    9.0257141718878209E-01 
    9.0235438850287963E-01 
    8.9045604483826846E-01 
    8.9024784973500048E-01 
    9.0210554356540806E-01 
    9.0182676672537754E-01 
    8.9001421752566756E-01 
    8.8975686097409523E-01 
    9.0152020742541439E-01 
    9.0118816008848235E-01 
    8.8947761065173825E-01 
    8.8917832451221357E-01 
    9.0083298584473193E-01 
    9.0045718498991145E-01 
    8.8886099287824050E-01 
    8.8852763595146089E-01 
    9.0006329019575382E-01 
    8.9965379607570917E-01 
    8.8818023323349049E-01 
    8.8782084004114681E-01 
    8.9923126504598350E-01 
    8.9879827284387792E-01 
    8.8745157372328187E-01 
    8.8707451535138027E-01 
    8.9835734353702723E-01 
    8.9791095753583161E-01 
    8.8669171891388643E-01 
    8.8630534368042713E-01 
    8.9746164971657683E-01 
    8.9701191657936452E-01 
    8.8591753047344357E-01 
    8.8553032798168330E-01 
    8.9656414175183607E-01 
    8.9612076297072163E-01 
    8.8514586868403200E-01 
    8.8476625697665245E-01 
    8.9568415646666266E-01 
    8.9525655287652750E-01 
    8.8439346501111782E-01 
    8.8402949564270561E-01 
    8.9484020199707293E-01 
    8.9443731948058391E-01 
    8.8367637880131933E-01 
    8.8333601675362927E-01 
    8.9404998266665925E-01 
    8.9368017556074963E-01 
    8.8301019751578813E-01 
    8.8270078281692277E-01 
    8.9332990806862700E-01 
    8.9300106682548064E-01 
    8.8240951381594501E-01 
    8.8213790829750516E-01 
    8.9269537280013878E-01 
    8.9241456176054035E-01 
    8.8188750061546339E-01 
    8.8165985351849407E-01 
    8.9216029365711969E-01 
    8.9193510591983138E-01 
    8.8145746427026461E-01 
    8.8128256543997696E-01 
    8.9174273780275870E-01 
    8.9157682745154232E-01 
    8.8111908684353057E-01 
    8.8094737285308300E-01 
    8.9141105280330868E-01 
    8.9127894586893341E-01 
    8.8082162669451891E-01 
    8.8076836086408083E-01 
    8.9121772678941968E-01 
    8.7883562270539994E-01 
    8.6630574228782786E-01 
    8.6628258332773600E-01 
    8.7880891858730248E-01 
    8.7875567471880300E-01 
    8.6623640666668589E-01 
    8.6616749916694380E-01 
    8.7867621635053295E-01 
    8.7857104640472217E-01 
    8.6607625415334699E-01 
    8.6596321799889242E-01 
    8.7844082748278152E-01 
    8.7828643104372672E-01 
    8.6582910316966244E-01 
    8.6567479384106227E-01 
    8.7810890467919944E-01 
    8.7790946819388671E-01 
    8.6550130417996118E-01 
    8.6530980218975895E-01 
    8.7768951375690707E-01 
    8.7745052975572246E-01 
    8.6510151393070045E-01 
    8.6487767962190965E-01 
    8.7719402529374257E-01 
    8.7692160253358231E-01 
    8.6463960959163944E-01 
    8.6438863511291641E-01 
    8.7663488664822931E-01 
    8.7633549122165877E-01 
    8.6412608115156397E-01 
    8.6385335689620046E-01 
    8.7602509201917400E-01 
    8.7570544011907414E-01 
    8.6357195158188360E-01 
    8.6328336563389096E-01 
    8.7537828871249923E-01 
    8.7504539088662314E-01 
    8.6298911671910816E-01 
    8.6269082384489126E-01 
    8.7470859281830837E-01 
    8.7436974654429911E-01 
    8.6239011808480470E-01 
    8.6208859344622824E-01 
    8.7403066237298432E-01 
    8.7369320646309800E-01 
    8.6178792919667790E-01 
    8.6148979962758088E-01 
    8.7335925051258367E-01 
    8.7303059191564425E-01 
    8.6119583342701966E-01 
    8.6090770842065345E-01 
    8.7270904425892903E-01 
    8.7239646624581635E-01 
    8.6062714897514270E-01 
    8.6035582739492489E-01 
    8.7209465802375086E-01 
    8.7180534572490520E-01 
    8.6009540657486094E-01 
    8.5984766525206446E-01 
    8.7153033426780080E-01 
    8.7127138951299177E-01 
    8.5961439607787582E-01 
    8.5939743858145090E-01 
    8.7103017534429028E-01 
    8.7080849849024844E-01 
    8.5919904733200025E-01 
    8.5902250801717095E-01 
    8.7060865918168517E-01 
    8.7043431897277990E-01 
    8.5887279377741677E-01 
    8.5875260772625761E-01 
    8.7028760059479282E-01 
    8.7013792433174353E-01 
    8.5862295691704449E-01 
    8.5845969066768224E-01 
    8.6996473025356946E-01 
    8.6983898965487205E-01 
    8.5833596842487048E-01 
    8.5827971112450174E-01 
    8.6978649576019706E-01 
    8.5349718560446053E-01 
    8.4040299400620566E-01 
    8.4038438411821115E-01 
    8.5347666900310326E-01 
    8.5343576645423302E-01 
    8.4034728596098296E-01 
    8.4029191046901941E-01 
    8.5337472255017432E-01 
    8.5329386663306228E-01 
    8.4021855415258084E-01 
    8.4012765296567549E-01 
    8.5319366421722864E-01 
    8.5307474404725914E-01 
    8.4001977857499532E-01 
    8.3989560100955551E-01 
    8.5293786875840860E-01 
    8.5278389495654927E-01 
    8.3975585686824750E-01 
    8.3960140009729378E-01 
    8.5261381704370276E-01 
    8.5242866570995590E-01 
    8.3943309974762415E-01 
    8.3925179733459365E-01 
    8.5222945378628023E-01 
    8.5201728005182331E-01 
    8.3905843520417045E-01 
    8.3885397144436935E-01 
    8.5179326074656503E-01 
    8.5155849990914301E-01 
    8.3863937140987299E-01 
    8.3841571600807197E-01 
    8.5131421151576958E-01 
    8.5106171454384028E-01 
    8.3818419629068652E-01 
    8.3794600795928320E-01 
    8.5080232756312923E-01 
    8.5053737455913481E-01 
    8.3770235317871189E-01 
    8.3745456394513651E-01 
    8.5026831525130586E-01 
    8.4999661628924461E-01 
    8.3720398318382527E-01 
    8.3695189947492932E-01 
    8.4972368344689042E-01 
    8.4945105228898321E-01 
    8.3669972140298632E-01 
    8.3644884003962683E-01 
    8.4918024248212709E-01 
    8.4891270263324525E-01 
    8.3620058399618924E-01 
    8.3595632641836415E-01 
    8.4864996237145773E-01 
    8.4839360964921418E-01 
    8.3571749567457865E-01 
    8.3548544399153857E-01 
    8.4814515087184672E-01 
    8.4790604483819854E-01 
    8.3526143375943684E-01 
    8.3504680794145325E-01 
    8.4767789914704339E-01 
    8.4746230103410725E-01 
    8.3484286334812341E-01 
    8.3465088461425796E-01 
    8.4726083772699046E-01 
    8.4707565304060806E-01 
    8.3447268901773697E-01 
    8.3431116734549504E-01 
    8.4691004213842969E-01 
    8.4676828653088043E-01 
    8.3416909871713030E-01 
    8.3404063453577837E-01 
    8.4664996344327526E-01 
    8.4651986902770338E-01 
    8.3389640136971577E-01 
    8.3375423506222990E-01 
    8.4637061429591109E-01 
    8.4626276712809723E-01 
    8.3366156522114010E-01 
    8.3361539741128854E-01 
    8.4621023158016817E-01 
    8.2702141613261959E-01 
    8.1335521646877640E-01 
    8.1333858306670226E-01 
    8.2700407769085349E-01 
    8.2696951574662092E-01 
    8.1330542413174201E-01 
    8.1325593841967603E-01 
    8.2691792391653407E-01 
    8.2684960277846353E-01 
    8.1319043483732789E-01 
    8.1310931752893512E-01 
    8.2676496833886848E-01 
    8.2666454795893862E-01 
    8.1301309279819722E-01 
    8.1290231728573992E-01 
    8.2654894728406025E-01 
    8.2641882660776522E-01 
    8.1277758832654157E-01 
    8.1263953616862605E-01 
    8.2627491181858803E-01 
    8.2611794142383577E-01 
    8.1248881486800428E-01 
    8.1232610001114081E-01 
    8.2594865630436032E-01 
    8.2576787451960354E-01 
    8.1215214410127923E-01 
    8.1196776316194708E-01 
    8.2557645185838202E-01 
    8.2537528846401043E-01 
    8.1177382054269465E-01 
    8.1157128421068470E-01 
    8.2516538240998727E-01 
    8.2494783058796473E-01 
    8.1136121131262817E-01 
    8.1114469413143886E-01 
    8.2472375429051104E-01 
    8.2449430275651969E-01 
    8.1092284806837600E-01 
    8.1069688444164123E-01 
    8.2426071462539408E-01 
    8.2402425202341878E-01 
    8.1046803151597269E-01 
    8.1023750331452093E-01 
    8.2378615113099585E-01 
    8.2354772857223613E-01 
    8.1000658199409759E-01 
    8.0977655268505710E-01 
    8.2331028952545193E-01 
    8.2307510497424541E-01 
    8.0954865787086527E-01 
    8.0932420896482637E-01 
    8.2284346908808725E-01 
    8.2261670153367528E-01 
    8.0910454018386124E-01 
    8.0889096025620721E-01 
    8.2239607007779403E-01 
    8.2218277048891908E-01 
    8.0868478640735952E-01 
    8.0848748661153469E-01 
    8.2197803259713975E-01 
    8.2178304970125671E-01 
    8.0830067283829099E-01 
    8.0812639861417757E-01 
    8.2159910724436369E-01 
    8.2142805019418630E-01 
    8.0796774308003372E-01 
    8.0782827429550397E-01 
    8.2127235110982832E-01 
    8.2113242839481337E-01 
    8.0770791859049162E-01 
    8.0756642450206650E-01 