# vtk DataFile Version 2.0
Pressure Field Data 
ASCII 
DATASET UNSTRUCTURED_GRID 

POINTS 1681 double 

    0.0000000000000000E+00     0.0000000000000000E+00     0.0000000000000000E+00 
    1.0000000000000000E+00     0.0000000000000000E+00     0.0000000000000000E+00 
    1.0000000000000000E+00     1.0000000000000000E+00     0.0000000000000000E+00 
    0.0000000000000000E+00     1.0000000000000000E+00     0.0000000000000000E+00 
    5.2499999999875258E-01     0.0000000000000000E+00     0.0000000000000000E+00 
    7.4999999999856765E-02     0.0000000000000000E+00     0.0000000000000000E+00 
    1.2499999999975850E-01     0.0000000000000000E+00     0.0000000000000000E+00 
    1.7499999999962990E-01     0.0000000000000000E+00     0.0000000000000000E+00 
    2.2499999999948389E-01     0.0000000000000000E+00     0.0000000000000000E+00 
    2.7499999999933789E-01     0.0000000000000000E+00     0.0000000000000000E+00 
    3.2499999999919210E-01     0.0000000000000000E+00     0.0000000000000000E+00 
    3.7499999999904610E-01     0.0000000000000000E+00     0.0000000000000000E+00 
    4.2499999999890020E-01     0.0000000000000000E+00     0.0000000000000000E+00 
    4.7499999999875958E-01     0.0000000000000000E+00     0.0000000000000000E+00 
    2.4999999999949701E-02     0.0000000000000000E+00     0.0000000000000000E+00 
    5.7499999999887907E-01     0.0000000000000000E+00     0.0000000000000000E+00 
    6.2499999999901101E-01     0.0000000000000000E+00     0.0000000000000000E+00 
    6.7499999999914273E-01     0.0000000000000000E+00     0.0000000000000000E+00 
    7.2499999999927467E-01     0.0000000000000000E+00     0.0000000000000000E+00 
    7.7499999999940661E-01     0.0000000000000000E+00     0.0000000000000000E+00 
    8.2499999999953844E-01     0.0000000000000000E+00     0.0000000000000000E+00 
    8.7499999999967026E-01     0.0000000000000000E+00     0.0000000000000000E+00 
    9.2499999999980220E-01     0.0000000000000000E+00     0.0000000000000000E+00 
    9.7499999999993414E-01     0.0000000000000000E+00     0.0000000000000000E+00 
    5.4999999999881310E-01     0.0000000000000000E+00     0.0000000000000000E+00 
    9.9999999999814140E-02     0.0000000000000000E+00     0.0000000000000000E+00 
    1.4999999999970290E-01     0.0000000000000000E+00     0.0000000000000000E+00 
    1.9999999999955689E-01     0.0000000000000000E+00     0.0000000000000000E+00 
    2.4999999999941089E-01     0.0000000000000000E+00     0.0000000000000000E+00 
    2.9999999999926502E-01     0.0000000000000000E+00     0.0000000000000000E+00 
    3.4999999999911913E-01     0.0000000000000000E+00     0.0000000000000000E+00 
    3.9999999999897312E-01     0.0000000000000000E+00     0.0000000000000000E+00 
    4.4999999999882723E-01     0.0000000000000000E+00     0.0000000000000000E+00 
    4.9999999999869210E-01     0.0000000000000000E+00     0.0000000000000000E+00 
    4.9999999999899403E-02     0.0000000000000000E+00     0.0000000000000000E+00 
    5.9999999999894504E-01     0.0000000000000000E+00     0.0000000000000000E+00 
    6.4999999999907687E-01     0.0000000000000000E+00     0.0000000000000000E+00 
    6.9999999999920870E-01     0.0000000000000000E+00     0.0000000000000000E+00 
    7.4999999999934064E-01     0.0000000000000000E+00     0.0000000000000000E+00 
    7.9999999999947247E-01     0.0000000000000000E+00     0.0000000000000000E+00 
    8.4999999999960441E-01     0.0000000000000000E+00     0.0000000000000000E+00 
    8.9999999999973623E-01     0.0000000000000000E+00     0.0000000000000000E+00 
    9.4999999999986817E-01     0.0000000000000000E+00     0.0000000000000000E+00 
    1.0000000000000000E+00     5.2499999999875258E-01     0.0000000000000000E+00 
    1.0000000000000000E+00     7.4999999999856765E-02     0.0000000000000000E+00 
    1.0000000000000000E+00     1.2499999999975850E-01     0.0000000000000000E+00 
    1.0000000000000000E+00     1.7499999999962990E-01     0.0000000000000000E+00 
    1.0000000000000000E+00     2.2499999999948389E-01     0.0000000000000000E+00 
    1.0000000000000000E+00     2.7499999999933789E-01     0.0000000000000000E+00 
    1.0000000000000000E+00     3.2499999999919210E-01     0.0000000000000000E+00 
    1.0000000000000000E+00     3.7499999999904610E-01     0.0000000000000000E+00 
    1.0000000000000000E+00     4.2499999999890020E-01     0.0000000000000000E+00 
    1.0000000000000000E+00     4.7499999999875958E-01     0.0000000000000000E+00 
    1.0000000000000000E+00     2.4999999999949701E-02     0.0000000000000000E+00 
    1.0000000000000000E+00     5.7499999999887907E-01     0.0000000000000000E+00 
    1.0000000000000000E+00     6.2499999999901101E-01     0.0000000000000000E+00 
    1.0000000000000000E+00     6.7499999999914273E-01     0.0000000000000000E+00 
    1.0000000000000000E+00     7.2499999999927467E-01     0.0000000000000000E+00 
    1.0000000000000000E+00     7.7499999999940661E-01     0.0000000000000000E+00 
    1.0000000000000000E+00     8.2499999999953844E-01     0.0000000000000000E+00 
    1.0000000000000000E+00     8.7499999999967026E-01     0.0000000000000000E+00 
    1.0000000000000000E+00     9.2499999999980220E-01     0.0000000000000000E+00 
    1.0000000000000000E+00     9.7499999999993414E-01     0.0000000000000000E+00 
    1.0000000000000000E+00     5.4999999999881310E-01     0.0000000000000000E+00 
    1.0000000000000000E+00     9.9999999999814140E-02     0.0000000000000000E+00 
    1.0000000000000000E+00     1.4999999999970290E-01     0.0000000000000000E+00 
    1.0000000000000000E+00     1.9999999999955689E-01     0.0000000000000000E+00 
    1.0000000000000000E+00     2.4999999999941089E-01     0.0000000000000000E+00 
    1.0000000000000000E+00     2.9999999999926502E-01     0.0000000000000000E+00 
    1.0000000000000000E+00     3.4999999999911913E-01     0.0000000000000000E+00 
    1.0000000000000000E+00     3.9999999999897312E-01     0.0000000000000000E+00 
    1.0000000000000000E+00     4.4999999999882723E-01     0.0000000000000000E+00 
    1.0000000000000000E+00     4.9999999999869210E-01     0.0000000000000000E+00 
    1.0000000000000000E+00     4.9999999999899403E-02     0.0000000000000000E+00 
    1.0000000000000000E+00     5.9999999999894504E-01     0.0000000000000000E+00 
    1.0000000000000000E+00     6.4999999999907687E-01     0.0000000000000000E+00 
    1.0000000000000000E+00     6.9999999999920870E-01     0.0000000000000000E+00 
    1.0000000000000000E+00     7.4999999999934064E-01     0.0000000000000000E+00 
    1.0000000000000000E+00     7.9999999999947247E-01     0.0000000000000000E+00 
    1.0000000000000000E+00     8.4999999999960441E-01     0.0000000000000000E+00 
    1.0000000000000000E+00     8.9999999999973623E-01     0.0000000000000000E+00 
    1.0000000000000000E+00     9.4999999999986817E-01     0.0000000000000000E+00 
    4.7500000000196618E-01     1.0000000000000000E+00     0.0000000000000000E+00 
    9.2499999999968763E-01     1.0000000000000000E+00     0.0000000000000000E+00 
    8.7499999999961831E-01     1.0000000000000000E+00     0.0000000000000000E+00 
    8.2499999999982654E-01     1.0000000000000000E+00     0.0000000000000000E+00 
    7.7500000000017355E-01     1.0000000000000000E+00     0.0000000000000000E+00 
    7.2500000000052045E-01     1.0000000000000000E+00     0.0000000000000000E+00 
    6.7500000000086724E-01     1.0000000000000000E+00     0.0000000000000000E+00 
    6.2500000000121403E-01     1.0000000000000000E+00     0.0000000000000000E+00 
    5.7500000000156093E-01     1.0000000000000000E+00     0.0000000000000000E+00 
    5.2500000000189684E-01     1.0000000000000000E+00     0.0000000000000000E+00 
    9.7499999999989595E-01     1.0000000000000000E+00     0.0000000000000000E+00 
    4.2500000000176902E-01     1.0000000000000000E+00     0.0000000000000000E+00 
    3.7500000000156092E-01     1.0000000000000000E+00     0.0000000000000000E+00 
    3.2500000000135282E-01     1.0000000000000000E+00     0.0000000000000000E+00 
    2.7500000000114472E-01     1.0000000000000000E+00     0.0000000000000000E+00 
    2.2500000000093659E-01     1.0000000000000000E+00     0.0000000000000000E+00 
    1.7500000000072849E-01     1.0000000000000000E+00     0.0000000000000000E+00 
    1.2500000000052039E-01     1.0000000000000000E+00     0.0000000000000000E+00 
    7.5000000000312261E-02     1.0000000000000000E+00     0.0000000000000000E+00 
    2.5000000000104109E-02     1.0000000000000000E+00     0.0000000000000000E+00 
    4.5000000000187301E-01     1.0000000000000000E+00     0.0000000000000000E+00 
    8.9999999999958358E-01     1.0000000000000000E+00     0.0000000000000000E+00 
    8.4999999999965303E-01     1.0000000000000000E+00     0.0000000000000000E+00 
    8.0000000000000004E-01     1.0000000000000000E+00     0.0000000000000000E+00 
    7.5000000000034706E-01     1.0000000000000000E+00     0.0000000000000000E+00 
    7.0000000000069384E-01     1.0000000000000000E+00     0.0000000000000000E+00 
    6.5000000000104063E-01     1.0000000000000000E+00     0.0000000000000000E+00 
    6.0000000000138742E-01     1.0000000000000000E+00     0.0000000000000000E+00 
    5.5000000000173432E-01     1.0000000000000000E+00     0.0000000000000000E+00 
    5.0000000000205946E-01     1.0000000000000000E+00     0.0000000000000000E+00 
    9.4999999999979179E-01     1.0000000000000000E+00     0.0000000000000000E+00 
    4.0000000000166491E-01     1.0000000000000000E+00     0.0000000000000000E+00 
    3.5000000000145681E-01     1.0000000000000000E+00     0.0000000000000000E+00 
    3.0000000000124871E-01     1.0000000000000000E+00     0.0000000000000000E+00 
    2.5000000000104061E-01     1.0000000000000000E+00     0.0000000000000000E+00 
    2.0000000000083251E-01     1.0000000000000000E+00     0.0000000000000000E+00 
    1.5000000000062441E-01     1.0000000000000000E+00     0.0000000000000000E+00 
    1.0000000000041630E-01     1.0000000000000000E+00     0.0000000000000000E+00 
[...]
CELL_DATA 1600 
SCALARS Pressure double 1 
LOOKUP_TABLE default 

    1.2742183205729072E+00 
    1.2277285328408887E+00 
    1.2253475573459867E+00 
    1.2586313240197247E+00 
    1.2462029273725892E+00 
    1.2217402213647759E+00 
    1.2175531414581013E+00 
    1.2360084335460573E+00 
    1.2274250568848242E+00 
    1.2131464180682874E+00 
    1.2087188276285841E+00 
    1.2200405701761170E+00 
    1.2135710245802109E+00 
    1.2043813445980853E+00 
    1.2001923298343808E+00 
    1.2078158847274287E+00 
    1.2026303727892602E+00 
    1.1961787203162755E+00 
    1.1923495314675336E+00 
    1.1979083391556449E+00 
    1.1935706411669815E+00 
    1.1887038948416802E+00 
    1.1852357573714833E+00 
    1.1895574109218332E+00 
    1.1858228574948313E+00 
    1.1819369955353194E+00 
    1.1787988830912663E+00 
    1.1823314609862310E+00 
    1.1790553684856560E+00 
    1.1758128414209510E+00 
    1.1729708724136829E+00 
    1.1759725551920761E+00 
    1.1730654219123160E+00 
    1.1702658014660352E+00 
    1.1676912558422969E+00 
    1.1703197824823375E+00 
    1.1677241674569367E+00 
    1.1652416904333847E+00 
    1.1629123429079500E+00 
    1.1652692773521975E+00 
    1.1629475022947717E+00 
    1.1606991837311000E+00 
    1.1585987892442728E+00 
    1.1607526485748896E+00 
    1.1586797109997204E+00 
    1.1566083639908054E+00 
    1.1547256209147352E+00 
    1.1567246099605608E+00 
    1.1548840832765663E+00 
    1.1529487350035221E+00 
    1.1512763004551636E+00 
    1.1531555795150115E+00 
    1.1515371300424284E+00 
    1.1497073292186812E+00 
    1.1482412009992107E+00 
    1.1500272921676276E+00 
    1.1486251766396169E+00 
    1.1468776989779308E+00 
    1.1456170149085931E+00 
    1.1473304279790986E+00 
    1.1461432732712067E+00 
    1.1444599004987164E+00 
    1.1434088058023855E+00 
    1.1450656354966016E+00 
    1.1441029166450012E+00 
    1.1424694797153210E+00 
    1.1416386027303023E+00 
    1.1432533903373399E+00 
    1.1424587058525100E+00 
    1.1408481153049166E+00 
    1.1400671611877746E+00 
    1.1416705082778895E+00 
    1.1410110533114870E+00 
    1.1394240060642200E+00 
    1.1389596672745994E+00 
    1.1405386292123603E+00 
    1.1402241294119306E+00 
    1.1386504580161625E+00 
    1.1384959566776409E+00 
    1.1400670227997229E+00 
    1.2036177231505418E+00 
    1.1856770722893779E+00 
    1.1852838292454990E+00 
    1.2028490086685062E+00 
    1.2014275148448790E+00 
    1.1845197590444732E+00 
    1.1834239387307885E+00 
    1.1994960016317924E+00 
    1.1971901283996826E+00 
    1.1820453333267489E+00 
    1.1804344346887521E+00 
    1.1946248985544388E+00 
    1.1918948832190941E+00 
    1.1786400653034614E+00 
    1.1767071186932085E+00 
    1.1890735760682409E+00 
    1.1862158027806000E+00 
    1.1746745079252228E+00 
    1.1725748729622030E+00 
    1.1833611055083357E+00 
    1.1805374107828597E+00 
    1.1704351112015683E+00 
    1.1682773395313477E+00 
    1.1777641723126784E+00 
    1.1750550461474478E+00 
    1.1661198528025571E+00 
    1.1639775316657885E+00 
    1.1724194462088733E+00 
    1.1698636982268846E+00 
    1.1618622916902670E+00 
    1.1597838591670921E+00 
    1.1673919855587782E+00 
    1.1650070436709661E+00 
    1.1577501180574916E+00 
    1.1557674167910317E+00 
    1.1627105470734871E+00 
    1.1605035059406459E+00 
    1.1538409145771029E+00 
    1.1519750114317300E+00 
    1.1583865302910086E+00 
    1.1563599909910880E+00 
    1.1501733397423639E+00 
    1.1484389492136402E+00 
    1.1544240790701443E+00 
    1.1525790029177476E+00 
    1.1467745775762996E+00 
    1.1451826158858804E+00 
    1.1508249655671146E+00 
    1.1491622128822334E+00 
    1.1436651717428641E+00 
    1.1422243022426792E+00 
    1.1475910940271852E+00 
    1.1461121098176341E+00 
    1.1408619912464992E+00 
    1.1395801551032030E+00 
    1.1447259023281746E+00 
    1.1434333379170052E+00 
    1.1383807676150253E+00 
    1.1372660231547858E+00 
    1.1422355485262414E+00 
    1.1411341749814730E+00 
    1.1362386264148654E+00 
    1.1353035626811252E+00 
    1.1401327424326639E+00 
    1.1392376213697284E+00 
    1.1344677567426691E+00 
    1.1337198952998082E+00 
    1.1384424258831551E+00 
    1.1376621058597907E+00 
    1.1329570867845982E+00 
    1.1322097954999253E+00 
    1.1368948998645521E+00 
    1.1362794160242355E+00 
    1.1316273816377513E+00 
    1.1311963188177492E+00 
    1.1358294174822563E+00 
    1.1355296792365830E+00 
    1.1309092512935641E+00 
    1.1307658002233427E+00 
    1.1353798791055665E+00 
    1.1699779574925246E+00 
    1.1551803267174112E+00 
    1.1550061609002169E+00 
    1.1697275369504756E+00 
    1.1692360465102147E+00 
    1.1546628249224915E+00 
    1.1541587737058161E+00 
    1.1685206097002196E+00 
    1.1676028956513991E+00 
    1.1535045201861378E+00 
    1.1527124119754968E+00 
    1.1665062734123810E+00 
    1.1652556467388142E+00 
    1.1517963862137626E+00 
    1.1507708532252297E+00 
    1.1638760213731241E+00 
    1.1623908206318421E+00 
    1.1496501246200612E+00 
    1.1484486850451519E+00 
    1.1608218916762330E+00 
    1.1591891872464362E+00 
    1.1471806505159874E+00 
    1.1458591070057014E+00 
    1.1575104960996967E+00 
    1.1558018645607784E+00 
    1.1444964979314209E+00 
    1.1431043122171300E+00 
    1.1540773733486560E+00 
    1.1523490623569876E+00 
    1.1416927703494242E+00 
    1.1402712846226595E+00 
    1.1506275149129392E+00 
    1.1489219938221318E+00 
    1.1388485283676910E+00 
    1.1374322726754968E+00 
    1.1472404209199716E+00 
    1.1455895950107178E+00 
    1.1360294316222237E+00 
    1.1346464945763037E+00 
    1.1439756710445981E+00 
    1.1424040379204150E+00 
    1.1332893971499334E+00 
    1.1319633430365714E+00 
    1.1408793248398801E+00 
    1.1394058324290517E+00 
    1.1306732840955660E+00 
    1.1294238134849297E+00 
    1.1379874117846849E+00 
    1.1366274492309500E+00 
    1.1282190062160642E+00 
    1.1270627720032120E+00 
    1.1353292025724062E+00 
    1.1340958025726422E+00 
    1.1259588945196366E+00 
    1.1249108791190239E+00 
    1.1329301539311591E+00 
    1.1318350496175367E+00 
    1.1239219995927019E+00 
    1.1229958718852859E+00 
    1.1308135105306278E+00 
    1.1298693173179315E+00 
    1.1221373191787918E+00 
    1.1213532563935957E+00 
    1.1290087590290572E+00 
    1.1282379999134975E+00 
    1.1206462171711500E+00 
    1.1199735457022493E+00 
    1.1275360236035550E+00 
    1.1267925075907241E+00 
    1.1192431168281884E+00 
    1.1185691443264554E+00 
    1.1260738229628335E+00 
    1.1255292769935381E+00 
    1.1180683349901768E+00 
    1.1176925578972303E+00 
    1.1251229820380708E+00 
    1.1248524001355180E+00 
    1.1174418774965378E+00 
    1.1173164958216124E+00 
    1.1247171914500076E+00 
    1.1407261740882328E+00 
    1.1263108659240864E+00 
    1.1262125812120349E+00 
    1.1405984682849044E+00 
    1.1403453342989422E+00 
    1.1260171018564948E+00 
    1.1257266385755769E+00 
    1.1399708275558034E+00 
    1.1394806162323188E+00 
    1.1253446200405195E+00 
    1.1248755076389825E+00 
    1.1388819360555589E+00 
    1.1381831465680692E+00 
    1.1243247088520225E+00 
    1.1236983472263886E+00 
    1.1373932760577359E+00 
    1.1365218073967500E+00 
    1.1230031066460533E+00 
    1.1222460030059347E+00 
    1.1355786594206998E+00 
    1.1345737906528701E+00 
    1.1214341574847522E+00 
    1.1205744716344588E+00 
    1.1335167165054127E+00 
    1.1324166666686624E+00 
    1.1196737654438718E+00 
    1.1187386710598499E+00 
    1.1312824794542631E+00 
    1.1301223136700362E+00 
    1.1177755595769656E+00 
    1.1167906516945088E+00 
    1.1289439168825182E+00 
    1.1277546720248026E+00 
    1.1157900854687934E+00 
    1.1147797213221224E+00 
    1.1265614838087827E+00 
    1.1253707391157648E+00 
    1.1137651770441686E+00 
    1.1127519298200683E+00 
    1.1241885390902000E+00 
    1.1230206227727535E+00 
    1.1117452160968055E+00 
    1.1107499350916568E+00 
    1.1218722225178903E+00 
    1.1207483331916970E+00 
    1.1097708775446939E+00 
    1.1088125859527345E+00 
    1.1196537104477164E+00 
    1.1185927002606708E+00 
    1.1078793251431620E+00 
    1.1069752228099810E+00 
    1.1175694689346878E+00 
    1.1165880397823280E+00 
    1.1061043137100848E+00 
    1.1052705211937268E+00 
    1.1156522286739083E+00 
    1.1147657846212049E+00 
    1.1044781509897403E+00 
    1.1037329054544558E+00 
    1.1139331894777282E+00 
    1.1131607451659236E+00 
    1.1030425091615452E+00 
    1.1024132526995245E+00 
    1.1124558025834155E+00 
    1.1118150057978300E+00 
    1.1018307420312210E+00 
    1.1011916403567747E+00 
    1.1111614138461978E+00 
    1.1104448678500967E+00 
    1.1005022971081633E+00 
    1.0999355923399869E+00 
    1.1098243556982608E+00 
    1.1093601090785776E+00 
    1.0994979913556273E+00 
    1.0991701978676307E+00 
    1.1090112974293806E+00 
    1.1087784799630214E+00 
    1.0989518158877130E+00 
    1.0988426537669957E+00 
    1.1086619957682271E+00 
    1.1117461476299326E+00 
    1.0969169940858310E+00 
    1.0968524470052476E+00 
    1.1116675553183517E+00 
    1.1115111246536415E+00 
    1.0967239408472842E+00 
    1.0965325666697308E+00 
    1.1112783477221322E+00 
    1.1109714134528410E+00 
    1.0962798956282238E+00 
    1.0959681032917814E+00 
    1.1105932909380885E+00 
    1.1101477813641520E+00 
    1.0956000226312472E+00 
    1.0951789383486805E+00 
    1.1096392925750169E+00 
    1.1090726180763337E+00 
    1.0947083658490298E+00 
    1.0941920152449900E+00 
    1.1084528900073702E+00 
    1.1077852482947208E+00 
    1.0936335885597013E+00 
    1.0930367283950946E+00 
    1.1070746643414757E+00 
    1.1063262106482481E+00 
    1.0924052186975064E+00 
    1.0917429824571301E+00 
    1.1055449265429156E+00 
    1.1047357526461143E+00 
    1.0910539764652820E+00 
    1.0903423376798085E+00 
    1.1039037238608280E+00 
    1.1030539413916607E+00 
    1.0896123159838040E+00 
    1.0888681365980777E+00 
    1.1021913594972637E+00 
    1.1013207665765561E+00 
    1.0881139459168623E+00 
    1.0873539594204726E+00 
    1.1004470103269819E+00 
    1.0995747716141215E+00 
    1.0865923081522522E+00 
    1.0858328972826221E+00 
    1.0987084387407200E+00 
    1.0978524248855293E+00 
    1.0850796472405317E+00 
    1.0843363659983809E+00 
    1.0970109327408251E+00 
    1.0961878785457730E+00 
    1.0836066433077356E+00 
    1.0828941538114569E+00 
    1.0953871351247952E+00 
    1.0946126071667730E+00 
    1.0822028156923094E+00 
    1.0815371382043850E+00 
    1.0938683238056057E+00 
    1.0931591348195981E+00 
    1.0809029854978578E+00 
    1.0803080236951292E+00 
    1.0924917857208429E+00 
    1.0918740580353372E+00 
    1.0797589168143729E+00 
    1.0792477709312005E+00 
    1.0913070882737663E+00 
    1.0907466278792586E+00 
    1.0786846046897527E+00 
    1.0780116576724612E+00 
    1.0900957416620261E+00 
    1.0894485586103151E+00 
    1.0774088884488087E+00 
    1.0769444709086242E+00 
    1.0889415278526802E+00 
    1.0885379056244171E+00 
    1.0765714726688160E+00 
    1.0762909299173249E+00 
    1.0882349158085809E+00 
    1.0880327954652838E+00 
    1.0761035566195829E+00 
    1.0760097779266988E+00 
    1.0879316988621983E+00 
    1.0817569309068231E+00 
    1.0662283108670103E+00 
    1.0661818806752430E+00 
    1.0817027715180938E+00 
    1.0815948894668943E+00 
    1.0660893779374456E+00 
    1.0659515045217254E+00 
    1.0814341209996452E+00 
    1.0812217233666184E+00 
    1.0657693602915459E+00 
    1.0655444040258861E+00 
    1.0809594566855383E+00 
    1.0806495201419239E+00 
    1.0652783569696762E+00 
    1.0649729929089462E+00 
    1.0802943581895399E+00 
    1.0798964939178193E+00 
    1.0646300700709419E+00 
    1.0642514894481667E+00 
    1.0794585860057870E+00 
    1.0789833132414888E+00 
    1.0638392648071464E+00 
    1.0633955001096382E+00 
    1.0784733727173632E+00 
    1.0779317378333502E+00 
    1.0629226481658660E+00 
    1.0624233613720087E+00 
    1.0773615663801599E+00 
    1.0767661032485640E+00 
    1.0619003741923245E+00 
    1.0613566745701311E+00 
    1.0761488434916133E+00 
    1.0755134149562917E+00 
    1.0607954350852176E+00 
    1.0602198083394661E+00 
    1.0748634349105608E+00 
    1.0742025082039119E+00 
    1.0596329153591664E+00 
    1.0590380160050987E+00 
    1.0735343374371511E+00 
    1.0728625365539699E+00 
    1.0584382805251396E+00 
    1.0578367198598795E+00 
    1.0721905191898227E+00 
    1.0715217862063970E+00 
    1.0572365175093072E+00 
    1.0566409399123617E+00 
    1.0708597908626589E+00 
    1.0702078861810336E+00 
    1.0560533088222075E+00 
    1.0554774713838855E+00 
    1.0695697365487049E+00 
    1.0689495668100373E+00 
    1.0549181866306852E+00 
    1.0543812876506773E+00 
    1.0683525654126278E+00 
    1.0677853951143863E+00 
    1.0538733863074163E+00 
    1.0533993608496748E+00 
    1.0672552431484632E+00 
    1.0667638879503230E+00 
    1.0529499764325889E+00 
    1.0524395416865444E+00 
    1.0662787737272479E+00 
    1.0656898617323454E+00 
    1.0517839384187859E+00 
    1.0511522720368427E+00 
    1.0650273957261949E+00 
    1.0644761710502479E+00 
    1.0506542236345757E+00 
    1.0502391567775342E+00 
    1.0640341225731229E+00 
    1.0636805692962037E+00 
    1.0499063925708469E+00 
    1.0496564259281462E+00 
    1.0634153655720238E+00 
    1.0632385228052563E+00 
    1.0494896051888254E+00 
    1.0494061574149611E+00 
    1.0631500969494996E+00 
    1.0503101246095954E+00 
    1.0339903730968754E+00 
    1.0339539570501630E+00 
    1.0502694610824432E+00 
    1.0501884389389096E+00 
    1.0338813769880812E+00 
    1.0337731931817373E+00 
    1.0500676842699441E+00 
    1.0499081726238548E+00 
    1.0336302096028378E+00 
    1.0334533958745895E+00 
    1.0497111011944862E+00 
    1.0494777767454435E+00 
    1.0332437365181968E+00 
    1.0330021852971505E+00 
    1.0492094607133433E+00 
    1.0489074070532662E+00 
    1.0327297118042933E+00 
    1.0324275219677657E+00 
    1.0485730353402372E+00 
    1.0482079697602453E+00 
    1.0320970468795363E+00 
    1.0317399079556719E+00 
    1.0478140071393314E+00 
    1.0473932510833199E+00 
    1.0313579831561983E+00 
    1.0309532772501568E+00 
    1.0469479809829412E+00 
    1.0464805818319336E+00 
    1.0305278652592467E+00 
    1.0300840414978421E+00 
    1.0459936497632090E+00 
    1.0454899526455284E+00 
    1.0296242488735523E+00 
    1.0291509069155775E+00 
    1.0449722619767563E+00 
    1.0444433173575085E+00 
    1.0286664145704882E+00 
    1.0281733225991432E+00 
    1.0439059648279145E+00 
    1.0433630262108482E+00 
    1.0276742523405422E+00 
    1.0271718686111153E+00 
    1.0428172907078370E+00 
    1.0422717599142435E+00 
    1.0266691650887236E+00 
    1.0261694384682138E+00 
    1.0417296540283787E+00 
    1.0411944645200883E+00 
    1.0256764060122783E+00 
    1.0251945555617930E+00 
    1.0406703693734836E+00 
    1.0401625172050140E+00 
    1.0247289966966699E+00 
    1.0242844419868513E+00 
    1.0396766859956019E+00 
    1.0392177749088498E+00 
    1.0238622281239107E+00 
    1.0234477074605355E+00 
    1.0387849555142958E+00 
    1.0383400368928521E+00 
    1.0229436420689295E+00 
    1.0222642996274989E+00 
    1.0377652384863361E+00 
    1.0370770757925531E+00 
    1.0215967245527751E+00 
    1.0210595938427367E+00 
    1.0364895647272212E+00 
    1.0360166035026777E+00 
    1.0206019599165306E+00 
    1.0202199015474622E+00 
    1.0356213385373012E+00 
    1.0353043932066319E+00 
    1.0199137487248504E+00 
    1.0196838134997732E+00 
    1.0350662532052659E+00 
    1.0349072847145864E+00 
    1.0195303371853237E+00 
    1.0194534858710402E+00 
    1.0348277075359631E+00 
    1.0172618628099923E+00 
    1.0001202763496377E+00 
    1.0000888913426311E+00 
    1.0172284625172485E+00 
    1.0171618838329473E+00 
    1.0000263097520665E+00 
    9.9993286556681582E-01 
    1.0170625797976638E+00 
    1.0169311730042834E+00 
    9.9980903165952362E-01 
    9.9965548293850814E-01 
    1.0167684316924677E+00 
    1.0165751867994928E+00 
    9.9947300135782846E-01 
    9.9926236836883953E-01 
    1.0163522525834305E+00 
    1.0161004892958654E+00 
    9.9902444210099828E-01 
    9.9876038749581941E-01 
    1.0158210500446689E+00 
    1.0155153007710203E+00 
    9.9847154112526704E-01 
    9.9815931297731164E-01 
    1.0151847297873930E+00 
    1.0148310743421114E+00 
    9.9782533348633939E-01 
    9.9747124636757745E-01 
    1.0144561325952748E+00 
    1.0140617063911932E+00 
    9.9709867858532564E-01 
    9.9670945866236205E-01 
    1.0136498309832229E+00 
    1.0132227079397604E+00 
    9.9630558926267709E-01 
    9.9588902799677270E-01 
    1.0127824735182120E+00 
    1.0123312368704889E+00 
    9.9546173601881116E-01 
    9.9502599548385795E-01 
    1.0118713820959593E+00 
    1.0114054546216822E+00 
    9.9458432129145524E-01 
    9.9413932421979900E-01 
    1.0109360627139199E+00 
    1.0104662199848884E+00 
    9.9369396457331460E-01 
    9.9325159828439524E-01 
    1.0099993300627199E+00 
    1.0095392715940716E+00 
    9.9281604730741113E-01 
    9.9239127241870928E-01 
    1.0090905232821226E+00 
    1.0086573957923113E+00 
    9.9197987623617345E-01 
    9.9157827535079324E-01 
    1.0082421965213126E+00 
    1.0078379923115122E+00 
    9.9115052610708954E-01 
    9.9057391630397773E-01 
    1.0073850038260339E+00 
    1.0067587051306841E+00 
    9.8980354631619250E-01 
    9.8907925009288866E-01 
    1.0060202596325982E+00 
    1.0053935837536940E+00 
    9.8848741833848663E-01 
    9.8797095157788706E-01 
    1.0048760611664429E+00 
    1.0044306569047707E+00 
    9.8752784396059412E-01 
    9.8715821254454150E-01 
    1.0040583070618199E+00 
    1.0037597066803545E+00 
    9.8686222486947517E-01 
    9.8664007094800488E-01 
    1.0035353517203225E+00 
    1.0033855736122579E+00 
    9.8649189304903584E-01 
    9.8641781060171874E-01 
    1.0033105860495779E+00 
    9.8256361456117769E-01 
    9.6459427444814339E-01 
    9.6456461072154320E-01 
    9.8253342762424989E-01 
    9.8247320414643657E-01 
    9.6450540319058420E-01 
    9.6441684660322224E-01 
    9.8238318395239532E-01 
    9.8226377790431041E-01 
    9.6429935129124222E-01 
    9.6415356808584496E-01 
    9.8211563749795583E-01 
    9.8193953290620395E-01 
    9.6398026496548206E-01 
    9.6378024682621088E-01 
    9.8173625666550191E-01 
    9.8150672613416134E-01 
    9.6355448894416451E-01 
    9.6330417287613668E-01 
    9.8125211521429490E-01 
    9.8097373376574459E-01 
    9.6303058965324018E-01 
    9.6273509471438168E-01 
    9.8067296564729844E-01 
    9.8035135139024832E-01 
    9.6241920095674383E-01 
    9.6208448979639183E-01 
    9.8001045831196942E-01 
    9.7965184704821229E-01 
    9.6173251487182110E-01 
    9.6136492749080849E-01 
    9.7927721028705239E-01 
    9.7888840497417962E-01 
    9.6098351144085459E-01 
    9.6059013486058331E-01 
    9.7848731470193584E-01 
    9.7807588843933013E-01 
    9.6018675858496416E-01 
    9.5977557272528924E-01 
    9.7765634803844592E-01 
    9.7723115400483573E-01 
    9.5935889531945295E-01 
    9.5893905667691870E-01 
    9.7680287914953934E-01 
    9.7637436628518226E-01 
    9.5851849346898077E-01 
    9.5809953120277724E-01 
    9.7594871882947787E-01 
    9.7552917033706665E-01 
    9.5768340056064871E-01 
    9.5726725050686967E-01 
    9.7511821842265500E-01 
    9.7471405035406378E-01 
    9.5682806373660079E-01 
    9.5626448161022470E-01 
    9.7429046800870556E-01 
    9.7373777046373478E-01 
    9.5544889385115583E-01 
    9.5452114597195770E-01 
    9.7295271774043035E-01 
    9.7212269336228219E-01 
    9.5373363750802265E-01 
    9.5307113169060931E-01 
    9.7143531345762002E-01 
    9.7084759798497910E-01 
    9.5248153983984596E-01 
    9.5196507411972708E-01 
    9.7033264134872432E-01 
    9.6989072845257696E-01 
    9.5152202655749718E-01 
    9.5115260735537299E-01 