# vtk DataFile Version 2.0
Pressure Field Data 
ASCII 
DATASET UNSTRUCTURED_GRID 

POINTS 1681 double 

    0.0000000000000000E+00     0.0000000000000000E+00     0.0000000000000000E+00 
    1.0000000000000000E+00     0.0000000000000000E+00     0.0000000000000000E+00 
    1.0000000000000000E+00     1.0000000000000000E+00     0.0000000000000000E+00 
    0.0000000000000000E+00     1.0000000000000000E+00     0.0000000000000000E+00 
    5.2499999999875258E-01     0.0000000000000000E+00     0.0000000000000000E+00 
    7.4999999999856765E-02     0.0000000000000000E+00     0.0000000000000000E+00 
    1.2499999999975850E-01     0.0000000000000000E+00     0.0000000000000000E+00 
    1.7499999999962990E-01     0.0000000000000000E+00     0.0000000000000000E+00 
    2.2499999999948389E-01     0.0000000000000000E+00     0.0000000000000000E+00 
    2.7499999999933789E-01     0.0000000000000000E+00     0.0000000000000000E+00 
    3.2499999999919210E-01     0.0000000000000000E+00     0.0000000000000000E+00 
    3.7499999999904610E-01     0.0000000000000000E+00     0.0000000000000000E+00 
    4.2499999999890020E-01     0.0000000000000000E+00     0.0000000000000000E+00 
    4.7499999999875958E-01     0.0000000000000000E+00     0.0000000000000000E+00 
    2.4999999999949701E-02     0.0000000000000000E+00     0.0000000000000000E+00 
    5.7499999999887907E-01     0.0000000000000000E+00     0.0000000000000000E+00 
    6.2499999999901101E-01     0.0000000000000000E+00     0.0000000000000000E+00 
    6.7499999999914273E-01     0.0000000000000000E+00     0.0000000000000000E+00 
    7.2499999999927467E-01     0.0000000000000000E+00     0.0000000000000000E+00 
    7.7499999999940661E-01     0.0000000000000000E+00     0.0000000000000000E+00 
    8.2499999999953844E-01     0.0000000000000000E+00     0.0000000000000000E+00 
    8.7499999999967026E-01     0.0000000000000000E+00     0.0000000000000000E+00 
    9.2499999999980220E-01     0.0000000000000000E+00     0.0000000000000000E+00 
    9.7499999999993414E-01     0.0000000000000000E+00     0.0000000000000000E+00 
    5.4999999999881310E-01     0.0000000000000000E+00     0.0000000000000000E+00 
    9.9999999999814140E-02     0.0000000000000000E+00     0.0000000000000000E+00 
    1.4999999999970290E-01     0.0000000000000000E+00     0.0000000000000000E+00 
    1.9999999999955689E-01     0.0000000000000000E+00     0.0000000000000000E+00 
    2.4999999999941089E-01     0.0000000000000000E+00     0.0000000000000000E+00 
    2.9999999999926502E-01     0.0000000000000000E+00     0.0000000000000000E+00 
    3.4999999999911913E-01     0.0000000000000000E+00     0.0000000000000000E+00 
    3.9999999999897312E-01     0.0000000000000000E+00     0.0000000000000000E+00 
    4.4999999999882723E-01     0.0000000000000000E+00     0.0000000000000000E+00 
    4.9999999999869210E-01     0.0000000000000000E+00     0.0000000000000000E+00 
    4.9999999999899403E-02     0.0000000000000000E+00     0.0000000000000000E+00 
    5.9999999999894504E-01     0.0000000000000000E+00     0.0000000000000000E+00 
    6.4999999999907687E-01     0.0000000000000000E+00     0.0000000000000000E+00 
    6.9999999999920870E-01     0.0000000000000000E+00     0.0000000000000000E+00 
    7.4999999999934064E-01     0.0000000000000000E+00     0.0000000000000000E+00 
    7.9999999999947247E-01     0.0000000000000000E+00     0.0000000000000000E+00 
    8.4999999999960441E-01     0.0000000000000000E+00     0.0000000000000000E+00 
    8.9999999999973623E-01     0.0000000000000000E+00     0.0000000000000000E+00 
    9.4999999999986817E-01     0.0000000000000000E+00     0.0000000000000000E+00 
    1.0000000000000000E+00     5.2499999999875258E-01     0.0000000000000000E+00 
    1.0000000000000000E+00     7.4999999999856765E-02     0.0000000000000000E+00 
    1.0000000000000000E+00     1.2499999999975850E-01     0.0000000000000000E+00 
    1.0000000000000000E+00     1.7499999999962990E-01     0.0000000000000000E+00 
    1.0000000000000000E+00     2.2499999999948389E-01     0.0000000000000000E+00 
    1.0000000000000000E+00     2.7499999999933789E-01     0.0000000000000000E+00 
    1.0000000000000000E+00     3.2499999999919210E-01     0.0000000000000000E+00 
    1.0000000000000000E+00     3.7499999999904610E-01     0.0000000000000000E+00 
    1.0000000000000000E+00     4.2499999999890020E-01     0.0000000000000000E+00 
    1.0000000000000000E+00     4.7499999999875958E-01     0.0000000000000000E+00 
    1.0000000000000000E+00     2.4999999999949701E-02     0.0000000000000000E+00 
    1.0000000000000000E+00     5.7499999999887907E-01     0.0000000000000000E+00 
    1.0000000000000000E+00     6.2499999999901101E-01     0.0000000000000000E+00 
    1.0000000000000000E+00     6.7499999999914273E-01     0.0000000000000000E+00 
    1.0000000000000000E+00     7.2499999999927467E-01     0.0000000000000000E+00 
    1.0000000000000000E+00     7.7499999999940661E-01     0.0000000000000000E+00 
    1.0000000000000000E+00     8.2499999999953844E-01     0.0000000000000000E+00 
    1.0000000000000000E+00     8.7499999999967026E-01     0.0000000000000000E+00 
    1.0000000000000000E+00     9.2499999999980220E-01     0.0000000000000000E+00 
    1.0000000000000000E+00     9.7499999999993414E-01     0.0000000000000000E+00 
    1.0000000000000000E+00     5.4999999999881310E-01     0.0000000000000000E+00 
    1.0000000000000000E+00     9.9999999999814140E-02     0.0000000000000000E+00 
    1.0000000000000000E+00     1.4999999999970290E-01     0.0000000000000000E+00 
    1.0000000000000000E+00     1.9999999999955689E-01     0.0000000000000000E+00 
    1.0000000000000000E+00     2.4999999999941089E-01     0.0000000000000000E+00 
    1.0000000000000000E+00     2.9999999999926502E-01     0.0000000000000000E+00 
    1.0000000000000000E+00     3.4999999999911913E-01     0.0000000000000000E+00 
    1.0000000000000000E+00     3.9999999999897312E-01     0.0000000000000000E+00 
    1.0000000000000000E+00     4.4999999999882723E-01     0.0000000000000000E+00 
    1.0000000000000000E+00     4.9999999999869210E-01     0.0000000000000000E+00 
    1.0000000000000000E+00     4.9999999999899403E-02     0.0000000000000000E+00 
    1.0000000000000000E+00     5.9999999999894504E-01     0.0000000000000000E+00 
    1.0000000000000000E+00     6.4999999999907687E-01     0.0000000000000000E+00 
    1.0000000000000000E+00     6.9999999999920870E-01     0.0000000000000000E+00 
    1.0000000000000000E+00     7.4999999999934064E-01     0.0000000000000000E+00 
    1.0000000000000000E+00     7.9999999999947247E-01     0.0000000000000000E+00 
    1.0000000000000000E+00     8.4999999999960441E-01     0.0000000000000000E+00 
    1.0000000000000000E+00     8.9999999999973623E-01     0.0000000000000000E+00 
    1.0000000000000000E+00     9.4999999999986817E-01     0.0000000000000000E+00 
    4.7500000000196618E-01     1.0000000000000000E+00     0.0000000000000000E+00 
    9.2499999999968763E-01     1.0000000000000000E+00     0.0000000000000000E+00 
    8.7499999999961831E-01     1.0000000000000000E+00     0.0000000000000000E+00 
    8.2499999999982654E-01     1.0000000000000000E+00     0.0000000000000000E+00 
    7.7500000000017355E-01     1.0000000000000000E+00     0.0000000000000000E+00 
    7.2500000000052045E-01     1.0000000000000000E+00     0.0000000000000000E+00 
    6.7500000000086724E-01     1.0000000000000000E+00     0.0000000000000000E+00 
    6.2500000000121403E-01     1.0000000000000000E+00     0.0000000000000000E+00 
    5.7500000000156093E-01     1.0000000000000000E+00     0.0000000000000000E+00 
    5.2500000000189684E-01     1.0000000000000000E+00     0.0000000000000000E+00 
    9.7499999999989595E-01     1.0000000000000000E+00     0.0000000000000000E+00 
    4.2500000000176902E-01     1.0000000000000000E+00     0.0000000000000000E+00 
    3.7500000000156092E-01     1.0000000000000000E+00     0.0000000000000000E+00 
    3.2500000000135282E-01     1.0000000000000000E+00     0.0000000000000000E+00 
    2.7500000000114472E-01     1.0000000000000000E+00     0.0000000000000000E+00 
    2.2500000000093659E-01     1.0000000000000000E+00     0.0000000000000000E+00 
    1.7500000000072849E-01     1.0000000000000000E+00     0.0000000000000000E+00 
    1.2500000000052039E-01     1.0000000000000000E+00     0.0000000000000000E+00 
    7.5000000000312261E-02     1.0000000000000000E+00     0.0000000000000000E+00 
    2.5000000000104109E-02     1.0000000000000000E+00     0.0000000000000000E+00 
    4.5000000000187301E-01     1.0000000000000000E+00     0.0000000000000000E+00 
    8.9999999999958358E-01     1.0000000000000000E+00     0.0000000000000000E+00 
    8.4999999999965303E-01     1.0000000000000000E+00     0.0000000000000000E+00 
    8.0000000000000004E-01     1.0000000000000000E+00     0.0000000000000000E+00 
    7.5000000000034706E-01     1.0000000000000000E+00     0.0000000000000000E+00 
    7.0000000000069384E-01     1.0000000000000000E+00     0.0000000000000000E+00 
    6.5000000000104063E-01     1.0000000000000000E+00     0.0000000000000000E+00 
    6.0000000000138742E-01     1.0000000000000000E+00     0.0000000000000000E+00 
    5.5000000000173432E-01     1.0000000000000000E+00     0.0000000000000000E+00 
    5.0000000000205946E-01     1.0000000000000000E+00     0.0000000000000000E+00 
    9.4999999999979179E-01     1.0000000000000000E+00     0.0000000000000000E+00 
    4.0000000000166491E-01     1.0000000000000000E+00     0.0000000000000000E+00 
    3.5000000000145681E-01     1.0000000000000000E+00     0.0000000000000000E+00 
    3.0000000000124871E-01     1.0000000000000000E+00     0.0000000000000000E+00 
    2.5000000000104061E-01     1.0000000000000000E+00     0.0000000000000000E+00 
    2.0000000000083251E-01     1.0000000000000000E+00     0.0000000000000000E+00 
    1.5000000000062441E-01     1.0000000000000000E+00     0.0000000000000000E+00 
    1.0000000000041630E-01     1.0000000000000000E+00     0.0000000000000000E+00 
[...]
CELL_DATA 1600 
SCALARS Pressure double 1 
LOOKUP_TABLE default 

    1.2978888314651054E+00 
    1.2512442150859895E+00 
    1.2488556060499472E+00 
    1.2822905938355891E+00 
    1.2698450622385447E+00 
    1.2452322807917928E+00 
    1.2410186232420310E+00 
    1.2596214632575560E+00 
    1.2509944880717463E+00 
    1.2365732026248963E+00 
    1.2320952428272764E+00 
    1.2435541512602994E+00 
    1.2370188887529694E+00 
    1.2276975144919304E+00 
    1.2234404161405150E+00 
    1.2311902408968338E+00 
    1.2259251248085752E+00 
    1.2193525136083596E+00 
    1.2154440024596742E+00 
    1.2211187427058219E+00 
    1.2166930309310813E+00 
    1.2117149822268951E+00 
    1.2081602867004231E+00 
    1.2125890276093330E+00 
    1.2087617294612729E+00 
    1.2047726090739896E+00 
    1.2015439232819707E+00 
    1.2051762782470259E+00 
    1.2018053768025310E+00 
    1.1984662296055892E+00 
    1.1955320296569298E+00 
    1.1986274769789504E+00 
    1.1956253895909261E+00 
    1.1927345842804442E+00 
    1.1900679022966965E+00 
    1.1927852847224401E+00 
    1.1900960122725674E+00 
    1.1875267747589946E+00 
    1.1851067497184300E+00 
    1.1875485656484706E+00 
    1.1851356022200885E+00 
    1.1828040812814373E+00 
    1.1806156078626806E+00 
    1.1828511783722868E+00 
    1.1806905248866975E+00 
    1.1785387752501546E+00 
    1.1765715221366828E+00 
    1.1786497794317485E+00 
    1.1767258910787091E+00 
    1.1747122351390356E+00 
    1.1729597341896068E+00 
    1.1749165327626303E+00 
    1.1732199974733679E+00 
    1.1713132898304133E+00 
    1.1697725968726957E+00 
    1.1716351663511679E+00 
    1.1701615520796056E+00 
    1.1683378109638329E+00 
    1.1670097108986184E+00 
    1.1687994028241731E+00 
    1.1675505253932748E+00 
    1.1657907001637249E+00 
    1.1646865621382569E+00 
    1.1664202498346468E+00 
    1.1654105767047398E+00 
    1.1636979867440940E+00 
    1.1627756054618514E+00 
    1.1644802747038017E+00 
    1.1635034560801336E+00 
    1.1618093983518414E+00 
    1.1609368824528192E+00 
    1.1626100243112871E+00 
    1.1619493574277109E+00 
    1.1602878620669244E+00 
    1.1598019297440660E+00 
    1.1614548564547234E+00 
    1.1611256627236670E+00 
    1.1594783673578797E+00 
    1.1593167021582851E+00 
    1.1609612117631782E+00 
    1.2268988880532290E+00 
    1.2086316895851230E+00 
    1.2082283380587846E+00 
    1.2261215842641140E+00 
    1.2246820749809009E+00 
    1.2074443652096976E+00 
    1.2063197197294522E+00 
    1.2227224610132104E+00 
    1.2203782777087557E+00 
    1.2049040623825351E+00 
    1.2032485071309278E+00 
    1.2177649861189241E+00 
    1.2149786939733394E+00 
    1.2014030258494290E+00 
    1.1994133966701024E+00 
    1.2120945557370733E+00 
    1.2091684430258134E+00 
    1.1973189462102674E+00 
    1.1951527737377099E+00 
    1.2062405767802098E+00 
    1.2033395957542417E+00 
    1.1929424446382493E+00 
    1.1907107801320083E+00 
    1.2004857376628930E+00 
    1.1976934048599022E+00 
    1.1884767119419035E+00 
    1.1862556582915560E+00 
    1.1949726499775393E+00 
    1.1923303383014994E+00 
    1.1840600013766036E+00 
    1.1818998969347050E+00 
    1.1897711352071849E+00 
    1.1872982040781395E+00 
    1.1797836224416047E+00 
    1.1777178837199065E+00 
    1.1849136005001304E+00 
    1.1826186777149552E+00 
    1.1757081804653626E+00 
    1.1737592481195662E+00 
    1.1804143702688867E+00 
    1.1783013475467083E+00 
    1.1718750318909397E+00 
    1.1700588634538178E+00 
    1.1762800748438687E+00 
    1.1743510128184735E+00 
    1.1683137587111851E+00 
    1.1666423704919033E+00 
    1.1725146011720564E+00 
    1.1707713089230218E+00 
    1.1650470716377177E+00 
    1.1635302067959741E+00 
    1.1691217247609440E+00 
    1.1675666134703941E+00 
    1.1620940704572675E+00 
    1.1607408919207713E+00 
    1.1661069115777880E+00 
    1.1647438028629693E+00 
    1.1594730080997899E+00 
    1.1582934197335197E+00 
    1.1634789903048177E+00 
    1.1623159148173674E+00 
    1.1572071483829551E+00 
    1.1562213554674707E+00 
    1.1612610220092789E+00 
    1.1603119401720490E+00 
    1.1553287250447137E+00 
    1.1544348873189409E+00 
    1.1594022354639053E+00 
    1.1584556024712511E+00 
    1.1535113909161863E+00 
    1.1527296778344100E+00 
    1.1576231047149390E+00 
    1.1569954996142682E+00 
    1.1521289569023814E+00 
    1.1516787974344531E+00 
    1.1565253038109642E+00 
    1.1562120831876042E+00 
    1.1513788750242333E+00 
    1.1512289670276099E+00 
    1.1560555417551597E+00 
    1.1925118102548660E+00 
    1.1772286715780864E+00 
    1.1770476485778256E+00 
    1.1922523704240959E+00 
    1.1917435550684741E+00 
    1.1766906533473036E+00 
    1.1761661102200442E+00 
    1.1910032208568784E+00 
    1.1900533898352101E+00 
    1.1754846827993830E+00 
    1.1746591803208881E+00 
    1.1889179945854038E+00 
    1.1876226623045421E+00 
    1.1737039732442045E+00 
    1.1726338940416652E+00 
    1.1861928069747316E+00 
    1.1846522307702978E+00 
    1.1714638241757918E+00 
    1.1702089015795540E+00 
    1.1830234085662172E+00 
    1.1813269876867889E+00 
    1.1688838077823438E+00 
    1.1675020512756773E+00 
    1.1795813359594256E+00 
    1.1778030082763158E+00 
    1.1660764518690225E+00 
    1.1646188284899164E+00 
    1.1760065252921166E+00 
    1.1742042978297824E+00 
    1.1631396791251409E+00 
    1.1616487122904111E+00 
    1.1724072654240174E+00 
    1.1706250457001672E+00 
    1.1601549352932443E+00 
    1.1586664553670427E+00 
    1.1688659004116519E+00 
    1.1671369603840027E+00 
    1.1571905150113653E+00 
    1.1557339392438712E+00 
    1.1654447211555630E+00 
    1.1637948952512327E+00 
    1.1543029942676215E+00 
    1.1529031905771214E+00 
    1.1621924063274440E+00 
    1.1606418613073448E+00 
    1.1515398052510351E+00 
    1.1502177658384696E+00 
    1.1591474197542722E+00 
    1.1577127848327837E+00 
    1.1489414733134804E+00 
    1.1477151615076524E+00 
    1.1563415573160458E+00 
    1.1550372270321816E+00 
    1.1465429439061887E+00 
    1.1454287479245189E+00 
    1.1538030782247479E+00 
    1.1526424922583816E+00 
    1.1443767691240834E+00 
    1.1433928266707392E+00 
    1.1515599503868506E+00 
    1.1505623800258447E+00 
    1.1424849338756424E+00 
    1.1416563643869151E+00 
    1.1496566563435435E+00 
    1.1488266123768780E+00 
    1.1408703771482340E+00 
    1.1400038498729315E+00 
    1.1479496449858824E+00 
    1.1470537357028363E+00 
    1.1391526218345189E+00 
    1.1384853219939715E+00 
    1.1463268272864415E+00 
    1.1457567606181749E+00 
    1.1379536369128422E+00 
    1.1375550285981844E+00 
    1.1453297975693117E+00 
    1.1450454184427787E+00 
    1.1372893567540017E+00 
    1.1371565404138622E+00 
    1.1449033076557678E+00 
    1.1622422379988016E+00 
    1.1472501469248761E+00 
    1.1471464610039150E+00 
    1.1621086875010187E+00 
    1.1618437231027887E+00 
    1.1469402480377227E+00 
    1.1466338351928709E+00 
    1.1614513481712869E+00 
    1.1609373961175291E+00 
    1.1462307611760512E+00 
    1.1457356571124742E+00 
    1.1603093527048141E+00 
    1.1595759064718980E+00 
    1.1451542642980475E+00 
    1.1444931295211553E+00 
    1.1587465781680322E+00 
    1.1578313985915978E+00 
    1.1437593230939924E+00 
    1.1429601643533405E+00 
    1.1568407756869317E+00 
    1.1557850525801281E+00 
    1.1421029768197715E+00 
    1.1411947854070130E+00 
    1.1546740183357227E+00 
    1.1535171371041337E+00 
    1.1402425382985812E+00 
    1.1392530466239583E+00 
    1.1523234702109115E+00 
    1.1511014078393556E+00 
    1.1382329167707912E+00 
    1.1371886709467942E+00 
    1.1498589793049123E+00 
    1.1486038968839229E+00 
    1.1361267799020320E+00 
    1.1350534411405266E+00 
    1.1473433998920972E+00 
    1.1460842041925698E+00 
    1.1339746007791076E+00 
    1.1328960778559647E+00 
    1.1448327435094778E+00 
    1.1435950920366054E+00 
    1.1318234383008672E+00 
    1.1307618891275730E+00 
    1.1423767988838425E+00 
    1.1411831840359927E+00 
    1.1297165123092958E+00 
    1.1286921160681362E+00 
    1.1400193155204110E+00 
    1.1388898229460922E+00 
    1.1276932061520093E+00 
    1.1267242126361461E+00 
    1.1377991401771208E+00 
    1.1367516180665516E+00 
    1.1257897106246415E+00 
    1.1248948645479808E+00 
    1.1357517151971612E+00 
    1.1348047577624496E+00 
    1.1240465155126562E+00 
    1.1232536049843187E+00 
    1.1339181700215735E+00 
    1.1331000707041265E+00 
    1.1225224035359236E+00 
    1.1218340063917414E+00 
    1.1323463660695343E+00 
    1.1315783725154600E+00 
    1.1210689561467346E+00 
    1.1202198188818293E+00 
    1.1307129341447433E+00 
    1.1299231119004456E+00 
    1.1194982732639898E+00 
    1.1189242229879164E+00 
    1.1293107804048097E+00 
    1.1288198036237458E+00 
    1.1184647708817668E+00 
    1.1181200083149214E+00 
    1.1284509477385456E+00 
    1.1282047768340375E+00 
    1.1178900712019006E+00 
    1.1177750639079842E+00 
    1.1280816143885100E+00 
    1.1320683162241791E+00 
    1.1165896328540041E+00 
    1.1165208122564332E+00 
    1.1319848921176257E+00 
    1.1318188978010291E+00 
    1.1163837960329381E+00 
    1.1161797587517948E+00 
    1.1315719376151183E+00 
    1.1312463208139301E+00 
    1.1159104450521322E+00 
    1.1155782797975748E+00 
    1.1308452351914460E+00 
    1.1303727913429698E+00 
    1.1151863232086017E+00 
    1.1147379847978229E+00 
    1.1298336845553580E+00 
    1.1292329073634846E+00 
    1.1142367871179555E+00 
    1.1136863864665252E+00 
    1.1285757034382022E+00 
    1.1278672505260880E+00 
    1.1130904428933859E+00 
    1.1124526331340285E+00 
    1.1271125452059159E+00 
    1.1263167676617118E+00 
    1.1117768986125003E+00 
    1.1110674119138320E+00 
    1.1254851615934178E+00 
    1.1246229350398338E+00 
    1.1103284246584768E+00 
    1.1095643996959501E+00 
    1.1237354412178977E+00 
    1.1228281207100907E+00 
    1.1087799251886059E+00 
    1.1079795636373366E+00 
    1.1219062698749658E+00 
    1.1209750106525338E+00 
    1.1071677841735905E+00 
    1.1063490941982683E+00 
    1.1200395248434951E+00 
    1.1191047964494247E+00 
    1.1055278712310674E+00 
    1.1047082396439007E+00 
    1.1181754753977236E+00 
    1.1172562184433763E+00 
    1.1038943759792137E+00 
    1.1030904327609750E+00 
    1.1163514761376925E+00 
    1.1154654708764598E+00 
    1.1023005499679648E+00 
    1.1015294009275476E+00 
    1.1146026077385365E+00 
    1.1137678519634049E+00 
    1.1007826918011752E+00 
    1.1000676342919991E+00 
    1.1129672908864336E+00 
    1.1122088262360152E+00 
    1.0993924842696290E+00 
    1.0987622919792999E+00 
    1.1115008544345977E+00 
    1.1108423707688715E+00 
    1.0981585736955826E+00 
    1.0974669785579694E+00 
    1.1101745059843189E+00 
    1.1093813854269519E+00 
    1.0966348743322036E+00 
    1.0958862294244105E+00 
    1.1085773031908883E+00 
    1.1079281546961885E+00 
    1.0952889724826356E+00 
    1.0947897543218870E+00 
    1.1073919586407674E+00 
    1.1069627533801421E+00 
    1.0943894235697480E+00 
    1.0940886616269814E+00 
    1.1066406777412385E+00 
    1.1064258698306855E+00 
    1.0938879250097495E+00 
    1.0937874976011024E+00 
    1.1063184383179818E+00 
    1.1007555988758830E+00 
    1.0845343372860461E+00 
    1.0844842458201138E+00 
    1.1006975434883906E+00 
    1.1005819006875923E+00 
    1.0843844636343485E+00 
    1.0842358091550417E+00 
    1.1004096126050775E+00 
    1.1001821337407649E+00 
    1.0840395349203202E+00 
    1.0837971939749831E+00 
    1.0999014229446007E+00 
    1.0995697770841617E+00 
    1.0835104815683374E+00 
    1.0831810473905996E+00 
    1.0991896010322002E+00 
    1.0987632905414393E+00 
    1.0828105198785916E+00 
    1.0824007772695130E+00 
    1.0982933985375181E+00 
    1.0977826027153170E+00 
    1.0819539462367611E+00 
    1.0814723355930367E+00 
    1.0972337180874010E+00 
    1.0966499407970915E+00 
    1.0809586571752254E+00 
    1.0804158271559750E+00 
    1.0960347033475324E+00 
    1.0953915448688889E+00 
    1.0798468434216828E+00 
    1.0792549707551649E+00 
    1.0947242750827153E+00 
    1.0940368418339257E+00 
    1.0786436546455322E+00 
    1.0780162768024588E+00 
    1.0933331645999420E+00 
    1.0926171165862795E+00 
    1.0773761472157832E+00 
    1.0767267163960186E+00 
    1.0918926269918681E+00 
    1.0911635159514892E+00 
    1.0760714067100352E+00 
    1.0754136069279048E+00 
    1.0904334469964156E+00 
    1.0897062927605006E+00 
    1.0747570703492200E+00 
    1.0741058836942983E+00 
    1.0889860700181204E+00 
    1.0882770363774397E+00 
    1.0734645917749870E+00 
    1.0728387492860008E+00 
    1.0875843412635411E+00 
    1.0869143723043539E+00 
    1.0722348042018974E+00 
    1.0716585735788546E+00 
    1.0862744805599669E+00 
    1.0856708501827677E+00 
    1.0711101727847265E+00 
    1.0705614749361752E+00 
    1.0850997539504721E+00 
    1.0844961719413588E+00 
    1.0698891405146791E+00 
    1.0690470612477105E+00 
    1.0837352002568372E+00 
    1.0829158371971348E+00 
    1.0682782842389931E+00 
    1.0676537063250204E+00 
    1.0822367252253298E+00 
    1.0816709413420016E+00 
    1.0671170996958441E+00 
    1.0666688258916630E+00 
    1.0811987853196792E+00 
    1.0808205512593576E+00 
    1.0663095096131763E+00 
    1.0660396220873314E+00 
    1.0805365618511389E+00 
    1.0803470847756309E+00 
    1.0658595140649592E+00 
    1.0657694202322618E+00 
    1.0802523137991191E+00 
    1.0679070562651840E+00 
    1.0508599602633233E+00 
    1.0508200452094068E+00 
    1.0678628580277647E+00 
    1.0677748018236253E+00 
    1.0507404807695326E+00 
    1.0506218211836307E+00 
    1.0676435881324837E+00 
    1.0674702472898121E+00 
    1.0504648302207349E+00 
    1.0502704482959671E+00 
    1.0672559692528822E+00 
    1.0670019959572512E+00 
    1.0500396628257367E+00 
    1.0497734698804857E+00 
    1.0667095123273598E+00 
    1.0663797631097569E+00 
    1.0494729684638568E+00 
    1.0491395970835908E+00 
    1.0660142848560354E+00 
    1.0656149207609900E+00 
    1.0487750594953265E+00 
    1.0483812339788947E+00 
    1.0651837239845932E+00 
    1.0647230482664871E+00 
    1.0479602203756908E+00 
    1.0475142010112017E+00 
    1.0642353950061068E+00 
    1.0637233628817033E+00 
    1.0470454132810372E+00 
    1.0465563315848525E+00 
    1.0631897712951934E+00 
    1.0626375907415475E+00 
    1.0460495518908073E+00 
    1.0455276105648208E+00 
    1.0620697412350080E+00 
    1.0614891089725442E+00 
    1.0449930820588034E+00 
    1.0444488635693940E+00 
    1.0608987783427384E+00 
    1.0603019510771883E+00 
    1.0438980733176861E+00 
    1.0433439584669733E+00 
    1.0597019485690697E+00 
    1.0591025195106079E+00 
    1.0427902503232069E+00 
    1.0422412490540569E+00 
    1.0585079149419701E+00 
    1.0579229803437784E+00 
    1.0417017218647238E+00 
    1.0411762322986271E+00 
    1.0573532604985945E+00 
    1.0568040384024748E+00 
    1.0406667924901050E+00 
    1.0401639020423650E+00 
    1.0562772579544148E+00 
    1.0557587099186501E+00 
    1.0396029782195426E+00 
    1.0388470029341919E+00 
    1.0551566230484783E+00 
    1.0543525932250841E+00 
    1.0379382949276066E+00 
    1.0371400511635893E+00 
    1.0535015613922232E+00 
    1.0527960827671132E+00 
    1.0364758391862445E+00 
    1.0358930309859400E+00 
    1.0521958727357308E+00 
    1.0516801497402346E+00 
    1.0353922887495557E+00 
    1.0349742164569635E+00 
    1.0512494712090310E+00 
    1.0509043343117115E+00 
    1.0346392607637194E+00 
    1.0343877537230564E+00 
    1.0506451215932782E+00 
    1.0504721349830082E+00 
    1.0342199167696728E+00 
    1.0341358900070294E+00 
    1.0503855550057537E+00 
    1.0333817817271633E+00 
    1.0154650226268773E+00 
    1.0154301185067147E+00 
    1.0333448673605878E+00 
    1.0332712490475777E+00 
    1.0153604716782150E+00 
    1.0152563415395688E+00 
    1.0331613142363301E+00 
    1.0330156225680374E+00 
    1.0151181936285112E+00 
    1.0149468107420050E+00 
    1.0328349732147932E+00 
    1.0326202950346339E+00 
    1.0147431051776552E+00 
    1.0145080074550636E+00 
    1.0323725335503657E+00 
    1.0320927589441502E+00 
    1.0142426046474304E+00 
    1.0139483274731789E+00 
    1.0317824048065865E+00 
    1.0314431065968206E+00 
    1.0136267336898450E+00 
    1.0132794168553534E+00 
    1.0310765773688839E+00 
    1.0306847540546431E+00 
    1.0129082092902155E+00 
    1.0125149549959414E+00 
    1.0302696017176298E+00 
    1.0298330673918781E+00 
    1.0121014532490000E+00 
    1.0116696997907928E+00 
    1.0293773464029647E+00 
    1.0289048020288369E+00 
    1.0112218899113325E+00 
    1.0107602283566912E+00 
    1.0284177387118441E+00 
    1.0279185304511220E+00 
    1.0102870118347060E+00 
    1.0098049079882394E+00 
    1.0274099848451328E+00 
    1.0268951594318347E+00 
    1.0093167466172439E+00 
    1.0088253343930418E+00 
    1.0263771754269748E+00 
    1.0258595949878031E+00 
    1.0083336613661547E+00 
    1.0078443761294416E+00 
    1.0253463798530837E+00 
    1.0248414593586279E+00 
    1.0073579212728025E+00 
    1.0068651405095761E+00 
    1.0243466697415637E+00 
    1.0238550027614359E+00 
    1.0063157751283551E+00 
    1.0055799904044103E+00 
    1.0233129085898904E+00 
    1.0225860638716679E+00 
    1.0045935895154146E+00 
    1.0035936789005286E+00 
    1.0216442634217060E+00 
    1.0207462469565785E+00 
    1.0027560317084985E+00 
    1.0020316700879826E+00 
    1.0199987775789578E+00 
    1.0193427165672142E+00 
    1.0013877134602116E+00 
    1.0008242224820902E+00 
    1.0187687644506604E+00 
    1.0182767403541400E+00 
    1.0003412413697015E+00 
    9.9993878035409967E-01 
    1.0178666128419129E+00 
    1.0175384062071884E+00 
    9.9961682762050996E-01 
    9.9937538832194839E-01 
    1.0172921725563771E+00 
    1.0171279532208966E+00 
    9.9921444769219459E-01 
    9.9913401391588275E-01 
    1.0170457863442877E+00 
    9.9710732134782198E-01 
    9.7831336987769579E-01 
    9.7828030030525681E-01 
    9.9707365260425840E-01 
    9.9700644220982659E-01 
    9.7821427669609262E-01 
    9.7811552953317915E-01 
    9.9690589636398219E-01 
    9.9677249678129465E-01 
    9.7798456313236304E-01 
    9.7782207702129165E-01 
    9.9660701162361132E-01 
    9.9641029784106994E-01 
    9.7762886375473257E-01 
    9.7740587291842762E-01 
    9.9618328575976423E-01 
    9.9592711171234805E-01 
    9.7715426229752511E-01 
    9.7687531871014777E-01 
    9.9564315006633275E-01 
    9.9533286165415003E-01 
    9.7657042264713168E-01 
    9.7624107658007020E-01 
    9.9499778900937563E-01 
    9.9463968506849842E-01 
    9.7588897720836176E-01 
    9.7551592853219382E-01 
    9.9426035410970048E-01 
    9.9386157735019776E-01 
    9.7512372107964462E-01 
    9.7471415095880654E-01 
    9.9344523149537012E-01 
    9.9301334274936714E-01 
    9.7428903445060466E-01 
    9.7385026671980546E-01 
    9.9256803262354754E-01 
    9.9211152233832511E-01 
    9.7339966269102229E-01 
    9.7293872969511574E-01 
    9.9164616726519550E-01 
    9.9117426408554410E-01 
    9.7246816827128191E-01 
    9.7198651394384084E-01 
    9.9069764014276196E-01 
    9.9021721331894286E-01 
    9.7148707892363440E-01 
    9.7094605002194789E-01 
    9.8973097086393147E-01 
    9.8922558081350020E-01 
    9.7028157802572867E-01 
    9.6936956653151851E-01 
    9.8864022353853653E-01 
    9.8784548791368421E-01 
    9.6820405922656605E-01 
    9.6702692365599674E-01 
    9.8678384481075931E-01 
    9.8568832141814844E-01 
    9.6603116227025310E-01 
    9.6517109553658520E-01 
    9.8476733287455642E-01 
    9.8397417996915726E-01 
    9.6439239509281149E-01 
    9.6369360291953365E-01 
    9.8326135642043777E-01 
    9.8262836335592918E-01 
    9.6307395371979276E-01 
    9.6253283090480313E-01 
    9.8207498919942193E-01 
    9.8160103279460120E-01 
    9.6206976015700307E-01 
    9.6168438053849248E-01 