# vtk DataFile Version 2.0
Pressure Field Data 
ASCII 
DATASET UNSTRUCTURED_GRID 

POINTS 1681 double 

    0.0000000000000000E+00     0.0000000000000000E+00     0.0000000000000000E+00 
    1.0000000000000000E+00     0.0000000000000000E+00     0.0000000000000000E+00 
    1.0000000000000000E+00     1.0000000000000000E+00     0.0000000000000000E+00 
    0.0000000000000000E+00     1.0000000000000000E+00     0.0000000000000000E+00 
    5.2499999999875258E-01     0.0000000000000000E+00     0.0000000000000000E+00 
    7.4999999999856765E-02     0.0000000000000000E+00     0.0000000000000000E+00 
    1.2499999999975850E-01     0.0000000000000000E+00     0.0000000000000000E+00 
    1.7499999999962990E-01     0.0000000000000000E+00     0.0000000000000000E+00 
    2.2499999999948389E-01     0.0000000000000000E+00     0.0000000000000000E+00 
    2.7499999999933789E-01     0.0000000000000000E+00     0.0000000000000000E+00 
    3.2499999999919210E-01     0.0000000000000000E+00     0.0000000000000000E+00 
    3.7499999999904610E-01     0.0000000000000000E+00     0.0000000000000000E+00 
    4.2499999999890020E-01     0.0000000000000000E+00     0.0000000000000000E+00 
    4.7499999999875958E-01     0.0000000000000000E+00     0.0000000000000000E+00 
    2.4999999999949701E-02     0.0000000000000000E+00     0.0000000000000000E+00 
    5.7499999999887907E-01     0.0000000000000000E+00     0.0000000000000000E+00 
    6.2499999999901101E-01     0.0000000000000000E+00     0.0000000000000000E+00 
    6.7499999999914273E-01     0.0000000000000000E+00     0.0000000000000000E+00 
    7.2499999999927467E-01     0.0000000000000000E+00     0.0000000000000000E+00 
    7.7499999999940661E-01     0.0000000000000000E+00     0.0000000000000000E+00 
    8.2499999999953844E-01     0.0000000000000000E+00     0.0000000000000000E+00 
    8.7499999999967026E-01     0.0000000000000000E+00     0.0000000000000000E+00 
    9.2499999999980220E-01     0.0000000000000000E+00     0.0000000000000000E+00 
    9.7499999999993414E-01     0.0000000000000000E+00     0.0000000000000000E+00 
    5.4999999999881310E-01     0.0000000000000000E+00     0.0000000000000000E+00 
    9.9999999999814140E-02     0.0000000000000000E+00     0.0000000000000000E+00 
    1.4999999999970290E-01     0.0000000000000000E+00     0.0000000000000000E+00 
    1.9999999999955689E-01     0.0000000000000000E+00     0.0000000000000000E+00 
    2.4999999999941089E-01     0.0000000000000000E+00     0.0000000000000000E+00 
    2.9999999999926502E-01     0.0000000000000000E+00     0.0000000000000000E+00 
    3.4999999999911913E-01     0.0000000000000000E+00     0.0000000000000000E+00 
    3.9999999999897312E-01     0.0000000000000000E+00     0.0000000000000000E+00 
    4.4999999999882723E-01     0.0000000000000000E+00     0.0000000000000000E+00 
    4.9999999999869210E-01     0.0000000000000000E+00     0.0000000000000000E+00 
    4.9999999999899403E-02     0.0000000000000000E+00     0.0000000000000000E+00 
    5.9999999999894504E-01     0.0000000000000000E+00     0.0000000000000000E+00 
    6.4999999999907687E-01     0.0000000000000000E+00     0.0000000000000000E+00 
    6.9999999999920870E-01     0.0000000000000000E+00     0.0000000000000000E+00 
    7.4999999999934064E-01     0.0000000000000000E+00     0.0000000000000000E+00 
    7.9999999999947247E-01     0.0000000000000000E+00     0.0000000000000000E+00 
    8.4999999999960441E-01     0.0000000000000000E+00     0.0000000000000000E+00 
    8.9999999999973623E-01     0.0000000000000000E+00     0.0000000000000000E+00 
    9.4999999999986817E-01     0.0000000000000000E+00     0.0000000000000000E+00 
    1.0000000000000000E+00     5.2499999999875258E-01     0.0000000000000000E+00 
    1.0000000000000000E+00     7.4999999999856765E-02     0.0000000000000000E+00 
    1.0000000000000000E+00     1.2499999999975850E-01     0.0000000000000000E+00 
    1.0000000000000000E+00     1.7499999999962990E-01     0.0000000000000000E+00 
    1.0000000000000000E+00     2.2499999999948389E-01     0.0000000000000000E+00 
    1.0000000000000000E+00     2.7499999999933789E-01     0.0000000000000000E+00 
    1.0000000000000000E+00     3.2499999999919210E-01     0.0000000000000000E+00 
    1.0000000000000000E+00     3.7499999999904610E-01     0.0000000000000000E+00 
    1.0000000000000000E+00     4.2499999999890020E-01     0.0000000000000000E+00 
    1.0000000000000000E+00     4.7499999999875958E-01     0.0000000000000000E+00 
    1.0000000000000000E+00     2.4999999999949701E-02     0.0000000000000000E+00 
    1.0000000000000000E+00     5.7499999999887907E-01     0.0000000000000000E+00 
    1.0000000000000000E+00     6.2499999999901101E-01     0.0000000000000000E+00 
    1.0000000000000000E+00     6.7499999999914273E-01     0.0000000000000000E+00 
    1.0000000000000000E+00     7.2499999999927467E-01     0.0000000000000000E+00 
    1.0000000000000000E+00     7.7499999999940661E-01     0.0000000000000000E+00 
    1.0000000000000000E+00     8.2499999999953844E-01     0.0000000000000000E+00 
    1.0000000000000000E+00     8.7499999999967026E-01     0.0000000000000000E+00 
    1.0000000000000000E+00     9.2499999999980220E-01     0.0000000000000000E+00 
    1.0000000000000000E+00     9.7499999999993414E-01     0.0000000000000000E+00 
    1.0000000000000000E+00     5.4999999999881310E-01     0.0000000000000000E+00 
    1.0000000000000000E+00     9.9999999999814140E-02     0.0000000000000000E+00 
    1.0000000000000000E+00     1.4999999999970290E-01     0.0000000000000000E+00 
    1.0000000000000000E+00     1.9999999999955689E-01     0.0000000000000000E+00 
    1.0000000000000000E+00     2.4999999999941089E-01     0.0000000000000000E+00 
    1.0000000000000000E+00     2.9999999999926502E-01     0.0000000000000000E+00 
    1.0000000000000000E+00     3.4999999999911913E-01     0.0000000000000000E+00 
    1.0000000000000000E+00     3.9999999999897312E-01     0.0000000000000000E+00 
    1.0000000000000000E+00     4.4999999999882723E-01     0.0000000000000000E+00 
    1.0000000000000000E+00     4.9999999999869210E-01     0.0000000000000000E+00 
    1.0000000000000000E+00     4.9999999999899403E-02     0.0000000000000000E+00 
    1.0000000000000000E+00     5.9999999999894504E-01     0.0000000000000000E+00 
    1.0000000000000000E+00     6.4999999999907687E-01     0.0000000000000000E+00 
    1.0000000000000000E+00     6.9999999999920870E-01     0.0000000000000000E+00 
    1.0000000000000000E+00     7.4999999999934064E-01     0.0000000000000000E+00 
    1.0000000000000000E+00     7.9999999999947247E-01     0.0000000000000000E+00 
    1.0000000000000000E+00     8.4999999999960441E-01     0.0000000000000000E+00 
    1.0000000000000000E+00     8.9999999999973623E-01     0.0000000000000000E+00 
    1.0000000000000000E+00     9.4999999999986817E-01     0.0000000000000000E+00 
    4.7500000000196618E-01     1.0000000000000000E+00     0.0000000000000000E+00 
    9.2499999999968763E-01     1.0000000000000000E+00     0.0000000000000000E+00 
    8.7499999999961831E-01     1.0000000000000000E+00     0.0000000000000000E+00 
    8.2499999999982654E-01     1.0000000000000000E+00     0.0000000000000000E+00 
    7.7500000000017355E-01     1.0000000000000000E+00     0.0000000000000000E+00 
    7.2500000000052045E-01     1.0000000000000000E+00     0.0000000000000000E+00 
    6.7500000000086724E-01     1.0000000000000000E+00     0.0000000000000000E+00 
    6.2500000000121403E-01     1.0000000000000000E+00     0.0000000000000000E+00 
    5.7500000000156093E-01     1.0000000000000000E+00     0.0000000000000000E+00 
    5.2500000000189684E-01     1.0000000000000000E+00     0.0000000000000000E+00 
    9.7499999999989595E-01     1.0000000000000000E+00     0.0000000000000000E+00 
    4.2500000000176902E-01     1.0000000000000000E+00     0.0000000000000000E+00 
    3.7500000000156092E-01     1.0000000000000000E+00     0.0000000000000000E+00 
    3.2500000000135282E-01     1.0000000000000000E+00     0.0000000000000000E+00 
    2.7500000000114472E-01     1.0000000000000000E+00     0.0000000000000000E+00 
    2.2500000000093659E-01     1.0000000000000000E+00     0.0000000000000000E+00 
    1.7500000000072849E-01     1.0000000000000000E+00     0.0000000000000000E+00 
    1.2500000000052039E-01     1.0000000000000000E+00     0.0000000000000000E+00 
    7.5000000000312261E-02     1.0000000000000000E+00     0.0000000000000000E+00 
    2.5000000000104109E-02     1.0000000000000000E+00     0.0000000000000000E+00 
    4.5000000000187301E-01     1.0000000000000000E+00     0.0000000000000000E+00 
    8.9999999999958358E-01     1.0000000000000000E+00     0.0000000000000000E+00 
    8.4999999999965303E-01     1.0000000000000000E+00     0.0000000000000000E+00 
    8.0000000000000004E-01     1.0000000000000000E+00     0.0000000000000000E+00 
    7.5000000000034706E-01     1.0000000000000000E+00     0.0000000000000000E+00 
    7.0000000000069384E-01     1.0000000000000000E+00     0.0000000000000000E+00 
    6.5000000000104063E-01     1.0000000000000000E+00     0.0000000000000000E+00 
    6.0000000000138742E-01     1.0000000000000000E+00     0.0000000000000000E+00 
    5.5000000000173432E-01     1.0000000000000000E+00     0.0000000000000000E+00 
    5.0000000000205946E-01     1.0000000000000000E+00     0.0000000000000000E+00 
    9.4999999999979179E-01     1.0000000000000000E+00     0.0000000000000000E+00 
    4.0000000000166491E-01     1.0000000000000000E+00     0.0000000000000000E+00 
    3.5000000000145681E-01     1.0000000000000000E+00     0.0000000000000000E+00 
    3.0000000000124871E-01     1.0000000000000000E+00     0.0000000000000000E+00 
    2.5000000000104061E-01     1.0000000000000000E+00     0.0000000000000000E+00 
    2.0000000000083251E-01     1.0000000000000000E+00     0.0000000000000000E+00 
    1.5000000000062441E-01     1.0000000000000000E+00     0.0000000000000000E+00 
    1.0000000000041630E-01     1.0000000000000000E+00     0.0000000000000000E+00 
[...]
CELL_DATA 1600 
SCALARS Pressure double 1 
LOOKUP_TABLE default 

    1.0423823150362064E+00 
    9.9659913042485748E-01 
    9.9424722707187407E-01 
    1.0268415451830233E+00 
    1.0144782645787933E+00 
    9.9070024668733614E-01 
    9.8661381850571839E-01 
    1.0043925518673840E+00 
    9.9597404805835454E-01 
    9.8235464236442405E-01 
    9.7812252796704491E-01 
    9.8880557991460016E-01 
    9.8259559006195296E-01 
    9.7402384969384992E-01 
    9.7011058967529062E-01 
    9.7713635915909358E-01 
    9.7227707991713563E-01 
    9.6640381671808928E-01 
    9.6290700089646675E-01 
    9.6790606811029289E-01 
    9.6393936491102605E-01 
    9.5961453568579214E-01 
    9.5651636471965029E-01 
    9.6031292130736101E-01 
    9.5697722392115525E-01 
    9.5360074770981440E-01 
    9.5085567361481493E-01 
    9.5389347982754269E-01 
    9.5103094458041360E-01 
    9.4826964623942711E-01 
    9.4583205065936593E-01 
    9.4836500847018113E-01 
    9.4587578169892450E-01 
    9.4353335813995631E-01 
    9.4136509950818192E-01 
    9.4354705041832532E-01 
    9.4136552079169133E-01 
    9.3931984975071237E-01 
    9.3739113801927210E-01 
    9.3932023438459755E-01 
    9.3740209110010386E-01 
    9.3557337253644823E-01 
    9.3386170648819522E-01 
    9.3560352361047050E-01 
    9.3391823962616261E-01 
    9.3225200917136530E-01 
    9.3074075199307293E-01 
    9.3234097745931355E-01 
    9.3086736627177091E-01 
    9.2932495204320120E-01 
    9.2800210961173901E-01 
    9.2949379876107108E-01 
    9.2821730448276019E-01 
    9.2677017866189348E-01 
    9.2562749530928901E-01 
    9.2703545909471208E-01 
    9.2594634659204467E-01 
    9.2457275895088342E-01 
    9.2360500510074095E-01 
    9.2494850208420221E-01 
    9.2404082728632686E-01 
    9.2272357887167034E-01 
    9.2192810224771571E-01 
    9.2322259916697369E-01 
    9.2249344922376064E-01 
    9.2121849445332604E-01 
    9.2059494415547427E-01 
    9.2185330056283465E-01 
    9.2130242126803419E-01 
    9.2005790385504338E-01 
    9.1960820952035227E-01 
    9.2084151727536168E-01 
    9.2047329069868933E-01 
    9.1924875023000052E-01 
    9.1897666878147644E-01 
    9.2019522460214886E-01 
    9.1997374890634265E-01 
    9.1875928431534493E-01 
    9.1863499737755772E-01 
    9.1984714803374557E-01 
    9.7359358796210693E-01 
    9.5719084001072785E-01 
    9.5683601357454506E-01 
    9.7285635440058960E-01 
    9.7150168505768397E-01 
    9.5614929223387768E-01 
    9.5516868442704672E-01 
    9.6967681045862730E-01 
    9.6751927377075364E-01 
    9.5394069171227336E-01 
    9.5251387603176996E-01 
    9.6514372721586894E-01 
    9.6264111134581587E-01 
    9.5093427715055745E-01 
    9.4924294469793125E-01 
    9.6007975431619641E-01 
    9.5750941213418472E-01 
    9.4747524020325591E-01 
    9.4566102740284352E-01 
    9.5496523217310048E-01 
    9.5247159338922460E-01 
    9.4382489396337998E-01 
    9.4198666354957017E-01 
    9.5004486546431322E-01 
    9.4769569771725448E-01 
    9.4016211065895039E-01 
    9.3836360343965874E-01 
    9.4543060965750225E-01 
    9.4325325571495922E-01 
    9.3660070555554531E-01 
    9.3488088882278619E-01 
    9.4116534630901816E-01 
    9.3916734736945928E-01 
    9.3320994194461915E-01 
    9.3159231729471470E-01 
    9.3725888781769084E-01 
    9.3543911681113801E-01 
    9.3003142085238344E-01 
    9.2852994696192948E-01 
    9.3370691911451387E-01 
    9.3206106893200469E-01 
    9.2708994712288495E-01 
    9.2571300154352909E-01 
    9.3050029143070279E-01 
    9.2902340072176048E-01 
    9.2440040912406085E-01 
    9.2315321199951816E-01 
    9.2762929579706532E-01 
    9.2631700028365194E-01 
    9.2197225043106534E-01 
    9.2085831144943586E-01 
    9.2508569067974045E-01 
    9.2393471682327977E-01 
    9.1981211773207461E-01 
    9.1883432165987955E-01 
    9.2286357387536566E-01 
    9.2187193181871252E-01 
    9.1792557595234536E-01 
    9.1708661763553567E-01 
    9.2095964484098869E-01 
    9.2012673838733983E-01 
    9.1631817096863744E-01 
    9.1562102261748946E-01 
    9.1937340386237976E-01 
    9.1870003785924803E-01 
    9.1499609213552713E-01 
    9.1444434377900508E-01 
    9.1810722879836293E-01 
    9.1759575995546439E-01 
    9.1396689617678217E-01 
    9.1356534177043724E-01 
    9.1716676842576617E-01 
    9.1682343922788745E-01 
    9.1324328933944321E-01 
    9.1299647521815086E-01 
    9.1656224549205301E-01 
    9.1635241948995094E-01 
    9.1279698967095035E-01 
    9.1268342657800028E-01 
    9.1623258372464600E-01 
    9.4349021678319900E-01 
    9.3106744822421739E-01 
    9.3092586612438699E-01 
    9.4327846020156081E-01 
    9.4286236724634898E-01 
    9.3064600208610748E-01 
    9.3023432506085368E-01 
    9.4225557245733249E-01 
    9.4147686404849107E-01 
    9.2970020379561347E-01 
    9.2905468596275598E-01 
    9.4054794537570718E-01 
    9.3949138129669318E-01 
    9.2830960297331722E-01 
    9.2747733210692673E-01 
    9.3832940659118513E-01 
    9.3708326825589483E-01 
    9.2657054876988532E-01 
    9.2560194122619888E-01 
    9.3577290492406362E-01 
    9.3441632127863361E-01 
    9.2458361832155367E-01 
    9.2352670425991756E-01 
    9.3302927075002551E-01 
    9.3162549570380937E-01 
    9.2244155506646386E-01 
    9.2133766670567352E-01 
    9.3021681027569580E-01 
    9.2881322207043771E-01 
    9.2022355809107426E-01 
    9.1910699120719119E-01 
    9.2742334174034702E-01 
    9.2605454754549421E-01 
    9.1799499758986802E-01 
    9.1689380950761834E-01 
    9.2471305256234948E-01 
    9.2340406596228164E-01 
    9.1580889216606420E-01 
    9.1474521192285185E-01 
    9.2213211209182455E-01 
    9.2090102675649810E-01 
    9.1370720127736538E-01 
    9.1269869790801794E-01 
    9.1971401671595954E-01 
    9.1857393477058269E-01 
    9.1172323785137377E-01 
    9.1078401104053741E-01 
    9.1748324977700679E-01 
    9.1644405919249505E-01 
    9.0988379197651637E-01 
    9.0902515466574785E-01 
    9.1545829504164367E-01 
    9.1452773906163121E-01 
    9.0821051505086225E-01 
    9.0744205266418920E-01 
    9.1365396367777285E-01 
    9.1283840109108549E-01 
    9.0672171738608820E-01 
    9.0605142604242150E-01 
    9.1208249894328641E-01 
    9.1138760201486491E-01 
    9.0543298796763394E-01 
    9.0486801786801319E-01 
    9.1075497644456005E-01 
    9.1018597767531517E-01 
    9.0435817124557616E-01 
    9.0390501668392897E-01 
    9.0968189746675476E-01 
    9.0924405130756702E-01 
    9.0350991474909192E-01 
    9.0317472759714956E-01 
    9.0887432055428796E-01 
    9.0857661955273139E-01 
    9.0290308506690231E-01 
    9.0268598319495885E-01 
    9.0834542483889757E-01 
    9.0815663772850386E-01 
    9.0250511347786677E-01 
    9.0240473855071257E-01 
    9.0804984010180367E-01 
    9.1927014757844328E-01 
    9.0775400428097208E-01 
    9.0767843997848519E-01 
    9.1916884100934915E-01 
    9.1896817165642397E-01 
    9.0752861510316207E-01 
    9.0730694734297201E-01 
    9.1867195845487770E-01 
    9.1828552976916789E-01 
    9.0701660834134001E-01 
    9.0666121071365280E-01 
    9.1781501226688522E-01 
    9.1726715759064448E-01 
    9.0624499683538373E-01 
    9.0577274913351691E-01 
    9.1664939627171371E-01 
    9.1596962399806237E-01 
    9.0524962056891478E-01 
    9.0468093679124151E-01 
    9.1523595017583703E-01 
    9.1445639946692647E-01 
    9.0407215908857819E-01 
    9.0342874560890030E-01 
    9.1363869712244838E-01 
    9.1279033788482600E-01 
    9.0275619087459003E-01 
    9.0205991872514724E-01 
    9.1191854979810205E-01 
    9.1103010317365751E-01 
    9.0134518648275341E-01 
    9.0061704925207353E-01 
    9.1013137999402083E-01 
    9.0922835638510124E-01 
    8.9988038946984339E-01 
    8.9913980068489874E-01 
    9.0832654691721637E-01 
    9.0743097912881032E-01 
    8.9839962072742718E-01 
    8.9766397395863562E-01 
    9.0654633324299105E-01 
    9.0567692131803301E-01 
    8.9693674062363005E-01 
    8.9622151596332300E-01 
    9.0482663357197213E-01 
    9.0399908995541822E-01 
    8.9552173765315823E-01 
    8.9484061933907422E-01 
    9.0319765716442302E-01 
    9.0242536426943831E-01 
    8.9418114963405837E-01 
    8.9354616950971810E-01 
    9.0168504272623218E-01 
    9.0097936626054076E-01 
    8.9293839720930546E-01 
    8.9236034951974663E-01 
    9.0031081014764225E-01 
    8.9968163142873669E-01 
    8.9181439582048938E-01 
    8.9130284213420430E-01 
    8.9909400355919789E-01 
    8.9855000552673070E-01 
    8.9082787335609381E-01 
    8.9039154690052602E-01 
    8.9805152866769833E-01 
    8.9760043689108204E-01 
    8.8999591554806035E-01 
    8.8964292844488480E-01 
    8.9719853516017289E-01 
    8.9684738272322040E-01 
    8.8933448496082179E-01 
    8.8907359729769553E-01 
    8.9654916874742685E-01 
    8.9630726981071462E-01 
    8.8886367296247903E-01 
    8.8868437345039986E-01 
    8.9610730102933711E-01 
    8.9593652988834449E-01 
    8.8852671905834868E-01 
    8.8844013070756889E-01 
    8.9584278959918950E-01 
    8.9631786529422441E-01 
    8.8483463647516769E-01 
    8.8478896673453433E-01 
    8.9625987572711374E-01 
    8.9614471246355820E-01 
    8.8469809043615399E-01 
    8.8456286124347350E-01 
    8.9597384697739380E-01 
    8.9574916619310307E-01 
    8.8438448033749095E-01 
    8.8416456251478026E-01 
    8.9547300388322304E-01 
    8.9514823509267882E-01 
    8.8390512666622778E-01 
    8.8360845022505685E-01 
    8.9477809836546396E-01 
    8.9436604896418115E-01 
    8.8327699013854921E-01 
    8.8291345307148694E-01 
    8.9391580076073407E-01 
    8.9343123469625452E-01 
    8.8252072578157270E-01 
    8.8210181397401022E-01 
    8.9291631781355074E-01 
    8.9237517674681299E-01 
    8.8165984377993634E-01 
    8.8119799479024918E-01 
    8.9181193475856091E-01 
    8.9123061916768098E-01 
    8.8071939869271765E-01 
    8.8022720656238274E-01 
    8.9063522115565419E-01 
    8.9002967125101873E-01 
    8.7972455766843793E-01 
    8.7921451412403928E-01 
    8.8941772632273886E-01 
    8.8880297008877296E-01 
    8.7870003488045845E-01 
    8.7818407710285851E-01 
    8.8818894219152467E-01 
    8.8757901342057643E-01 
    8.7766951942828753E-01 
    8.7715909610921905E-01 
    8.8697633563655998E-01 
    8.8638403228192864E-01 
    8.7665553917598071E-01 
    8.7616149937014731E-01 
    8.8580506137013104E-01 
    8.8524218214231531E-01 
    8.7567946568150890E-01 
    8.7521189952242073E-01 
    8.8469808806288142E-01 
    8.8417540764351765E-01 
    8.7476121651556815E-01 
    8.7432971762100631E-01 
    8.8367659423118172E-01 
    8.8320396234278076E-01 
    8.7391959731524538E-01 
    8.7353306826206856E-01 
    8.8275985029844206E-01 
    8.8234649379681174E-01 
    8.7317228392517265E-01 
    8.7283933277708259E-01 
    8.8196603599797907E-01 
    8.8162071603065706E-01 
    8.7253638695984492E-01 
    8.7226558490523709E-01 
    8.8131270453323785E-01 
    8.8104431921091009E-01 
    8.7202937606025033E-01 
    8.7183185781779982E-01 
    8.8081945572199438E-01 
    8.8064189516116076E-01 
    8.7167575052321389E-01 
    8.7153119063703044E-01 
    8.8048330412262321E-01 
    8.8033520685704914E-01 
    8.7139662645098492E-01 
    8.7132375428972164E-01 
    8.8025330177352101E-01 
    8.7322066699706324E-01 
    8.6141911656927261E-01 
    8.6138853962024675E-01 
    8.7318376634038852E-01 
    8.7311022078788592E-01 
    8.6132756248542919E-01 
    8.6123655259085441E-01 
    8.7300054738087929E-01 
    8.7285557360127697E-01 
    8.6111613294138500E-01 
    8.6096717031569991E-01 
    8.7267647877835663E-01 
    8.7246472116683149E-01 
    8.6079075595470222E-01 
    8.6058815446189096E-01 
    8.7222195780543188E-01 
    8.7195002015771272E-01 
    8.6036080156582428E-01 
    8.6011035508653666E-01 
    8.7165099277721381E-01 
    8.7132710770741151E-01 
    8.5983859517658145E-01 
    8.5954733751711276E-01 
    8.7098067210367136E-01 
    8.7061413489146700E-01 
    8.5923853192467980E-01 
    8.5891416327877601E-01 
    8.7022998196537538E-01 
    8.6983066702421785E-01 
    8.5857618156093363E-01 
    8.5822660913000226E-01 
    8.6941871165750018E-01 
    8.6899664946862620E-01 
    8.5786752463002991E-01 
    8.5750096710070212E-01 
    8.6856696208297002E-01 
    8.6813208455246793E-01 
    8.5712894502234394E-01 
    8.5675356331062380E-01 
    8.6769450046974117E-01 
    8.6725665315126144E-01 
    8.5637690775638164E-01 
    8.5600097403764952E-01 
    8.6682087653033268E-01 
    8.6638955647382976E-01 
    8.5562783760672734E-01 
    8.5525954566998486E-01 
    8.6596502107761486E-01 
    8.6554946084755646E-01 
    8.5489801843753832E-01 
    8.5454520432700076E-01 
    8.6514508927730527E-01 
    8.6475409182407792E-01 
    8.5420307918251071E-01 
    8.5387349828179560E-01 
    8.6437853027806721E-01 
    8.6402038940698145E-01 
    8.5355821561673884E-01 
    8.5325907207736373E-01 
    8.6368169999164179E-01 
    8.6336440432576167E-01 
    8.5297782657477128E-01 
    8.5271608153619505E-01 
    8.6307033535000188E-01 
    8.6280140605186950E-01 
    8.5247553863337489E-01 
    8.5225786267281678E-01 
    8.6255942411364617E-01 
    8.6234668518465907E-01 
    8.5206539917761404E-01 
    8.5190194606945746E-01 
    8.6216723268774331E-01 
    8.6202168826030978E-01 
    8.5176520640983633E-01 
    8.5162924131438988E-01 
    8.6188336396920806E-01 
    8.6176200131095093E-01 
    8.5151206060905404E-01 
    8.5145412596819225E-01 
    8.6169958467954533E-01 
    8.4939128134892083E-01 
    8.3711146961784932E-01 
    8.3708903863324280E-01 
    8.4936536589458833E-01 
    8.4931368333667590E-01 
    8.3704430569632882E-01 
    8.3697754265243507E-01 
    8.4923653756780970E-01 
    8.4913441872800532E-01 
    8.3688913252257580E-01 
    8.3677960593566980E-01 
    8.4900798015125190E-01 
    8.4885806974944089E-01 
    8.3664964700063038E-01 
    8.3650010388265805E-01 
    8.4868569742462208E-01 
    8.4849203921145222E-01 
    8.3633195463386945E-01 
    8.3614633289383133E-01 
    8.4827844311229272E-01 
    8.4804635811083739E-01 
    8.3594443706891353E-01 
    8.3572748838066835E-01 
    8.4779726131523081E-01 
    8.4753272724978079E-01 
    8.3549678074181433E-01 
    8.3525363019745880E-01 
    8.4725435719799791E-01 
    8.4696374209160707E-01 
    8.3499934303565426E-01 
    8.3473529886906894E-01 
    8.4666252865957536E-01 
    8.4635242988378723E-01 
    8.3446294701863966E-01 
    8.3418374328362976E-01 
    8.4603515441231347E-01 
    8.4571240659211588E-01 
    8.3389915694432526E-01 
    8.3361075225377101E-01 
    8.4538597653349823E-01 
    8.4505765839128621E-01 
    8.3332010335220585E-01 
    8.3302874855669184E-01 
    8.4472920253547390E-01 
    8.4440241118072712E-01 
    8.3273830187088727E-01 
    8.3245036867423639E-01 
    8.4407908498213291E-01 
    8.4376094666420787E-01 
    8.3216650196033715E-01 
    8.3188829017533450E-01 
    8.4344972398716311E-01 
    8.4314717570569131E-01 
    8.3161734914708385E-01 
    8.3135521927475309E-01 
    8.4285498374512591E-01 
    8.4257473512744274E-01 
    8.3110339086308216E-01 
    8.3086340493187316E-01 
    8.4230806038886008E-01 
    8.4205650975063473E-01 
    8.3063671319210641E-01 
    8.3042463029858382E-01 
    8.4182146511088807E-01 
    8.4160430331576208E-01 
    8.3022848029353591E-01 
    8.3004977060918517E-01 
    8.4140641875231525E-01 
    8.4123000531112857E-01 
    8.2989097795197353E-01 
    8.2975355248278793E-01 
    8.4107750643902612E-01 
    8.4093962052167115E-01 
    8.2961663022032195E-01 
    8.2946306905149003E-01 
    8.4079529020504495E-01 
    8.4068249372118375E-01 
    8.2935254668251113E-01 
    8.2930797941698176E-01 
    8.4063222709641250E-01 
    8.2456420310284950E-01 
    8.1174186483982991E-01 
    8.1172389216137675E-01 
    8.2454436134722608E-01 
    8.2450480253150782E-01 
    8.1168806659447190E-01 
    8.1163459355240686E-01 
    8.2444576321458074E-01 
    8.2436756120635468E-01 
    8.1156375428010874E-01 
    8.1147595753582291E-01 
    8.2427063959389102E-01 
    8.2415559573636232E-01 
    8.1137174318706184E-01 
    8.1125175391641580E-01 
    8.2402315984767494E-01 
    8.2387416075394571E-01 
    8.1111670780554168E-01 
    8.1096744818278821E-01 
    8.2370956955131469E-01 
    8.2353040222707663E-01 
    8.1080484170202904E-01 
    8.1062973175899222E-01 
    8.2333766514192241E-01 
    8.2313244906394833E-01 
    8.1044305572707287E-01 
    8.1024575826350387E-01 
    8.2291585837287096E-01 
    8.2268897863498225E-01 
    8.1003878193203971E-01 
    8.0982317333780418E-01 
    8.2245299243700765E-01 
    8.2220917728397280E-01 
    8.0960008036559938E-01 
    8.0937065539928887E-01 
    8.2195880820815592E-01 
    8.2170316470109217E-01 
    8.0913605731612126E-01 
    8.0889757205962354E-01 
    8.2144365670479880E-01 
    8.2118170152989012E-01 
    8.0865649758630842E-01 
    8.0841408378688162E-01 
    8.2091866011575920E-01 
    8.2065601835180668E-01 
    8.0817170136136174E-01 
    8.0793071286902995E-01 
    8.2039524940393027E-01 
    8.2013776057211341E-01 
    8.0769243134068214E-01 
    8.0745823079620827E-01 
    8.1988504175119248E-01 
    8.1963864502463279E-01 
    8.0722956126871293E-01 
    8.0700783455785352E-01 
    8.1940005236629210E-01 
    8.1917071039986200E-01 
    8.0679442366418186E-01 
    8.0659085083927973E-01 
    8.1895222499635034E-01 
    8.1874619171643803E-01 
    8.0639867636217910E-01 
    8.0621951372745071E-01 
    8.1855418215663189E-01 
    8.1837814962283995E-01 
    8.0605548043612985E-01 
    8.0590987906411971E-01 
    8.1822084485969382E-01 
    8.1808650130065474E-01 
    8.0578744525370594E-01 
    8.0569035008977596E-01 
    8.1797784423586006E-01 
    8.1785889290359270E-01 
    8.0558154878115029E-01 
    8.0543871864008465E-01 
    8.1770375961016795E-01 
    8.1758687863888202E-01 
    8.0532931346899583E-01 
    8.0527848359118803E-01 
    8.1753793591930091E-01 
    7.9864203823993485E-01 
    7.8526683118038032E-01 
    7.8525081649883122E-01 
    7.9862531820922988E-01 
    7.9859199192269226E-01 
    7.8521889172260861E-01 
    7.8517124438785812E-01 
    7.9854224545481356E-01 
    7.9847635957509222E-01 
    7.8510815933863642E-01 
    7.8503001024054997E-01 
    7.9839472016509461E-01 
    7.9829782505241220E-01 
    7.8493727794085377E-01 
    7.8483050679994015E-01 
    7.9818625936266308E-01 
    7.9806067522707769E-01 
    7.8471029583857066E-01 
    7.8457728400636262E-01 
    7.9792179971262200E-01 
    7.9777037740955459E-01 
    7.8443213355864316E-01 
    7.8427551973371912E-01 
    7.9760715303093799E-01 
    7.9743293652499603E-01 
    7.8410817923624143E-01 
    7.8393089990557052E-01 
    7.9724856437222380E-01 
    7.9705490701649440E-01 
    7.8374450966058995E-01 
    7.8354993152327002E-01 
    7.9685292341525205E-01 
    7.9664366445680113E-01 
    7.8334817351746622E-01 
    7.8314027635338390E-01 
    7.9642820529425440E-01 
    7.9620764773983044E-01 
    7.8292730327131843E-01 
    7.8271040657341462E-01 
    7.9598318079234265E-01 
    7.9575601587486122E-01 
    7.8249075467508455E-01 
    7.8226950127488382E-01 
    7.9552734331068120E-01 
    7.9529843379129239E-01 
    7.8204786596426068E-01 
    7.8182706738905194E-01 
    7.9507055416346584E-01 
    7.9484494439353959E-01 
    7.8160827881412243E-01 
    7.8139272408981453E-01 
    7.9462287710609980E-01 
    7.9440566060090712E-01 
    7.8118163152280673E-01 
    7.8097617074601222E-01 
    7.9419457301414631E-01 
    7.9399084586350233E-01 
    7.8077746876913912E-01 
    7.8058670582657907E-01 
    7.9379577757612230E-01 
    7.9361064969484840E-01 
    7.8040502725768601E-01 
    7.8023366127600446E-01 
    7.9343679029127490E-01 
    7.9327596566711556E-01 
    7.8007442825227258E-01 
    7.7992993885419981E-01 
    7.9313096307126518E-01 
    7.9300507651912266E-01 
    7.7980213771730345E-01 
    7.7968359456581449E-01 