# vtk DataFile Version 2.0
Pressure Field Data 
ASCII 
DATASET UNSTRUCTURED_GRID 

POINTS 1681 double 

    0.0000000000000000E+00     0.0000000000000000E+00     0.0000000000000000E+00 
    1.0000000000000000E+00     0.0000000000000000E+00     0.0000000000000000E+00 
    1.0000000000000000E+00     1.0000000000000000E+00     0.0000000000000000E+00 
    0.0000000000000000E+00     1.0000000000000000E+00     0.0000000000000000E+00 
    5.2499999999875258E-01     0.0000000000000000E+00     0.0000000000000000E+00 
    7.4999999999856765E-02     0.0000000000000000E+00     0.0000000000000000E+00 
    1.2499999999975850E-01     0.0000000000000000E+00     0.0000000000000000E+00 
    1.7499999999962990E-01     0.0000000000000000E+00     0.0000000000000000E+00 
    2.2499999999948389E-01     0.0000000000000000E+00     0.0000000000000000E+00 
    2.7499999999933789E-01     0.0000000000000000E+00     0.0000000000000000E+00 
    3.2499999999919210E-01     0.0000000000000000E+00     0.0000000000000000E+00 
    3.7499999999904610E-01     0.0000000000000000E+00     0.0000000000000000E+00 
    4.2499999999890020E-01     0.0000000000000000E+00     0.0000000000000000E+00 
    4.7499999999875958E-01     0.0000000000000000E+00     0.0000000000000000E+00 
    2.4999999999949701E-02     0.0000000000000000E+00     0.0000000000000000E+00 
    5.7499999999887907E-01     0.0000000000000000E+00     0.0000000000000000E+00 
    6.2499999999901101E-01     0.0000000000000000E+00     0.0000000000000000E+00 
    6.7499999999914273E-01     0.0000000000000000E+00     0.0000000000000000E+00 
    7.2499999999927467E-01     0.0000000000000000E+00     0.0000000000000000E+00 
    7.7499999999940661E-01     0.0000000000000000E+00     0.0000000000000000E+00 
    8.2499999999953844E-01     0.0000000000000000E+00     0.0000000000000000E+00 
    8.7499999999967026E-01     0.0000000000000000E+00     0.0000000000000000E+00 
    9.2499999999980220E-01     0.0000000000000000E+00     0.0000000000000000E+00 
    9.7499999999993414E-01     0.0000000000000000E+00     0.0000000000000000E+00 
    5.4999999999881310E-01     0.0000000000000000E+00     0.0000000000000000E+00 
    9.9999999999814140E-02     0.0000000000000000E+00     0.0000000000000000E+00 
    1.4999999999970290E-01     0.0000000000000000E+00     0.0000000000000000E+00 
    1.9999999999955689E-01     0.0000000000000000E+00     0.0000000000000000E+00 
    2.4999999999941089E-01     0.0000000000000000E+00     0.0000000000000000E+00 
    2.9999999999926502E-01     0.0000000000000000E+00     0.0000000000000000E+00 
    3.4999999999911913E-01     0.0000000000000000E+00     0.0000000000000000E+00 
    3.9999999999897312E-01     0.0000000000000000E+00     0.0000000000000000E+00 
    4.4999999999882723E-01     0.0000000000000000E+00     0.0000000000000000E+00 
    4.9999999999869210E-01     0.0000000000000000E+00     0.0000000000000000E+00 
    4.9999999999899403E-02     0.0000000000000000E+00     0.0000000000000000E+00 
    5.9999999999894504E-01     0.0000000000000000E+00     0.0000000000000000E+00 
    6.4999999999907687E-01     0.0000000000000000E+00     0.0000000000000000E+00 
    6.9999999999920870E-01     0.0000000000000000E+00     0.0000000000000000E+00 
    7.4999999999934064E-01     0.0000000000000000E+00     0.0000000000000000E+00 
    7.9999999999947247E-01     0.0000000000000000E+00     0.0000000000000000E+00 
    8.4999999999960441E-01     0.0000000000000000E+00     0.0000000000000000E+00 
    8.9999999999973623E-01     0.0000000000000000E+00     0.0000000000000000E+00 
    9.4999999999986817E-01     0.0000000000000000E+00     0.0000000000000000E+00 
    1.0000000000000000E+00     5.2499999999875258E-01     0.0000000000000000E+00 
    1.0000000000000000E+00     7.4999999999856765E-02     0.0000000000000000E+00 
    1.0000000000000000E+00     1.2499999999975850E-01     0.0000000000000000E+00 
    1.0000000000000000E+00     1.7499999999962990E-01     0.0000000000000000E+00 
    1.0000000000000000E+00     2.2499999999948389E-01     0.0000000000000000E+00 
    1.0000000000000000E+00     2.7499999999933789E-01     0.0000000000000000E+00 
    1.0000000000000000E+00     3.2499999999919210E-01     0.0000000000000000E+00 
    1.0000000000000000E+00     3.7499999999904610E-01     0.0000000000000000E+00 
    1.0000000000000000E+00     4.2499999999890020E-01     0.0000000000000000E+00 
    1.0000000000000000E+00     4.7499999999875958E-01     0.0000000000000000E+00 
    1.0000000000000000E+00     2.4999999999949701E-02     0.0000000000000000E+00 
    1.0000000000000000E+00     5.7499999999887907E-01     0.0000000000000000E+00 
    1.0000000000000000E+00     6.2499999999901101E-01     0.0000000000000000E+00 
    1.0000000000000000E+00     6.7499999999914273E-01     0.0000000000000000E+00 
    1.0000000000000000E+00     7.2499999999927467E-01     0.0000000000000000E+00 
    1.0000000000000000E+00     7.7499999999940661E-01     0.0000000000000000E+00 
    1.0000000000000000E+00     8.2499999999953844E-01     0.0000000000000000E+00 
    1.0000000000000000E+00     8.7499999999967026E-01     0.0000000000000000E+00 
    1.0000000000000000E+00     9.2499999999980220E-01     0.0000000000000000E+00 
    1.0000000000000000E+00     9.7499999999993414E-01     0.0000000000000000E+00 
    1.0000000000000000E+00     5.4999999999881310E-01     0.0000000000000000E+00 
    1.0000000000000000E+00     9.9999999999814140E-02     0.0000000000000000E+00 
    1.0000000000000000E+00     1.4999999999970290E-01     0.0000000000000000E+00 
    1.0000000000000000E+00     1.9999999999955689E-01     0.0000000000000000E+00 
    1.0000000000000000E+00     2.4999999999941089E-01     0.0000000000000000E+00 
    1.0000000000000000E+00     2.9999999999926502E-01     0.0000000000000000E+00 
    1.0000000000000000E+00     3.4999999999911913E-01     0.0000000000000000E+00 
    1.0000000000000000E+00     3.9999999999897312E-01     0.0000000000000000E+00 
    1.0000000000000000E+00     4.4999999999882723E-01     0.0000000000000000E+00 
    1.0000000000000000E+00     4.9999999999869210E-01     0.0000000000000000E+00 
    1.0000000000000000E+00     4.9999999999899403E-02     0.0000000000000000E+00 
    1.0000000000000000E+00     5.9999999999894504E-01     0.0000000000000000E+00 
    1.0000000000000000E+00     6.4999999999907687E-01     0.0000000000000000E+00 
    1.0000000000000000E+00     6.9999999999920870E-01     0.0000000000000000E+00 
    1.0000000000000000E+00     7.4999999999934064E-01     0.0000000000000000E+00 
    1.0000000000000000E+00     7.9999999999947247E-01     0.0000000000000000E+00 
    1.0000000000000000E+00     8.4999999999960441E-01     0.0000000000000000E+00 
    1.0000000000000000E+00     8.9999999999973623E-01     0.0000000000000000E+00 
    1.0000000000000000E+00     9.4999999999986817E-01     0.0000000000000000E+00 
    4.7500000000196618E-01     1.0000000000000000E+00     0.0000000000000000E+00 
    9.2499999999968763E-01     1.0000000000000000E+00     0.0000000000000000E+00 
    8.7499999999961831E-01     1.0000000000000000E+00     0.0000000000000000E+00 
    8.2499999999982654E-01     1.0000000000000000E+00     0.0000000000000000E+00 
    7.7500000000017355E-01     1.0000000000000000E+00     0.0000000000000000E+00 
    7.2500000000052045E-01     1.0000000000000000E+00     0.0000000000000000E+00 
    6.7500000000086724E-01     1.0000000000000000E+00     0.0000000000000000E+00 
    6.2500000000121403E-01     1.0000000000000000E+00     0.0000000000000000E+00 
    5.7500000000156093E-01     1.0000000000000000E+00     0.0000000000000000E+00 
    5.2500000000189684E-01     1.0000000000000000E+00     0.0000000000000000E+00 
    9.7499999999989595E-01     1.0000000000000000E+00     0.0000000000000000E+00 
    4.2500000000176902E-01     1.0000000000000000E+00     0.0000000000000000E+00 
    3.7500000000156092E-01     1.0000000000000000E+00     0.0000000000000000E+00 
    3.2500000000135282E-01     1.0000000000000000E+00     0.0000000000000000E+00 
    2.7500000000114472E-01     1.0000000000000000E+00     0.0000000000000000E+00 
    2.2500000000093659E-01     1.0000000000000000E+00     0.0000000000000000E+00 
    1.7500000000072849E-01     1.0000000000000000E+00     0.0000000000000000E+00 
    1.2500000000052039E-01     1.0000000000000000E+00     0.0000000000000000E+00 
    7.5000000000312261E-02     1.0000000000000000E+00     0.0000000000000000E+00 
    2.5000000000104109E-02     1.0000000000000000E+00     0.0000000000000000E+00 
    4.5000000000187301E-01     1.0000000000000000E+00     0.0000000000000000E+00 
    8.9999999999958358E-01     1.0000000000000000E+00     0.0000000000000000E+00 
    8.4999999999965303E-01     1.0000000000000000E+00     0.0000000000000000E+00 
    8.0000000000000004E-01     1.0000000000000000E+00     0.0000000000000000E+00 
    7.5000000000034706E-01     1.0000000000000000E+00     0.0000000000000000E+00 
    7.0000000000069384E-01     1.0000000000000000E+00     0.0000000000000000E+00 
    6.5000000000104063E-01     1.0000000000000000E+00     0.0000000000000000E+00 
    6.0000000000138742E-01     1.0000000000000000E+00     0.0000000000000000E+00 
    5.5000000000173432E-01     1.0000000000000000E+00     0.0000000000000000E+00 
    5.0000000000205946E-01     1.0000000000000000E+00     0.0000000000000000E+00 
    9.4999999999979179E-01     1.0000000000000000E+00     0.0000000000000000E+00 
    4.0000000000166491E-01     1.0000000000000000E+00     0.0000000000000000E+00 
    3.5000000000145681E-01     1.0000000000000000E+00     0.0000000000000000E+00 
    3.0000000000124871E-01     1.0000000000000000E+00     0.0000000000000000E+00 
    2.5000000000104061E-01     1.0000000000000000E+00     0.0000000000000000E+00 
    2.0000000000083251E-01     1.0000000000000000E+00     0.0000000000000000E+00 
    1.5000000000062441E-01     1.0000000000000000E+00     0.0000000000000000E+00 
    1.0000000000041630E-01     1.0000000000000000E+00     0.0000000000000000E+00 
[...]
CELL_DATA 1600 
SCALARS Pressure double 1 
LOOKUP_TABLE default 

    1.1797197944273496E+00 
    1.1336513932922208E+00 
    1.1312889942219955E+00 
    1.1641615920529129E+00 
    1.1517747854839182E+00 
    1.1277202635473729E+00 
    1.1235974938433653E+00 
    1.1416501264887058E+00 
    1.1331724641538801E+00 
    1.1192850298050367E+00 
    1.1149814121122414E+00 
    1.1259252808487969E+00 
    1.1196194398436341E+00 
    1.1107943415287025E+00 
    1.1067780126613060E+00 
    1.1140498442567086E+00 
    1.1090676326679063E+00 
    1.1029552196261170E+00 
    1.0993314677886663E+00 
    1.1045631019942570E+00 
    1.1004541251959927E+00 
    1.0959030718583656E+00 
    1.0926616395850279E+00 
    1.0966783104627817E+00 
    1.0931876531260216E+00 
    1.0895968963786418E+00 
    1.0866981429929816E+00 
    1.0899447068237456E+00 
    1.0869199393909894E+00 
    1.0839550706697874E+00 
    1.0813581655970614E+00 
    1.0840898486802419E+00 
    1.0814355474126045E+00 
    1.0788989155822668E+00 
    1.0765697713914930E+00 
    1.0789417234079537E+00 
    1.0765959018927036E+00 
    1.0743641393605252E+00 
    1.0722763087839478E+00 
    1.0743878725704483E+00 
    1.0723092083124619E+00 
    1.0703013832828445E+00 
    1.0684351488269284E+00 
    1.0703529600337447E+00 
    1.0685134117447213E+00 
    1.0666740654669253E+00 
    1.0650151538878296E+00 
    1.0667858297133133E+00 
    1.0651663394505988E+00 
    1.0634559434930617E+00 
    1.0619944197826094E+00 
    1.0636518076888628E+00 
    1.0622397095892158E+00 
    1.0606289981280421E+00 
    1.0593584477058307E+00 
    1.0609280382029258E+00 
    1.0597152778143879E+00 
    1.0581818767220406E+00 
    1.0570987128525089E+00 
    1.0586003519852227E+00 
    1.0575825427242485E+00 
    1.0561086886165574E+00 
    1.0552118253809133E+00 
    1.0566615333282450E+00 
    1.0558373828134258E+00 
    1.0544084474390663E+00 
    1.0536993508657408E+00 
    1.0551106236622922E+00 
    1.0544840363114780E+00 
    1.0530875940136717E+00 
    1.0525761135550848E+00 
    1.0539608665085896E+00 
    1.0535140842424928E+00 
    1.0521353778703717E+00 
    1.0517406430792458E+00 
    1.0531138132225615E+00 
    1.0528285455719750E+00 
    1.0514615881120413E+00 
    1.0513278674334743E+00 
    1.0526921202866570E+00 
    1.1101910881456711E+00 
    1.0931547827149952E+00 
    1.0927861983100735E+00 
    1.1094426884112489E+00 
    1.1080641988330697E+00 
    1.0920714979298936E+00 
    1.0910484650458521E+00 
    1.1062009228148835E+00 
    1.1039893236418243E+00 
    1.0897642236716067E+00 
    1.0882680962222135E+00 
    1.1015438150805164E+00 
    1.0989564280927815E+00 
    1.0866068080898805E+00 
    1.0848224574584626E+00 
    1.0962969499879720E+00 
    1.0936167430753776E+00 
    1.0829519214422674E+00 
    1.0810265572441642E+00 
    1.0909528434456852E+00 
    1.0883312865861268E+00 
    1.0790720494788251E+00 
    1.0771090325888988E+00 
    1.0857697628340564E+00 
    1.0832800630445381E+00 
    1.0751541014144017E+00 
    1.0732205249383391E+00 
    1.0808697861101559E+00 
    1.0785436403288873E+00 
    1.0713188094674873E+00 
    1.0694573835999657E+00 
    1.0763043688648173E+00 
    1.0741534113129809E+00 
    1.0676429381482258E+00 
    1.0658807424877448E+00 
    1.0720912835409382E+00 
    1.0701179451559892E+00 
    1.0641749594697023E+00 
    1.0625290204282063E+00 
    1.0682330363257309E+00 
    1.0664360300855602E+00 
    1.0609456582296111E+00 
    1.0594270829817263E+00 
    1.0647262926377850E+00 
    1.0631032454691920E+00 
    1.0579752125035307E+00 
    1.0565916698560891E+00 
    1.0615663567364328E+00 
    1.0601151836269378E+00 
    1.0552778428479619E+00 
    1.0540350626518320E+00 
    1.0587494138646829E+00 
    1.0574688853943635E+00 
    1.0528645760487170E+00 
    1.0517675285422519E+00 
    1.0562735517688020E+00 
    1.0551635183580326E+00 
    1.0507450557685811E+00 
    1.0497983930970214E+00 
    1.0541390615804844E+00 
    1.0532006248372043E+00 
    1.0489287681550747E+00 
    1.0481375002452844E+00 
    1.0523488236910423E+00 
    1.0515844712588196E+00 
    1.0474260701854825E+00 
    1.0467964248448256E+00 
    1.0509088251411332E+00 
    1.0503254758889957E+00 
    1.0462529552294781E+00 
    1.0457969229088622E+00 
    1.0498367078667998E+00 
    1.0494076547404358E+00 
    1.0453847603353421E+00 
    1.0450132075617771E+00 
    1.0490230043896511E+00 
    1.0487552037262300E+00 
    1.0447596613462724E+00 
    1.0446369975172503E+00 
    1.0486264085102475E+00 
    1.0786296509391393E+00 
    1.0652148379596915E+00 
    1.0650599883104019E+00 
    1.0784032808583044E+00 
    1.0779582978967635E+00 
    1.0647543225130234E+00 
    1.0643054927333788E+00 
    1.0773094037349364E+00 
    1.0764767597748133E+00 
    1.0637236808291175E+00 
    1.0630202649734095E+00 
    1.0754827586818594E+00 
    1.0743504845316085E+00 
    1.0622077268552066E+00 
    1.0612994249493726E+00 
    1.0731032211950782E+00 
    1.0717634152479836E+00 
    1.0603087947623668E+00 
    1.0592490499639322E+00 
    1.0703519341249323E+00 
    1.0688874003949178E+00 
    1.0581328077180652E+00 
    1.0569717991421324E+00 
    1.0673861100092186E+00 
    1.0658625605713572E+00 
    1.0557771957399846E+00 
    1.0545593575133643E+00 
    1.0643294503708540E+00 
    1.0627976522813494E+00 
    1.0533275654404837E+00 
    1.0520903135617399E+00 
    1.0612766338759940E+00 
    1.0597745899830917E+00 
    1.0508553512278092E+00 
    1.0496295710750845E+00 
    1.0582984707310419E+00 
    1.0568541670576868E+00 
    1.0484190456510196E+00 
    1.0472293684309253E+00 
    1.0554468964172210E+00 
    1.0540811499912972E+00 
    1.0460655875725022E+00 
    1.0449320996129030E+00 
    1.0527607324080588E+00 
    1.0514891094027106E+00 
    1.0438330269429950E+00 
    1.0427721417834868E+00 
    1.0502693379720629E+00 
    1.0491040639139502E+00 
    1.0417527536692186E+00 
    1.0407779787301032E+00 
    1.0479957764069801E+00 
    1.0469468112343547E+00 
    1.0398507858319848E+00 
    1.0389738902241563E+00 
    1.0459592682681378E+00 
    1.0450351054596627E+00 
    1.0381497725823743E+00 
    1.0373809364227771E+00 
    1.0441763428589719E+00 
    1.0433849335978000E+00 
    1.0366698319689844E+00 
    1.0360187477058607E+00 
    1.0426628010997490E+00 
    1.0420120570034646E+00 
    1.0354301792200946E+00 
    1.0349077211762614E+00 
    1.0414355064026888E+00 
    1.0409384764384446E+00 
    1.0344573206805523E+00 
    1.0340765296102277E+00 
    1.0405208212502239E+00 
    1.0401297655662023E+00 
    1.0337073654627353E+00 
    1.0333717424323134E+00 
    1.0397745960260485E+00 
    1.0395371171546950E+00 
    1.0331520666270122E+00 
    1.0330432820573234E+00 
    1.0394209538563515E+00 
    1.0522941714930902E+00 
    1.0395461377995441E+00 
    1.0394616220372026E+00 
    1.0521819409921851E+00 
    1.0519599136564435E+00 
    1.0392939162685364E+00 
    1.0390453376538014E+00 
    1.0516324096546379E+00 
    1.0512048946017047E+00 
    1.0387190173042891E+00 
    1.0383189231632537E+00 
    1.0506837627055610E+00 
    1.0500764802523435E+00 
    1.0378498498553717E+00 
    1.0373170224715056E+00 
    1.0493911961074609E+00 
    1.0486362736827433E+00 
    1.0367260064824624E+00 
    1.0360826907000180E+00 
    1.0478202807315462E+00 
    1.0469518662680233E+00 
    1.0353932280586824E+00 
    1.0346637650022912E+00 
    1.0460394750952984E+00 
    1.0450913832505684E+00 
    1.0339004585966032E+00 
    1.0331093371490465E+00 
    1.0441155682022543E+00 
    1.0431194477148318E+00 
    1.0322961936585013E+00 
    1.0314666009385698E+00 
    1.0421100209418734E+00 
    1.0410938743388252E+00 
    1.0306259549934378E+00 
    1.0297793379057958E+00 
    1.0400770983048846E+00 
    1.0390652631217159E+00 
    1.0289315667721426E+00 
    1.0280872773214114E+00 
    1.0380636073370484E+00 
    1.0370770067832384E+00 
    1.0272508666054723E+00 
    1.0264264308338797E+00 
    1.0361098827644850E+00 
    1.0351664036534862E+00 
    1.0256179289546765E+00 
    1.0248290830430133E+00 
    1.0342504865985982E+00 
    1.0333656735914751E+00 
    1.0240633615196524E+00 
    1.0233240871758411E+00 
    1.0325153071056261E+00 
    1.0317025779129185E+00 
    1.0226144587678945E+00 
    1.0219374484980432E+00 
    1.0309304665398380E+00 
    1.0302017283488567E+00 
    1.0212958661758598E+00 
    1.0206924596694502E+00 
    1.0295190679730672E+00 
    1.0288851248416682E+00 
    1.0201298158694601E+00 
    1.0196103551356133E+00 
    1.0283023496458845E+00 
    1.0277734141643495E+00 
    1.0191368717340759E+00 
    1.0187138486634904E+00 
    1.0273025072788740E+00 
    1.0268954537818473E+00 
    1.0183456719342041E+00 
    1.0180154708348823E+00 
    1.0265450980075281E+00 
    1.0261939132061724E+00 
    1.0176742658632263E+00 
    1.0173815287870835E+00 
    1.0258788313496272E+00 
    1.0256779124619357E+00 
    1.0172010640835518E+00 
    1.0171107947411897E+00 
    1.0255777667757937E+00 
    1.0267781919767822E+00 
    1.0138660069396335E+00 
    1.0138130408673522E+00 
    1.0267123572949497E+00 
    1.0265813281171312E+00 
    1.0137074895876828E+00 
    1.0135501783657686E+00 
    1.0263863674563241E+00 
    1.0261294139852890E+00 
    1.0133424366521906E+00 
    1.0130860670887538E+00 
    1.0258131169253071E+00 
    1.0254406837287093E+00 
    1.0127833001037481E+00 
    1.0124367433141508E+00 
    1.0250156832164805E+00 
    1.0245420250888513E+00 
    1.0120493250838332E+00 
    1.0116243016799993E+00 
    1.0240240350916878E+00 
    1.0234662290129592E+00 
    1.0111650774326180E+00 
    1.0106751003369223E+00 
    1.0228731378300022E+00 
    1.0222494203170400E+00 
    1.0101579018641660E+00 
    1.0096170278087324E+00 
    1.0215996815252697E+00 
    1.0209283723035167E+00 
    1.0090559352957016E+00 
    1.0084781139904133E+00 
    1.0202399049254436E+00 
    1.0195386422896104E+00 
    1.0078870720427699E+00 
    1.0072862629278210E+00 
    1.0188287669133216E+00 
    1.0181142895082589E+00 
    1.0066790566882911E+00 
    1.0060688679207510E+00 
    1.0173992327428856E+00 
    1.0166874585657601E+00 
    1.0054590482289647E+00 
    1.0048527872443982E+00 
    1.0159825880813558E+00 
    1.0152882448151535E+00 
    1.0042532971779636E+00 
    1.0036637104803099E+00 
    1.0146078750443737E+00 
    1.0139446924471844E+00 
    1.0030869741691255E+00 
    1.0025260274251557E+00 
    1.0133018571694101E+00 
    1.0126824712022930E+00 
    1.0019837795396125E+00 
    1.0014630212752513E+00 
    1.0120894349800669E+00 
    1.0115254763233938E+00 
    1.0009664291115321E+00 
    1.0004967132952662E+00 
    1.0109933330011567E+00 
    1.0104955763665018E+00 
    1.0000565788491795E+00 
    9.9964901522821892E-01 
    1.0100347030366956E+00 
    1.0096139614347590E+00 
    9.9927838374334244E-01 
    9.9895070917498974E-01 
    1.0092383446634756E+00 
    1.0089100747717492E+00 
    9.9866630722880767E-01 
    9.9837184686935221E-01 
    1.0085947854538562E+00 
    1.0082577514138118E+00 
    9.9804491642504434E-01 
    9.9778888651788211E-01 
    1.0079860505332867E+00 
    1.0078229284384348E+00 
    9.9763185590784442E-01 
    9.9755336288737140E-01 
    1.0077411201676829E+00 
    1.0007287375684959E+00 
    9.8731393067182993E-01 
    9.8727702077444124E-01 
    1.0006849853006949E+00 
    1.0005977976039295E+00 
    9.8720348950757419E-01 
    9.8709385416841000E-01 
    1.0004678163814975E+00 
    1.0002959968137695E+00 
    9.8694884554769802E-01 
    9.8676945048291886E-01 
    1.0000836309269954E+00 
    9.9983237763676613E-01 
    9.8655699501783289E-01 
    9.8631307041179939E-01 
    9.9954423524487734E-01 
    9.9922146175775484E-01 
    9.8603946107172336E-01 
    9.8573816255968116E-01 
    9.9886658914584237E-01 
    9.9848224570311850E-01 
    9.8541123261480323E-01 
    9.8506068570536776E-01 
    9.9807105951042141E-01 
    9.9763576980027535E-01 
    9.8468865765587332E-01 
    9.8429731399125953E-01 
    9.9717912215143090E-01 
    9.9670381255811491E-01 
    9.8388880158119052E-01 
    9.8346541430537526E-01 
    9.9621265356135169E-01 
    9.9570852155990808E-01 
    9.8302957691560844E-01 
    9.8258370183945443E-01 
    9.9519427288870632E-01 
    9.9467274496238112E-01 
    9.8213019114017186E-01 
    9.8167158963335965E-01 
    9.9414686948078967E-01 
    9.9361954444740364E-01 
    9.8121042523824642E-01 
    9.8074911621707928E-01 
    9.9309354203537337E-01 
    9.9257171882577733E-01 
    9.8029019350561897E-01 
    9.7983615920233080E-01 
    9.9205687551600774E-01 
    9.9155165328911377E-01 
    9.7938936340034499E-01 
    9.7895219269287637E-01 
    9.9105874557914064E-01 
    9.9058083171416755E-01 
    9.7852707364729974E-01 
    9.7811628124527794E-01 
    9.9012045645706082E-01 
    9.8968009209611307E-01 
    9.7772197426688845E-01 
    9.7734648412752978E-01 
    9.8926232174856765E-01 
    9.8886982356391429E-01 
    9.7699236723844296E-01 
    9.7666292207223382E-01 
    9.8850586274915198E-01 
    9.8817547584653720E-01 
    9.7636283901315313E-01 
    9.7609484841745342E-01 
    9.8788427077519692E-01 
    9.8762753801875358E-01 
    9.7583998265951721E-01 
    9.7554669962121776E-01 
    9.8734615768138023E-01 
    9.8703973190159144E-01 
    9.7526130620717311E-01 
    9.7505944880542128E-01 
    9.8680628163949813E-01 
    9.8665574564335978E-01 
    9.7492501499294382E-01 
    9.7485772252723757E-01 
    9.8658071182066720E-01 
    9.7358829342283404E-01 
    9.5953182122681779E-01 
    9.5950404888555085E-01 
    9.7355658388595412E-01 
    9.7349339561183756E-01 
    9.5944867395296829E-01 
    9.5936604246401513E-01 
    9.7339914009339901E-01 
    9.7327441656677383E-01 
    9.5925666837260870E-01 
    9.5912129705669191E-01 
    9.7312004721011192E-01 
    9.7293713785730096E-01 
    9.5896086813580739E-01 
    9.5877645929614908E-01 
    9.7272698640705357E-01 
    9.7249103062895181E-01 
    9.5856920967813330E-01 
    9.5834035219682967E-01 
    9.7223083702921798E-01 
    9.7194800900134726E-01 
    9.5809112962591325E-01 
    9.5782278966305345E-01 
    9.7164411981357357E-01 
    9.7132085101353760E-01 
    9.5753670037009475E-01 
    9.5723432186945778E-01 
    9.7097994374438823E-01 
    9.7062318497893307E-01 
    9.5691717525193720E-01 
    9.5658694430569124E-01 
    9.7025250214681935E-01 
    9.6986996048619956E-01 
    9.5624544002925260E-01 
    9.5589449787295289E-01 
    9.6947764618273069E-01 
    9.6907765712993321E-01 
    9.5553597751845754E-01 
    9.5517186721720848E-01 
    9.6867221235732848E-01 
    9.6826353778106300E-01 
    9.5480416180518846E-01 
    9.5443479888692317E-01 
    9.6785379903177815E-01 
    9.6744523565792895E-01 
    9.5406580169783084E-01 
    9.5369917329652287E-01 
    9.6704007920313406E-01 
    9.6664046607356657E-01 
    9.5333684387840001E-01 
    9.5298080045187372E-01 
    9.6624854003921001E-01 
    9.6586649230887889E-01 
    9.5263308462001384E-01 
    9.5229572858196188E-01 
    9.6549644463896811E-01 
    9.6514048628409066E-01 
    9.5197090845328802E-01 
    9.5166136642336163E-01 
    9.6480100578202443E-01 
    9.6448099113544206E-01 
    9.5137083715000548E-01 
    9.5110446610226107E-01 
    9.6418458583768174E-01 
    9.6391674262702998E-01 
    9.5086731971805383E-01 
    9.5065562886027044E-01 
    9.6367754854484322E-01 
    9.6342086512120217E-01 
    9.5040377154484368E-01 
    9.5008245317347195E-01 
    9.6310340609517009E-01 
    9.6282745012980642E-01 
    9.4981513539699147E-01 
    9.4963334914955977E-01 
    9.6264542494101202E-01 
    9.6252318782665913E-01 
    9.4951228517836817E-01 
    9.4945172257335886E-01 
    9.6246177694724366E-01 
    9.4513461916358732E-01 
    9.3039428696165760E-01 
    9.3037145887630512E-01 
    9.4510974952029891E-01 
    9.4506015933529897E-01 
    9.3032595146156183E-01 
    9.3025806222854379E-01 
    9.4498615798238528E-01 
    9.4488822370727832E-01 
    9.3016825548415871E-01 
    9.3005716789521886E-01 
    9.4476703448199106E-01 
    9.4462341772649028E-01 
    9.2992551875739526E-01 
    9.2977402278799781E-01 
    9.4445825643733938E-01 
    9.4427243332505062E-01 
    9.2960336598072224E-01 
    9.2941433133794726E-01 
    9.4406691882481286E-01 
    9.4384270426962835E-01 
    9.2920774391927852E-01 
    9.2898446948527347E-01 
    9.4360079306825861E-01 
    9.4334237073738403E-01 
    9.2874558820006969E-01 
    9.2849226556980047E-01 
    9.4306871919951507E-01 
    9.4278116271223666E-01 
    9.2822571116484576E-01 
    9.2794730688862814E-01 
    9.4248120840368843E-01 
    9.4217050905967126E-01 
    9.2765857689989772E-01 
    9.2736105306990291E-01 
    9.4185071865471237E-01 
    9.4152349735224738E-01 
    9.2705627085106279E-01 
    9.2674592326256833E-01 
    9.4119067476784968E-01 
    9.4085407528766751E-01 
    9.2643169524289359E-01 
    9.2611517774128926E-01 
    9.4051542381211406E-01 
    9.4017657965064294E-01 
    9.2579808529114782E-01 
    9.2548211615342957E-01 
    9.3983936692878101E-01 
    9.3950551749097155E-01 
    9.2516891824896574E-01 
    9.2486026035971236E-01 
    9.3917687730810873E-01 
    9.3885539236749771E-01 
    9.2455808198545031E-01 
    9.2426449973703761E-01 
    9.3854303249141291E-01 
    9.3824200777633393E-01 
    9.2398207454442516E-01 
    9.2371435935503277E-01 
    9.3795532254431357E-01 
    9.3768697639822729E-01 
    9.2346574961227001E-01 
    9.2324001700076985E-01 
    9.3744159877841060E-01 
    9.3722165773554322E-01 
    9.2303586782978420E-01 
    9.2279964104302137E-01 
    9.3700885931590960E-01 
    9.3673962570410474E-01 
    9.2247434583784560E-01 
    9.2217014785497020E-01 
    9.3643274622700567E-01 
    9.3619019179178009E-01 
    9.2195606598007296E-01 
    9.2179424009100230E-01 
    9.3601262748222847E-01 
    9.3589472904213689E-01 
    9.2168579104851001E-01 
    9.2163144377067341E-01 
    9.3583587139708846E-01 
    9.1531285707032961E-01 
    8.9989587570550245E-01 
    8.9987499286382477E-01 
    9.1529132945603531E-01 
    9.1524842731867639E-01 
    8.9983337675140207E-01 
    8.9977132617472311E-01 
    9.1518444686741585E-01 
    9.1509985538870464E-01 
    8.9968928631807921E-01 
    8.9958777024823200E-01 
    9.1499523127607252E-01 
    9.1487118973171389E-01 
    8.9946732708298760E-01 
    8.9932848589250936E-01 
    9.1472832596277687E-01 
    9.1456722202034557E-01 
    8.9917178939842057E-01 
    8.9899785582168568E-01 
    9.1438853746403170E-01 
    9.1419301025232302E-01 
    8.9880741656249674E-01 
    8.9860131352789452E-01 
    9.1398147499172244E-01 
    9.1375493944551955E-01 
    8.9838053934844808E-01 
    8.9814617331240498E-01 
    9.1351450089114306E-01 
    9.1326132042970365E-01 
    8.9789934261570803E-01 
    8.9764129451646024E-01 
    9.1299669214253232E-01 
    9.1272203271218300E-01 
    8.9737339255696413E-01 
    8.9709703818825182E-01 
    9.1243879261501226E-01 
    9.1214844670056039E-01 
    8.9681365308515248E-01 
    8.9652474287933215E-01 
    9.1185256760367484E-01 
    9.1155273025932015E-01 
    8.9623182146062441E-01 
    8.9593637145759586E-01 
    9.1125045735835586E-01 
    9.1094735453137521E-01 
    8.9563996962322634E-01 
    8.9534423387961870E-01 
    9.1064504690337644E-01 
    9.1034517354366884E-01 
    8.9505080588926911E-01 
    8.9476151100660761E-01 
    9.1004951237293918E-01 
    9.0976005663212201E-01 
    8.9447840823411406E-01 
    8.9420390698694452E-01 
    9.0947914516552397E-01 
    9.0920977660936830E-01 
    8.9394099562038287E-01 
    8.9369318501027750E-01 
    9.0895597446401777E-01 
    9.0872221444527490E-01 
    8.9346341089346792E-01 
    8.9325067490340648E-01 
    9.0851100807644136E-01 
    9.0831541148287598E-01 
    8.9303185735416990E-01 
    8.9274155852906489E-01 
    9.0806014396805101E-01 
    9.0771067702695452E-01 
    8.9240728238604461E-01 
    8.9213602778383438E-01 