# vtk DataFile Version 2.0
Pressure Field Data 
ASCII 
DATASET UNSTRUCTURED_GRID 

POINTS 1681 double 

    0.0000000000000000E+00     0.0000000000000000E+00     0.0000000000000000E+00 
    1.0000000000000000E+00     0.0000000000000000E+00     0.0000000000000000E+00 
    1.0000000000000000E+00     1.0000000000000000E+00     0.0000000000000000E+00 
    0.0000000000000000E+00     1.0000000000000000E+00     0.0000000000000000E+00 
    5.2499999999875258E-01     0.0000000000000000E+00     0.0000000000000000E+00 
    7.4999999999856765E-02     0.0000000000000000E+00     0.0000000000000000E+00 
    1.2499999999975850E-01     0.0000000000000000E+00     0.0000000000000000E+00 
    1.7499999999962990E-01     0.0000000000000000E+00     0.0000000000000000E+00 
    2.2499999999948389E-01     0.0000000000000000E+00     0.0000000000000000E+00 
    2.7499999999933789E-01     0.0000000000000000E+00     0.0000000000000000E+00 
    3.2499999999919210E-01     0.0000000000000000E+00     0.0000000000000000E+00 
    3.7499999999904610E-01     0.0000000000000000E+00     0.0000000000000000E+00 
    4.2499999999890020E-01     0.0000000000000000E+00     0.0000000000000000E+00 
    4.7499999999875958E-01     0.0000000000000000E+00     0.0000000000000000E+00 
    2.4999999999949701E-02     0.0000000000000000E+00     0.0000000000000000E+00 
    5.7499999999887907E-01     0.0000000000000000E+00     0.0000000000000000E+00 
    6.2499999999901101E-01     0.0000000000000000E+00     0.0000000000000000E+00 
    6.7499999999914273E-01     0.0000000000000000E+00     0.0000000000000000E+00 
    7.2499999999927467E-01     0.0000000000000000E+00     0.0000000000000000E+00 
    7.7499999999940661E-01     0.0000000000000000E+00     0.0000000000000000E+00 
    8.2499999999953844E-01     0.0000000000000000E+00     0.0000000000000000E+00 
    8.7499999999967026E-01     0.0000000000000000E+00     0.0000000000000000E+00 
    9.2499999999980220E-01     0.0000000000000000E+00     0.0000000000000000E+00 
    9.7499999999993414E-01     0.0000000000000000E+00     0.0000000000000000E+00 
    5.4999999999881310E-01     0.0000000000000000E+00     0.0000000000000000E+00 
    9.9999999999814140E-02     0.0000000000000000E+00     0.0000000000000000E+00 
    1.4999999999970290E-01     0.0000000000000000E+00     0.0000000000000000E+00 
    1.9999999999955689E-01     0.0000000000000000E+00     0.0000000000000000E+00 
    2.4999999999941089E-01     0.0000000000000000E+00     0.0000000000000000E+00 
    2.9999999999926502E-01     0.0000000000000000E+00     0.0000000000000000E+00 
    3.4999999999911913E-01     0.0000000000000000E+00     0.0000000000000000E+00 
    3.9999999999897312E-01     0.0000000000000000E+00     0.0000000000000000E+00 
    4.4999999999882723E-01     0.0000000000000000E+00     0.0000000000000000E+00 
    4.9999999999869210E-01     0.0000000000000000E+00     0.0000000000000000E+00 
    4.9999999999899403E-02     0.0000000000000000E+00     0.0000000000000000E+00 
    5.9999999999894504E-01     0.0000000000000000E+00     0.0000000000000000E+00 
    6.4999999999907687E-01     0.0000000000000000E+00     0.0000000000000000E+00 
    6.9999999999920870E-01     0.0000000000000000E+00     0.0000000000000000E+00 
    7.4999999999934064E-01     0.0000000000000000E+00     0.0000000000000000E+00 
    7.9999999999947247E-01     0.0000000000000000E+00     0.0000000000000000E+00 
    8.4999999999960441E-01     0.0000000000000000E+00     0.0000000000000000E+00 
    8.9999999999973623E-01     0.0000000000000000E+00     0.0000000000000000E+00 
    9.4999999999986817E-01     0.0000000000000000E+00     0.0000000000000000E+00 
    1.0000000000000000E+00     5.2499999999875258E-01     0.0000000000000000E+00 
    1.0000000000000000E+00     7.4999999999856765E-02     0.0000000000000000E+00 
    1.0000000000000000E+00     1.2499999999975850E-01     0.0000000000000000E+00 
    1.0000000000000000E+00     1.7499999999962990E-01     0.0000000000000000E+00 
    1.0000000000000000E+00     2.2499999999948389E-01     0.0000000000000000E+00 
    1.0000000000000000E+00     2.7499999999933789E-01     0.0000000000000000E+00 
    1.0000000000000000E+00     3.2499999999919210E-01     0.0000000000000000E+00 
    1.0000000000000000E+00     3.7499999999904610E-01     0.0000000000000000E+00 
    1.0000000000000000E+00     4.2499999999890020E-01     0.0000000000000000E+00 
    1.0000000000000000E+00     4.7499999999875958E-01     0.0000000000000000E+00 
    1.0000000000000000E+00     2.4999999999949701E-02     0.0000000000000000E+00 
    1.0000000000000000E+00     5.7499999999887907E-01     0.0000000000000000E+00 
    1.0000000000000000E+00     6.2499999999901101E-01     0.0000000000000000E+00 
    1.0000000000000000E+00     6.7499999999914273E-01     0.0000000000000000E+00 
    1.0000000000000000E+00     7.2499999999927467E-01     0.0000000000000000E+00 
    1.0000000000000000E+00     7.7499999999940661E-01     0.0000000000000000E+00 
    1.0000000000000000E+00     8.2499999999953844E-01     0.0000000000000000E+00 
    1.0000000000000000E+00     8.7499999999967026E-01     0.0000000000000000E+00 
    1.0000000000000000E+00     9.2499999999980220E-01     0.0000000000000000E+00 
    1.0000000000000000E+00     9.7499999999993414E-01     0.0000000000000000E+00 
    1.0000000000000000E+00     5.4999999999881310E-01     0.0000000000000000E+00 
    1.0000000000000000E+00     9.9999999999814140E-02     0.0000000000000000E+00 
    1.0000000000000000E+00     1.4999999999970290E-01     0.0000000000000000E+00 
    1.0000000000000000E+00     1.9999999999955689E-01     0.0000000000000000E+00 
    1.0000000000000000E+00     2.4999999999941089E-01     0.0000000000000000E+00 
    1.0000000000000000E+00     2.9999999999926502E-01     0.0000000000000000E+00 
    1.0000000000000000E+00     3.4999999999911913E-01     0.0000000000000000E+00 
    1.0000000000000000E+00     3.9999999999897312E-01     0.0000000000000000E+00 
    1.0000000000000000E+00     4.4999999999882723E-01     0.0000000000000000E+00 
    1.0000000000000000E+00     4.9999999999869210E-01     0.0000000000000000E+00 
    1.0000000000000000E+00     4.9999999999899403E-02     0.0000000000000000E+00 
    1.0000000000000000E+00     5.9999999999894504E-01     0.0000000000000000E+00 
    1.0000000000000000E+00     6.4999999999907687E-01     0.0000000000000000E+00 
    1.0000000000000000E+00     6.9999999999920870E-01     0.0000000000000000E+00 
    1.0000000000000000E+00     7.4999999999934064E-01     0.0000000000000000E+00 
    1.0000000000000000E+00     7.9999999999947247E-01     0.0000000000000000E+00 
    1.0000000000000000E+00     8.4999999999960441E-01     0.0000000000000000E+00 
    1.0000000000000000E+00     8.9999999999973623E-01     0.0000000000000000E+00 
    1.0000000000000000E+00     9.4999999999986817E-01     0.0000000000000000E+00 
    4.7500000000196618E-01     1.0000000000000000E+00     0.0000000000000000E+00 
    9.2499999999968763E-01     1.0000000000000000E+00     0.0000000000000000E+00 
    8.7499999999961831E-01     1.0000000000000000E+00     0.0000000000000000E+00 
    8.2499999999982654E-01     1.0000000000000000E+00     0.0000000000000000E+00 
    7.7500000000017355E-01     1.0000000000000000E+00     0.0000000000000000E+00 
    7.2500000000052045E-01     1.0000000000000000E+00     0.0000000000000000E+00 
    6.7500000000086724E-01     1.0000000000000000E+00     0.0000000000000000E+00 
    6.2500000000121403E-01     1.0000000000000000E+00     0.0000000000000000E+00 
    5.7500000000156093E-01     1.0000000000000000E+00     0.0000000000000000E+00 
    5.2500000000189684E-01     1.0000000000000000E+00     0.0000000000000000E+00 
    9.7499999999989595E-01     1.0000000000000000E+00     0.0000000000000000E+00 
    4.2500000000176902E-01     1.0000000000000000E+00     0.0000000000000000E+00 
    3.7500000000156092E-01     1.0000000000000000E+00     0.0000000000000000E+00 
    3.2500000000135282E-01     1.0000000000000000E+00     0.0000000000000000E+00 
    2.7500000000114472E-01     1.0000000000000000E+00     0.0000000000000000E+00 
    2.2500000000093659E-01     1.0000000000000000E+00     0.0000000000000000E+00 
    1.7500000000072849E-01     1.0000000000000000E+00     0.0000000000000000E+00 
    1.2500000000052039E-01     1.0000000000000000E+00     0.0000000000000000E+00 
    7.5000000000312261E-02     1.0000000000000000E+00     0.0000000000000000E+00 
    2.5000000000104109E-02     1.0000000000000000E+00     0.0000000000000000E+00 
    4.5000000000187301E-01     1.0000000000000000E+00     0.0000000000000000E+00 
    8.9999999999958358E-01     1.0000000000000000E+00     0.0000000000000000E+00 
    8.4999999999965303E-01     1.0000000000000000E+00     0.0000000000000000E+00 
    8.0000000000000004E-01     1.0000000000000000E+00     0.0000000000000000E+00 
    7.5000000000034706E-01     1.0000000000000000E+00     0.0000000000000000E+00 
    7.0000000000069384E-01     1.0000000000000000E+00     0.0000000000000000E+00 
    6.5000000000104063E-01     1.0000000000000000E+00     0.0000000000000000E+00 
    6.0000000000138742E-01     1.0000000000000000E+00     0.0000000000000000E+00 
    5.5000000000173432E-01     1.0000000000000000E+00     0.0000000000000000E+00 
    5.0000000000205946E-01     1.0000000000000000E+00     0.0000000000000000E+00 
    9.4999999999979179E-01     1.0000000000000000E+00     0.0000000000000000E+00 
    4.0000000000166491E-01     1.0000000000000000E+00     0.0000000000000000E+00 
    3.5000000000145681E-01     1.0000000000000000E+00     0.0000000000000000E+00 
    3.0000000000124871E-01     1.0000000000000000E+00     0.0000000000000000E+00 
    2.5000000000104061E-01     1.0000000000000000E+00     0.0000000000000000E+00 
    2.0000000000083251E-01     1.0000000000000000E+00     0.0000000000000000E+00 
    1.5000000000062441E-01     1.0000000000000000E+00     0.0000000000000000E+00 
    1.0000000000041630E-01     1.0000000000000000E+00     0.0000000000000000E+00 
[...]
CELL_DATA 1600 
SCALARS Pressure double 1 
LOOKUP_TABLE default 

    1.2361853106398182E+00 
    1.1898941416173334E+00 
    1.1875223385713831E+00 
    1.2206122378938555E+00 
    1.2082043965496352E+00 
    1.1839341238490955E+00 
    1.1797788816365540E+00 
    1.1980445989504922E+00 
    1.1895135316519971E+00 
    1.1754187009513215E+00 
    1.1710520841608771E+00 
    1.1821966157562860E+00 
    1.1758072367145573E+00 
    1.1667882169246246E+00 
    1.1626832181559292E+00 
    1.1701425006142165E+00 
    1.1650555777975220E+00 
    1.1587619431200489E+00 
    1.1550317700235795E+00 
    1.1604385911318489E+00 
    1.1562109872297781E+00 
    1.1514905525455483E+00 
    1.1481311438149504E+00 
    1.1523117184332123E+00 
    1.1486939599099451E+00 
    1.1449443875692527E+00 
    1.1419206241734221E+00 
    1.1453212992762114E+00 
    1.1421651181417907E+00 
    1.1390504799257037E+00 
    1.1363252721047434E+00 
    1.1392027273399046E+00 
    1.1364159535084448E+00 
    1.1337372239366037E+00 
    1.1312794354532274E+00 
    1.1337901109844246E+00 
    1.1313132854254240E+00 
    1.1289458926770353E+00 
    1.1267314106007618E+00 
    1.1289757740585964E+00 
    1.1267696041384958E+00 
    1.1246315712391475E+00 
    1.1226425961725892E+00 
    1.1246882449840756E+00 
    1.1227263736324316E+00 
    1.1207613549676747E+00 
    1.1189852520580692E+00 
    1.1208796193056965E+00 
    1.1191444498648062E+00 
    1.1173121760641258E+00 
    1.1157404512224409E+00 
    1.1175180569475749E+00 
    1.1159982174997061E+00 
    1.1142688138080472E+00 
    1.1128963418877529E+00 
    1.1145832101880173E+00 
    1.1132718131122781E+00 
    1.1116224630609612E+00 
    1.1104469603771498E+00 
    1.1120632764332348E+00 
    1.1109572425253127E+00 
    1.1093699615867110E+00 
    1.1083919644849964E+00 
    1.1099538281666597E+00 
    1.1090543353820310E+00 
    1.1075146715110433E+00 
    1.1067429750322182E+00 
    1.1082632761593976E+00 
    1.1075807751421789E+00 
    1.1060760244369019E+00 
    1.1054594618518849E+00 
    1.1069586728093010E+00 
    1.1063697720834209E+00 
    1.1048767025981869E+00 
    1.1044274408891823E+00 
    1.1059100885355158E+00 
    1.1056148559387364E+00 
    1.1041374749283155E+00 
    1.1039925911754092E+00 
    1.1054673773238890E+00 
    1.1660874613322234E+00 
    1.1485698257431354E+00 
    1.1481887909323243E+00 
    1.1653288892538156E+00 
    1.1639288094558424E+00 
    1.1474490117831286E+00 
    1.1463887177871637E+00 
    1.1620310641516836E+00 
    1.1597715835772442E+00 
    1.1450559644102167E+00 
    1.1435006462341408E+00 
    1.1572650094476700E+00 
    1.1546044504737230E+00 
    1.1417703635877521E+00 
    1.1399086532731151E+00 
    1.1518614059909538E+00 
    1.1490890937702998E+00 
    1.1379536555434324E+00 
    1.1359375108452288E+00 
    1.1463260206662538E+00 
    1.1435992801792196E+00 
    1.1338864755950049E+00 
    1.1318218513814664E+00 
    1.1409274453571767E+00 
    1.1383232328274260E+00 
    1.1297610831221325E+00 
    1.1277183063788350E+00 
    1.1357951913289590E+00 
    1.1333489078994230E+00 
    1.1257048008444277E+00 
    1.1237297022656558E+00 
    1.1309879137197092E+00 
    1.1287143549223393E+00 
    1.1218003520496491E+00 
    1.1199226105291378E+00 
    1.1265293825157947E+00 
    1.1244335333167705E+00 
    1.1181011850939275E+00 
    1.1163400318328365E+00 
    1.1224269805762348E+00 
    1.1205096874359370E+00 
    1.1146423682227273E+00 
    1.1130108555892244E+00 
    1.1186814702963048E+00 
    1.1169421803924762E+00 
    1.1114478569221522E+00 
    1.1099554123746893E+00 
    1.1152916909899744E+00 
    1.1137299390310598E+00 
    1.1085352988898627E+00 
    1.1071892305102915E+00 
    1.1122569745151776E+00 
    1.1108729840009173E+00 
    1.1059188274137781E+00 
    1.1047256082222472E+00 
    1.1095782643742291E+00 
    1.1083732862639626E+00 
    1.1036111149936954E+00 
    1.1025770462444038E+00 
    1.1072587386869339E+00 
    1.1062355234665660E+00 
    1.1016251292840742E+00 
    1.1007574043820287E+00 
    1.1053048402159298E+00 
    1.1044692144764137E+00 
    1.0999775629030915E+00 
    1.0992919226041100E+00 
    1.1037342195533686E+00 
    1.1030971776526799E+00 
    1.0986950565596998E+00 
    1.0981086939960938E+00 
    1.1024924243062448E+00 
    1.1019211577576786E+00 
    1.0975540993739596E+00 
    1.0971454302727037E+00 
    1.1014899508619340E+00 
    1.1012092539759171E+00 
    1.0968767599713047E+00 
    1.0967424958242158E+00 
    1.1010689688965651E+00 
    1.1334187241669353E+00 
    1.1192615420983358E+00 
    1.1190963496341513E+00 
    1.1331798315249406E+00 
    1.1327105224404472E+00 
    1.1187706312734669E+00 
    1.1182926653705390E+00 
    1.1320267875199188E+00 
    1.1311497153275412E+00 
    1.1176728425137161E+00 
    1.1169229548235522E+00 
    1.1301021286027142E+00 
    1.1289079666105077E+00 
    1.1160562925508557E+00 
    1.1150868260898201E+00 
    1.1275915429298553E+00 
    1.1261759110882805E+00 
    1.1140283586462139E+00 
    1.1128946320547846E+00 
    1.1246823642545745E+00 
    1.1231300813144864E+00 
    1.1116989931950740E+00 
    1.1104539061117347E+00 
    1.1215360775788168E+00 
    1.1199156807324329E+00 
    1.1091712548838557E+00 
    1.1078620308308080E+00 
    1.1182823533100248E+00 
    1.1166476105516909E+00 
    1.1065360428600082E+00 
    1.1052022987577705E+00 
    1.1150215319306520E+00 
    1.1134128999821509E+00 
    1.1038690546929804E+00 
    1.1025436698861757E+00 
    1.1118291952866279E+00 
    1.1102767962815783E+00 
    1.1012326551407685E+00 
    1.0999420701448503E+00 
    1.1087614178314378E+00 
    1.1072880274604446E+00 
    1.0986774299029061E+00 
    1.0974435565325753E+00 
    1.1058608688309355E+00 
    1.1044838550358897E+00 
    1.0962450085999920E+00 
    1.0950859817660592E+00 
    1.1031604652838918E+00 
    1.1018937306109804E+00 
    1.0939701683300473E+00 
    1.0929010718278587E+00 
    1.1006865271376944E+00 
    1.0995415796967294E+00 
    1.0918820607938984E+00 
    1.0909162442610776E+00 
    1.0984613765371058E+00 
    1.0974482869688413E+00 
    1.0900064850898468E+00 
    1.0891556616231672E+00 
    1.0965047800746217E+00 
    1.0956332763393513E+00 
    1.0883666250928785E+00 
    1.0876426767464722E+00 
    1.0948365363546697E+00 
    1.0941194163615446E+00 
    1.0869894833424607E+00 
    1.0864123585916390E+00 
    1.0934884726343712E+00 
    1.0929334616858066E+00 
    1.0858909589939270E+00 
    1.0853443397418667E+00 
    1.0923686295571695E+00 
    1.0918363903795401E+00 
    1.0848419334562442E+00 
    1.0844892768062426E+00 
    1.0914536807046200E+00 
    1.0912000801317940E+00 
    1.0842545342776500E+00 
    1.0841371921247842E+00 
    1.0910733741055749E+00 
    1.1055136893547122E+00 
    1.0918652123939170E+00 
    1.0917736146594708E+00 
    1.1053932894863350E+00 
    1.1051549482017546E+00 
    1.0915915583081155E+00 
    1.0913212079430819E+00 
    1.1048028867845667E+00 
    1.1043426102733385E+00 
    1.0909658328590044E+00 
    1.0905297033099890E+00 
    1.1037809650883326E+00 
    1.1031259372542241E+00 
    1.0900179057112827E+00 
    1.0894360620016939E+00 
    1.1023860741686982E+00 
    1.1015702180146267E+00 
    1.0887902985805560E+00 
    1.0880871296741230E+00 
    1.1006876046709200E+00 
    1.0997476012904850E+00 
    1.0873332757068090E+00 
    1.0865353455078401E+00 
    1.0987592661831866E+00 
    1.0977314272184628E+00 
    1.0856999101566656E+00 
    1.0848333673522972E+00 
    1.0966725627068308E+00 
    1.0955905206882490E+00 
    1.0839418344322231E+00 
    1.0830312167308429E+00 
    1.0944927141532246E+00 
    1.0933861480363962E+00 
    1.0821072761087176E+00 
    1.0811754812446048E+00 
    1.0922773270416928E+00 
    1.0911722376881923E+00 
    1.0802410540194882E+00 
    1.0793090660810514E+00 
    1.0900765639234113E+00 
    1.0889956335357620E+00 
    1.0783843493500076E+00 
    1.0774714155946756E+00 
    1.0879342894393353E+00 
    1.0868971259423827E+00 
    1.0765746546452772E+00 
    1.0756982198082663E+00 
    1.0858884841512468E+00 
    1.0849123072019211E+00 
    1.0748460070731662E+00 
    1.0740217891233772E+00 
    1.0839723487473183E+00 
    1.0830722236452981E+00 
    1.0732292322203241E+00 
    1.0724717696339394E+00 
    1.0822153254360427E+00 
    1.0814047893604886E+00 
    1.0717526801963253E+00 
    1.0710753116632830E+00 
    1.0806436863424040E+00 
    1.0799351901562515E+00 
    1.0704434416649775E+00 
    1.0698623743910860E+00 
    1.0792833162406694E+00 
    1.0786942214177637E+00 
    1.0693389792330508E+00 
    1.0688711137921227E+00 
    1.0781700076931666E+00 
    1.0776703068071496E+00 
    1.0683921884572811E+00 
    1.0678727246294371E+00 
    1.0771356701870511E+00 
    1.0766708796971980E+00 
    1.0674443141246630E+00 
    1.0671442082458826E+00 
    1.0763496372242227E+00 
    1.0761350337057327E+00 
    1.0669438635227462E+00 
    1.0668436031517117E+00 
    1.0760275943611446E+00 
    1.0781256094812919E+00 
    1.0641734382981967E+00 
    1.0641143787637619E+00 
    1.0780531739145638E+00 
    1.0779089329207345E+00 
    1.0639967582150176E+00 
    1.0638215574863821E+00 
    1.0776942210559310E+00 
    1.0774111157496635E+00 
    1.0635902104893331E+00 
    1.0633046509419781E+00 
    1.0770624130548521E+00 
    1.0766515714389706E+00 
    1.0629673882218211E+00 
    1.0625814090910666E+00 
    1.0761825769012909E+00 
    1.0756598355432438E+00 
    1.0621500221516560E+00 
    1.0616768214273091E+00 
    1.0750881634037623E+00 
    1.0744724864755537E+00 
    1.0611654686005685E+00 
    1.0606195852229046E+00 
    1.0738176514702016E+00 
    1.0731285963579109E+00 
    1.0600428539537943E+00 
    1.0594389900296046E+00 
    1.0724101753112978E+00 
    1.0716670773691286E+00 
    1.0588116619678971E+00 
    1.0581646507484166E+00 
    1.0709040059298387E+00 
    1.0701256770398648E+00 
    1.0575018189751355E+00 
    1.0568269998430919E+00 
    1.0693366546599994E+00 
    1.0685413405137707E+00 
    1.0561439486831432E+00 
    1.0554564847598582E+00 
    1.0677441805652064E+00 
    1.0669494584886388E+00 
    1.0547683658025726E+00 
    1.0540831697846440E+00 
    1.0661611974060501E+00 
    1.0653834488249763E+00 
    1.0534045112445325E+00 
    1.0527359145524449E+00 
    1.0646200889569544E+00 
    1.0638747488404292E+00 
    1.0520806850407749E+00 
    1.0514421095167423E+00 
    1.0631510197575578E+00 
    1.0624524458455056E+00 
    1.0508234301048360E+00 
    1.0502277803013229E+00 
    1.0617823712811862E+00 
    1.0611440456641570E+00 
    1.0496583535037343E+00 
    1.0491190059959448E+00 
    1.0605411014371811E+00 
    1.0599780853682570E+00 
    1.0486149117902557E+00 
    1.0481524299521614E+00 
    1.0594613765221303E+00 
    1.0589973191887572E+00 
    1.0477340133262814E+00 
    1.0473257960851818E+00 
    1.0585753318141433E+00 
    1.0581130762287878E+00 
    1.0468528195438140E+00 
    1.0463903710750564E+00 
    1.0576185876378519E+00 
    1.0572262058172746E+00 
    1.0460432899995395E+00 
    1.0457837427462942E+00 
    1.0569412080763014E+00 
    1.0567516603647018E+00 
    1.0456105306199444E+00 
    1.0455238804915190E+00 
    1.0566570072741754E+00 
    1.0499336800651085E+00 
    1.0353608149461828E+00 
    1.0353189472799857E+00 
    1.0498844430169645E+00 
    1.0497863756864474E+00 
    1.0352355372730984E+00 
    1.0351111738732477E+00 
    1.0496402292921794E+00 
    1.0494470707885277E+00 
    1.0349467405812336E+00 
    1.0347434655606098E+00 
    1.0492083876754952E+00 
    1.0489261287087335E+00 
    1.0345029385103595E+00 
    1.0342269504463035E+00 
    1.0486025946482678E+00 
    1.0482402915811313E+00 
    1.0339173864827447E+00 
    1.0335762672063336E+00 
    1.0478419328361055E+00 
    1.0474102492986401E+00 
    1.0332056323122312E+00 
    1.0328074865298928E+00 
    1.0469479187880260E+00 
    1.0464577633716408E+00 
    1.0323840533639432E+00 
    1.0319376843612855E+00 
    1.0459426814585844E+00 
    1.0454055965089655E+00 
    1.0314707865960746E+00 
    1.0309859846957135E+00 
    1.0448496345246301E+00 
    1.0442780343861262E+00 
    1.0304860724222018E+00 
    1.0299738307188639E+00 
    1.0436940252154632E+00 
    1.0431008245257705E+00 
    1.0294520328163410E+00 
    1.0289236151423748E+00 
    1.0425017619865216E+00 
    1.0419001271592765E+00 
    1.0283914745963352E+00 
    1.0278583556032330E+00 
    1.0412990592141400E+00 
    1.0407017815734585E+00 
    1.0273271045251480E+00 
    1.0268005214438560E+00 
    1.0401114379032317E+00 
    1.0395309779613084E+00 
    1.0262812449982819E+00 
    1.0257720068323302E+00 
    1.0389634078074854E+00 
    1.0384117568731943E+00 
    1.0252757303946736E+00 
    1.0247955551084889E+00 
    1.0378790553307053E+00 
    1.0373687214614307E+00 
    1.0243353319606729E+00 
    1.0239004539346057E+00 
    1.0368853638107256E+00 
    1.0364352007064259E+00 
    1.0234974911728045E+00 
    1.0231302737039389E+00 
    1.0360244656290010E+00 
    1.0356505768174058E+00 
    1.0227837600419176E+00 
    1.0223699051931849E+00 
    1.0352432902893751E+00 
    1.0347505626139026E+00 
    1.0218854723210211E+00 
    1.0214851198966546E+00 
    1.0343167097350012E+00 
    1.0340010074594765E+00 
    1.0211817811747144E+00 
    1.0209546775068370E+00 
    1.0337630870604084E+00 
    1.0336039687672660E+00 
    1.0208034062160474E+00 
    1.0207278130276172E+00 
    1.0335242817659653E+00 
    1.0204280480829067E+00 
    1.0051207627626118E+00 
    1.0050886111202528E+00 
    1.0203917430180960E+00 
    1.0203193877460959E+00 
    1.0050245130525821E+00 
    1.0049289298681225E+00 
    1.0202114778417160E+00 
    1.0200688029311225E+00 
    1.0048025715824511E+00 
    1.0046463795452973E+00 
    1.0198924271276133E+00 
    1.0196836503923299E+00 
    1.0044613895157271E+00 
    1.0042486465566167E+00 
    1.0194438473864458E+00 
    1.0191744182256663E+00 
    1.0040091668253055E+00 
    1.0037440733493961E+00 
    1.0188768407501629E+00 
    1.0185526551030606E+00 
    1.0034545874393195E+00 
    1.0031420532826973E+00 
    1.0182034516323348E+00 
    1.0178310520966549E+00 
    1.0028080479235111E+00 
    1.0024543008800302E+00 
    1.0174374300954898E+00 
    1.0170246625854120E+00 
    1.0020826269626617E+00 
    1.0016950394610566E+00 
    1.0165950132509858E+00 
    1.0161509091758365E+00 
    1.0012936973606825E+00 
    1.0008807816448191E+00 
    1.0156947995002183E+00 
    1.0152291437767271E+00 
    1.0004584862598043E+00 
    1.0000291216230381E+00 
    1.0147565249703607E+00 
    1.0142794945570099E+00 
    9.9959496400588133E-01 
    9.9915819429710739E-01 
    1.0138004930204016E+00 
    1.0133220214986967E+00 
    9.9872111146977749E-01 
    9.9828605199567400E-01 
    1.0128465835185749E+00 
    1.0123766247243218E+00 
    9.9785538519615091E-01 
    9.9743175863271705E-01 
    1.0119147154965624E+00 
    1.0114637341843244E+00 
    9.9701828564009332E-01 
    9.9661879028485090E-01 
    1.0110270566323711E+00 
    1.0106090110509920E+00 
    9.9623812287508595E-01 
    9.9588170816419685E-01 
    1.0102151745695589E+00 
    1.0098507694368313E+00 
    9.9555278947987136E-01 
    9.9524133121324776E-01 
    1.0095138336522542E+00 
    1.0091542839135890E+00 
    9.9485972544120238E-01 
    9.9436231460264279E-01 
    1.0086958722639032E+00 
    1.0082366039569541E+00 
    9.9392057509969922E-01 
    9.9358632194756924E-01 
    1.0078828977803935E+00 
    1.0076004886021581E+00 
    9.9331775465808758E-01 
    9.9311569187961279E-01 
    1.0073881622634575E+00 
    1.0072463745246225E+00 
    9.9298067182391769E-01 
    9.9291301631676598E-01 
    1.0071753812158601E+00 
    9.8943279261303030E-01 
    9.7336322280129872E-01 
    9.7333614544725355E-01 
    9.8940365183343226E-01 
    9.8934556530717965E-01 
    9.7328218010084044E-01 
    9.7320170819745411E-01 
    9.8925896039106409E-01 
    9.8914447225193070E-01 
    9.7309527308470212E-01 
    9.7296354488761749E-01 
    9.8900289356381421E-01 
    9.8883506474483229E-01 
    9.7280722203162817E-01 
    9.7262696311348307E-01 
    9.8864178370204026E-01 
    9.8842381529423207E-01 
    9.7242342264672144E-01 
    9.7219746307022803E-01 
    9.8818209111798694E-01 
    9.8791768154156945E-01 
    9.7195009652999242E-01 
    9.7168244306572638E-01 
    9.8763177309675498E-01 
    9.8732581752714266E-01 
    9.7139587551786089E-01 
    9.7109183055775483E-01 
    9.8700137940244104E-01 
    9.8666005788530065E-01 
    9.7077176224501471E-01 
    9.7043731742136519E-01 
    9.8630366419458970E-01 
    9.8593417641488867E-01 
    9.7009030782155881E-01 
    9.6973253311561891E-01 
    9.8555356173185404E-01 
    9.8516376668617445E-01 
    9.6936576155124854E-01 
    9.6899192657732325E-01 
    9.8476689608451629E-01 
    9.8436503745198434E-01 
    9.6861300648883231E-01 
    9.6823097541802905E-01 
    9.8396019256367173E-01 
    9.8355458949483188E-01 
    9.6784807101255133E-01 
    9.6746670007503011E-01 
    9.8315054246470857E-01 
    9.8275044900801145E-01 
    9.6708948689346819E-01 
    9.6671958309032413E-01 
    9.8235714072156777E-01 
    9.8197406341570659E-01 
    9.6636082830175751E-01 
    9.6601745756055268E-01 
    9.8160529837867028E-01 
    9.8125537133221319E-01 
    9.6569336205116385E-01 
    9.6539041349086330E-01 
    9.8092805062601662E-01 
    9.8062155034565213E-01 
    9.6509675022666630E-01 
    9.6472332507766478E-01 
    9.8029823228143920E-01 
    9.7986637530136766E-01 
    9.6420316987078014E-01 
    9.6371132568085993E-01 
    9.7937058439510727E-01 
    9.7896166601374668E-01 
    9.6333167460401370E-01 
    9.6301425323486600E-01 
    9.7863208029758764E-01 
    9.7836876233926484E-01 
    9.6275954498993510E-01 
    9.6256812374334799E-01 
    9.7817137275784616E-01 
    9.7803977521510255E-01 
    9.6244034356758834E-01 
    9.6237643515145588E-01 
    9.7797393363490626E-01 
    9.5691324969221137E-01 
    9.4008617809220341E-01 
    9.4006091174190576E-01 
    9.5688742570367724E-01 
    9.5683595367566987E-01 
    9.4001053304090798E-01 
    9.3993530594201247E-01 
    9.5675915605462325E-01 
    9.5665749455487781E-01 
    9.3983561908267765E-01 
    9.3971198563653979E-01 
    9.5653153801334334E-01 
    9.5638190895637387E-01 
    9.3956503145535053E-01 
    9.3939539644552572E-01 
    9.5620923046469297E-01 
    9.5601416956218399E-01 
    9.3920380009166704E-01 
    9.3899112799645768E-01 
    9.5579757790759912E-01 
    9.5556046153230390E-01 
    9.3875842379113439E-01 
    9.3850682827489140E-01 
    9.5530395074404673E-01 
    9.5502934390977168E-01 
    9.3823760939303480E-01 
    9.3795207775526224E-01 
    9.5473798636239249E-01 
    9.5443124973093973E-01 
    9.3765154676239648E-01 
    9.3733745091727771E-01 
    9.5411064945585600E-01 
    9.5377784495959450E-01 
    9.3701136037546073E-01 
    9.3667487041559350E-01 
    9.5343450751042158E-01 
    9.5308230250210857E-01 
    9.3632958098364594E-01 
    9.3597725573536661E-01 
    9.5272303487663013E-01 
    9.5235863907671858E-01 
    9.3561983624017586E-01 
    9.3525939909964939E-01 
    9.5199114387368655E-01 
    9.5162281314438923E-01 
    9.3489824556478718E-01 
    9.3453892818859718E-01 
    9.5125614494201693E-01 
    9.5089399245301409E-01 
    9.3418439695338562E-01 
    9.3383816254983487E-01 
    9.5053975834085302E-01 
    9.5019729389933527E-01 
    9.3350379425099050E-01 
    9.3318408870923997E-01 
    9.4987029085204433E-01 
    9.4956095243598204E-01 
    9.3287874900127288E-01 
    9.3257137087036368E-01 
    9.4926637403491843E-01 
    9.4894235508718039E-01 
    9.3216238639169935E-01 
    9.3158464907985794E-01 
    9.4848243779585051E-01 
    9.4792607441141696E-01 
    9.3103247259606858E-01 
    9.3059415431598935E-01 
    9.4745951701111442E-01 
    9.4708367604657751E-01 
    9.3021831320706383E-01 
    9.2990411976632359E-01 