# vtk DataFile Version 2.0
Pressure Field Data 
ASCII 
DATASET UNSTRUCTURED_GRID 

POINTS 1681 double 

    0.0000000000000000E+00     0.0000000000000000E+00     0.0000000000000000E+00 
    1.0000000000000000E+00     0.0000000000000000E+00     0.0000000000000000E+00 
    1.0000000000000000E+00     1.0000000000000000E+00     0.0000000000000000E+00 
    0.0000000000000000E+00     1.0000000000000000E+00     0.0000000000000000E+00 
    5.2499999999875258E-01     0.0000000000000000E+00     0.0000000000000000E+00 
    7.4999999999856765E-02     0.0000000000000000E+00     0.0000000000000000E+00 
    1.2499999999975850E-01     0.0000000000000000E+00     0.0000000000000000E+00 
    1.7499999999962990E-01     0.0000000000000000E+00     0.0000000000000000E+00 
    2.2499999999948389E-01     0.0000000000000000E+00     0.0000000000000000E+00 
    2.7499999999933789E-01     0.0000000000000000E+00     0.0000000000000000E+00 
    3.2499999999919210E-01     0.0000000000000000E+00     0.0000000000000000E+00 
    3.7499999999904610E-01     0.0000000000000000E+00     0.0000000000000000E+00 
    4.2499999999890020E-01     0.0000000000000000E+00     0.0000000000000000E+00 
    4.7499999999875958E-01     0.0000000000000000E+00     0.0000000000000000E+00 
    2.4999999999949701E-02     0.0000000000000000E+00     0.0000000000000000E+00 
    5.7499999999887907E-01     0.0000000000000000E+00     0.0000000000000000E+00 
    6.2499999999901101E-01     0.0000000000000000E+00     0.0000000000000000E+00 
    6.7499999999914273E-01     0.0000000000000000E+00     0.0000000000000000E+00 
    7.2499999999927467E-01     0.0000000000000000E+00     0.0000000000000000E+00 
    7.7499999999940661E-01     0.0000000000000000E+00     0.0000000000000000E+00 
    8.2499999999953844E-01     0.0000000000000000E+00     0.0000000000000000E+00 
    8.7499999999967026E-01     0.0000000000000000E+00     0.0000000000000000E+00 
    9.2499999999980220E-01     0.0000000000000000E+00     0.0000000000000000E+00 
    9.7499999999993414E-01     0.0000000000000000E+00     0.0000000000000000E+00 
    5.4999999999881310E-01     0.0000000000000000E+00     0.0000000000000000E+00 
    9.9999999999814140E-02     0.0000000000000000E+00     0.0000000000000000E+00 
    1.4999999999970290E-01     0.0000000000000000E+00     0.0000000000000000E+00 
    1.9999999999955689E-01     0.0000000000000000E+00     0.0000000000000000E+00 
    2.4999999999941089E-01     0.0000000000000000E+00     0.0000000000000000E+00 
    2.9999999999926502E-01     0.0000000000000000E+00     0.0000000000000000E+00 
    3.4999999999911913E-01     0.0000000000000000E+00     0.0000000000000000E+00 
    3.9999999999897312E-01     0.0000000000000000E+00     0.0000000000000000E+00 
    4.4999999999882723E-01     0.0000000000000000E+00     0.0000000000000000E+00 
    4.9999999999869210E-01     0.0000000000000000E+00     0.0000000000000000E+00 
    4.9999999999899403E-02     0.0000000000000000E+00     0.0000000000000000E+00 
    5.9999999999894504E-01     0.0000000000000000E+00     0.0000000000000000E+00 
    6.4999999999907687E-01     0.0000000000000000E+00     0.0000000000000000E+00 
    6.9999999999920870E-01     0.0000000000000000E+00     0.0000000000000000E+00 
    7.4999999999934064E-01     0.0000000000000000E+00     0.0000000000000000E+00 
    7.9999999999947247E-01     0.0000000000000000E+00     0.0000000000000000E+00 
    8.4999999999960441E-01     0.0000000000000000E+00     0.0000000000000000E+00 
    8.9999999999973623E-01     0.0000000000000000E+00     0.0000000000000000E+00 
    9.4999999999986817E-01     0.0000000000000000E+00     0.0000000000000000E+00 
    1.0000000000000000E+00     5.2499999999875258E-01     0.0000000000000000E+00 
    1.0000000000000000E+00     7.4999999999856765E-02     0.0000000000000000E+00 
    1.0000000000000000E+00     1.2499999999975850E-01     0.0000000000000000E+00 
    1.0000000000000000E+00     1.7499999999962990E-01     0.0000000000000000E+00 
    1.0000000000000000E+00     2.2499999999948389E-01     0.0000000000000000E+00 
    1.0000000000000000E+00     2.7499999999933789E-01     0.0000000000000000E+00 
    1.0000000000000000E+00     3.2499999999919210E-01     0.0000000000000000E+00 
    1.0000000000000000E+00     3.7499999999904610E-01     0.0000000000000000E+00 
    1.0000000000000000E+00     4.2499999999890020E-01     0.0000000000000000E+00 
    1.0000000000000000E+00     4.7499999999875958E-01     0.0000000000000000E+00 
    1.0000000000000000E+00     2.4999999999949701E-02     0.0000000000000000E+00 
    1.0000000000000000E+00     5.7499999999887907E-01     0.0000000000000000E+00 
    1.0000000000000000E+00     6.2499999999901101E-01     0.0000000000000000E+00 
    1.0000000000000000E+00     6.7499999999914273E-01     0.0000000000000000E+00 
    1.0000000000000000E+00     7.2499999999927467E-01     0.0000000000000000E+00 
    1.0000000000000000E+00     7.7499999999940661E-01     0.0000000000000000E+00 
    1.0000000000000000E+00     8.2499999999953844E-01     0.0000000000000000E+00 
    1.0000000000000000E+00     8.7499999999967026E-01     0.0000000000000000E+00 
    1.0000000000000000E+00     9.2499999999980220E-01     0.0000000000000000E+00 
    1.0000000000000000E+00     9.7499999999993414E-01     0.0000000000000000E+00 
    1.0000000000000000E+00     5.4999999999881310E-01     0.0000000000000000E+00 
    1.0000000000000000E+00     9.9999999999814140E-02     0.0000000000000000E+00 
    1.0000000000000000E+00     1.4999999999970290E-01     0.0000000000000000E+00 
    1.0000000000000000E+00     1.9999999999955689E-01     0.0000000000000000E+00 
    1.0000000000000000E+00     2.4999999999941089E-01     0.0000000000000000E+00 
    1.0000000000000000E+00     2.9999999999926502E-01     0.0000000000000000E+00 
    1.0000000000000000E+00     3.4999999999911913E-01     0.0000000000000000E+00 
    1.0000000000000000E+00     3.9999999999897312E-01     0.0000000000000000E+00 
    1.0000000000000000E+00     4.4999999999882723E-01     0.0000000000000000E+00 
    1.0000000000000000E+00     4.9999999999869210E-01     0.0000000000000000E+00 
    1.0000000000000000E+00     4.9999999999899403E-02     0.0000000000000000E+00 
    1.0000000000000000E+00     5.9999999999894504E-01     0.0000000000000000E+00 
    1.0000000000000000E+00     6.4999999999907687E-01     0.0000000000000000E+00 
    1.0000000000000000E+00     6.9999999999920870E-01     0.0000000000000000E+00 
    1.0000000000000000E+00     7.4999999999934064E-01     0.0000000000000000E+00 
    1.0000000000000000E+00     7.9999999999947247E-01     0.0000000000000000E+00 
    1.0000000000000000E+00     8.4999999999960441E-01     0.0000000000000000E+00 
    1.0000000000000000E+00     8.9999999999973623E-01     0.0000000000000000E+00 
    1.0000000000000000E+00     9.4999999999986817E-01     0.0000000000000000E+00 
    4.7500000000196618E-01     1.0000000000000000E+00     0.0000000000000000E+00 
    9.2499999999968763E-01     1.0000000000000000E+00     0.0000000000000000E+00 
    8.7499999999961831E-01     1.0000000000000000E+00     0.0000000000000000E+00 
    8.2499999999982654E-01     1.0000000000000000E+00     0.0000000000000000E+00 
    7.7500000000017355E-01     1.0000000000000000E+00     0.0000000000000000E+00 
    7.2500000000052045E-01     1.0000000000000000E+00     0.0000000000000000E+00 
    6.7500000000086724E-01     1.0000000000000000E+00     0.0000000000000000E+00 
    6.2500000000121403E-01     1.0000000000000000E+00     0.0000000000000000E+00 
    5.7500000000156093E-01     1.0000000000000000E+00     0.0000000000000000E+00 
    5.2500000000189684E-01     1.0000000000000000E+00     0.0000000000000000E+00 
    9.7499999999989595E-01     1.0000000000000000E+00     0.0000000000000000E+00 
    4.2500000000176902E-01     1.0000000000000000E+00     0.0000000000000000E+00 
    3.7500000000156092E-01     1.0000000000000000E+00     0.0000000000000000E+00 
    3.2500000000135282E-01     1.0000000000000000E+00     0.0000000000000000E+00 
    2.7500000000114472E-01     1.0000000000000000E+00     0.0000000000000000E+00 
    2.2500000000093659E-01     1.0000000000000000E+00     0.0000000000000000E+00 
    1.7500000000072849E-01     1.0000000000000000E+00     0.0000000000000000E+00 
    1.2500000000052039E-01     1.0000000000000000E+00     0.0000000000000000E+00 
    7.5000000000312261E-02     1.0000000000000000E+00     0.0000000000000000E+00 
    2.5000000000104109E-02     1.0000000000000000E+00     0.0000000000000000E+00 
    4.5000000000187301E-01     1.0000000000000000E+00     0.0000000000000000E+00 
    8.9999999999958358E-01     1.0000000000000000E+00     0.0000000000000000E+00 
    8.4999999999965303E-01     1.0000000000000000E+00     0.0000000000000000E+00 
    8.0000000000000004E-01     1.0000000000000000E+00     0.0000000000000000E+00 
    7.5000000000034706E-01     1.0000000000000000E+00     0.0000000000000000E+00 
    7.0000000000069384E-01     1.0000000000000000E+00     0.0000000000000000E+00 
    6.5000000000104063E-01     1.0000000000000000E+00     0.0000000000000000E+00 
    6.0000000000138742E-01     1.0000000000000000E+00     0.0000000000000000E+00 
    5.5000000000173432E-01     1.0000000000000000E+00     0.0000000000000000E+00 
    5.0000000000205946E-01     1.0000000000000000E+00     0.0000000000000000E+00 
    9.4999999999979179E-01     1.0000000000000000E+00     0.0000000000000000E+00 
    4.0000000000166491E-01     1.0000000000000000E+00     0.0000000000000000E+00 
    3.5000000000145681E-01     1.0000000000000000E+00     0.0000000000000000E+00 
    3.0000000000124871E-01     1.0000000000000000E+00     0.0000000000000000E+00 
    2.5000000000104061E-01     1.0000000000000000E+00     0.0000000000000000E+00 
    2.0000000000083251E-01     1.0000000000000000E+00     0.0000000000000000E+00 
    1.5000000000062441E-01     1.0000000000000000E+00     0.0000000000000000E+00 
    1.0000000000041630E-01     1.0000000000000000E+00     0.0000000000000000E+00 
[...]
CELL_DATA 1600 
SCALARS Pressure double 1 
LOOKUP_TABLE default 

    1.1581290009301362E+00 
    1.1121260366737635E+00 
    1.1097662100887968E+00 
    1.1425749869661639E+00 
    1.1301939299681667E+00 
    1.1062027945309023E+00 
    1.1020888897498911E+00 
    1.1200788074596093E+00 
    1.1116157091847407E+00 
    1.0977894902377403E+00 
    1.0935032265699787E+00 
    1.1043877045287491E+00 
    1.0981050024716004E+00 
    1.0893374400629821E+00 
    1.0853458681572055E+00 
    1.0925619415054286E+00 
    1.0876091324986485E+00 
    1.0815507884489826E+00 
    1.0779571879563361E+00 
    1.0831363760071777E+00 
    1.0790611001515622E+00 
    1.0745609207730997E+00 
    1.0713532144101336E+00 
    1.0753205205487779E+00 
    1.0718662836806305E+00 
    1.0683234648379838E+00 
    1.0654606738029868E+00 
    1.0686606361868658E+00 
    1.0656737717381546E+00 
    1.0627542587111760E+00 
    1.0601944541722537E+00 
    1.0628819403418990E+00 
    1.0602660338116912E+00 
    1.0577725208767708E+00 
    1.0554807081778044E+00 
    1.0578105445726671E+00 
    1.0555028228542984E+00 
    1.0533122425374231E+00 
    1.0512612499317056E+00 
    1.0533325004477874E+00 
    1.0512910100258543E+00 
    1.0493226858662332E+00 
    1.0474922028734708E+00 
    1.0493712753582445E+00 
    1.0475674635111980E+00 
    1.0457661375538314E+00 
    1.0441413968611042E+00 
    1.0458747355604499E+00 
    1.0442891201109927E+00 
    1.0426154057355375E+00 
    1.0411860529343568E+00 
    1.0428073942400073E+00 
    1.0414269531259785E+00 
    1.0398516655714940E+00 
    1.0386109348717592E+00 
    1.0401457204852822E+00 
    1.0389621195102035E+00 
    1.0374629012978576E+00 
    1.0364069317229399E+00 
    1.0378750180307064E+00 
    1.0368836437557405E+00 
    1.0354427011652287E+00 
    1.0345701777791312E+00 
    1.0359876216158892E+00 
    1.0351869604727846E+00 
    1.0337896534690574E+00 
    1.0331017117786374E+00 
    1.0344819781514738E+00 
    1.0338741874807615E+00 
    1.0325081341848152E+00 
    1.0320133640708591E+00 
    1.0333679316480162E+00 
    1.0329542393958591E+00 
    1.0316074068574357E+00 
    1.0312366492119078E+00 
    1.0325775545326208E+00 
    1.0322924971329885E+00 
    1.0309567079781292E+00 
    1.0308257662778597E+00 
    1.0321591578384650E+00 
    1.0887687675538444E+00 
    1.0718757143928968E+00 
    1.0715105091913217E+00 
    1.0880231147112978E+00 
    1.0866504697994828E+00 
    1.0708026624635141E+00 
    1.0697899368524477E+00 
    1.0847965907695196E+00 
    1.0825981517078691E+00 
    1.0685192374658545E+00 
    1.0670397132784277E+00 
    1.0801695349204532E+00 
    1.0776025255744532E+00 
    1.0653979165194651E+00 
    1.0636356127572901E+00 
    1.0749665358928251E+00 
    1.0723124446552361E+00 
    1.0617892772243445E+00 
    1.0598899550629457E+00 
    1.0696768252611373E+00 
    1.0670853510901719E+00 
    1.0579631327685877E+00 
    1.0560292813129315E+00 
    1.0645554386807068E+00 
    1.0620986273406485E+00 
    1.0541047907957162E+00 
    1.0522026940460438E+00 
    1.0597222586937118E+00 
    1.0574307861207246E+00 
    1.0503332636820055E+00 
    1.0485047078100571E+00 
    1.0552267116231933E+00 
    1.0531112560558267E+00 
    1.0467235164480511E+00 
    1.0449947767365249E+00 
    1.0510847394867959E+00 
    1.0491469427852294E+00 
    1.0433224811250237E+00 
    1.0417098949942203E+00 
    1.0472973395376235E+00 
    1.0455352493689665E+00 
    1.0401595978931788E+00 
    1.0386736572712520E+00 
    1.0438598982252765E+00 
    1.0422705745473597E+00 
    1.0372538486106555E+00 
    1.0359016588289049E+00 
    1.0407666211500521E+00 
    1.0393474775500249E+00 
    1.0346183445658144E+00 
    1.0334051043030819E+00 
    1.0380127188568473E+00 
    1.0367620767736998E+00 
    1.0322630534624213E+00 
    1.0311932083308424E+00 
    1.0355954064598856E+00 
    1.0345127214241059E+00 
    1.0301965695168742E+00 
    1.0292742214098407E+00 
    1.0335142083286881E+00 
    1.0326002205991642E+00 
    1.0284272225774183E+00 
    1.0276567065211555E+00 
    1.0317712886803454E+00 
    1.0310281623342794E+00 
    1.0269639460538680E+00 
    1.0263503046769329E+00 
    1.0303718046206962E+00 
    1.0298044620532647E+00 
    1.0258185727790261E+00 
    1.0253732631333399E+00 
    1.0293307392490427E+00 
    1.0289386400698954E+00 
    1.0249986537308036E+00 
    1.0246531739005691E+00 
    1.0285789460875150E+00 
    1.0283091263223940E+00 
    1.0243977280976928E+00 
    1.0242784784559840E+00 
    1.0281829592412854E+00 
    1.0575371090830423E+00 
    1.0443455200525900E+00 
    1.0441937399634329E+00 
    1.0573142641752340E+00 
    1.0568761966128402E+00 
    1.0438940148533717E+00 
    1.0434537361751521E+00 
    1.0562372822734383E+00 
    1.0554173619926699E+00 
    1.0428829644818789E+00 
    1.0421930037936435E+00 
    1.0544387013113856E+00 
    1.0533242168803050E+00 
    1.0413961270107694E+00 
    1.0405054641327722E+00 
    1.0520968901423651E+00 
    1.0507789126135634E+00 
    1.0395343248165145E+00 
    1.0384958199034782E+00 
    1.0493909981284466E+00 
    1.0479516515592973E+00 
    1.0374024159866964E+00 
    1.0362656560575410E+00 
    1.0464770183666730E+00 
    1.0449813800358052E+00 
    1.0350964955918993E+00 
    1.0339050931230289E+00 
    1.0434772052399937E+00 
    1.0419751640338768E+00 
    1.0327005628595241E+00 
    1.0314912380474126E+00 
    1.0404845336925255E+00 
    1.0390133275502316E+00 
    1.0302847078325821E+00 
    1.0290877174806397E+00 
    1.0375683294043085E+00 
    1.0361552757716195E+00 
    1.0279062047397625E+00 
    1.0267456230390601E+00 
    1.0347792277117287E+00 
    1.0334445274807258E+00 
    1.0256108808572595E+00 
    1.0245062456120753E+00 
    1.0321548411378421E+00 
    1.0309134897593015E+00 
    1.0234357031095525E+00 
    1.0224028897034703E+00 
    1.0297233884510266E+00 
    1.0285870467621050E+00 
    1.0214109885616507E+00 
    1.0204629861254624E+00 
    1.0275068119062865E+00 
    1.0264848720488797E+00 
    1.0195617147073484E+00 
    1.0187097483105039E+00 
    1.0255231746946587E+00 
    1.0246235087674478E+00 
    1.0179094127997828E+00 
    1.0171630249078993E+00 
    1.0237876908836019E+00 
    1.0230174307723499E+00 
    1.0164728119422237E+00 
    1.0158408040530480E+00 
    1.0223143661574186E+00 
    1.0216802280306432E+00 
    1.0152690788724992E+00 
    1.0147599721205911E+00 
    1.0211168215290993E+00 
    1.0206275226049892E+00 
    1.0143176119502308E+00 
    1.0139449374973892E+00 
    1.0202161741026992E+00 
    1.0198605876451228E+00 
    1.0136107616213874E+00 
    1.0132978624448414E+00 
    1.0195305659525531E+00 
    1.0192924353835093E+00 
    1.0130780373114339E+00 
    1.0129751717375117E+00 
    1.0191814993977184E+00 
    1.0316757517899606E+00 
    1.0192016795933037E+00 
    1.0191191908579336E+00 
    1.0315659671853716E+00 
    1.0313487558902856E+00 
    1.0189555801422134E+00 
    1.0187132280041307E+00 
    1.0310283963059677E+00 
    1.0306103581095365E+00 
    1.0183952567334591E+00 
    1.0180055304035649E+00 
    1.0301009358481035E+00 
    1.0295074148271612E+00 
    1.0175487386017572E+00 
    1.0170300191368702E+00 
    1.0288378117844537E+00 
    1.0281003953269729E+00 
    1.0164548149761503E+00 
    1.0158288457994544E+00 
    1.0273035927094287E+00 
    1.0264558627455747E+00 
    1.0151580859369211E+00 
    1.0144485266728076E+00 
    1.0255654600055391E+00 
    1.0246404810128373E+00 
    1.0137061846411717E+00 
    1.0129369603983858E+00 
    1.0236887415867471E+00 
    1.0227175199738003E+00 
    1.0121465333686157E+00 
    1.0113403676220871E+00 
    1.0217336802431984E+00 
    1.0207436758984845E+00 
    1.0105237511256411E+00 
    1.0097016604678883E+00 
    1.0197534729706759E+00 
    1.0187685231934471E+00 
    1.0088788049636341E+00 
    1.0080597027025240E+00 
    1.0177939404212439E+00 
    1.0168344728774952E+00 
    1.0072486322156311E+00 
    1.0064495774037441E+00 
    1.0158944220939061E+00 
    1.0149778349411844E+00 
    1.0056663848392700E+00 
    1.0049026714225897E+00 
    1.0140885104353454E+00 
    1.0132298840407739E+00 
    1.0041618121136597E+00 
    1.0034470419991963E+00 
    1.0124051959803040E+00 
    1.0116175367051272E+00 
    1.0027614820514139E+00 
    1.0021080470581205E+00 
    1.0108697932708735E+00 
    1.0101646340443320E+00 
    1.0014895193231710E+00 
    1.0009086637778695E+00 
    1.0095046807271890E+00 
    1.0088925044272590E+00 
    1.0003681640097906E+00 
    9.9987061352900253E-01 
    1.0083305093579678E+00 
    1.0078211397078798E+00 
    9.9941878312962962E-01 
    9.9901646036163116E-01 
    1.0073674701929163E+00 
    1.0069746898980290E+00 
    9.9866958645587156E-01 
    9.9837800357522311E-01 
    1.0066447881578751E+00 
    1.0063358044232207E+00 
    9.9809182902080895E-01 
    9.9781511451915905E-01 
    1.0060408989108869E+00 
    1.0058371507996879E+00 
    9.9762733025211603E-01 
    9.9753585665373490E-01 
    1.0057402100528616E+00 
    1.0067295640483858E+00 
    9.9413468249281634E-01 
    9.9408345788812746E-01 
    1.0066655752026754E+00 
    1.0065382786905077E+00 
    9.9398137859941260E-01 
    9.9382923834109971E-01 
    1.0063489640519521E+00 
    1.0060995323243129E+00 
    9.9362833080496260E-01 
    9.9338043035283818E-01 
    1.0057925717641947E+00 
    1.0054312309702929E+00 
    9.9308771322329081E-01 
    9.9275268867486788E-01 
    1.0050189876963060E+00 
    1.0045596166179001E+00 
    9.9237816361999132E-01 
    9.9196727157218167E-01 
    1.0040572877502099E+00 
    1.0035163749475087E+00 
    9.9152331051732445E-01 
    9.9104964215345792E-01 
    1.0029412920165599E+00 
    1.0023365885428102E+00 
    9.9054972235431205E-01 
    9.9002703105152046E-01 
    1.0017067720476185E+00 
    1.0010562098101046E+00 
    9.8948496494799998E-01 
    9.8892694215323773E-01 
    1.0003892290403815E+00 
    9.9971009947378608E-01 
    9.8835638335186360E-01 
    9.8777664346154603E-01 
    9.9902290518313241E-01 
    9.9833155379347938E-01 
    9.8719098737784572E-01 
    9.8660271552073409E-01 
    9.9763995117858895E-01 
    9.9695184228134348E-01 
    9.8601506288748242E-01 
    9.8543110513723287E-01 
    9.9627073785562392E-01 
    9.9560014600098101E-01 
    9.8485393319747982E-01 
    9.8428655175429425E-01 
    9.9494339971593349E-01 
    9.9430360659144978E-01 
    9.8373177708959936E-01 
    9.8319240309374145E-01 
    9.9368381654565474E-01 
    9.9308702104768543E-01 
    9.8267117552566408E-01 
    9.8217070106454230E-01 
    9.9251601919463961E-01 
    9.9197345671824422E-01 
    9.8169344196325981E-01 
    9.8124183659733111E-01 
    9.9146201428613878E-01 
    9.9098424388037654E-01 
    9.8081817861233778E-01 
    9.8042462957344767E-01 
    9.9054256837608701E-01 
    9.9013972164598207E-01 
    9.8006378451789400E-01 
    9.7973968474560447E-01 
    9.8977978757788887E-01 
    9.8946830030164223E-01 
    9.7945604531793717E-01 
    9.7919803603285693E-01 
    9.8920034525689116E-01 
    9.8892616206590889E-01 
    9.7892390369290438E-01 
    9.7868451351293750E-01 
    9.8866839675660034E-01 
    9.8850018454492883E-01 
    9.7853721370060087E-01 
    9.7846350533005155E-01 
    9.8841676724884109E-01 
    9.8133528784918367E-01 
    9.6827748842715300E-01 
    9.6824203084153548E-01 
    9.8129314413976287E-01 
    9.8120913859825609E-01 
    9.6817138090883659E-01 
    9.6806602810756659E-01 
    9.8108386901567590E-01 
    9.8091826422074890E-01 
    9.6792667827969492E-01 
    9.6775427216553456E-01 
    9.8071358784029117E-01 
    9.8047143354654487E-01 
    9.6755006329697546E-01 
    9.6731556355799586E-01 
    9.8019370692631336E-01 
    9.7988256902164617E-01 
    9.6705248785326925E-01 
    9.6676277459473259E-01 
    9.7954046151198382E-01 
    9.7916993970258193E-01 
    9.6644844479361125E-01 
    9.6611149564750942E-01 
    9.7877358008604309E-01 
    9.7835407874434621E-01 
    9.6575404276114352E-01 
    9.6537821933196755E-01 
    9.7791413974495622E-01 
    9.7745641083541390E-01 
    9.6498612228774050E-01 
    9.6457997065820378E-01 
    9.7698363368176244E-01 
    9.7649859554767604E-01 
    9.6416209579042433E-01 
    9.6373481309685538E-01 
    9.7600405456570294E-01 
    9.7550274560259453E-01 
    9.6330042601925059E-01 
    9.6286137364194846E-01 
    9.7499748916413342E-01 
    9.7449107250901246E-01 
    9.6242007891770831E-01 
    9.6197886153591849E-01 
    9.7398615958351031E-01 
    9.7348548969992521E-01 
    9.6154015063677623E-01 
    9.6110635374505171E-01 
    9.7299174329435500E-01 
    9.7250744385412857E-01 
    9.6067974107838916E-01 
    9.6026263380163601E-01 
    9.7203515639792870E-01 
    9.7157742434274252E-01 
    9.5985741026809424E-01 
    9.5946633125421443E-01 
    9.7113664759104612E-01 
    9.7071512948898997E-01 
    9.5909157230817454E-01 
    9.5873546990749703E-01 
    9.7031520749977751E-01 
    9.6993910142979300E-01 
    9.5840043496594118E-01 
    9.5808924630834202E-01 
    9.6958904521079892E-01 
    9.6926816850070963E-01 
    9.5780617968654436E-01 
    9.5755684498712379E-01 
    9.6898099180936426E-01 
    9.6872917514815160E-01 
    9.5734173774208120E-01 
    9.5710926921095474E-01 
    9.6847928424521024E-01 
    9.6819919377109331E-01 
    9.5683315042064121E-01 
    9.5661395700564200E-01 
    9.6797260459122236E-01 
    9.6783985356425373E-01 
    9.5648211233689751E-01 
    9.5641625072191461E-01 
    9.6777319097448067E-01 
    9.5492636273288822E-01 
    9.4126031207158989E-01 
    9.4123376787886204E-01 
    9.5489597124719272E-01 
    9.5483541232450797E-01 
    9.4118084632728094E-01 
    9.4110187735457773E-01 
    9.5474508180643713E-01 
    9.5462554555369050E-01 
    9.4099733016525233E-01 
    9.4086788532504206E-01 
    9.5447756566780306E-01 
    9.5430217773556603E-01 
    9.4071442253579274E-01 
    9.4053798422340207E-01 
    9.5410061870551099E-01 
    9.5387428712287992E-01 
    9.4033970389601784E-01 
    9.4012082899593752E-01 
    9.5362473011575699E-01 
    9.5335354924780968E-01 
    9.3988262194758376E-01 
    9.3962633690884634E-01 
    9.5306232192794382E-01 
    9.5275271608944090E-01 
    9.3935331933764743E-01 
    9.3906497881311790E-01 
    9.5242643584702003E-01 
    9.5208520803382379E-01 
    9.3876276636576927E-01 
    9.3844827810287368E-01 
    9.5173087791471289E-01 
    9.5136541502258976E-01 
    9.3812322892296529E-01 
    9.3778935634641569E-01 
    9.5099080880855036E-01 
    9.5060905873807822E-01 
    9.3744841991844841E-01 
    9.3710230057262289E-01 
    9.5022227868248066E-01 
    9.4983258963213968E-01 
    9.3675288850929006E-01 
    9.3640202389875127E-01 
    9.4944206126070063E-01 
    9.4905283561981524E-01 
    9.3605163686841064E-01 
    9.3570363816866786E-01 
    9.4866705821380459E-01 
    9.4828679035058450E-01 
    9.3535986438109286E-01 
    9.3502218959728423E-01 
    9.4791410958535050E-01 
    9.4755114575432109E-01 
    9.3469250801922543E-01 
    9.3437262553574985E-01 
    9.4719996365779935E-01 
    9.4686256376110622E-01 
    9.3406431418507940E-01 
    9.3376953040273425E-01 
    9.4654111040770728E-01 
    9.4623801459542745E-01 
    9.3349056079002879E-01 
    9.3323053765228170E-01 
    9.4595639305903734E-01 
    9.4570092669338846E-01 
    9.3299357797312299E-01 
    9.3278144859362644E-01 
    9.4547649526878752E-01 
    9.4527856390784215E-01 
    9.3257439833542755E-01 
    9.3232698644601664E-01 
    9.4505307678999140E-01 
    9.4479438769785318E-01 
    9.3208437860176707E-01 
    9.3191386015319300E-01 
    9.4459382611321319E-01 
    9.4446489477411166E-01 
    9.3179994861376514E-01 
    9.3174278420770418E-01 
    9.4440066522253974E-01 
    9.2726799755666556E-01 
    9.1294585976626541E-01 
    9.1292419568426031E-01 
    9.2724430808406355E-01 
    9.2719707092683012E-01 
    9.1288100333381084E-01 
    9.1281654784875088E-01 
    9.2712656968683727E-01 
    9.2703323049155983E-01 
    9.1273124211432732E-01 
    9.1262567640545600E-01 
    9.2691767150747995E-01 
    9.2678067841990486E-01 
    9.1250055066712754E-01 
    9.1235659512257594E-01 
    9.2662312729938057E-01 
    9.2644592495970868E-01 
    9.1219453223360414E-01 
    9.1201517251092012E-01 
    9.2625007389442449E-01 
    9.2603658526700894E-01 
    9.1181934259729958E-01 
    9.1160787898750428E-01 
    9.2580645659846283E-01 
    9.2556083109339982E-01 
    9.1138180100370336E-01 
    9.1114220079815167E-01 
    9.2530092631478955E-01 
    9.2502799221371057E-01 
    9.1089021283522198E-01 
    9.1062713422929220E-01 
    9.2474344696436106E-01 
    9.2444884721162601E-01 
    9.1035439831676435E-01 
    9.1007344473001195E-01 
    9.2414575076377514E-01 
    9.2383572124094060E-01 
    9.0978571940920938E-01 
    9.0949282400758658E-01 
    9.2352048449172952E-01 
    9.2320176912487595E-01 
    9.0919636428948658E-01 
    9.0889786490396907E-01 
    9.2288121903072928E-01 
    9.2256061428343905E-01 
    9.0859897333282369E-01 
    9.0830130924073771E-01 
    9.2224169943319134E-01 
    9.2192612128793472E-01 
    9.0800642571514678E-01 
    9.0771595883423739E-01 
    9.2161561441563367E-01 
    9.2131197367998574E-01 
    9.0743165565858697E-01 
    9.0715530118915744E-01 
    9.2101692404484403E-01 
    9.2073222097131402E-01 
    9.0688885618873927E-01 
    9.0663493532526362E-01 
    9.2046003912036733E-01 
    9.2020318453553329E-01 
    9.0639711354756680E-01 
    9.0618009699522761E-01 
    9.1996554560280863E-01 
    9.1975153742772431E-01 
    9.0598831246021805E-01 
    9.0581804400701227E-01 
    9.1956078502079808E-01 
    9.1934700647652512E-01 
    9.0560567389939228E-01 
    9.0531927982769778E-01 
    9.1906927556147444E-01 
    9.1882776892775508E-01 
    9.0507824645040502E-01 
    9.0491583893294214E-01 
    9.1867128685096322E-01 
    9.1856603135222248E-01 
    9.0480793244176672E-01 
    9.0475410312559112E-01 
    9.1851310007126574E-01 
    8.9829522406789808E-01 
    8.8332140078471999E-01 
    8.8330171333002216E-01 
    8.9827486779667243E-01 
    8.9823429300586255E-01 
    8.8326247690186943E-01 
    8.8320396721168215E-01 
    8.9817376532560300E-01 
    8.9809371133281202E-01 
    8.8312661101108347E-01 
    8.8303091520210020E-01 
    8.9799468407045979E-01 
    8.9787729764495727E-01 
    8.8291743423516422E-01 
    8.8278670534421166E-01 
    8.9774216888925407E-01 
    8.9758990524989768E-01 
    8.8263927056703795E-01 
    8.8247572117961659E-01 
    8.9742117124959830E-01 
    8.9723667838487464E-01 
    8.8229673361237770E-01 
    8.8210307669793886E-01 
    8.9703720675656917E-01 
    8.9682369081659985E-01 
    8.8189566190320101E-01 
    8.8167549370633735E-01 
    8.9659715135423124E-01 
    8.9635867751170084E-01 
    8.8144363303036755E-01 
    8.8120126083987182E-01 
    8.9610948624852149E-01 
    8.9585091248257787E-01 
    8.8094966680367792E-01 
    8.8069018088595497E-01 
    8.9558432227556406E-01 
    8.9531111271294783E-01 
    8.8042416040662419E-01 
    8.8015305700704383E-01 
    8.9503278274972120E-01 
    8.9475084424250073E-01 
    8.7987832779375175E-01 
    8.7960139038814411E-01 
    8.9446675802825559E-01 
    8.9418205719301991E-01 
    8.7932373036386979E-01 
    8.7904685062004262E-01 
    8.9389826668881645E-01 
    8.9361689317657889E-01 
    8.7877224366796614E-01 
    8.7850153412351872E-01 
    8.9333951857642380E-01 
    8.9306783054497763E-01 
    8.7823647432624530E-01 
    8.7797900707249954E-01 
    8.9280363790549000E-01 
    8.9254906363400244E-01 
    8.7773154842118994E-01 
    8.7749733971166832E-01 
    8.9230696786738750E-01 
    8.9208105610502653E-01 
    8.7728016875345627E-01 
    8.7708289804032613E-01 
    8.9187528037497310E-01 
    8.9169107234059852E-01 
    8.7690350439533904E-01 
    8.7669232199131131E-01 
    8.9150988096031936E-01 
    8.9127217155057159E-01 
    8.7639724502705962E-01 
    8.7612029687968906E-01 