# vtk DataFile Version 2.0
Pressure Field Data 
ASCII 
DATASET UNSTRUCTURED_GRID 

POINTS 1681 double 

    0.0000000000000000E+00     0.0000000000000000E+00     0.0000000000000000E+00 
    1.0000000000000000E+00     0.0000000000000000E+00     0.0000000000000000E+00 
    1.0000000000000000E+00     1.0000000000000000E+00     0.0000000000000000E+00 
    0.0000000000000000E+00     1.0000000000000000E+00     0.0000000000000000E+00 
    5.2499999999875258E-01     0.0000000000000000E+00     0.0000000000000000E+00 
    7.4999999999856765E-02     0.0000000000000000E+00     0.0000000000000000E+00 
    1.2499999999975850E-01     0.0000000000000000E+00     0.0000000000000000E+00 
    1.7499999999962990E-01     0.0000000000000000E+00     0.0000000000000000E+00 
    2.2499999999948389E-01     0.0000000000000000E+00     0.0000000000000000E+00 
    2.7499999999933789E-01     0.0000000000000000E+00     0.0000000000000000E+00 
    3.2499999999919210E-01     0.0000000000000000E+00     0.0000000000000000E+00 
    3.7499999999904610E-01     0.0000000000000000E+00     0.0000000000000000E+00 
    4.2499999999890020E-01     0.0000000000000000E+00     0.0000000000000000E+00 
    4.7499999999875958E-01     0.0000000000000000E+00     0.0000000000000000E+00 
    2.4999999999949701E-02     0.0000000000000000E+00     0.0000000000000000E+00 
    5.7499999999887907E-01     0.0000000000000000E+00     0.0000000000000000E+00 
    6.2499999999901101E-01     0.0000000000000000E+00     0.0000000000000000E+00 
    6.7499999999914273E-01     0.0000000000000000E+00     0.0000000000000000E+00 
    7.2499999999927467E-01     0.0000000000000000E+00     0.0000000000000000E+00 
    7.7499999999940661E-01     0.0000000000000000E+00     0.0000000000000000E+00 
    8.2499999999953844E-01     0.0000000000000000E+00     0.0000000000000000E+00 
    8.7499999999967026E-01     0.0000000000000000E+00     0.0000000000000000E+00 
    9.2499999999980220E-01     0.0000000000000000E+00     0.0000000000000000E+00 
    9.7499999999993414E-01     0.0000000000000000E+00     0.0000000000000000E+00 
    5.4999999999881310E-01     0.0000000000000000E+00     0.0000000000000000E+00 
    9.9999999999814140E-02     0.0000000000000000E+00     0.0000000000000000E+00 
    1.4999999999970290E-01     0.0000000000000000E+00     0.0000000000000000E+00 
    1.9999999999955689E-01     0.0000000000000000E+00     0.0000000000000000E+00 
    2.4999999999941089E-01     0.0000000000000000E+00     0.0000000000000000E+00 
    2.9999999999926502E-01     0.0000000000000000E+00     0.0000000000000000E+00 
    3.4999999999911913E-01     0.0000000000000000E+00     0.0000000000000000E+00 
    3.9999999999897312E-01     0.0000000000000000E+00     0.0000000000000000E+00 
    4.4999999999882723E-01     0.0000000000000000E+00     0.0000000000000000E+00 
    4.9999999999869210E-01     0.0000000000000000E+00     0.0000000000000000E+00 
    4.9999999999899403E-02     0.0000000000000000E+00     0.0000000000000000E+00 
    5.9999999999894504E-01     0.0000000000000000E+00     0.0000000000000000E+00 
    6.4999999999907687E-01     0.0000000000000000E+00     0.0000000000000000E+00 
    6.9999999999920870E-01     0.0000000000000000E+00     0.0000000000000000E+00 
    7.4999999999934064E-01     0.0000000000000000E+00     0.0000000000000000E+00 
    7.9999999999947247E-01     0.0000000000000000E+00     0.0000000000000000E+00 
    8.4999999999960441E-01     0.0000000000000000E+00     0.0000000000000000E+00 
    8.9999999999973623E-01     0.0000000000000000E+00     0.0000000000000000E+00 
    9.4999999999986817E-01     0.0000000000000000E+00     0.0000000000000000E+00 
    1.0000000000000000E+00     5.2499999999875258E-01     0.0000000000000000E+00 
    1.0000000000000000E+00     7.4999999999856765E-02     0.0000000000000000E+00 
    1.0000000000000000E+00     1.2499999999975850E-01     0.0000000000000000E+00 
    1.0000000000000000E+00     1.7499999999962990E-01     0.0000000000000000E+00 
    1.0000000000000000E+00     2.2499999999948389E-01     0.0000000000000000E+00 
    1.0000000000000000E+00     2.7499999999933789E-01     0.0000000000000000E+00 
    1.0000000000000000E+00     3.2499999999919210E-01     0.0000000000000000E+00 
    1.0000000000000000E+00     3.7499999999904610E-01     0.0000000000000000E+00 
    1.0000000000000000E+00     4.2499999999890020E-01     0.0000000000000000E+00 
    1.0000000000000000E+00     4.7499999999875958E-01     0.0000000000000000E+00 
    1.0000000000000000E+00     2.4999999999949701E-02     0.0000000000000000E+00 
    1.0000000000000000E+00     5.7499999999887907E-01     0.0000000000000000E+00 
    1.0000000000000000E+00     6.2499999999901101E-01     0.0000000000000000E+00 
    1.0000000000000000E+00     6.7499999999914273E-01     0.0000000000000000E+00 
    1.0000000000000000E+00     7.2499999999927467E-01     0.0000000000000000E+00 
    1.0000000000000000E+00     7.7499999999940661E-01     0.0000000000000000E+00 
    1.0000000000000000E+00     8.2499999999953844E-01     0.0000000000000000E+00 
    1.0000000000000000E+00     8.7499999999967026E-01     0.0000000000000000E+00 
    1.0000000000000000E+00     9.2499999999980220E-01     0.0000000000000000E+00 
    1.0000000000000000E+00     9.7499999999993414E-01     0.0000000000000000E+00 
    1.0000000000000000E+00     5.4999999999881310E-01     0.0000000000000000E+00 
    1.0000000000000000E+00     9.9999999999814140E-02     0.0000000000000000E+00 
    1.0000000000000000E+00     1.4999999999970290E-01     0.0000000000000000E+00 
    1.0000000000000000E+00     1.9999999999955689E-01     0.0000000000000000E+00 
    1.0000000000000000E+00     2.4999999999941089E-01     0.0000000000000000E+00 
    1.0000000000000000E+00     2.9999999999926502E-01     0.0000000000000000E+00 
    1.0000000000000000E+00     3.4999999999911913E-01     0.0000000000000000E+00 
    1.0000000000000000E+00     3.9999999999897312E-01     0.0000000000000000E+00 
    1.0000000000000000E+00     4.4999999999882723E-01     0.0000000000000000E+00 
    1.0000000000000000E+00     4.9999999999869210E-01     0.0000000000000000E+00 
    1.0000000000000000E+00     4.9999999999899403E-02     0.0000000000000000E+00 
    1.0000000000000000E+00     5.9999999999894504E-01     0.0000000000000000E+00 
    1.0000000000000000E+00     6.4999999999907687E-01     0.0000000000000000E+00 
    1.0000000000000000E+00     6.9999999999920870E-01     0.0000000000000000E+00 
    1.0000000000000000E+00     7.4999999999934064E-01     0.0000000000000000E+00 
    1.0000000000000000E+00     7.9999999999947247E-01     0.0000000000000000E+00 
    1.0000000000000000E+00     8.4999999999960441E-01     0.0000000000000000E+00 
    1.0000000000000000E+00     8.9999999999973623E-01     0.0000000000000000E+00 
    1.0000000000000000E+00     9.4999999999986817E-01     0.0000000000000000E+00 
    4.7500000000196618E-01     1.0000000000000000E+00     0.0000000000000000E+00 
    9.2499999999968763E-01     1.0000000000000000E+00     0.0000000000000000E+00 
    8.7499999999961831E-01     1.0000000000000000E+00     0.0000000000000000E+00 
    8.2499999999982654E-01     1.0000000000000000E+00     0.0000000000000000E+00 
    7.7500000000017355E-01     1.0000000000000000E+00     0.0000000000000000E+00 
    7.2500000000052045E-01     1.0000000000000000E+00     0.0000000000000000E+00 
    6.7500000000086724E-01     1.0000000000000000E+00     0.0000000000000000E+00 
    6.2500000000121403E-01     1.0000000000000000E+00     0.0000000000000000E+00 
    5.7500000000156093E-01     1.0000000000000000E+00     0.0000000000000000E+00 
    5.2500000000189684E-01     1.0000000000000000E+00     0.0000000000000000E+00 
    9.7499999999989595E-01     1.0000000000000000E+00     0.0000000000000000E+00 
    4.2500000000176902E-01     1.0000000000000000E+00     0.0000000000000000E+00 
    3.7500000000156092E-01     1.0000000000000000E+00     0.0000000000000000E+00 
    3.2500000000135282E-01     1.0000000000000000E+00     0.0000000000000000E+00 
    2.7500000000114472E-01     1.0000000000000000E+00     0.0000000000000000E+00 
    2.2500000000093659E-01     1.0000000000000000E+00     0.0000000000000000E+00 
    1.7500000000072849E-01     1.0000000000000000E+00     0.0000000000000000E+00 
    1.2500000000052039E-01     1.0000000000000000E+00     0.0000000000000000E+00 
    7.5000000000312261E-02     1.0000000000000000E+00     0.0000000000000000E+00 
    2.5000000000104109E-02     1.0000000000000000E+00     0.0000000000000000E+00 
    4.5000000000187301E-01     1.0000000000000000E+00     0.0000000000000000E+00 
    8.9999999999958358E-01     1.0000000000000000E+00     0.0000000000000000E+00 
    8.4999999999965303E-01     1.0000000000000000E+00     0.0000000000000000E+00 
    8.0000000000000004E-01     1.0000000000000000E+00     0.0000000000000000E+00 
    7.5000000000034706E-01     1.0000000000000000E+00     0.0000000000000000E+00 
    7.0000000000069384E-01     1.0000000000000000E+00     0.0000000000000000E+00 
    6.5000000000104063E-01     1.0000000000000000E+00     0.0000000000000000E+00 
    6.0000000000138742E-01     1.0000000000000000E+00     0.0000000000000000E+00 
    5.5000000000173432E-01     1.0000000000000000E+00     0.0000000000000000E+00 
    5.0000000000205946E-01     1.0000000000000000E+00     0.0000000000000000E+00 
    9.4999999999979179E-01     1.0000000000000000E+00     0.0000000000000000E+00 
    4.0000000000166491E-01     1.0000000000000000E+00     0.0000000000000000E+00 
    3.5000000000145681E-01     1.0000000000000000E+00     0.0000000000000000E+00 
    3.0000000000124871E-01     1.0000000000000000E+00     0.0000000000000000E+00 
    2.5000000000104061E-01     1.0000000000000000E+00     0.0000000000000000E+00 
    2.0000000000083251E-01     1.0000000000000000E+00     0.0000000000000000E+00 
    1.5000000000062441E-01     1.0000000000000000E+00     0.0000000000000000E+00 
    1.0000000000041630E-01     1.0000000000000000E+00     0.0000000000000000E+00 
[...]
CELL_DATA 1600 
SCALARS Pressure double 1 
LOOKUP_TABLE default 

    1.5418317675494069E+00 
    1.4868459310346898E+00 
    1.4837416801439018E+00 
    1.5253259560851034E+00 
    1.5110664325617709E+00 
    1.4786535017217113E+00 
    1.4722251544845402E+00 
    1.4980244581561375E+00 
    1.4859758490123212E+00 
    1.4649990201088696E+00 
    1.4573552762959603E+00 
    1.4747802058745270E+00 
    1.4642753967628206E+00 
    1.4495082895779776E+00 
    1.4415821261438921E+00 
    1.4543250183798224E+00 
    1.4448257815338839E+00 
    1.4336548528349151E+00 
    1.4257780089209953E+00 
    1.4357022717686865E+00 
    1.4269012385531976E+00 
    1.4179866188481844E+00 
    1.4103060196856234E+00 
    1.4183903861732587E+00 
    1.4101555003893922E+00 
    1.4027561930735233E+00 
    1.3953324863398882E+00 
    1.4021866284149374E+00 
    1.3944289106948713E+00 
    1.3878732020001394E+00 
    1.3798336973613339E+00 
    1.3865624013267037E+00 
    1.3775220553782477E+00 
    1.3707715369486158E+00 
    1.3619051361830392E+00 
    1.3680583179135970E+00 
    1.3597114713796492E+00 
    1.3539773092374199E+00 
    1.3465812467090075E+00 
    1.3519577142366588E+00 
    1.3447417672073601E+00 
    1.3396808580942206E+00 
    1.3332501557999374E+00 
    1.3380320613883399E+00 
    1.3318006820185215E+00 
    1.3272659131547451E+00 
    1.3217073130437189E+00 
    1.3260229019867522E+00 
    1.3206767954363823E+00 
    1.3165557469730109E+00 
    1.3117945379022105E+00 
    1.3157428976554715E+00 
    1.3112039288614867E+00 
    1.3074087968843915E+00 
    1.3033852092639819E+00 
    1.3070445565621780E+00 
    1.3032511952942789E+00 
    1.2997119227803813E+00 
    1.2963783872887258E+00 
    1.2998118313543032E+00 
    1.2967158760513753E+00 
    1.2933752773968823E+00 
    1.2906943638989896E+00 
    1.2939540387313693E+00 
    1.2915182209492544E+00 
    1.2883284590222994E+00 
    1.2862713238529788E+00 
    1.2894014262629434E+00 
    1.2875976870064383E+00 
    1.2845176292911975E+00 
    1.2830628853005674E+00 
    1.2861019975082042E+00 
    1.2849102618502501E+00 
    1.2819034192948278E+00 
    1.2810363244918441E+00 
    1.2840192517102462E+00 
    1.2834265738558637E+00 
    1.2804594500434217E+00 
    1.2801713656578537E+00 
    1.2831306458378631E+00 
    1.4508981207760541E+00 
    1.4182276969524150E+00 
    1.4173481436690196E+00 
    1.4494855818849952E+00 
    1.4467931918615355E+00 
    1.4156394798683436E+00 
    1.4131881870783691E+00 
    1.4430253795558066E+00 
    1.4384335568336888E+00 
    1.4100928438085991E+00 
    1.4064398053969005E+00 
    1.4332316245254000E+00 
    1.4275720095118278E+00 
    1.4023085688638359E+00 
    1.3977771557696956E+00 
    1.4215748095721530E+00 
    1.4153399606464314E+00 
    1.3929152323143201E+00 
    1.3877666831148034E+00 
    1.4089465259576086E+00 
    1.4024500792771248E+00 
    1.3822991218914142E+00 
    1.3763966113379211E+00 
    1.3958821972064719E+00 
    1.3892238567844881E+00 
    1.3699780422033077E+00 
    1.3629060527403367E+00 
    1.3822919279179917E+00 
    1.3747939235448545E+00 
    1.3552424528595373E+00 
    1.3475863028106549E+00 
    1.3664731339071663E+00 
    1.3579719927938116E+00 
    1.3404600362828285E+00 
    1.3338533757908184E+00 
    1.3501860642067092E+00 
    1.3429961953649912E+00 
    1.3275975248557632E+00 
    1.3216838113101708E+00 
    1.3362481031689581E+00 
    1.3299229769686487E+00 
    1.3161050242717223E+00 
    1.3108539482199808E+00 
    1.3240037051364717E+00 
    1.3184746380975585E+00 
    1.3059234219673133E+00 
    1.3013064996187278E+00 
    1.3133214382827139E+00 
    1.3085310414017863E+00 
    1.2969964733856172E+00 
    1.2929869651628099E+00 
    1.3040915220838738E+00 
    1.2999920687593458E+00 
    1.2892719356010935E+00 
    1.2858457424410303E+00 
    1.2962228675944851E+00 
    1.2927750724042903E+00 
    1.2827031265797124E+00 
    1.2798392453092418E+00 
    1.2896407125742777E+00 
    1.2868126738763808E+00 
    1.2772496614052442E+00 
    1.2749303681662894E+00 
    1.2842846175540001E+00 
    1.2820509629827974E+00 
    1.2728777533397315E+00 
    1.2710886314177641E+00 
    1.2801068303255665E+00 
    1.2784480267947085E+00 
    1.2695602187208948E+00 
    1.2682901425255726E+00 
    1.2770709983535147E+00 
    1.2759728276783482E+00 
    1.2672764286593761E+00 
    1.2665175087540153E+00 
    1.2751511959289352E+00 
    1.2746043838107877E+00 
    1.2660122019251425E+00 
    1.2657597261823708E+00 
    1.2743312441623391E+00 
    1.3872996279090801E+00 
    1.3565182951749504E+00 
    1.3559561706094452E+00 
    1.3866914988278443E+00 
    1.3854942224607962E+00 
    1.3548256252644020E+00 
    1.3531192787072133E+00 
    1.3837392436908067E+00 
    1.3814603971686905E+00 
    1.3508357932948576E+00 
    1.3479909312962235E+00 
    1.3786887902673479E+00 
    1.3754411276790692E+00 
    1.3446053795988999E+00 
    1.3406590096261752E+00 
    1.3716906750266462E+00 
    1.3673878497185830E+00 
    1.3361330197811463E+00 
    1.3311355998981513E+00 
    1.3625214453155954E+00 
    1.3570850295708150E+00 
    1.3258933034272995E+00 
    1.3205716167708108E+00 
    1.3510097106542747E+00 
    1.3444342752129588E+00 
    1.3153333567453021E+00 
    1.3103408562391035E+00 
    1.3377686724389413E+00 
    1.3313135864884511E+00 
    1.3055300479349756E+00 
    1.3008233896525394E+00 
    1.3252480032565774E+00 
    1.3195200067332920E+00 
    1.2962406524818353E+00 
    1.2917976084759482E+00 
    1.3140276884347537E+00 
    1.3087757897549586E+00 
    1.2875072931110381E+00 
    1.2833804129140498E+00 
    1.3037685528311631E+00 
    1.2990085851871813E+00 
    1.2794256565224689E+00 
    1.2756500250094303E+00 
    1.2944972546888152E+00 
    1.2902349581639774E+00 
    1.2720591442546261E+00 
    1.2686574617743256E+00 
    1.2862213789194572E+00 
    1.2824556567605512E+00 
    1.2654484551142859E+00 
    1.2624348287756815E+00 
    1.2789365529804118E+00 
    1.2756625572850178E+00 
    1.2596186209349265E+00 
    1.2570013483726796E+00 
    1.2726319997075743E+00 
    1.2698431126882679E+00 
    1.2545840923801943E+00 
    1.2523676193450171E+00 
    1.2672941094696597E+00 
    1.2649832249217945E+00 
    1.2503524200139711E+00 
    1.2485387791195881E+00 
    1.2629087639688379E+00 
    1.2610691255577053E+00 
    1.2469268470547912E+00 
    1.2455166606509240E+00 
    1.2594628373129082E+00 
    1.2580885739055416E+00 
    1.2443081809375627E+00 
    1.2433013376700248E+00 
    1.2569451770229532E+00 
    1.2560316627397567E+00 
    1.2424960306351061E+00 
    1.2418921603205597E+00 
    1.2553472351255381E+00 
    1.2548912878971081E+00 
    1.2414896389257404E+00 
    1.2412884024424646E+00 
    1.2546634172996529E+00 
    1.3192753799360697E+00 
    1.2786022777765569E+00 
    1.2782439504624594E+00 
    1.3187151041892335E+00 
    1.3175908908313070E+00 
    1.2775460172697057E+00 
    1.2765397216290211E+00 
    1.3159027060551263E+00 
    1.3136696803011847E+00 
    1.2752596161007681E+00 
    1.2737313603087546E+00 
    1.3109457682754495E+00 
    1.3078162691393316E+00 
    1.2719633676789841E+00 
    1.2699545455110035E+00 
    1.3043794004015645E+00 
    1.3007587217766785E+00 
    1.2677184835688164E+00 
    1.2652965782947918E+00 
    1.2970994135327374E+00 
    1.2934809499596320E+00 
    1.2627384216922988E+00 
    1.2600805767605185E+00 
    1.2898627276760743E+00 
    1.2861948015103999E+00 
    1.2573496745096682E+00 
    1.2545702645753416E+00 
    1.2825001091857531E+00 
    1.2788146037475270E+00 
    1.2517655367715494E+00 
    1.2489564417253429E+00 
    1.2751626096849380E+00 
    1.2715652897070464E+00 
    1.2461619103894086E+00 
    1.2433988998619030E+00 
    1.2680409117437879E+00 
    1.2646051931044937E+00 
    1.2406825954310408E+00 
    1.2380264615193690E+00 
    1.2612716570833924E+00 
    1.2580518795189031E+00 
    1.2354424845101211E+00 
    1.2329412648136477E+00 
    1.2549557781391061E+00 
    1.2519918006548363E+00 
    1.2305321490084451E+00 
    1.2282233668758233E+00 
    1.2491671527708523E+00 
    1.2464879403266640E+00 
    1.2260221762677972E+00 
    1.2239349000845836E+00 
    1.2439593451393793E+00 
    1.2415857259628593E+00 
    1.2219670935954630E+00 
    1.2201235876384291E+00 
    1.2393707625680754E+00 
    1.2373175292426453E+00 
    1.2184086048779224E+00 
    1.2168257739126924E+00 
    1.2354286056493486E+00 
    1.2337061248275434E+00 
    1.2153782473438755E+00 
    1.2140687295881585E+00 
    1.2321518624928272E+00 
    1.2307672703525494E+00 
    1.2128995203866082E+00 
    1.2118725670126893E+00 
    1.2295535442007286E+00 
    1.2285116440894290E+00 
    1.2109895124437178E+00 
    1.2102516914669479E+00 
    1.2276423429168966E+00 
    1.2269462390704269E+00 
    1.2096601923471653E+00 
    1.2092158543539342E+00 
    1.2264237902248947E+00 
    1.2260753215574045E+00 
    1.2089192953371253E+00 
    1.2087709117330954E+00 
    1.2259010441457867E+00 
    1.2443951875903376E+00 
    1.2125691573340764E+00 
    1.2123996471111818E+00 
    1.2441577555887420E+00 
    1.2436878992652114E+00 
    1.2120629124038993E+00 
    1.2115633675178921E+00 
    1.2429948513453730E+00 
    1.2420904659310377E+00 
    1.2109072396079836E+00 
    1.2101022413989211E+00 
    1.2409874936265683E+00 
    1.2396986565082859E+00 
    1.2091573361694063E+00 
    1.2080826833419154E+00 
    1.2382374359967980E+00 
    1.2366198816498373E+00 
    1.2068896036903201E+00 
    1.2055904742506640E+00 
    1.2348653930157791E+00 
    1.2329951755400717E+00 
    1.2041984225102076E+00 
    1.2027269770540001E+00 
    1.2310302068662415E+00 
    1.2289904345174227E+00 
    1.2011896734708172E+00 
    1.1995998995574302E+00 
    1.2268947344340133E+00 
    1.2247608909396976E+00 
    1.1979706801084693E+00 
    1.1963145635367758E+00 
    1.2226055386280879E+00 
    1.2204441373053991E+00 
    1.1946435320587530E+00 
    1.1929689554468992E+00 
    1.2182909585153892E+00 
    1.2161591267462912E+00 
    1.1913015352925052E+00 
    1.1896512952066061E+00 
    1.2140606522480555E+00 
    1.2120064852181431E+00 
    1.1880275704098100E+00 
    1.1864390305643180E+00 
    1.2100065615232889E+00 
    1.2080698830886214E+00 
    1.1848936670034131E+00 
    1.1833988415376275E+00 
    1.2062045640135617E+00 
    1.2044179087865186E+00 
    1.1819612941494060E+00 
    1.1805871773149021E+00 
    1.2027164597678159E+00 
    1.2011060732549255E+00 
    1.1792820810530464E+00 
    1.1780510705607938E+00 
    1.1995919566548672E+00 
    1.1981787416878098E+00 
    1.1768987102474744E+00 
    1.1758290961448172E+00 
    1.1968705181858861E+00 
    1.1956708909370144E+00 
    1.1748458779180426E+00 
    1.1739522953694701E+00 
    1.1945830059607507E+00 
    1.1936096016343323E+00 
    1.1731511879571450E+00 
    1.1724450281828471E+00 
    1.1927530273753810E+00 
    1.1920152827840844E+00 
    1.1718359368113092E+00 
    1.1713257000495867E+00 
    1.1913980364564776E+00 
    1.1909026520632573E+00 
    1.1709157825208900E+00 
    1.1706073436466515E+00 
    1.1905301969457598E+00 
    1.1902814610180112E+00 
    1.1704012439831073E+00 
    1.1702980544954182E+00 
    1.1901569647006971E+00 
    1.1824394569164081E+00 
    1.1535570897366130E+00 
    1.1534638078789927E+00 
    1.1823148505716177E+00 
    1.1820669895554066E+00 
    1.1532781475738125E+00 
    1.1530018600673393E+00 
    1.1816985366537425E+00 
    1.1812133662134394E+00 
    1.1526375517970249E+00 
    1.1521885864568793E+00 
    1.1806164825557708E+00 
    1.1799138906459679E+00 
    1.1516590716348201E+00 
    1.1510537596541655E+00 
    1.1791125031451166E+00 
    1.1782200120259423E+00 
    1.1503779972239956E+00 
    1.1496376127125818E+00 
    1.1772448075606812E+00 
    1.1761957871959250E+00 
    1.1488388561535852E+00 
    1.1479882916075583E+00 
    1.1750822114601449E+00 
    1.1739135702185808E+00 
    1.1470927143850591E+00 
    1.1461590623217432E+00 
    1.1726994182608927E+00 
    1.1714492525972875E+00 
    1.1451943410218304E+00 
    1.1442055473877284E+00 
    1.1701724399831335E+00 
    1.1688781010412814E+00 
    1.1431996070451169E+00 
    1.1421833200061347E+00 
    1.1675750584816542E+00 
    1.1662717788359964E+00 
    1.1411633105726615E+00 
    1.1401459922580863E+00 
    1.1649763505940189E+00 
    1.1636964383155892E+00 
    1.1391375305735376E+00 
    1.1381438257858942E+00 
    1.1624392723738104E+00 
    1.1612116467813327E+00 
    1.1371704854702902E+00 
    1.1362228207841867E+00 
    1.1600199043846007E+00 
    1.1588699435060119E+00 
    1.1353058252226196E+00 
    1.1344241830790549E+00 
    1.1577672293006842E+00 
    1.1567167948577728E+00 
    1.1335822527182604E+00 
    1.1327840794650534E+00 
    1.1557232562835884E+00 
    1.1547908245254837E+00 
    1.1320333839847316E+00 
    1.1313335779694229E+00 
    1.1539233236398621E+00 
    1.1531241970531818E+00 
    1.1306877589140323E+00 
    1.1300987243640104E+00 
    1.1523965265476339E+00 
    1.1517430447577817E+00 
    1.1295689658643537E+00 
    1.1291006877939180E+00 
    1.1511661474579602E+00 
    1.1506679004060727E+00 
    1.1286958033080474E+00 
    1.1283559376118764E+00 
    1.1502500611407007E+00 
    1.1499140737951561E+00 
    1.1280824348882974E+00 
    1.1278763689120610E+00 
    1.1496610888222976E+00 
    1.1494919621099298E+00 
    1.1277385485431930E+00 
    1.1276695196346069E+00 
    1.1494072662690797E+00 
    1.1256075508321817E+00 
    1.0983649076033117E+00 
    1.0983104317313250E+00 
    1.1255367260873013E+00 
    1.1253956984603688E+00 
    1.0982018970436227E+00 
    1.0980401786124643E+00 
    1.1251856741564261E+00 
    1.1249084681999053E+00 
    1.0978265481683680E+00 
    1.0975627141542779E+00 
    1.1245664195320215E+00 
    1.1241624220984281E+00 
    1.0972507443952044E+00 
    1.0968930830655599E+00 
    1.1236998260483355E+00 
    1.1231824342363037E+00 
    1.0964924781337495E+00 
    1.0960519893909970E+00 
    1.1226144050540883E+00 
    1.1220002415501642E+00 
    1.0955749170051416E+00 
    1.0950647884782283E+00 
    1.1213447003474062E+00 
    1.1206527545871052E+00 
    1.0945253060952640E+00 
    1.0939603230212023E+00 
    1.1199295273255601E+00 
    1.1191802489563245E+00 
    1.0933737897759983E+00 
    1.0927697354341452E+00 
    1.1184101939299198E+00 
    1.1176246466164943E+00 
    1.0921522226382145E+00 
    1.0915253208835125E+00 
    1.1168288527623813E+00 
    1.1160279783940714E+00 
    1.0908930720010228E+00 
    1.0902594674294055E+00 
    1.1152270809604417E+00 
    1.1144310768960002E+00 
    1.0896284242096710E+00 
    1.0890037560805370E+00 
    1.1136447226721102E+00 
    1.1128725817962555E+00 
    1.0883891637041316E+00 
    1.0877882083786874E+00 
    1.1121190263078193E+00 
    1.1113882006173001E+00 
    1.0872043075772471E+00 
    1.0866407089255297E+00 
    1.1106840339708759E+00 
    1.1100102129088516E+00 
    1.0861004937357375E+00 
    1.0855865564682095E+00 
    1.1093701897757409E+00 
    1.1087671583838155E+00 
    1.0851016111252318E+00 
    1.0846481652661271E+00 
    1.1082040774140423E+00 
    1.1076836489850095E+00 
    1.0842285335841255E+00 
    1.0838448320012659E+00 
    1.1072083181708066E+00 
    1.1067802929625918E+00 
    1.0834989563691140E+00 
    1.0831926021490983E+00 
    1.1064015259248536E+00 
    1.1060737218423249E+00 
    1.0829272578798934E+00 
    1.0827041867881990E+00 
    1.1057983345483675E+00 
    1.1055765745402368E+00 
    1.0825244459331609E+00 
    1.0823888815538321E+00 
    1.1054093981573350E+00 
    1.1052975342550908E+00 
    1.0822981184262803E+00 
    1.0822525686757194E+00 
    1.1052414525717305E+00 
    1.0716659030280531E+00 
    1.0453924650270008E+00 
    1.0453586666861963E+00 
    1.0716233820638430E+00 
    1.0715386501178354E+00 
    1.0452913196963340E+00 
    1.0451909076214780E+00 
    1.0714123482402431E+00 
    1.0712454179768858E+00 
    1.0450581459211803E+00 
    1.0448940005825560E+00 
    1.0710391104030963E+00 
    1.0707949575379767E+00 
    1.0446996377945426E+00 
    1.0444764285912542E+00 
    1.0705147732935782E+00 
    1.0702006087879625E+00 
    1.0442259302679047E+00 
    1.0439498981099697E+00 
    1.0698547466335682E+00 
    1.0694796682845262E+00 
    1.0436502410502475E+00 
    1.0433290027929010E+00 
    1.0690780384564245E+00 
    1.0686526681894197E+00 
    1.0429883778586351E+00 
    1.0426306525229694E+00 
    1.0682064985525224E+00 
    1.0677425690735958E+00 
    1.0422582055572873E+00 
    1.0418734894587491E+00 
    1.0672639919763804E+00 
    1.0667739288879325E+00 
    1.0414790077640406E+00 
    1.0410772900564698E+00 
    1.0662755679673050E+00 
    1.0657721005064964E+00 
    1.0406708894948438E+00 
    1.0402623541166605E+00 
    1.0652666953860468E+00 
    1.0647624851959645E+00 
    1.0398542186159672E+00 
    1.0394489798511219E+00 
    1.0642625415023548E+00 
    1.0637698637363553E+00 
    1.0390490915613524E+00 
    1.0386569395738039E+00 
    1.0632873573915878E+00 
    1.0628178270607260E+00 
    1.0382748466823164E+00 
    1.0379050374900660E+00 
    1.0623639582325821E+00 
    1.0619283117074474E+00 
    1.0375496481739694E+00 
    1.0372107085169031E+00 
    1.0615133058623314E+00 
    1.0611212172999573E+00 
    1.0368901446887566E+00 
    1.0365897486238915E+00 
    1.0607541695429192E+00 
    1.0604141248708174E+00 
    1.0363111872615656E+00 
    1.0360560106331524E+00 
    1.0601028801496684E+00 
    1.0598220643938516E+00 
    1.0358255949761770E+00 
    1.0356211940404447E+00 
    1.0595731331545688E+00 
    1.0593573575280653E+00 
    1.0354439188066880E+00 
    1.0352947229276102E+00 
    1.0591758429341831E+00 
    1.0590295088255821E+00 
    1.0351744004111474E+00 
    1.0350836071595491E+00 
    1.0589190948877478E+00 
    1.0588451476320162E+00 
    1.0350228204031908E+00 
    1.0349923769018330E+00 
    1.0588080351580949E+00 
    1.0194575859015136E+00 
    9.9379802164827191E-01 
    9.9377488143767134E-01 
    1.0194300630156110E+00 
    1.0193752301081518E+00 
    9.9372878125073449E-01 
    9.9366004513472839E-01 
    1.0192934699206517E+00 
    1.0191853626553797E+00 
    9.9356915754583586E-01 
    9.9345671128287971E-01 
    1.0190516600652708E+00 
    1.0188932744383989E+00 
    9.9332345591466586E-01 
    9.9317026599179892E-01 
    1.0187112821776578E+00 
    1.0185069156759570E+00 
    9.9299816273497732E-01 
    9.9280825814972906E-01 
    1.0182815521658408E+00 
    1.0180366992896368E+00 
    9.9260179386830671E-01 
    9.9238011738496523E-01 
    1.0177739859498720E+00 
    1.0174951512578978E+00 
    9.9214465342674685E-01 
    9.9189691948510539E-01 
    1.0172020228684080E+00 
    1.0168965142993300E+00 
    9.9163850591365410E-01 
    9.9137105522310776E-01 
    1.0165805974758251E+00 
    1.0162563008298200E+00 
    9.9109625966120540E-01 
    9.9081585531039384E-01 
    1.0159256808828034E+00 
    1.0155908265243432E+00 
    9.9053159495030174E-01 
    9.9024525058880641E-01 
    1.0152538253919126E+00 
    1.0149167692778740E+00 
    9.8995858971773321E-01 
    9.8967337940598021E-01 
    1.0145817228166576E+00 
    1.0142507293451783E+00 
    9.8939135838316716E-01 
    9.8911424667816150E-01 
    1.0139257823606909E+00 
    1.0136088281974640E+00 
    9.8884370981764103E-01 
    9.8858138041449806E-01 
    1.0133017442007672E+00 
    1.0130063399971896E+00 
    9.8832882289961144E-01 
    9.8808754234400331E-01 
    1.0127243419025103E+00 
    1.0124573850385414E+00 
    9.8785895710154736E-01 
    9.8764442293778520E-01 
    1.0122070098149625E+00 
    1.0119746484881351E+00 
    9.8744520230578170E-01 
    9.8726244703383736E-01 
    1.0117616287605273E+00 
    1.0115691482398430E+00 
    9.8709723620337853E-01 
    9.8695052198286803E-01 
    1.0113982993395654E+00 
    1.0112500401790618E+00 
    9.8682315167256840E-01 
    9.8671587712519337E-01 