# vtk DataFile Version 2.0
Pressure Field Data 
ASCII 
DATASET UNSTRUCTURED_GRID 

POINTS 1681 double 

    0.0000000000000000E+00     0.0000000000000000E+00     0.0000000000000000E+00 
    1.0000000000000000E+00     0.0000000000000000E+00     0.0000000000000000E+00 
    1.0000000000000000E+00     1.0000000000000000E+00     0.0000000000000000E+00 
    0.0000000000000000E+00     1.0000000000000000E+00     0.0000000000000000E+00 
    5.2499999999875258E-01     0.0000000000000000E+00     0.0000000000000000E+00 
    7.4999999999856765E-02     0.0000000000000000E+00     0.0000000000000000E+00 
    1.2499999999975850E-01     0.0000000000000000E+00     0.0000000000000000E+00 
    1.7499999999962990E-01     0.0000000000000000E+00     0.0000000000000000E+00 
    2.2499999999948389E-01     0.0000000000000000E+00     0.0000000000000000E+00 
    2.7499999999933789E-01     0.0000000000000000E+00     0.0000000000000000E+00 
    3.2499999999919210E-01     0.0000000000000000E+00     0.0000000000000000E+00 
    3.7499999999904610E-01     0.0000000000000000E+00     0.0000000000000000E+00 
    4.2499999999890020E-01     0.0000000000000000E+00     0.0000000000000000E+00 
    4.7499999999875958E-01     0.0000000000000000E+00     0.0000000000000000E+00 
    2.4999999999949701E-02     0.0000000000000000E+00     0.0000000000000000E+00 
    5.7499999999887907E-01     0.0000000000000000E+00     0.0000000000000000E+00 
    6.2499999999901101E-01     0.0000000000000000E+00     0.0000000000000000E+00 
    6.7499999999914273E-01     0.0000000000000000E+00     0.0000000000000000E+00 
    7.2499999999927467E-01     0.0000000000000000E+00     0.0000000000000000E+00 
    7.7499999999940661E-01     0.0000000000000000E+00     0.0000000000000000E+00 
    8.2499999999953844E-01     0.0000000000000000E+00     0.0000000000000000E+00 
    8.7499999999967026E-01     0.0000000000000000E+00     0.0000000000000000E+00 
    9.2499999999980220E-01     0.0000000000000000E+00     0.0000000000000000E+00 
    9.7499999999993414E-01     0.0000000000000000E+00     0.0000000000000000E+00 
    5.4999999999881310E-01     0.0000000000000000E+00     0.0000000000000000E+00 
    9.9999999999814140E-02     0.0000000000000000E+00     0.0000000000000000E+00 
    1.4999999999970290E-01     0.0000000000000000E+00     0.0000000000000000E+00 
    1.9999999999955689E-01     0.0000000000000000E+00     0.0000000000000000E+00 
    2.4999999999941089E-01     0.0000000000000000E+00     0.0000000000000000E+00 
    2.9999999999926502E-01     0.0000000000000000E+00     0.0000000000000000E+00 
    3.4999999999911913E-01     0.0000000000000000E+00     0.0000000000000000E+00 
    3.9999999999897312E-01     0.0000000000000000E+00     0.0000000000000000E+00 
    4.4999999999882723E-01     0.0000000000000000E+00     0.0000000000000000E+00 
    4.9999999999869210E-01     0.0000000000000000E+00     0.0000000000000000E+00 
    4.9999999999899403E-02     0.0000000000000000E+00     0.0000000000000000E+00 
    5.9999999999894504E-01     0.0000000000000000E+00     0.0000000000000000E+00 
    6.4999999999907687E-01     0.0000000000000000E+00     0.0000000000000000E+00 
    6.9999999999920870E-01     0.0000000000000000E+00     0.0000000000000000E+00 
    7.4999999999934064E-01     0.0000000000000000E+00     0.0000000000000000E+00 
    7.9999999999947247E-01     0.0000000000000000E+00     0.0000000000000000E+00 
    8.4999999999960441E-01     0.0000000000000000E+00     0.0000000000000000E+00 
    8.9999999999973623E-01     0.0000000000000000E+00     0.0000000000000000E+00 
    9.4999999999986817E-01     0.0000000000000000E+00     0.0000000000000000E+00 
    1.0000000000000000E+00     5.2499999999875258E-01     0.0000000000000000E+00 
    1.0000000000000000E+00     7.4999999999856765E-02     0.0000000000000000E+00 
    1.0000000000000000E+00     1.2499999999975850E-01     0.0000000000000000E+00 
    1.0000000000000000E+00     1.7499999999962990E-01     0.0000000000000000E+00 
    1.0000000000000000E+00     2.2499999999948389E-01     0.0000000000000000E+00 
    1.0000000000000000E+00     2.7499999999933789E-01     0.0000000000000000E+00 
    1.0000000000000000E+00     3.2499999999919210E-01     0.0000000000000000E+00 
    1.0000000000000000E+00     3.7499999999904610E-01     0.0000000000000000E+00 
    1.0000000000000000E+00     4.2499999999890020E-01     0.0000000000000000E+00 
    1.0000000000000000E+00     4.7499999999875958E-01     0.0000000000000000E+00 
    1.0000000000000000E+00     2.4999999999949701E-02     0.0000000000000000E+00 
    1.0000000000000000E+00     5.7499999999887907E-01     0.0000000000000000E+00 
    1.0000000000000000E+00     6.2499999999901101E-01     0.0000000000000000E+00 
    1.0000000000000000E+00     6.7499999999914273E-01     0.0000000000000000E+00 
    1.0000000000000000E+00     7.2499999999927467E-01     0.0000000000000000E+00 
    1.0000000000000000E+00     7.7499999999940661E-01     0.0000000000000000E+00 
    1.0000000000000000E+00     8.2499999999953844E-01     0.0000000000000000E+00 
    1.0000000000000000E+00     8.7499999999967026E-01     0.0000000000000000E+00 
    1.0000000000000000E+00     9.2499999999980220E-01     0.0000000000000000E+00 
    1.0000000000000000E+00     9.7499999999993414E-01     0.0000000000000000E+00 
    1.0000000000000000E+00     5.4999999999881310E-01     0.0000000000000000E+00 
    1.0000000000000000E+00     9.9999999999814140E-02     0.0000000000000000E+00 
    1.0000000000000000E+00     1.4999999999970290E-01     0.0000000000000000E+00 
    1.0000000000000000E+00     1.9999999999955689E-01     0.0000000000000000E+00 
    1.0000000000000000E+00     2.4999999999941089E-01     0.0000000000000000E+00 
    1.0000000000000000E+00     2.9999999999926502E-01     0.0000000000000000E+00 
    1.0000000000000000E+00     3.4999999999911913E-01     0.0000000000000000E+00 
    1.0000000000000000E+00     3.9999999999897312E-01     0.0000000000000000E+00 
    1.0000000000000000E+00     4.4999999999882723E-01     0.0000000000000000E+00 
    1.0000000000000000E+00     4.9999999999869210E-01     0.0000000000000000E+00 
    1.0000000000000000E+00     4.9999999999899403E-02     0.0000000000000000E+00 
    1.0000000000000000E+00     5.9999999999894504E-01     0.0000000000000000E+00 
    1.0000000000000000E+00     6.4999999999907687E-01     0.0000000000000000E+00 
    1.0000000000000000E+00     6.9999999999920870E-01     0.0000000000000000E+00 
    1.0000000000000000E+00     7.4999999999934064E-01     0.0000000000000000E+00 
    1.0000000000000000E+00     7.9999999999947247E-01     0.0000000000000000E+00 
    1.0000000000000000E+00     8.4999999999960441E-01     0.0000000000000000E+00 
    1.0000000000000000E+00     8.9999999999973623E-01     0.0000000000000000E+00 
    1.0000000000000000E+00     9.4999999999986817E-01     0.0000000000000000E+00 
    4.7500000000196618E-01     1.0000000000000000E+00     0.0000000000000000E+00 
    9.2499999999968763E-01     1.0000000000000000E+00     0.0000000000000000E+00 
    8.7499999999961831E-01     1.0000000000000000E+00     0.0000000000000000E+00 
    8.2499999999982654E-01     1.0000000000000000E+00     0.0000000000000000E+00 
    7.7500000000017355E-01     1.0000000000000000E+00     0.0000000000000000E+00 
    7.2500000000052045E-01     1.0000000000000000E+00     0.0000000000000000E+00 
    6.7500000000086724E-01     1.0000000000000000E+00     0.0000000000000000E+00 
    6.2500000000121403E-01     1.0000000000000000E+00     0.0000000000000000E+00 
    5.7500000000156093E-01     1.0000000000000000E+00     0.0000000000000000E+00 
    5.2500000000189684E-01     1.0000000000000000E+00     0.0000000000000000E+00 
    9.7499999999989595E-01     1.0000000000000000E+00     0.0000000000000000E+00 
    4.2500000000176902E-01     1.0000000000000000E+00     0.0000000000000000E+00 
    3.7500000000156092E-01     1.0000000000000000E+00     0.0000000000000000E+00 
    3.2500000000135282E-01     1.0000000000000000E+00     0.0000000000000000E+00 
    2.7500000000114472E-01     1.0000000000000000E+00     0.0000000000000000E+00 
    2.2500000000093659E-01     1.0000000000000000E+00     0.0000000000000000E+00 
    1.7500000000072849E-01     1.0000000000000000E+00     0.0000000000000000E+00 
    1.2500000000052039E-01     1.0000000000000000E+00     0.0000000000000000E+00 
    7.5000000000312261E-02     1.0000000000000000E+00     0.0000000000000000E+00 
    2.5000000000104109E-02     1.0000000000000000E+00     0.0000000000000000E+00 
    4.5000000000187301E-01     1.0000000000000000E+00     0.0000000000000000E+00 
    8.9999999999958358E-01     1.0000000000000000E+00     0.0000000000000000E+00 
    8.4999999999965303E-01     1.0000000000000000E+00     0.0000000000000000E+00 
    8.0000000000000004E-01     1.0000000000000000E+00     0.0000000000000000E+00 
    7.5000000000034706E-01     1.0000000000000000E+00     0.0000000000000000E+00 
    7.0000000000069384E-01     1.0000000000000000E+00     0.0000000000000000E+00 
    6.5000000000104063E-01     1.0000000000000000E+00     0.0000000000000000E+00 
    6.0000000000138742E-01     1.0000000000000000E+00     0.0000000000000000E+00 
    5.5000000000173432E-01     1.0000000000000000E+00     0.0000000000000000E+00 
    5.0000000000205946E-01     1.0000000000000000E+00     0.0000000000000000E+00 
    9.4999999999979179E-01     1.0000000000000000E+00     0.0000000000000000E+00 
    4.0000000000166491E-01     1.0000000000000000E+00     0.0000000000000000E+00 
    3.5000000000145681E-01     1.0000000000000000E+00     0.0000000000000000E+00 
    3.0000000000124871E-01     1.0000000000000000E+00     0.0000000000000000E+00 
    2.5000000000104061E-01     1.0000000000000000E+00     0.0000000000000000E+00 
    2.0000000000083251E-01     1.0000000000000000E+00     0.0000000000000000E+00 
    1.5000000000062441E-01     1.0000000000000000E+00     0.0000000000000000E+00 
    1.0000000000041630E-01     1.0000000000000000E+00     0.0000000000000000E+00 
[...]
CELL_DATA 1600 
SCALARS Pressure double 1 
LOOKUP_TABLE default 

    1.0977969294777292E+00 
    1.0519476490663580E+00 
    1.0495934832473708E+00 
    1.0822523042322276E+00 
    1.0698839275037093E+00 
    1.0460418021423215E+00 
    1.0419475062799193E+00 
    1.0597898098387093E+00 
    1.0513586232110415E+00 
    1.0376768604658448E+00 
    1.0334291850760893E+00 
    1.0441731013810625E+00 
    1.0379421142360539E+00 
    1.0293110807775769E+00 
    1.0253751073543855E+00 
    1.0324585872167380E+00 
    1.0275721017364823E+00 
    1.0216426324115266E+00 
    1.0181175263030293E+00 
    1.0231713767228428E+00 
    1.0191728504770312E+00 
    1.0147946012186522E+00 
    1.0116641789438998E+00 
    1.0155128395647102E+00 
    1.0121421724758819E+00 
    1.0087148628820295E+00 
    1.0059349482075046E+00 
    1.0090223666200819E+00 
    1.0061229591116223E+00 
    1.0033132121780464E+00 
    1.0008392930522789E+00 
    1.0034195993240291E+00 
    1.0008926342626232E+00 
    9.9850389943150930E-01 
    9.9629878063205346E-01 
    9.9852606532316079E-01 
    9.9630679562477431E-01 
    9.9421671147424695E-01 
    9.9225140387149580E-01 
    9.9422404725105229E-01 
    9.9226888243338596E-01 
    9.9039743336344299E-01 
    9.8865010476964810E-01 
    9.9043388243282893E-01 
    9.8871289232554727E-01 
    9.8700542830429805E-01 
    9.8546000442309944E-01 
    9.8710077463557266E-01 
    9.8559327300782773E-01 
    9.8401096900376039E-01 
    9.8265593215437219E-01 
    9.8418688759713224E-01 
    9.8287874697280297E-01 
    9.8139295061730247E-01 
    9.8022045415797743E-01 
    9.8166651777459391E-01 
    9.8054836949692470E-01 
    9.7913722873533815E-01 
    9.7814238759352357E-01 
    9.7952291705395256E-01 
    9.7858913336792708E-01 
    9.7723534509832188E-01 
    9.7641578431037068E-01 
    9.7774636379125057E-01 
    9.7699431219418154E-01 
    9.7568368597494259E-01 
    9.7503929202726980E-01 
    9.7633297485298975E-01 
    9.7576269171942942E-01 
    9.7448308954312179E-01 
    9.7401651602678285E-01 
    9.7528478532490370E-01 
    9.7490277209340692E-01 
    9.7364310077404248E-01 
    9.7334815145106579E-01 
    9.7460317854418532E-01 
    9.7436528860733607E-01 
    9.7311354296500796E-01 
    9.7298673548696202E-01 
    9.7423603460758001E-01 
    1.0288353791727451E+00 
    1.0122835522745968E+00 
    1.0119257688014616E+00 
    1.0280957490548914E+00 
    1.0267359530561648E+00 
    1.0112330207811469E+00 
    1.0102432001890831E+00 
    1.0249027923753122E+00 
    1.0227335289347028E+00 
    1.0090028699739875E+00 
    1.0075607589863493E+00 
    1.0203426601885184E+00 
    1.0178213853726501E+00 
    1.0059630666270516E+00 
    1.0042510011309045E+00 
    1.0152383539663044E+00 
    1.0126435739094892E+00 
    1.0024601976407035E+00 
    1.0006208750876420E+00 
    1.0100725794992866E+00 
    1.0075501378825205E+00 
    9.9875792573152677E-01 
    9.9689139812550664E-01 
    1.0050929506316977E+00 
    1.0027119490664842E+00 
    9.9503725546079425E-01 
    9.9320804983578048E-01 
    1.0004139001168386E+00 
    9.9820269005894302E-01 
    9.9141354126091663E-01 
    9.8966141689780629E-01 
    9.9608026017938489E-01 
    9.9404730286118104E-01 
    9.8795768007149898E-01 
    9.8630698109235471E-01 
    9.9210365874505058E-01 
    9.9024867221206003E-01 
    9.8471290864063765E-01 
    9.8317833461948778E-01 
    9.8848140933431727E-01 
    9.8680081238364492E-01 
    9.8170547580568668E-01 
    9.8029606702854177E-01 
    9.8520576063005116E-01 
    9.8369521411205552E-01 
    9.7895155820064605E-01 
    9.7767313318068372E-01 
    9.8226820670176473E-01 
    9.8092388722966684E-01 
    9.7646176477425928E-01 
    9.7531837122425469E-01 
    9.7966154943659500E-01 
    9.7848065356606073E-01 
    9.7424380034951918E-01 
    9.7323882053297106E-01 
    9.7738079482612195E-01 
    9.7636173502681223E-01 
    9.7230419289138581E-01 
    9.7144075651989159E-01 
    9.7542340903963554E-01 
    9.7456591095585288E-01 
    9.7064932099131629E-01 
    9.6993074534183388E-01 
    9.7378948724039416E-01 
    9.7309458226882584E-01 
    9.6928600526558228E-01 
    9.6871608032841228E-01 
    9.7248181046908666E-01 
    9.7195195861630279E-01 
    9.6822209202709464E-01 
    9.6780636053745550E-01 
    9.7150681392565053E-01 
    9.7114993869337574E-01 
    9.6747240201695250E-01 
    9.6720120027575029E-01 
    9.7086471203990743E-01 
    9.7063730268761339E-01 
    9.6698391286606833E-01 
    9.6686846645009783E-01 
    9.7051530351381565E-01 
    9.9838901679865888E-01 
    9.8573178704688447E-01 
    9.8558718548372615E-01 
    9.9817406970364964E-01 
    9.9775162025213127E-01 
    9.8530141169684216E-01 
    9.8488119917755224E-01 
    9.9713546137037889E-01 
    9.9634467504969915E-01 
    9.8433616631257270E-01 
    9.8367745707420495E-01 
    9.9540115861738743E-01 
    9.9432756406017886E-01 
    9.8291699241287156E-01 
    9.8206735103109399E-01 
    9.9314629606225513E-01 
    9.9187887566147137E-01 
    9.8114142921837777E-01 
    9.8015207584712150E-01 
    9.9054551316785566E-01 
    9.8916439999076033E-01 
    9.7911150361615362E-01 
    9.7803093129155838E-01 
    9.8775140931308336E-01 
    9.8632042098489703E-01 
    9.7692086480646434E-01 
    9.7579098757018956E-01 
    9.8488342035707099E-01 
    9.8345060359472436E-01 
    9.7465000138480062E-01 
    9.7350584920223826E-01 
    9.8203078530648491E-01 
    9.8063154335799874E-01 
    9.7236573795776682E-01 
    9.7123606090820092E-01 
    9.7925927021330106E-01 
    9.7791934030228012E-01 
    9.7012243299482015E-01 
    9.6902997733916563E-01 
    9.7661644775874024E-01 
    9.7535459097491251E-01 
    9.6796328113324015E-01 
    9.6692632411762258E-01 
    9.7413712681577125E-01 
    9.7296706227217578E-01 
    9.6592279215377475E-01 
    9.6495602814405990E-01 
    9.7184701561064502E-01 
    9.7077922577340114E-01 
    9.6402895303062286E-01 
    9.6314429673901369E-01 
    9.6976577176689815E-01 
    9.6880858444119622E-01 
    9.6230464170144103E-01 
    9.6151234020552434E-01 
    9.6790938145024219E-01 
    9.6706973954534858E-01 
    9.6076952417961548E-01 
    9.6007832109766633E-01 
    9.6629125924094628E-01 
    9.6557543799837853E-01 
    9.5944078485690687E-01 
    9.5885882293924651E-01 
    9.6492369950874735E-01 
    9.6433756700825468E-01 
    9.5833446145593193E-01 
    9.5786970638710911E-01 
    9.6381847208682370E-01 
    9.6336790011623608E-01 
    9.5746658403666474E-01 
    9.5712868226262782E-01 
    9.6298868050929476E-01 
    9.6268405421434355E-01 
    9.5685900102733967E-01 
    9.5662515139794091E-01 
    9.6242963432906947E-01 
    9.6222179898105686E-01 
    9.5642771533474724E-01 
    9.5632418117769591E-01 
    9.6211257786262572E-01 
    9.7366702379962811E-01 
    9.6185618889142743E-01 
    9.6177850875419924E-01 
    9.7356313536965855E-01 
    9.7335743958055032E-01 
    9.6162450770902685E-01 
    9.6139663733645631E-01 
    9.7305393997776501E-01 
    9.7265804905504771E-01 
    9.6109805430318251E-01 
    9.6073241980703805E-01 
    9.7217592446317580E-01 
    9.7161444874655745E-01 
    9.6030411665316862E-01 
    9.5981805627005634E-01 
    9.7098124523601059E-01 
    9.7028434826145138E-01 
    9.5927947286898929E-01 
    9.5869377981913428E-01 
    9.6953195514933910E-01 
    9.6873218735941957E-01 
    9.5806656620516339E-01 
    9.5740344254090437E-01 
    9.6789289951506030E-01 
    9.6702175663040701E-01 
    9.5671006599004049E-01 
    9.5599201211733431E-01 
    9.6612616854988709E-01 
    9.6521306712614274E-01 
    9.5525467139124232E-01 
    9.5450322650692887E-01 
    9.6428898611520220E-01 
    9.6336005041692507E-01 
    9.5374268760467762E-01 
    9.5297776890878561E-01 
    9.6243191707729503E-01 
    9.6150974866329142E-01 
    9.5221292386793144E-01 
    9.5145239569286200E-01 
    9.6059836380975749E-01 
    9.5970221262238198E-01 
    9.5070018323943539E-01 
    9.4995999610697024E-01 
    9.5882531641254087E-01 
    9.5797143196594536E-01 
    9.4923539365431231E-01 
    9.4852970945013027E-01 
    9.5714406871788305E-01 
    9.5634639431877455E-01 
    9.4784604802912908E-01 
    9.4718736692766392E-01 
    9.5558138621324040E-01 
    9.5485187267381577E-01 
    9.4655650258225899E-01 
    9.4595608394925657E-01 
    9.5416049158547778E-01 
    9.5350967253562258E-01 
    9.4538859371034156E-01 
    9.4485645959461362E-01 
    9.5290179000952779E-01 
    9.5233916229307947E-01 
    9.4436199950035948E-01 
    9.4390741719995774E-01 
    9.5182397398858609E-01 
    9.5135845994718282E-01 
    9.4349493146250474E-01 
    9.4312668714171011E-01 
    9.5094488373998232E-01 
    9.5058567020727980E-01 
    9.4280527232944811E-01 
    9.4253539847451084E-01 
    9.5028507865964196E-01 
    9.5004505885939627E-01 
    9.4231755525547212E-01 
    9.4211706196333023E-01 
    9.4982972257066312E-01 
    9.4964733259881429E-01 
    9.4195034020500790E-01 
    9.4186693382915698E-01 
    9.4955344361270932E-01 
    9.5010095112181925E-01 
    9.3827524849842259E-01 
    9.3822795666062231E-01 
    9.5004117260126586E-01 
    9.4992240682424045E-01 
    9.3813379350785575E-01 
    9.3799356659128585E-01 
    9.4974607172595826E-01 
    9.4951403664202416E-01 
    9.3780849168279523E-01 
    9.3758024473126433E-01 
    9.4922870887329636E-01 
    9.4889306475024282E-01 
    9.3731089859257777E-01 
    9.3700278538318837E-01 
    9.4851041535807634E-01 
    9.4808428855783333E-01 
    9.3665844945710830E-01 
    9.3628072070636104E-01 
    9.4761851335234748E-01 
    9.4711711296656376E-01 
    9.3587261500263341E-01 
    9.3543725337562422E-01 
    9.4658419445571740E-01 
    9.4602402008372655E-01 
    9.3497786963934848E-01 
    9.3449774262418939E-01 
    9.4544083519735245E-01 
    9.4483877555860762E-01 
    9.3400009296604081E-01 
    9.3348815928599638E-01 
    9.4422193968067014E-01 
    9.4359436573350042E-01 
    9.3296516742881530E-01 
    9.3243426338057211E-01 
    9.4295991034685755E-01 
    9.4232225169647488E-01 
    9.3189848937049169E-01 
    9.3136089584455839E-01 
    9.4168503251885083E-01 
    9.4105172791594005E-01 
    9.3082445824804605E-01 
    9.3029200183468874E-01 
    9.4042558778268015E-01 
    9.3980984141480006E-01 
    9.2976635433387034E-01 
    9.2925025635115854E-01 
    9.3920754654052174E-01 
    9.3862155089700328E-01 
    9.2874627243013186E-01 
    9.2825693349172245E-01 
    9.3805463129819544E-01 
    9.3750949385366256E-01 
    9.2778471350458858E-01 
    9.2733195090021514E-01 
    9.3698865117192742E-01 
    9.3649445933725484E-01 
    9.2690085046604975E-01 
    9.2649360604857134E-01 
    9.3602928477672176E-01 
    9.3559536638134544E-01 
    9.2611230085564167E-01 
    9.2575886761927939E-01 
    9.3519480779495145E-01 
    9.3482975059489037E-01 
    9.2543520538111235E-01 
    9.2514316491384851E-01 
    9.3450224193720577E-01 
    9.3421496616369182E-01 
    9.2488547607377514E-01 
    9.2466582694229638E-01 
    9.3397245605820889E-01 
    9.3377275949841521E-01 
    9.2447638847869618E-01 
    9.2428886517773245E-01 
    9.3358293546571902E-01 
    9.3342652104063895E-01 
    9.2414168811446595E-01 
    9.2407379731890182E-01 
    9.3335025239679115E-01 
    9.2629594866584453E-01 
    9.1410684966918276E-01 
    9.1407481529194046E-01 
    9.2625751093677955E-01 
    9.2618087758054835E-01 
    9.1401094176923992E-01 
    9.1391563015391697E-01 
    9.2606656724300385E-01 
    9.2591543804794152E-01 
    9.1378953165836441E-01 
    9.1363352904730100E-01 
    9.2572870216241054E-01 
    9.2550784971315969E-01 
    9.1344874748106908E-01 
    9.1323651730535194E-01 
    9.2525459724069692E-01 
    9.2497086956913532E-01 
    9.1299836027782100E-01 
    9.1273602777331386E-01 
    9.2465886302496936E-01 
    9.2432091581323861E-01 
    9.1245138519682523E-01 
    9.1214631902444521E-01 
    9.2395942664835939E-01 
    9.2357693140982844E-01 
    9.1182284626565746E-01 
    9.1148300996284193E-01 
    9.2317599478261758E-01 
    9.2275913909520468E-01 
    9.1112880917520156E-01 
    9.1076232276698010E-01 
    9.2232895525677305E-01 
    9.2188804978828842E-01 
    9.1038569745028275E-01 
    9.1000104714703078E-01 
    9.2143897938700481E-01 
    9.2098426036296654E-01 
    9.0961046192798090E-01 
    9.0921614386867611E-01 
    9.2052646891392120E-01 
    9.2006814500361567E-01 
    9.0882027810921096E-01 
    9.0842495764953579E-01 
    9.1961171473035719E-01 
    9.1915966204110322E-01 
    9.0803236490960781E-01 
    9.0764465840897557E-01 
    9.1871440998922549E-01 
    9.1827823469369230E-01 
    9.0726386743248966E-01 
    9.0689206262229094E-01 
    9.1785343534971464E-01 
    9.1744228035032460E-01 
    9.0653135591446110E-01 
    9.0618374791895773E-01 
    9.1704690013634171E-01 
    9.1666933290206776E-01 
    9.0585114931270216E-01 
    9.0553558472944717E-01 
    9.1631164380049579E-01 
    9.1597576541672310E-01 
    9.0523901173332999E-01 
    9.0496325030755120E-01 
    9.1566344107798292E-01 
    9.1537640537278164E-01 
    9.0471031703450633E-01 
    9.0448273352315700E-01 
    9.1511641242207453E-01 
    9.1488632913080981E-01 
    9.0428453301546485E-01 
    9.0411835992805101E-01 
    9.1468883350436803E-01 
    9.1450596902607528E-01 
    9.0395192291708626E-01 
    9.0376436112857017E-01 
    9.1431649494976064E-01 
    9.1417821726112736E-01 
    9.0362859240415849E-01 
    9.0357055298639655E-01 
    9.1411887410731518E-01 
    9.0167013493147563E-01 
    8.8896116290238358E-01 
    8.8893748383565674E-01 
    9.0164286308346153E-01 
    9.0158849586654233E-01 
    8.8889027445153168E-01 
    8.8881983084160388E-01 
    9.0150737312884299E-01 
    9.0140000657497843E-01 
    8.8872655451687210E-01 
    8.8861100608341059E-01 
    9.0126706756583175E-01 
    9.0110944737384469E-01 
    8.8847392064849573E-01 
    8.8831620862230876E-01 
    9.0092822196630595E-01 
    9.0072464204371183E-01 
    8.8813890883093938E-01 
    8.8794321107786600E-01 
    9.0050013000311879E-01 
    9.0025620009761509E-01 
    8.8773035732812899E-01 
    8.8750159728796685E-01 
    8.9999438098811380E-01 
    8.9971629124987773E-01 
    8.8725824937182673E-01 
    8.8700165410749543E-01 
    8.9942357039569842E-01 
    8.9911784703252995E-01 
    8.8673315009260656E-01 
    8.8645416872667360E-01 
    8.9880081833657055E-01 
    8.9847426400569896E-01 
    8.8616622862525840E-01 
    8.8587086206249854E-01 
    8.9813997020259939E-01 
    8.9779972535550545E-01 
    8.8556961989693950E-01 
    8.8526415693608629E-01 
    8.9745541557065722E-01 
    8.9710893332805763E-01 
    8.8495613934182549E-01 
    8.8464719298455896E-01 
    8.9676212939631272E-01 
    8.9641691351748265E-01 
    8.8433903036207473E-01 
    8.8403335548546880E-01 
    8.9607520416899011E-01 
    8.9573884713400753E-01 
    8.8373182113443405E-01 
    8.8343612355658918E-01 
    8.9540971066542530E-01 
    8.9508971685264249E-01 
    8.8314799598437665E-01 
    8.8286910244352301E-01 
    8.9478074028236299E-01 
    8.9448459743685871E-01 
    8.8260107393117726E-01 
    8.8234562550248674E-01 
    8.9420321312298134E-01 
    8.9393851923865086E-01 
    8.8210444309603386E-01 
    8.8187922493206861E-01 
    8.9369243768369777E-01 
    8.9346726526865572E-01 
    8.8167213980285586E-01 
    8.8148651226646224E-01 
    8.9326633184012272E-01 
    8.9309467827485955E-01 
    8.8132665221744177E-01 
    8.8119131538723405E-01 
    8.9295455137957103E-01 
    8.9280657147305698E-01 
    8.8104448726368845E-01 
    8.8088407892653908E-01 
    8.9263123947919254E-01 
    8.9250162380162434E-01 
    8.8077088682907911E-01 
    8.8071541300313605E-01 
    8.9244184940676463E-01 
    8.7596556712481699E-01 
    8.6267686482575545E-01 
    8.6265780232026690E-01 
    8.7594457024939454E-01 
    8.7590271006741138E-01 
    8.6261979961541524E-01 
    8.6256307223953488E-01 
    8.7584023613765372E-01 
    8.7575748773624174E-01 
    8.6248792969009924E-01 
    8.6239482933890033E-01 
    8.7565494929983556E-01 
    8.7553327349408627E-01 
    8.6228436585507651E-01 
    8.6215722688721119E-01 
    8.7539324555314513E-01 
    8.7523573937711951E-01 
    8.6201415809160709E-01 
    8.6185601582022764E-01 
    8.7506176183912943E-01 
    8.7487234933162583E-01 
    8.6168366633558502E-01 
    8.6149794766524990E-01 
    8.7466851538962664E-01 
    8.7445136274681023E-01 
    8.6129980637047310E-01 
    8.6109021288096232E-01 
    8.7422201667210597E-01 
    8.7398159641903250E-01 
    8.6087015219391128E-01 
    8.6064073331185265E-01 
    8.7373134087889304E-01 
    8.7347260061801835E-01 
    8.6040318134721927E-01 
    8.6015872655318504E-01 
    8.7320672650467468E-01 
    8.7293507478921495E-01 
    8.5990860622454723E-01 
    8.5965419124039455E-01 
    8.7265914073111495E-01 
    8.7238042536856863E-01 
    8.5939686442889240E-01 
    8.5913795272894966E-01 
    8.7210036463216956E-01 
    8.7182052534102339E-01 
    8.5887890549753698E-01 
    8.5862115353039015E-01 
    8.7154245284354248E-01 
    8.7126761215684789E-01 
    8.5836606317550124E-01 
    8.5811504580897413E-01 
    8.7099754084740277E-01 
    8.7073381995614485E-01 
    8.5786956893872679E-01 
    8.5763102114119438E-01 
    8.7047792341891794E-01 
    8.7023124188109968E-01 
    8.5740069722815615E-01 
    8.5717997176268057E-01 
    8.6999526993204024E-01 
    8.6977142491991022E-01 
    8.5697018801323011E-01 
    8.5677275086858440E-01 
    8.6956108882421557E-01 
    8.6936625300160952E-01 
    8.5658971132952466E-01 
    8.5642385192105719E-01 
    8.6918999744695891E-01 
    8.6903512459313814E-01 
    8.5627567292902340E-01 
    8.5612315965840757E-01 
    8.6889399611689155E-01 
    8.6873538174591791E-01 
    8.5594086096371846E-01 
    8.5578908925273878E-01 
    8.6858207776541863E-01 
    8.6848337644311335E-01 
    8.5570322546611810E-01 
    8.5565994879700313E-01 
    8.6843409385194548E-01 
    8.4909378306816452E-01 
    8.3521953577051256E-01 
    8.3520246545513421E-01 
    8.4907600637104153E-01 
    8.4904056866648714E-01 
    8.3516843551612174E-01 
    8.3511765383664294E-01 
    8.4898767061517644E-01 
    8.4891762869432752E-01 
    8.3505044775632131E-01 
    8.3496724274393208E-01 
    8.4883088138529850E-01 
    8.4872797590462445E-01 
    8.3486856057492553E-01 
    8.3475496196697963E-01 
    8.4860952906169906E-01 
    8.4847620167413151E-01 
    8.3462703810107830E-01 
    8.3448540958807793E-01 
    8.4832871378427877E-01 
    8.4816779664428033E-01 
    8.3433072423954691E-01 
    8.3416366002930753E-01 
    8.4799418862445519E-01 
    8.4780871599033014E-01 
    8.3398498385328457E-01 
    8.3379553427088582E-01 
    8.4761225181500177E-01 
    8.4740572048781138E-01 
    8.3359620120439593E-01 
    8.3338798440597406E-01 
    8.4719015077381787E-01 
    8.4696667476940157E-01 
    8.3317197523398179E-01 
    8.3294930121626354E-01 
    8.4673644988925767E-01 
    8.4650066322414041E-01 
    8.3272111334599042E-01 
    8.3248866183807979E-01 
    8.4626059500489104E-01 
    8.4601755169264947E-01 
    8.3225321326535506E-01 
    8.3201601713122331E-01 
    8.4577281411659355E-01 
    8.4552774772753347E-01 
    8.3177839007008425E-01 
    8.3154165129982849E-01 
    8.4528371071651442E-01 
    8.4504203547383494E-01 
    8.3130707844225382E-01 
    8.3107602838355321E-01 
    8.4480409438770765E-01 
    8.4457131250710193E-01 
    8.3084989451911029E-01 
    8.3063007097267871E-01 
    8.4434510499039650E-01 
    8.4412688585632378E-01 
    8.3041801385441982E-01 
    8.3021543874600889E-01 
    8.4391822636212166E-01 
    8.4372089212216084E-01 
    8.3002442382729946E-01 
    8.2984788069736071E-01 
    8.4353716883469254E-01 
    8.4337046032519913E-01 
    8.2969011700838424E-01 
    8.2955572530147714E-01 
    8.4322491442433078E-01 
    8.4310103634773748E-01 
    8.2944383616702100E-01 
    8.2930429813870332E-01 