# vtk DataFile Version 2.0
Pressure Field Data 
ASCII 
DATASET UNSTRUCTURED_GRID 

POINTS 1681 double 

    0.0000000000000000E+00     0.0000000000000000E+00     0.0000000000000000E+00 
    1.0000000000000000E+00     0.0000000000000000E+00     0.0000000000000000E+00 
    1.0000000000000000E+00     1.0000000000000000E+00     0.0000000000000000E+00 
    0.0000000000000000E+00     1.0000000000000000E+00     0.0000000000000000E+00 
    5.2499999999875258E-01     0.0000000000000000E+00     0.0000000000000000E+00 
    7.4999999999856765E-02     0.0000000000000000E+00     0.0000000000000000E+00 
    1.2499999999975850E-01     0.0000000000000000E+00     0.0000000000000000E+00 
    1.7499999999962990E-01     0.0000000000000000E+00     0.0000000000000000E+00 
    2.2499999999948389E-01     0.0000000000000000E+00     0.0000000000000000E+00 
    2.7499999999933789E-01     0.0000000000000000E+00     0.0000000000000000E+00 
    3.2499999999919210E-01     0.0000000000000000E+00     0.0000000000000000E+00 
    3.7499999999904610E-01     0.0000000000000000E+00     0.0000000000000000E+00 
    4.2499999999890020E-01     0.0000000000000000E+00     0.0000000000000000E+00 
    4.7499999999875958E-01     0.0000000000000000E+00     0.0000000000000000E+00 
    2.4999999999949701E-02     0.0000000000000000E+00     0.0000000000000000E+00 
    5.7499999999887907E-01     0.0000000000000000E+00     0.0000000000000000E+00 
    6.2499999999901101E-01     0.0000000000000000E+00     0.0000000000000000E+00 
    6.7499999999914273E-01     0.0000000000000000E+00     0.0000000000000000E+00 
    7.2499999999927467E-01     0.0000000000000000E+00     0.0000000000000000E+00 
    7.7499999999940661E-01     0.0000000000000000E+00     0.0000000000000000E+00 
    8.2499999999953844E-01     0.0000000000000000E+00     0.0000000000000000E+00 
    8.7499999999967026E-01     0.0000000000000000E+00     0.0000000000000000E+00 
    9.2499999999980220E-01     0.0000000000000000E+00     0.0000000000000000E+00 
    9.7499999999993414E-01     0.0000000000000000E+00     0.0000000000000000E+00 
    5.4999999999881310E-01     0.0000000000000000E+00     0.0000000000000000E+00 
    9.9999999999814140E-02     0.0000000000000000E+00     0.0000000000000000E+00 
    1.4999999999970290E-01     0.0000000000000000E+00     0.0000000000000000E+00 
    1.9999999999955689E-01     0.0000000000000000E+00     0.0000000000000000E+00 
    2.4999999999941089E-01     0.0000000000000000E+00     0.0000000000000000E+00 
    2.9999999999926502E-01     0.0000000000000000E+00     0.0000000000000000E+00 
    3.4999999999911913E-01     0.0000000000000000E+00     0.0000000000000000E+00 
    3.9999999999897312E-01     0.0000000000000000E+00     0.0000000000000000E+00 
    4.4999999999882723E-01     0.0000000000000000E+00     0.0000000000000000E+00 
    4.9999999999869210E-01     0.0000000000000000E+00     0.0000000000000000E+00 
    4.9999999999899403E-02     0.0000000000000000E+00     0.0000000000000000E+00 
    5.9999999999894504E-01     0.0000000000000000E+00     0.0000000000000000E+00 
    6.4999999999907687E-01     0.0000000000000000E+00     0.0000000000000000E+00 
    6.9999999999920870E-01     0.0000000000000000E+00     0.0000000000000000E+00 
    7.4999999999934064E-01     0.0000000000000000E+00     0.0000000000000000E+00 
    7.9999999999947247E-01     0.0000000000000000E+00     0.0000000000000000E+00 
    8.4999999999960441E-01     0.0000000000000000E+00     0.0000000000000000E+00 
    8.9999999999973623E-01     0.0000000000000000E+00     0.0000000000000000E+00 
    9.4999999999986817E-01     0.0000000000000000E+00     0.0000000000000000E+00 
    1.0000000000000000E+00     5.2499999999875258E-01     0.0000000000000000E+00 
    1.0000000000000000E+00     7.4999999999856765E-02     0.0000000000000000E+00 
    1.0000000000000000E+00     1.2499999999975850E-01     0.0000000000000000E+00 
    1.0000000000000000E+00     1.7499999999962990E-01     0.0000000000000000E+00 
    1.0000000000000000E+00     2.2499999999948389E-01     0.0000000000000000E+00 
    1.0000000000000000E+00     2.7499999999933789E-01     0.0000000000000000E+00 
    1.0000000000000000E+00     3.2499999999919210E-01     0.0000000000000000E+00 
    1.0000000000000000E+00     3.7499999999904610E-01     0.0000000000000000E+00 
    1.0000000000000000E+00     4.2499999999890020E-01     0.0000000000000000E+00 
    1.0000000000000000E+00     4.7499999999875958E-01     0.0000000000000000E+00 
    1.0000000000000000E+00     2.4999999999949701E-02     0.0000000000000000E+00 
    1.0000000000000000E+00     5.7499999999887907E-01     0.0000000000000000E+00 
    1.0000000000000000E+00     6.2499999999901101E-01     0.0000000000000000E+00 
    1.0000000000000000E+00     6.7499999999914273E-01     0.0000000000000000E+00 
    1.0000000000000000E+00     7.2499999999927467E-01     0.0000000000000000E+00 
    1.0000000000000000E+00     7.7499999999940661E-01     0.0000000000000000E+00 
    1.0000000000000000E+00     8.2499999999953844E-01     0.0000000000000000E+00 
    1.0000000000000000E+00     8.7499999999967026E-01     0.0000000000000000E+00 
    1.0000000000000000E+00     9.2499999999980220E-01     0.0000000000000000E+00 
    1.0000000000000000E+00     9.7499999999993414E-01     0.0000000000000000E+00 
    1.0000000000000000E+00     5.4999999999881310E-01     0.0000000000000000E+00 
    1.0000000000000000E+00     9.9999999999814140E-02     0.0000000000000000E+00 
    1.0000000000000000E+00     1.4999999999970290E-01     0.0000000000000000E+00 
    1.0000000000000000E+00     1.9999999999955689E-01     0.0000000000000000E+00 
    1.0000000000000000E+00     2.4999999999941089E-01     0.0000000000000000E+00 
    1.0000000000000000E+00     2.9999999999926502E-01     0.0000000000000000E+00 
    1.0000000000000000E+00     3.4999999999911913E-01     0.0000000000000000E+00 
    1.0000000000000000E+00     3.9999999999897312E-01     0.0000000000000000E+00 
    1.0000000000000000E+00     4.4999999999882723E-01     0.0000000000000000E+00 
    1.0000000000000000E+00     4.9999999999869210E-01     0.0000000000000000E+00 
    1.0000000000000000E+00     4.9999999999899403E-02     0.0000000000000000E+00 
    1.0000000000000000E+00     5.9999999999894504E-01     0.0000000000000000E+00 
    1.0000000000000000E+00     6.4999999999907687E-01     0.0000000000000000E+00 
    1.0000000000000000E+00     6.9999999999920870E-01     0.0000000000000000E+00 
    1.0000000000000000E+00     7.4999999999934064E-01     0.0000000000000000E+00 
    1.0000000000000000E+00     7.9999999999947247E-01     0.0000000000000000E+00 
    1.0000000000000000E+00     8.4999999999960441E-01     0.0000000000000000E+00 
    1.0000000000000000E+00     8.9999999999973623E-01     0.0000000000000000E+00 
    1.0000000000000000E+00     9.4999999999986817E-01     0.0000000000000000E+00 
    4.7500000000196618E-01     1.0000000000000000E+00     0.0000000000000000E+00 
    9.2499999999968763E-01     1.0000000000000000E+00     0.0000000000000000E+00 
    8.7499999999961831E-01     1.0000000000000000E+00     0.0000000000000000E+00 
    8.2499999999982654E-01     1.0000000000000000E+00     0.0000000000000000E+00 
    7.7500000000017355E-01     1.0000000000000000E+00     0.0000000000000000E+00 
    7.2500000000052045E-01     1.0000000000000000E+00     0.0000000000000000E+00 
    6.7500000000086724E-01     1.0000000000000000E+00     0.0000000000000000E+00 
    6.2500000000121403E-01     1.0000000000000000E+00     0.0000000000000000E+00 
    5.7500000000156093E-01     1.0000000000000000E+00     0.0000000000000000E+00 
    5.2500000000189684E-01     1.0000000000000000E+00     0.0000000000000000E+00 
    9.7499999999989595E-01     1.0000000000000000E+00     0.0000000000000000E+00 
    4.2500000000176902E-01     1.0000000000000000E+00     0.0000000000000000E+00 
    3.7500000000156092E-01     1.0000000000000000E+00     0.0000000000000000E+00 
    3.2500000000135282E-01     1.0000000000000000E+00     0.0000000000000000E+00 
    2.7500000000114472E-01     1.0000000000000000E+00     0.0000000000000000E+00 
    2.2500000000093659E-01     1.0000000000000000E+00     0.0000000000000000E+00 
    1.7500000000072849E-01     1.0000000000000000E+00     0.0000000000000000E+00 
    1.2500000000052039E-01     1.0000000000000000E+00     0.0000000000000000E+00 
    7.5000000000312261E-02     1.0000000000000000E+00     0.0000000000000000E+00 
    2.5000000000104109E-02     1.0000000000000000E+00     0.0000000000000000E+00 
    4.5000000000187301E-01     1.0000000000000000E+00     0.0000000000000000E+00 
    8.9999999999958358E-01     1.0000000000000000E+00     0.0000000000000000E+00 
    8.4999999999965303E-01     1.0000000000000000E+00     0.0000000000000000E+00 
    8.0000000000000004E-01     1.0000000000000000E+00     0.0000000000000000E+00 
    7.5000000000034706E-01     1.0000000000000000E+00     0.0000000000000000E+00 
    7.0000000000069384E-01     1.0000000000000000E+00     0.0000000000000000E+00 
    6.5000000000104063E-01     1.0000000000000000E+00     0.0000000000000000E+00 
    6.0000000000138742E-01     1.0000000000000000E+00     0.0000000000000000E+00 
    5.5000000000173432E-01     1.0000000000000000E+00     0.0000000000000000E+00 
    5.0000000000205946E-01     1.0000000000000000E+00     0.0000000000000000E+00 
    9.4999999999979179E-01     1.0000000000000000E+00     0.0000000000000000E+00 
    4.0000000000166491E-01     1.0000000000000000E+00     0.0000000000000000E+00 
    3.5000000000145681E-01     1.0000000000000000E+00     0.0000000000000000E+00 
    3.0000000000124871E-01     1.0000000000000000E+00     0.0000000000000000E+00 
    2.5000000000104061E-01     1.0000000000000000E+00     0.0000000000000000E+00 
    2.0000000000083251E-01     1.0000000000000000E+00     0.0000000000000000E+00 
    1.5000000000062441E-01     1.0000000000000000E+00     0.0000000000000000E+00 
    1.0000000000041630E-01     1.0000000000000000E+00     0.0000000000000000E+00 
[...]
CELL_DATA 1600 
SCALARS Pressure double 1 
LOOKUP_TABLE default 

    1.1244213127055445E+00 
    1.0785422877874526E+00 
    1.0761870721426148E+00 
    1.1088749209973341E+00 
    1.0965041860931015E+00 
    1.0726332111562007E+00 
    1.0685352688294156E+00 
    1.0864061694230656E+00 
    1.0779690830064104E+00 
    1.0642592944254057E+00 
    1.0600044182911168E+00 
    1.0707756545326508E+00 
    1.0645349840547216E+00 
    1.0558773698384027E+00 
    1.0519309557839343E+00 
    1.0590402833978396E+00 
    1.0541413125594317E+00 
    1.0481866878095649E+00 
    1.0446486376328010E+00 
    1.0497269879217093E+00 
    1.0457139323155584E+00 
    1.0413118120553619E+00 
    1.0381667072883936E+00 
    1.0420386321426722E+00 
    1.0386520727837172E+00 
    1.0352020818844949E+00 
    1.0324063688771152E+00 
    1.0355159128837104E+00 
    1.0325998172981266E+00 
    1.0297684693288258E+00 
    1.0272781369122215E+00 
    1.0298795526959537E+00 
    1.0273355731073064E+00 
    1.0249261882355634E+00 
    1.0227044716687859E+00 
    1.0249519769942468E+00 
    1.0227157562144591E+00 
    1.0206058520800108E+00 
    1.0186241241616385E+00 
    1.0206162141997626E+00 
    1.0186444865116449E+00 
    1.0167539394083664E+00 
    1.0149906721386941E+00 
    1.0167932216981597E+00 
    1.0150563273087518E+00 
    1.0133303975178072E+00 
    1.0117697765770270E+00 
    1.0134287226783554E+00 
    1.0119062042689615E+00 
    1.0103060015044050E+00 
    1.0089367357971264E+00 
    1.0104853217601828E+00 
    1.0091632491787319E+00 
    1.0076600867158794E+00 
    1.0064745314347652E+00 
    1.0079376942938996E+00 
    1.0068068639395786E+00 
    1.0053788997292392E+00 
    1.0043723452096012E+00 
    1.0057694057211648E+00 
    1.0048243188665329E+00 
    1.0034543182807463E+00 
    1.0026245351858882E+00 
    1.0039709709907549E+00 
    1.0032090855712668E+00 
    1.0018830085946673E+00 
    1.0012300016653579E+00 
    1.0025386674184276E+00 
    1.0019600799172987E+00 
    1.0006660408044119E+00 
    1.0001930436084165E+00 
    1.0014750906684005E+00 
    1.0010867883529888E+00 
    9.9981400875834514E-01 
    9.9950546019926656E-01 
    1.0007735589285671E+00 
    1.0005279894521319E+00 
    9.9926299297052923E-01 
    9.9913640477032140E-01 
    1.0003989970927412E+00 
    1.0553822522433991E+00 
    1.0387638042874421E+00 
    1.0384046450041600E+00 
    1.0546415072895035E+00 
    1.0532793291229234E+00 
    1.0377090943912204E+00 
    1.0367150023379264E+00 
    1.0514423215476185E+00 
    1.0492676240138563E+00 
    1.0354689769496457E+00 
    1.0340198272340950E+00 
    1.0468696859911166E+00 
    1.0443398244540858E+00 
    1.0324138206228879E+00 
    1.0306922502028051E+00 
    1.0417468308053379E+00 
    1.0391408487124589E+00 
    1.0288908944212258E+00 
    1.0270401362360220E+00 
    1.0365576027613170E+00 
    1.0340220374504232E+00 
    1.0251649973132895E+00 
    1.0232856176184284E+00 
    1.0315510006419193E+00 
    1.0291555462146598E+00 
    1.0214180419092453E+00 
    1.0195749084052614E+00 
    1.0268425516278639E+00 
    1.0246160098738910E+00 
    1.0177660710785035E+00 
    1.0159993175068607E+00 
    1.0224779693819290E+00 
    1.0204292262557890E+00 
    1.0142807481041203E+00 
    1.0126151012337508E+00 
    1.0184697169795429E+00 
    1.0165988736946663E+00 
    1.0110060470461073E+00 
    1.0094565373623399E+00 
    1.0148158447092506E+00 
    1.0131196489804233E+00 
    1.0079688639448172E+00 
    1.0065448317335184E+00 
    1.0115092370283907E+00 
    1.0099836369534152E+00 
    1.0051859605178914E+00 
    1.0038935008010244E+00 
    1.0085419472686294E+00 
    1.0071833781620683E+00 
    1.0026684901149234E+00 
    1.0015119131586254E+00 
    1.0059072835188871E+00 
    1.0047131823556879E+00 
    1.0004246850780165E+00 
    9.9940764166305984E-01 
    1.0036007272082192E+00 
    1.0025697358539625E+00 
    9.9846161460796656E-01 
    9.9758751978431692E-01 
    1.0016201986854059E+00 
    1.0007522642489182E+00 
    9.9678624970902208E-01 
    9.9605875827272183E-01 
    9.9996623438318977E-01 
    9.9926261085312973E-01 
    9.9540613345260665E-01 
    9.9482947487790108E-01 
    9.9864205582254206E-01 
    9.9810543918283001E-01 
    9.9433011230325308E-01 
    9.9391109037286685E-01 
    9.9765510580379635E-01 
    9.9729389947151270E-01 
    9.9357507499754150E-01 
    9.9329230249281963E-01 
    9.9699556796326838E-01 
    9.9676036413248914E-01 
    9.9306737652985866E-01 
    9.9295180390602333E-01 
    9.9663858503115754E-01 
    1.0247826003886951E+00 
    1.0120207916290676E+00 
    1.0118748133085254E+00 
    1.0245661749856705E+00 
    1.0241407891206900E+00 
    1.0115863543052226E+00 
    1.0111622740912174E+00 
    1.0235203257183676E+00 
    1.0227240084859639E+00 
    1.0106122933599782E+00 
    1.0099475911069258E+00 
    1.0217738153045444E+00 
    1.0206924396971264E+00 
    1.0091801396019240E+00 
    1.0083226188209977E+00 
    1.0195023788456570E+00 
    1.0182252841400548E+00 
    1.0073880180900943E+00 
    1.0063892463377069E+00 
    1.0168814794007057E+00 
    1.0154892276606315E+00 
    1.0053385597914151E+00 
    1.0042472265927731E+00 
    1.0140644517605402E+00 
    1.0126210984350927E+00 
    1.0031258294292651E+00 
    1.0019841409449644E+00 
    1.0111712379175779E+00 
    1.0097251559308864E+00 
    1.0008309447267609E+00 
    9.9967426168285334E-01 
    1.0082917589262399E+00 
    1.0068787122270217E+00 
    9.9852137412810382E-01 
    9.9737874449074604E-01 
    1.0054924865501313E+00 
    1.0041385289410751E+00 
    9.9625205168683684E-01 
    9.9514648466922540E-01 
    1.0028216080608070E+00 
    1.0015457933959324E+00 
    9.9406669467582620E-01 
    9.9301671872293484E-01 
    1.0003145069475101E+00 
    9.9913082288390553E-01 
    9.9200030255205351E-01 
    9.9102084852760630E-01 
    9.9799742489496013E-01 
    9.9691661478704374E-01 
    9.9008133237142182E-01 
    9.8918453965374176E-01 
    9.9589053758326007E-01 
    9.9492119302936310E-01 
    9.8833310996492063E-01 
    9.8752945074801968E-01 
    9.9401036873619231E-01 
    9.9315971646239787E-01 
    9.8677574845745231E-01 
    9.8607419105210037E-01 
    9.9237092358094570E-01 
    9.9164558911728362E-01 
    9.8542690110984699E-01 
    9.8483586516951349E-01 
    9.9098526277390842E-01 
    9.9039163133472796E-01 
    9.8430320508898139E-01 
    9.8383103829240282E-01 
    9.8986632941193153E-01 
    9.8941121618583916E-01 
    9.8342170144296903E-01 
    9.8307952052579539E-01 
    9.8903004968143859E-01 
    9.8872509083683746E-01 
    9.8280558770004212E-01 
    9.8255997956094254E-01 
    9.8846083325626666E-01 
    9.8824587510626505E-01 
    9.8235700495355283E-01 
    9.8225460579803237E-01 
    9.8813622344321717E-01 
    9.9983713347822523E-01 
    9.8789563000808578E-01 
    9.8781700767636160E-01 
    9.9973208909734834E-01 
    9.9952414207167606E-01 
    9.8766113711242576E-01 
    9.8743047037182596E-01 
    9.9921736775591341E-01 
    9.9881720247651296E-01 
    9.8712815453175229E-01 
    9.8675788134566156E-01 
    9.9832982096725209E-01 
    9.9776217541780865E-01 
    9.8632409744124305E-01 
    9.8583176456830324E-01 
    9.9712197344644404E-01 
    9.9641730188080158E-01 
    9.8528615185412549E-01 
    9.8469271980025386E-01 
    9.9565639573774278E-01 
    9.9484742799611137E-01 
    9.8405712382076571E-01 
    9.8338504684442563E-01 
    9.9399832095955332E-01 
    9.9311682088455278E-01 
    9.8268221790343768E-01 
    9.8195427758912190E-01 
    9.9221041819936651E-01 
    9.9128611382183962E-01 
    9.8120667324157318E-01 
    9.8044464271311305E-01 
    9.9035050609465347E-01 
    9.8940978374792121E-01 
    9.7967325065748723E-01 
    9.7889726207853589E-01 
    9.8846966401399672E-01 
    9.8753536546478415E-01 
    9.7812117815308730E-01 
    9.7734929157970207E-01 
    9.8661176276998686E-01 
    9.8570336128726044E-01 
    9.7658564986956431E-01 
    9.7583400884613891E-01 
    9.8481423281276903E-01 
    9.8394818563875086E-01 
    9.7509797505942397E-01 
    9.7438092624058592E-01 
    9.8310877965648114E-01 
    9.8229922742945774E-01 
    9.7368600490297708E-01 
    9.7301620278022427E-01 
    9.8152254827264251E-01 
    9.8078160940186521E-01 
    9.7237438417648303E-01 
    9.7176319577313941E-01 
    9.8007908088151785E-01 
    9.7941741688749251E-01 
    9.7118512643675670E-01 
    9.7064259935854469E-01 
    9.7879901124784929E-01 
    9.7822619603078254E-01 
    9.7013791044721842E-01 
    9.6967321629083236E-01 
    9.7770115790267487E-01 
    9.7722611576845597E-01 
    9.6925065100240360E-01 
    9.6887227345674198E-01 
    9.7680330499455692E-01 
    9.7643536676963094E-01 
    9.6854088305703023E-01 
    9.6826133451768204E-01 
    9.7612702162017795E-01 
    9.7587728714524513E-01 
    9.6803004490834776E-01 
    9.6781126240636206E-01 
    9.7564655531708988E-01 
    9.7545790219207307E-01 
    9.6763671812322449E-01 
    9.6755353746058648E-01 
    9.7536527098233450E-01 
    9.7599905861150693E-01 
    9.6402171755642818E-01 
    9.6397368133145378E-01 
    9.7593847259524436E-01 
    9.7581807379276220E-01 
    9.6387801235641324E-01 
    9.6373550440686595E-01 
    9.7563925235806503E-01 
    9.7540387559472197E-01 
    9.6354738503134407E-01 
    9.6331535425189929E-01 
    9.7511438702640829E-01 
    9.7477380274802650E-01 
    9.6304150538944977E-01 
    9.6272819844100876E-01 
    9.7438546377050339E-01 
    9.7395293642286440E-01 
    9.6237802330140187E-01 
    9.6199386826995803E-01 
    9.7348010918439987E-01 
    9.7297107255949533E-01 
    9.6157880645681160E-01 
    9.6113600870062554E-01 
    9.7242999553081710E-01 
    9.7186119862790965E-01 
    9.6066875521900308E-01 
    9.6018036774368076E-01 
    9.7126898000325645E-01 
    9.7065752240358161E-01 
    9.5967410507311246E-01 
    9.5915324332928253E-01 
    9.7003097088487766E-01 
    9.6939340970603949E-01 
    9.5862104660027181E-01 
    9.5808069993488343E-01 
    9.6874873880198831E-01 
    9.6810067804722311E-01 
    9.5753528657655551E-01 
    9.5698790366579434E-01 
    9.6745291720000148E-01 
    9.6680897894698281E-01 
    9.5644157615538816E-01 
    9.5589917805492897E-01 
    9.6617215852642568E-01 
    9.6554573321295900E-01 
    9.5536358918777298E-01 
    9.5483760308797361E-01 
    9.6493280615175614E-01 
    9.6433626426655772E-01 
    9.5432383548181110E-01 
    9.5382487157631990E-01 
    9.6375892155235354E-01 
    9.6320351683234984E-01 
    9.5334324294288397E-01 
    9.5288134712229966E-01 
    9.6267258607933015E-01 
    9.6216849619594547E-01 
    9.5244144931544383E-01 
    9.5202580523029146E-01 
    9.6169361163407119E-01 
    9.6125014265089181E-01 
    9.5163655353401078E-01 
    9.5127566174904665E-01 
    9.6084012002179819E-01 
    9.6046554721217159E-01 
    9.5094503947400499E-01 
    9.5064667238598544E-01 
    9.6012834796927227E-01 
    9.5983137727032242E-01 
    9.5038375510654227E-01 
    9.5015897657786830E-01 
    9.5957858160741794E-01 
    9.5936061412340079E-01 
    9.4995205675599603E-01 
    9.4974121493826136E-01 
    9.5914795787307150E-01 
    9.5898501570088357E-01 
    9.4958845500448286E-01 
    9.4952199113748792E-01 
    9.5891044140455217E-01 
    9.5188070506141054E-01 
    9.3952016770137059E-01 
    9.3948746936485794E-01 
    9.5184156049883184E-01 
    9.5176351374308088E-01 
    9.3942228045971521E-01 
    9.3932501995276740E-01 
    9.5164709216065391E-01 
    9.5149316837979170E-01 
    9.3919635065220719E-01 
    9.3903716270561799E-01 
    9.5130296589197139E-01 
    9.5107799029639772E-01 
    9.3884860059916930E-01 
    9.3863202760253572E-01 
    9.5081998978199289E-01 
    9.5053093402069011E-01 
    9.3838900445645113E-01 
    9.3812132270728077E-01 
    9.5021306929041705E-01 
    9.4986877948895276E-01 
    9.3783088351490951E-01 
    9.3751960166900961E-01 
    9.4950050233144534E-01 
    9.4911081032220224E-01 
    9.3718952005173017E-01 
    9.3684270356246235E-01 
    9.4870230070273054E-01 
    9.4827752375118601E-01 
    9.3648117094208394E-01 
    9.3610702599236784E-01 
    9.4783910057425769E-01 
    9.4738967141454944E-01 
    9.3572244789628511E-01 
    9.3532958672363131E-01 
    9.4693183004991466E-01 
    9.4646813376170980E-01 
    9.3493057203032404E-01 
    9.3452765111135749E-01 
    9.4600120642629837E-01 
    9.4553363793902701E-01 
    9.3412305546498753E-01 
    9.3371892273437584E-01 
    9.4506790426970544E-01 
    9.4460654481018691E-01 
    9.3331748474238296E-01 
    9.3292095138652509E-01 
    9.4415204146551601E-01 
    9.4370673152303375E-01 
    9.3253140427808900E-01 
    9.3215097228948141E-01 
    9.4327298653188441E-01 
    9.4285315991240315E-01 
    9.3178183513641666E-01 
    9.3142606909594328E-01 
    9.4244948313719012E-01 
    9.4206412009868434E-01 
    9.3108567454120994E-01 
    9.3076279067755840E-01 
    9.4169930103703026E-01 
    9.4135717528848439E-01 
    9.3045952678254840E-01 
    9.3017792849952285E-01 
    9.4103978558037149E-01 
    9.4074934346936390E-01 
    9.2992044769381288E-01 
    9.2969056164171859E-01 
    9.4048855532031006E-01 
    9.4026182121380120E-01 
    9.2949351837815442E-01 
    9.2933140249154866E-01 
    9.4007192967838560E-01 
    9.3988481775745025E-01 
    9.2916335988739329E-01 
    9.2897332444940295E-01 
    9.3968058740747884E-01 
    9.3953352389766331E-01 
    9.2883522828899734E-01 
    9.2877057259400431E-01 
    9.3946898165395321E-01 
    9.2690275369459718E-01 
    9.1400434062235036E-01 
    9.1398010063977153E-01 
    9.2687487046114436E-01 
    9.2681929303146526E-01 
    9.1393177590226138E-01 
    9.1385967094846099E-01 
    9.2673637552612853E-01 
    9.2662663893821229E-01 
    9.1376419723704416E-01 
    9.1364593346316259E-01 
    9.2649076656797413E-01 
    9.2632967355102480E-01 
    9.1350564081302632E-01 
    9.1334425786281626E-01 
    9.2614446702805031E-01 
    9.2593642990168123E-01 
    9.1316284839800754E-01 
    9.1296262250691407E-01 
    9.2570701523007282E-01 
    9.2545776236108768E-01 
    9.1274483528730521E-01 
    9.1251074353657879E-01 
    9.2519021712796246E-01 
    9.2490601299662001E-01 
    9.1226167190518692E-01 
    9.1199897119749451E-01 
    9.2460680277130491E-01 
    9.2429423101185526E-01 
    9.1172399660637549E-01 
    9.1143820595037506E-01 
    9.2397001896329978E-01 
    9.2363597859997038E-01 
    9.1114315156685899E-01 
    9.1084040215286977E-01 
    9.2329393167390661E-01 
    9.2294570414136967E-01 
    9.1053154583808993E-01 
    9.1021827726412863E-01 
    9.2259322309308667E-01 
    9.2223842145941481E-01 
    9.0990230127848115E-01 
    9.0958528033421460E-01 
    9.2188318691148141E-01 
    9.2152946828100712E-01 
    9.0926896290745574E-01 
    9.0895508605188535E-01 
    9.2117921997804519E-01 
    9.2083431877979527E-01 
    9.0864532790510888E-01 
    9.0834140251238271E-01 
    9.2049665856835905E-01 
    9.2016817953742025E-01 
    9.0804504739740555E-01 
    9.0775790933324629E-01 
    9.1985075786824122E-01 
    9.1954618819918243E-01 
    9.0748156964827908E-01 
    9.0721765146557287E-01 
    9.1925634223042907E-01 
    9.1898305560379168E-01 
    9.0696769665276222E-01 
    9.0673323566748987E-01 
    9.1872811856955439E-01 
    9.1849376874103439E-01 
    9.0651635348163795E-01 
    9.0632027486763334E-01 
    9.1828345804859912E-01 
    9.1810164643041092E-01 
    9.0614779096975429E-01 
    9.0598871716772000E-01 
    9.1794635328603369E-01 
    9.1777985849512156E-01 
    9.0581039932162821E-01 
    9.0564416044006979E-01 
    9.1760534722482689E-01 
    9.1748491314608294E-01 
    9.0553971222412666E-01 
    9.0548745277070952E-01 
    9.1742559636327770E-01 
    9.0081110381929319E-01 
    8.8731711615412479E-01 
    8.8729755479690198E-01 
    9.0078958475890936E-01 
    9.0074668231131239E-01 
    8.8725855527722908E-01 
    8.8720033932817111E-01 
    9.0068265114953083E-01 
    9.0059784308104263E-01 
    8.8712323253014247E-01 
    8.8702771703887462E-01 
    9.0049276530919542E-01 
    9.0036809714974952E-01 
    8.8691441197200060E-01 
    8.8678402166723858E-01 
    9.0022464709589511E-01 
    9.0006330472862794E-01 
    8.8663729734125529E-01 
    8.8647509393710611E-01 
    8.9988508626130570E-01 
    8.9969103024368313E-01 
    8.8629827202376488E-01 
    8.8610766596586366E-01 
    8.9948214878714627E-01 
    8.9925954912649442E-01 
    8.8590422942235092E-01 
    8.8568895007559645E-01 
    8.9902436874212932E-01 
    8.9877774654956910E-01 
    8.8546283733677733E-01 
    8.8522703395236446E-01 
    8.9852095201654725E-01 
    8.9825537292608959E-01 
    8.8498280398406348E-01 
    8.8473141759459351E-01 
    8.9798239831656401E-01 
    8.9770342274626469E-01 
    8.8447415207269231E-01 
    8.8421242392407728E-01 
    8.9741998478411711E-01 
    8.9713362889699078E-01 
    8.8394766268136982E-01 
    8.8368124182117713E-01 
    8.9684583278404539E-01 
    8.9655820900092675E-01 
    8.8341466133825597E-01 
    8.8314940617264126E-01 
    8.9627234815523271E-01 
    8.9598975783812296E-01 
    8.8288690124802405E-01 
    8.8262863226527943E-01 
    8.9571202165684849E-01 
    8.9544076785658988E-01 
    8.8237616407735042E-01 
    8.8213102071873362E-01 
    8.9517751684605784E-01 
    8.9492370517802233E-01 
    8.8189469653813990E-01 
    8.8166888717351111E-01 
    8.9468088185726913E-01 
    8.9445054708308980E-01 
    8.8145549048705207E-01 
    8.8125691304657472E-01 
    8.9423426766446679E-01 
    8.9403439731693901E-01 
    8.8107679886277235E-01 
    8.8091963807028428E-01 
    8.9385410944083166E-01 
    8.9369406441643018E-01 
    8.8078599446223638E-01 
    8.8062913835417456E-01 
    8.9352816997713647E-01 
    8.9332932823267486E-01 
    8.8041707338280895E-01 
    8.8024495521370971E-01 
    8.9316562731167115E-01 
    8.9307318908386790E-01 
    8.8014788278587541E-01 
    8.8009933454596800E-01 
    8.9302655651289264E-01 
    8.7352166448609092E-01 
    8.5942848402879379E-01 
    8.5941091745539266E-01 
    8.7350339730545334E-01 
    8.7346698030921144E-01 
    8.5937589903142486E-01 
    8.5932364803600569E-01 
    8.7341262372941053E-01 
    8.7334066306970470E-01 
    8.5925451279094867E-01 
    8.5916894065488469E-01 
    8.7325156158450923E-01 
    8.7314588620262068E-01 
    8.5906746748437512E-01 
    8.5895065499938650E-01 
    8.7302426253197130E-01 
    8.7288734781793487E-01 
    8.5881908572036814E-01 
    8.5867336989187804E-01 
    8.7273585328022141E-01 
    8.7257050222135402E-01 
    8.5851415208913706E-01 
    8.5834211792428494E-01 
    8.7239203328596659E-01 
    8.7220128551150877E-01 
    8.5815805529666467E-01 
    8.5796283107679261E-01 
    8.7199915505036163E-01 
    8.7178659501610278E-01 
    8.5775736735404051E-01 
    8.5754269949239270E-01 
    8.7156466947258149E-01 
    8.7133454893552509E-01 
    8.5731995770183100E-01 
    8.5709030813502585E-01 
    8.7109743043245258E-01 
    8.7085454049813771E-01 
    8.5685494134074214E-01 
    8.5661514718816079E-01 
    8.7060720228575239E-01 
    8.7035676407686846E-01 
    8.5637222954460834E-01 
    8.5612746600960421E-01 
    8.7010454542334048E-01 
    8.6985194732209636E-01 
    8.5588219436287338E-01 
    8.5563774374924351E-01 
    8.6960036136734542E-01 
    8.6935114993231688E-01 
    8.5539538983185492E-01 
    8.5515647197001921E-01 
    8.6910571929688274E-01 
    8.6886553309895809E-01 
    8.5492234264690037E-01 
    8.5469431780694649E-01 
    8.6863205925438147E-01 
    8.6840679636727092E-01 
    8.5447373769521295E-01 
    8.5426216549158751E-01 
    8.6819148084981490E-01 
    8.6798822391004804E-01 
    8.5406150524018121E-01 
    8.5387441170440670E-01 
    8.6780000043721339E-01 
    8.6763115548040681E-01 
    8.5370431482641218E-01 
    8.5355289887857066E-01 
    8.6748625957134118E-01 
    8.6736330078196566E-01 
    8.5340925720754468E-01 
    8.5323360595589770E-01 