# vtk DataFile Version 2.0
Pressure Field Data 
ASCII 
DATASET UNSTRUCTURED_GRID 

POINTS 289 double 

    0.0000000000000000E+00     0.0000000000000000E+00     0.0000000000000000E+00 
    1.0000000000000000E+00     0.0000000000000000E+00     0.0000000000000000E+00 
    1.0000000000000000E+00     1.0000000000000000E+00     0.0000000000000000E+00 
    0.0000000000000000E+00     1.0000000000000000E+00     0.0000000000000000E+00 
    6.2499999999872928E-02     0.0000000000000000E+00     0.0000000000000000E+00 
    1.2499999999977310E-01     0.0000000000000000E+00     0.0000000000000000E+00 
    1.8749999999959341E-01     0.0000000000000000E+00     0.0000000000000000E+00 
    2.4999999999941089E-01     0.0000000000000000E+00     0.0000000000000000E+00 
    3.1249999999922851E-01     0.0000000000000000E+00     0.0000000000000000E+00 
    3.7499999999904610E-01     0.0000000000000000E+00     0.0000000000000000E+00 
    4.3749999999886358E-01     0.0000000000000000E+00     0.0000000000000000E+00 
    4.9999999999869210E-01     0.0000000000000000E+00     0.0000000000000000E+00 
    5.6249999999884603E-01     0.0000000000000000E+00     0.0000000000000000E+00 
    6.2499999999901090E-01     0.0000000000000000E+00     0.0000000000000000E+00 
    6.8749999999917577E-01     0.0000000000000000E+00     0.0000000000000000E+00 
    7.4999999999934064E-01     0.0000000000000000E+00     0.0000000000000000E+00 
    8.1249999999950551E-01     0.0000000000000000E+00     0.0000000000000000E+00 
    8.7499999999967026E-01     0.0000000000000000E+00     0.0000000000000000E+00 
    9.3749999999983513E-01     0.0000000000000000E+00     0.0000000000000000E+00 
    1.0000000000000000E+00     6.2499999999872928E-02     0.0000000000000000E+00 
    1.0000000000000000E+00     1.2499999999977310E-01     0.0000000000000000E+00 
    1.0000000000000000E+00     1.8749999999959341E-01     0.0000000000000000E+00 
    1.0000000000000000E+00     2.4999999999941089E-01     0.0000000000000000E+00 
    1.0000000000000000E+00     3.1249999999922851E-01     0.0000000000000000E+00 
    1.0000000000000000E+00     3.7499999999904610E-01     0.0000000000000000E+00 
    1.0000000000000000E+00     4.3749999999886358E-01     0.0000000000000000E+00 
    1.0000000000000000E+00     4.9999999999869210E-01     0.0000000000000000E+00 
    1.0000000000000000E+00     5.6249999999884603E-01     0.0000000000000000E+00 
    1.0000000000000000E+00     6.2499999999901090E-01     0.0000000000000000E+00 
    1.0000000000000000E+00     6.8749999999917577E-01     0.0000000000000000E+00 
    1.0000000000000000E+00     7.4999999999934064E-01     0.0000000000000000E+00 
    1.0000000000000000E+00     8.1249999999950551E-01     0.0000000000000000E+00 
    1.0000000000000000E+00     8.7499999999967026E-01     0.0000000000000000E+00 
    1.0000000000000000E+00     9.3749999999983513E-01     0.0000000000000000E+00 
    9.3749999999973976E-01     1.0000000000000000E+00     0.0000000000000000E+00 
    8.7499999999950118E-01     1.0000000000000000E+00     0.0000000000000000E+00 
    8.1249999999991318E-01     1.0000000000000000E+00     0.0000000000000000E+00 
    7.5000000000034706E-01     1.0000000000000000E+00     0.0000000000000000E+00 
    6.8750000000078049E-01     1.0000000000000000E+00     0.0000000000000000E+00 
    6.2500000000121403E-01     1.0000000000000000E+00     0.0000000000000000E+00 
    5.6250000000164757E-01     1.0000000000000000E+00     0.0000000000000000E+00 
    5.0000000000205946E-01     1.0000000000000000E+00     0.0000000000000000E+00 
    4.3750000000182099E-01     1.0000000000000000E+00     0.0000000000000000E+00 
    3.7500000000156092E-01     1.0000000000000000E+00     0.0000000000000000E+00 
    3.1250000000130068E-01     1.0000000000000000E+00     0.0000000000000000E+00 
    2.5000000000104050E-01     1.0000000000000000E+00     0.0000000000000000E+00 
    1.8750000000078040E-01     1.0000000000000000E+00     0.0000000000000000E+00 
    1.2500000000052031E-01     1.0000000000000000E+00     0.0000000000000000E+00 
    6.2500000000260125E-02     1.0000000000000000E+00     0.0000000000000000E+00 
    0.0000000000000000E+00     9.3749999999973976E-01     0.0000000000000000E+00 
    0.0000000000000000E+00     8.7499999999950118E-01     0.0000000000000000E+00 
    0.0000000000000000E+00     8.1249999999991318E-01     0.0000000000000000E+00 
    0.0000000000000000E+00     7.5000000000034706E-01     0.0000000000000000E+00 
    0.0000000000000000E+00     6.8750000000078049E-01     0.0000000000000000E+00 
    0.0000000000000000E+00     6.2500000000121403E-01     0.0000000000000000E+00 
    0.0000000000000000E+00     5.6250000000164757E-01     0.0000000000000000E+00 
    0.0000000000000000E+00     5.0000000000205946E-01     0.0000000000000000E+00 
    0.0000000000000000E+00     4.3750000000182099E-01     0.0000000000000000E+00 
    0.0000000000000000E+00     3.7500000000156092E-01     0.0000000000000000E+00 
    0.0000000000000000E+00     3.1250000000130068E-01     0.0000000000000000E+00 
    0.0000000000000000E+00     2.5000000000104050E-01     0.0000000000000000E+00 
    0.0000000000000000E+00     1.8750000000078040E-01     0.0000000000000000E+00 
    0.0000000000000000E+00     1.2500000000052031E-01     0.0000000000000000E+00 
    0.0000000000000000E+00     6.2500000000260125E-02     0.0000000000000000E+00 
    6.2499999999897131E-02     6.2500000000235922E-02     0.0000000000000000E+00 
    6.2499999999921327E-02     1.2500000000047351E-01     0.0000000000000000E+00 
    6.2499999999945530E-02     1.8750000000070621E-01     0.0000000000000000E+00 
    6.2499999999969733E-02     2.5000000000093858E-01     0.0000000000000000E+00 
    6.2499999999993928E-02     3.1250000000117117E-01     0.0000000000000000E+00 
    6.2500000000018124E-02     3.7500000000140382E-01     0.0000000000000000E+00 
    6.2500000000042327E-02     4.3750000000163619E-01     0.0000000000000000E+00 
    6.2500000000066530E-02     5.0000000000184897E-01     0.0000000000000000E+00 
    6.2500000000090733E-02     5.6250000000147260E-01     0.0000000000000000E+00 
    6.2500000000114922E-02     6.2500000000107636E-01     0.0000000000000000E+00 
    6.2500000000139125E-02     6.8750000000068034E-01     0.0000000000000000E+00 
    6.2500000000163328E-02     7.5000000000028411E-01     0.0000000000000000E+00 
    6.2500000000187531E-02     8.1249999999988787E-01     0.0000000000000000E+00 
    6.2500000000211720E-02     8.7499999999951172E-01     0.0000000000000000E+00 
    6.2500000000235922E-02     9.3749999999974565E-01     0.0000000000000000E+00 
    1.2499999999981980E-01     6.2500000000211733E-02     0.0000000000000000E+00 
    1.2499999999986650E-01     1.2500000000042691E-01     0.0000000000000000E+00 
    1.2499999999991319E-01     1.8750000000063199E-01     0.0000000000000000E+00 
    1.2499999999995989E-01     2.5000000000083678E-01     0.0000000000000000E+00 
    1.2500000000000661E-01     3.1250000000104172E-01     0.0000000000000000E+00 
    1.2500000000005329E-01     3.7500000000124661E-01     0.0000000000000000E+00 
    1.2500000000010000E-01     4.3750000000145117E-01     0.0000000000000000E+00 
    1.2500000000014669E-01     5.0000000000163858E-01     0.0000000000000000E+00 
    1.2500000000019340E-01     5.6250000000129741E-01     0.0000000000000000E+00 
    1.2500000000024011E-01     6.2500000000093847E-01     0.0000000000000000E+00 
    1.2500000000028680E-01     6.8750000000057998E-01     0.0000000000000000E+00 
    1.2500000000033351E-01     7.5000000000022127E-01     0.0000000000000000E+00 
    1.2500000000038020E-01     8.1249999999986211E-01     0.0000000000000000E+00 
    1.2500000000042691E-01     8.7499999999952238E-01     0.0000000000000000E+00 
    1.2500000000047359E-01     9.3749999999975164E-01     0.0000000000000000E+00 
    1.8749999999966760E-01     6.2500000000187531E-02     0.0000000000000000E+00 
    1.8749999999974179E-01     1.2500000000038020E-01     0.0000000000000000E+00 
    1.8749999999981601E-01     1.8750000000055780E-01     0.0000000000000000E+00 
    1.8749999999989009E-01     2.5000000000073502E-01     0.0000000000000000E+00 
    1.8749999999996431E-01     3.1250000000091221E-01     0.0000000000000000E+00 
    1.8750000000003850E-01     3.7500000000108941E-01     0.0000000000000000E+00 
    1.8750000000011269E-01     4.3750000000126649E-01     0.0000000000000000E+00 
    1.8750000000018691E-01     5.0000000000142808E-01     0.0000000000000000E+00 
    1.8750000000026110E-01     5.6250000000112244E-01     0.0000000000000000E+00 
    1.8750000000033529E-01     6.2500000000080080E-01     0.0000000000000000E+00 
    1.8750000000040951E-01     6.8750000000047962E-01     0.0000000000000000E+00 
    1.8750000000048361E-01     7.5000000000015843E-01     0.0000000000000000E+00 
    1.8750000000055780E-01     8.1249999999983680E-01     0.0000000000000000E+00 
    1.8750000000063199E-01     8.7499999999953304E-01     0.0000000000000000E+00 
    1.8750000000070621E-01     9.3749999999975764E-01     0.0000000000000000E+00 
    2.4999999999951281E-01     6.2500000000163314E-02     0.0000000000000000E+00 
    2.4999999999961461E-01     1.2500000000033351E-01     0.0000000000000000E+00 
    2.4999999999971650E-01     1.8750000000048361E-01     0.0000000000000000E+00 
    2.4999999999981831E-01     2.5000000000063310E-01     0.0000000000000000E+00 
    2.4999999999992020E-01     3.1250000000078260E-01     0.0000000000000000E+00 
    2.5000000000002198E-01     3.7500000000093209E-01     0.0000000000000000E+00 
    2.5000000000012390E-01     4.3750000000108180E-01     0.0000000000000000E+00 
    2.5000000000022571E-01     5.0000000000121769E-01     0.0000000000000000E+00 
    2.5000000000032763E-01     5.6250000000094724E-01     0.0000000000000000E+00 
    2.5000000000042938E-01     6.2500000000066314E-01     0.0000000000000000E+00 
    2.5000000000053119E-01     6.8750000000037925E-01     0.0000000000000000E+00 
[...]
CELL_DATA 256 
SCALARS Pressure double 1 
LOOKUP_TABLE default 

    2.4951100179349521E+00 
    2.3871290059336547E+00 
    2.3125267338120312E+00 
    2.2500149925808537E+00 
    2.1937289948214498E+00 
    2.1413988814409186E+00 
    2.0914425280797175E+00 
    2.0435054300565687E+00 
    1.9974653376668337E+00 
    1.9520236475547259E+00 
    1.9048727253590516E+00 
    1.8621020057024609E+00 
    1.8288639749812399E+00 
    1.8038941599432969E+00 
    1.7872194893849962E+00 
    1.7788770901710884E+00 
    2.3871461467312423E+00 
    2.3401068976003221E+00 
    2.2865882428545090E+00 
    2.2328281354083805E+00 
    2.1811306348022250E+00 
    2.1311646498536829E+00 
    2.0825520197163603E+00 
    2.0354587280797487E+00 
    1.9899947052611120E+00 
    1.9440532321975339E+00 
    1.8962851431539001E+00 
    1.8538444431849350E+00 
    1.8206080875700421E+00 
    1.7956107131288550E+00 
    1.7789000941882811E+00 
    1.7705376354872453E+00 
    2.3125735931885911E+00 
    2.2866163299167890E+00 
    2.2478931159251956E+00 
    2.2040136656858995E+00 
    2.1583138077723061E+00 
    2.1118353686569744E+00 
    2.0654099010951841E+00 
    2.0196571246585395E+00 
    1.9750720431871382E+00 
    1.9281747811029448E+00 
    1.8792672295030770E+00 
    1.8373718996989250E+00 
    1.8041409506588304E+00 
    1.7790696309968881E+00 
    1.7622666590958060E+00 
    1.7538470827058947E+00 
    2.2500947758807825E+00 
    2.2328838994672013E+00 
    2.2040401030632086E+00 
    2.1681210061255167E+00 
    2.1278244722356434E+00 
    2.0850026769928620E+00 
    2.0409658396022405E+00 
    1.9966345043740197E+00 
    1.9526440653695389E+00 
    1.9042298616803557E+00 
    1.8540815359865073E+00 
    1.8128006042067519E+00 
    1.7795395857842069E+00 
    1.7542892893499955E+00 
    1.7372878911823679E+00 
    1.7287460317075602E+00 
    2.1938289347398530E+00 
    2.1812036813749001E+00 
    2.1583623798405531E+00 
    2.1278493109362020E+00 
    2.0918990060704963E+00 
    2.0522926929201031E+00 
    2.0103761826894337E+00 
    1.9672033632765213E+00 
    1.9226437847137343E+00 
    1.8719772120066880E+00 
    1.8212804039099002E+00 
    1.7804269227387313E+00 
    1.7469501856743930E+00 
    1.7212907148010925E+00 
    1.7038933727918810E+00 
    1.6951145684579876E+00 
    2.1415078713912616E+00 
    2.1312571911637983E+00 
    2.1119083178475702E+00 
    2.0850529490664882E+00 
    2.0523185342447974E+00 
    2.0151337891224421E+00 
    1.9747830271933406E+00 
    1.9321768874110283E+00 
    1.8852790147514000E+00 
    1.8318879436358750E+00 
    1.7817689251112863E+00 
    1.7407250426882026E+00 
    1.7065625317885624E+00 
    1.6800586007280021E+00 
    1.6619242133273018E+00 
    1.6527189433786413E+00 
    2.0915732139408942E+00 
    2.0826688999045628E+00 
    2.0655068296209218E+00 
    2.0410381883529793E+00 
    2.0104216902892160E+00 
    1.9748034789573066E+00 
    1.9351725273302014E+00 
    1.8911938599579492E+00 
    1.8399665576216904E+00 
    1.7851608265085126E+00 
    1.7362659337052135E+00 
    1.6941566040091351E+00 
    1.6585309745776136E+00 
    1.6304767022570230E+00 
    1.6110508133655774E+00 
    1.6011109700945492E+00 
    2.0436542457692650E+00 
    2.0355932614678247E+00 
    2.0197721239090347E+00 
    1.9967255066765390E+00 
    1.9672685945859949E+00 
    1.9322175846657943E+00 
    1.8912128966847037E+00 
    1.8426997867536128E+00 
    1.7878328463239788E+00 
    1.7340425855301627E+00 
    1.6852750441142603E+00 
    1.6411425912030997E+00 
    1.6029630216286723E+00 
    1.5723017232855603E+00 
    1.5507289046217851E+00 
    1.5395679697664522E+00 
    1.9976281848047417E+00 
    1.9901444272770756E+00 
    1.9752036749966704E+00 
    1.9527513037387594E+00 
    1.9227238122475079E+00 
    1.8853346820524757E+00 
    1.8400041272494307E+00 
    1.7878526611178587E+00 
    1.7336664854900401E+00 
    1.6806004112144317E+00 
    1.6297422355094777E+00 
    1.5821898525217355E+00 
    1.5398871358929795E+00 
    1.5050502383266038E+00 
    1.4800158355177200E+00 
    1.4668672030519081E+00 
    1.9521962935731574E+00 
    1.9442141133999544E+00 
    1.9283184485667924E+00 
    1.9043511146621044E+00 
    1.8720743570079519E+00 
    1.8319654706456903E+00 
    1.7852244935349533E+00 
    1.7340879283356767E+00 
    1.6806248102133337E+00 
    1.6257636535058246E+00 
    1.5709246125607181E+00 
    1.5179868389222688E+00 
    1.4693414363969091E+00 
    1.4279955542094740E+00 
    1.3974265180242484E+00 
    1.3810226890414776E+00 
    1.9050632098657965E+00 
    1.8964651927630938E+00 
    1.8794318375688783E+00 
    1.8542273129483922E+00 
    1.8214071019553850E+00 
    1.7818785877773775E+00 
    1.7363578773376125E+00 
    1.6853466909515413E+00 
    1.6297920439190285E+00 
    1.5709506128690862E+00 
    1.5102074273576125E+00 
    1.4494717829753931E+00 
    1.3914800069949069E+00 
    1.3401477175301217E+00 
    1.3006533407086807E+00 
    1.2787618018940179E+00 
    1.8623143550830747E+00 
    1.8540482742010083E+00 
    1.8375623413254631E+00 
    1.8129736958950233E+00 
    1.7805811508470257E+00 
    1.7408604346165424E+00 
    1.6942721313413300E+00 
    1.6412381217427343E+00 
    1.5822634300275211E+00 
    1.5180364042035235E+00 
    1.4494953997871545E+00 
    1.3782425400410554E+00 
    1.3069990489046428E+00 
    1.2405042058627251E+00 
    1.1863197986388163E+00 
    1.1546321189009010E+00 
    1.8290913839871386E+00 
    1.8208280162517159E+00 
    1.8043490528261164E+00 
    1.7797322695730320E+00 
    1.7471253244340881E+00 
    1.7067189115915966E+00 
    1.6586674025435284E+00 
    1.6030793740204154E+00 
    1.5399814651880630E+00 
    1.4694118501498243E+00 
    1.3915246889660193E+00 
    1.3070202074353623E+00 
    1.2177888022288967E+00 
    1.1285666217864243E+00 
    1.0495132913737348E+00 
    9.9882628857178390E-01 
    1.8041314132224708E+00 
    1.7958414543115844E+00 
    1.7792898112189988E+00 
    1.7544955217101994E+00 
    1.7214807060426431E+00 
    1.6802306586995270E+00 
    1.6306290752256793E+00 
    1.5724337973580060E+00 
    1.5051602784832425E+00 
    1.4280820180281861E+00 
    1.3402089323004649E+00 
    1.2405421918736890E+00 
    1.1285836695585991E+00 
    1.0064698769409210E+00 
    8.8435938868109398E-01 
    7.9234187413162205E-01 
    1.7874599805477487E+00 
    1.7791349571140067E+00 
    1.7624920681731706E+00 
    1.7375005875686222E+00 
    1.7040909413584122E+00 
    1.6621047273247245E+00 
    1.6112118850589912E+00 
    1.5508694565636256E+00 
    1.4801344820732860E+00 
    1.3975222245034362E+00 
    1.3007245775793868E+00 
    1.1863683992415657E+00 
    1.0495415429654269E+00 
    8.8437101460143774E-01 
    6.8911111391846169E-01 
    4.9383060695784931E-01 
    1.7791128417769355E+00 
    1.7707686562301548E+00 
    1.7540695789221001E+00 
    1.7289566768592590E+00 
    1.6953107128799667E+00 
    1.6528985481402465E+00 
    1.6012714361134657E+00 
    1.5397079667909155E+00 
    1.4669855695165832E+00 
    1.3811187097551556E+00 
    1.2788345149014759E+00 
    1.1546832602364370E+00 
    9.9885823711585342E-01 
    7.9235827002520642E-01 
    4.9383611632400781E-01 
    0.0000000000000000E+00 

SCALARS Saturarion double 1 
LOOKUP_TABLE default 

    9.9999999999819422E-01 
    9.4383379293945657E-01 
    8.5444824340610059E-01 
    7.7292835915299896E-01 
    7.0268076449815786E-01 
    6.3995583143729107E-01 
    5.8577009955769477E-01 
    5.3344701702952702E-01 
    4.8655472180078363E-01 
    4.2898037187668714E-01 
    6.9344075450378712E-02 
    1.0000050067891185E-06 
    1.0000000000027306E-06 
    9.9999999999999995E-07 
    9.9999999999999995E-07 
    9.9999999999999995E-07 
    9.4383131912967855E-01 
    9.0395436045118760E-01 
    8.3068781030885319E-01 
    7.5739012579470633E-01 
    6.9178668586115710E-01 
    6.3299345463714096E-01 
    5.8053312160910853E-01 
    5.2970722224136335E-01 
    4.8367934165771909E-01 
    4.1583473641001284E-01 
    4.9815766414104214E-02 
    5.0078587439582737E-06 
    1.0000030169814430E-06 
    1.0000000000000016E-06 
    9.9999999999999995E-07 
    9.9999999999999995E-07 
    8.5443864139125147E-01 
    8.3068075731795166E-01 
    7.7798093981619942E-01 
    7.2399723887785461E-01 
    6.6840918937093907E-01 
    6.1679934428125349E-01 
    5.6737963755193743E-01 
    5.2072305917740758E-01 
    4.7719886904476161E-01 
    3.8319079453977783E-01 
    2.4371946119105366E-02 
    7.2128246419021626E-06 
    1.0000039965490068E-06 
    9.9999999999999911E-07 
    9.9999999999999995E-07 
    9.9999999999999995E-07 
    7.7290802410022885E-01 
    7.5737190938078092E-01 
    7.2398655956542157E-01 
    6.7976421285483679E-01 
    6.3744006934463138E-01 
    5.9380780550960532E-01 
    5.4965744219924151E-01 
    5.0840672426250211E-01 
    4.6676298589672138E-01 
    3.1898451797225402E-01 
    6.2687842580933621E-03 
    1.6654674648866869E-06 
    1.0000001115221431E-06 
    1.0000000000000006E-06 
    9.9999999999999995E-07 
    9.9999999999999995E-07 
    7.0265690754187604E-01 
    6.9176721740709324E-01 
    6.6838926488011940E-01 
    6.3743361303350787E-01 
    5.9965504330620700E-01 
    5.6435386710869795E-01 
    5.2871483295711519E-01 
    4.9251480943707848E-01 
    4.5096130056247347E-01 
    2.2768005906578667E-01 
    3.6154700145476598E-04 
    1.0301434041820718E-06 
    1.0000000008609452E-06 
    1.0000000000000002E-06 
    9.9999999999999995E-07 
    9.9999999999999995E-07 
    6.3995662532319098E-01 
    6.3298430815950801E-01 
    6.1678348678669970E-01 
    5.9379483777868025E-01 
    5.6435302335117632E-01 
    5.3283298920269073E-01 
    5.0359348394684755E-01 
    4.7212108275103265E-01 
    4.1179795188041068E-01 
    1.0204261370972656E-01 
    2.1800319254578168E-04 
    1.0074316093824831E-06 
    9.9999999999999974E-07 
    9.9999999999999995E-07 
    9.9999999999999995E-07 
    9.9999999999999995E-07 
    5.8577362708874103E-01 
    5.8052363664080564E-01 
    5.6736277526945966E-01 
    5.4963717200575612E-01 
    5.2869996301066280E-01 
    5.0359047946506685E-01 
    4.7743587413567490E-01 
    4.4292639690244640E-01 
    2.8631265822269186E-01 
    8.9518201368237148E-03 
    3.4992855188296394E-06 
    1.0000006828069322E-06 
    1.0000000000000010E-06 
    9.9999999999999995E-07 
    9.9999999999999995E-07 
    9.9999999999999995E-07 
    5.3343623442709376E-01 
    5.2968853617955325E-01 
    5.2069522033492865E-01 
    5.0837924542772561E-01 
    4.9248945835133950E-01 
    4.7209656969163238E-01 
    4.4290515143392378E-01 
    3.5056366662379351E-01 
    6.2972692886157949E-02 
    2.0782001988261289E-04 
    1.0040988481551674E-06 
    1.0000000000002418E-06 
    9.9999999999999995E-07 
    9.9999999999999995E-07 
    9.9999999999999995E-07 
    9.9999999999999995E-07 
    4.8652368216889652E-01 
    4.8364022301858078E-01 
    4.7714848598204057E-01 
    4.6670471520096052E-01 
    4.5089251249673096E-01 
    4.1169545809457669E-01 
    2.8610147668757574E-01 
    6.2902033585320677E-02 
    5.8168429202945201E-04 
    1.0367268618384875E-06 
    1.0000000015541252E-06 
    9.9999999999999995E-07 
    9.9999999999999995E-07 
    9.9999999999999995E-07 
    9.9999999999999995E-07 
    9.9999999999999995E-07 
    4.2895318280343542E-01 
    4.1577202839673433E-01 
    3.8303370760091249E-01 
    3.1865219755328755E-01 
    2.2728770523003508E-01 
    1.0174372804337752E-01 
    8.8989170658315842E-03 
    2.0718452301019794E-04 
    1.0366861155114924E-06 
    1.0000000113859585E-06 
    1.0000000000000006E-06 
    9.9999999999999995E-07 
    9.9999999999999995E-07 
    9.9999999999999995E-07 
    9.9999999999999995E-07 
    9.9999999999999995E-07 
    6.9294107728331014E-02 
    4.9631659646895754E-02 
    2.4177633982640747E-02 
    6.1899405281607518E-03 
    3.5755788880988191E-04 
    2.1715832389794331E-04 
    3.4601564317435865E-06 
    1.0040702019318291E-06 
    1.0000000015435284E-06 
    1.0000000000000008E-06 
    9.9999999999999995E-07 
    9.9999999999999995E-07 
    9.9999999999999995E-07 
    9.9999999999999995E-07 
    9.9999999999999995E-07 
    9.9999999999999995E-07 
    1.0000050479353473E-06 
    5.0238984379541221E-06 
    7.1567360513748087E-06 
    1.6514225419676105E-06 
    1.0299874475569851E-06 
    1.0073473465954628E-06 
    1.0000007029585156E-06 
    1.0000000000002807E-06 
    1.0000000000000002E-06 
    9.9999999999999995E-07 
    9.9999999999999995E-07 
    9.9999999999999995E-07 
    9.9999999999999995E-07 
    9.9999999999999995E-07 
    9.9999999999999995E-07 
    9.9999999999999995E-07 
    1.0000000000027501E-06 
    1.0000030254653085E-06 
    1.0000039192227619E-06 
    1.0000001086443190E-06 
    1.0000000008404532E-06 
    1.0000000000000004E-06 
    1.0000000000000021E-06 
    9.9999999999999995E-07 
    9.9999999999999995E-07 
    9.9999999999999995E-07 
    9.9999999999999995E-07 
    9.9999999999999995E-07 
    9.9999999999999995E-07 
    9.9999999999999995E-07 
    9.9999999999999995E-07 
    9.9999999999999995E-07 
    9.9999999999999995E-07 
    1.0000000000000010E-06 
    9.9999999999999995E-07 
    1.0000000000000006E-06 
    9.9999999999999995E-07 
    9.9999999999999995E-07 
    9.9999999999999995E-07 
    9.9999999999999995E-07 
    9.9999999999999995E-07 
    9.9999999999999995E-07 
    9.9999999999999995E-07 
    9.9999999999999995E-07 
    9.9999999999999995E-07 
    9.9999999999999995E-07 
    9.9999999999999995E-07 
    9.9999999999999995E-07 
    9.9999999999999995E-07 
    9.9999999999999995E-07 
    9.9999999999999995E-07 
    9.9999999999999995E-07 
    9.9999999999999995E-07 
    9.9999999999999995E-07 
    9.9999999999999995E-07 
    9.9999999999999995E-07 
    9.9999999999999995E-07 
    9.9999999999999995E-07 
    9.9999999999999995E-07 
    9.9999999999999995E-07 
    9.9999999999999995E-07 
    9.9999999999999995E-07 
    9.9999999999999995E-07 
    9.9999999999999995E-07 
    9.9999999999999995E-07 
    9.9999999999999995E-07 
    9.9999999999999995E-07 
    9.9999999999999995E-07 
    9.9999999999999995E-07 
    9.9999999999999995E-07 
    9.9999999999999995E-07 
    9.9999999999999995E-07 
    9.9999999999999995E-07 
    9.9999999999999995E-07 
    9.9999999999999995E-07 
    9.9999999999999995E-07 
    9.9999999999999995E-07 
    9.9999999999999995E-07 
    9.9999999999999995E-07 
    1.0000000603028238E-06 
