# vtk DataFile Version 2.0
Pressure Field Data 
ASCII 
DATASET UNSTRUCTURED_GRID 

POINTS 289 double 

    0.0000000000000000E+00     0.0000000000000000E+00     0.0000000000000000E+00 
    1.0000000000000000E+00     0.0000000000000000E+00     0.0000000000000000E+00 
    1.0000000000000000E+00     1.0000000000000000E+00     0.0000000000000000E+00 
    0.0000000000000000E+00     1.0000000000000000E+00     0.0000000000000000E+00 
    6.2499999999872928E-02     0.0000000000000000E+00     0.0000000000000000E+00 
    1.2499999999977310E-01     0.0000000000000000E+00     0.0000000000000000E+00 
    1.8749999999959341E-01     0.0000000000000000E+00     0.0000000000000000E+00 
    2.4999999999941089E-01     0.0000000000000000E+00     0.0000000000000000E+00 
    3.1249999999922851E-01     0.0000000000000000E+00     0.0000000000000000E+00 
    3.7499999999904610E-01     0.0000000000000000E+00     0.0000000000000000E+00 
    4.3749999999886358E-01     0.0000000000000000E+00     0.0000000000000000E+00 
    4.9999999999869210E-01     0.0000000000000000E+00     0.0000000000000000E+00 
    5.6249999999884603E-01     0.0000000000000000E+00     0.0000000000000000E+00 
    6.2499999999901090E-01     0.0000000000000000E+00     0.0000000000000000E+00 
    6.8749999999917577E-01     0.0000000000000000E+00     0.0000000000000000E+00 
    7.4999999999934064E-01     0.0000000000000000E+00     0.0000000000000000E+00 
    8.1249999999950551E-01     0.0000000000000000E+00     0.0000000000000000E+00 
    8.7499999999967026E-01     0.0000000000000000E+00     0.0000000000000000E+00 
    9.3749999999983513E-01     0.0000000000000000E+00     0.0000000000000000E+00 
    1.0000000000000000E+00     6.2499999999872928E-02     0.0000000000000000E+00 
    1.0000000000000000E+00     1.2499999999977310E-01     0.0000000000000000E+00 
    1.0000000000000000E+00     1.8749999999959341E-01     0.0000000000000000E+00 
    1.0000000000000000E+00     2.4999999999941089E-01     0.0000000000000000E+00 
    1.0000000000000000E+00     3.1249999999922851E-01     0.0000000000000000E+00 
    1.0000000000000000E+00     3.7499999999904610E-01     0.0000000000000000E+00 
    1.0000000000000000E+00     4.3749999999886358E-01     0.0000000000000000E+00 
    1.0000000000000000E+00     4.9999999999869210E-01     0.0000000000000000E+00 
    1.0000000000000000E+00     5.6249999999884603E-01     0.0000000000000000E+00 
    1.0000000000000000E+00     6.2499999999901090E-01     0.0000000000000000E+00 
    1.0000000000000000E+00     6.8749999999917577E-01     0.0000000000000000E+00 
    1.0000000000000000E+00     7.4999999999934064E-01     0.0000000000000000E+00 
    1.0000000000000000E+00     8.1249999999950551E-01     0.0000000000000000E+00 
    1.0000000000000000E+00     8.7499999999967026E-01     0.0000000000000000E+00 
    1.0000000000000000E+00     9.3749999999983513E-01     0.0000000000000000E+00 
    9.3749999999973976E-01     1.0000000000000000E+00     0.0000000000000000E+00 
    8.7499999999950118E-01     1.0000000000000000E+00     0.0000000000000000E+00 
    8.1249999999991318E-01     1.0000000000000000E+00     0.0000000000000000E+00 
    7.5000000000034706E-01     1.0000000000000000E+00     0.0000000000000000E+00 
    6.8750000000078049E-01     1.0000000000000000E+00     0.0000000000000000E+00 
    6.2500000000121403E-01     1.0000000000000000E+00     0.0000000000000000E+00 
    5.6250000000164757E-01     1.0000000000000000E+00     0.0000000000000000E+00 
    5.0000000000205946E-01     1.0000000000000000E+00     0.0000000000000000E+00 
    4.3750000000182099E-01     1.0000000000000000E+00     0.0000000000000000E+00 
    3.7500000000156092E-01     1.0000000000000000E+00     0.0000000000000000E+00 
    3.1250000000130068E-01     1.0000000000000000E+00     0.0000000000000000E+00 
    2.5000000000104050E-01     1.0000000000000000E+00     0.0000000000000000E+00 
    1.8750000000078040E-01     1.0000000000000000E+00     0.0000000000000000E+00 
    1.2500000000052031E-01     1.0000000000000000E+00     0.0000000000000000E+00 
    6.2500000000260125E-02     1.0000000000000000E+00     0.0000000000000000E+00 
    0.0000000000000000E+00     9.3749999999973976E-01     0.0000000000000000E+00 
    0.0000000000000000E+00     8.7499999999950118E-01     0.0000000000000000E+00 
    0.0000000000000000E+00     8.1249999999991318E-01     0.0000000000000000E+00 
    0.0000000000000000E+00     7.5000000000034706E-01     0.0000000000000000E+00 
    0.0000000000000000E+00     6.8750000000078049E-01     0.0000000000000000E+00 
    0.0000000000000000E+00     6.2500000000121403E-01     0.0000000000000000E+00 
    0.0000000000000000E+00     5.6250000000164757E-01     0.0000000000000000E+00 
    0.0000000000000000E+00     5.0000000000205946E-01     0.0000000000000000E+00 
    0.0000000000000000E+00     4.3750000000182099E-01     0.0000000000000000E+00 
    0.0000000000000000E+00     3.7500000000156092E-01     0.0000000000000000E+00 
    0.0000000000000000E+00     3.1250000000130068E-01     0.0000000000000000E+00 
    0.0000000000000000E+00     2.5000000000104050E-01     0.0000000000000000E+00 
    0.0000000000000000E+00     1.8750000000078040E-01     0.0000000000000000E+00 
    0.0000000000000000E+00     1.2500000000052031E-01     0.0000000000000000E+00 
    0.0000000000000000E+00     6.2500000000260125E-02     0.0000000000000000E+00 
    6.2499999999897131E-02     6.2500000000235922E-02     0.0000000000000000E+00 
    6.2499999999921327E-02     1.2500000000047351E-01     0.0000000000000000E+00 
    6.2499999999945530E-02     1.8750000000070621E-01     0.0000000000000000E+00 
    6.2499999999969733E-02     2.5000000000093858E-01     0.0000000000000000E+00 
    6.2499999999993928E-02     3.1250000000117117E-01     0.0000000000000000E+00 
    6.2500000000018124E-02     3.7500000000140382E-01     0.0000000000000000E+00 
    6.2500000000042327E-02     4.3750000000163619E-01     0.0000000000000000E+00 
    6.2500000000066530E-02     5.0000000000184897E-01     0.0000000000000000E+00 
    6.2500000000090733E-02     5.6250000000147260E-01     0.0000000000000000E+00 
    6.2500000000114922E-02     6.2500000000107636E-01     0.0000000000000000E+00 
    6.2500000000139125E-02     6.8750000000068034E-01     0.0000000000000000E+00 
    6.2500000000163328E-02     7.5000000000028411E-01     0.0000000000000000E+00 
    6.2500000000187531E-02     8.1249999999988787E-01     0.0000000000000000E+00 
    6.2500000000211720E-02     8.7499999999951172E-01     0.0000000000000000E+00 
    6.2500000000235922E-02     9.3749999999974565E-01     0.0000000000000000E+00 
    1.2499999999981980E-01     6.2500000000211733E-02     0.0000000000000000E+00 
    1.2499999999986650E-01     1.2500000000042691E-01     0.0000000000000000E+00 
    1.2499999999991319E-01     1.8750000000063199E-01     0.0000000000000000E+00 
    1.2499999999995989E-01     2.5000000000083678E-01     0.0000000000000000E+00 
    1.2500000000000661E-01     3.1250000000104172E-01     0.0000000000000000E+00 
    1.2500000000005329E-01     3.7500000000124661E-01     0.0000000000000000E+00 
    1.2500000000010000E-01     4.3750000000145117E-01     0.0000000000000000E+00 
    1.2500000000014669E-01     5.0000000000163858E-01     0.0000000000000000E+00 
    1.2500000000019340E-01     5.6250000000129741E-01     0.0000000000000000E+00 
    1.2500000000024011E-01     6.2500000000093847E-01     0.0000000000000000E+00 
    1.2500000000028680E-01     6.8750000000057998E-01     0.0000000000000000E+00 
    1.2500000000033351E-01     7.5000000000022127E-01     0.0000000000000000E+00 
    1.2500000000038020E-01     8.1249999999986211E-01     0.0000000000000000E+00 
    1.2500000000042691E-01     8.7499999999952238E-01     0.0000000000000000E+00 
    1.2500000000047359E-01     9.3749999999975164E-01     0.0000000000000000E+00 
    1.8749999999966760E-01     6.2500000000187531E-02     0.0000000000000000E+00 
    1.8749999999974179E-01     1.2500000000038020E-01     0.0000000000000000E+00 
    1.8749999999981601E-01     1.8750000000055780E-01     0.0000000000000000E+00 
    1.8749999999989009E-01     2.5000000000073502E-01     0.0000000000000000E+00 
    1.8749999999996431E-01     3.1250000000091221E-01     0.0000000000000000E+00 
    1.8750000000003850E-01     3.7500000000108941E-01     0.0000000000000000E+00 
    1.8750000000011269E-01     4.3750000000126649E-01     0.0000000000000000E+00 
    1.8750000000018691E-01     5.0000000000142808E-01     0.0000000000000000E+00 
    1.8750000000026110E-01     5.6250000000112244E-01     0.0000000000000000E+00 
    1.8750000000033529E-01     6.2500000000080080E-01     0.0000000000000000E+00 
    1.8750000000040951E-01     6.8750000000047962E-01     0.0000000000000000E+00 
    1.8750000000048361E-01     7.5000000000015843E-01     0.0000000000000000E+00 
    1.8750000000055780E-01     8.1249999999983680E-01     0.0000000000000000E+00 
    1.8750000000063199E-01     8.7499999999953304E-01     0.0000000000000000E+00 
    1.8750000000070621E-01     9.3749999999975764E-01     0.0000000000000000E+00 
    2.4999999999951281E-01     6.2500000000163314E-02     0.0000000000000000E+00 
    2.4999999999961461E-01     1.2500000000033351E-01     0.0000000000000000E+00 
    2.4999999999971650E-01     1.8750000000048361E-01     0.0000000000000000E+00 
    2.4999999999981831E-01     2.5000000000063310E-01     0.0000000000000000E+00 
    2.4999999999992020E-01     3.1250000000078260E-01     0.0000000000000000E+00 
    2.5000000000002198E-01     3.7500000000093209E-01     0.0000000000000000E+00 
    2.5000000000012390E-01     4.3750000000108180E-01     0.0000000000000000E+00 
    2.5000000000022571E-01     5.0000000000121769E-01     0.0000000000000000E+00 
    2.5000000000032763E-01     5.6250000000094724E-01     0.0000000000000000E+00 
    2.5000000000042938E-01     6.2500000000066314E-01     0.0000000000000000E+00 
    2.5000000000053119E-01     6.8750000000037925E-01     0.0000000000000000E+00 
[...]
CELL_DATA 256 
SCALARS Pressure double 1 
LOOKUP_TABLE default 

    2.2762818985329343E+00 
    2.1726224906370866E+00 
    2.1059138000856614E+00 
    2.0539939009019137E+00 
    2.0092871851082656E+00 
    1.9697457477874927E+00 
    1.9336209370465591E+00 
    1.9000494619448218E+00 
    1.8691023380800365E+00 
    1.8407934832750459E+00 
    1.8152451823486655E+00 
    1.7928101514445300E+00 
    1.7737134927149427E+00 
    1.7561064440095755E+00 
    1.7425563301535634E+00 
    1.7361163679653568E+00 
    2.1726466229929713E+00 
    2.1298037324141239E+00 
    2.0840152700972308E+00 
    2.0400389430477222E+00 
    1.9993248917115460E+00 
    1.9619691317708055E+00 
    1.9268713903717407E+00 
    1.8939094740013946E+00 
    1.8632923781975463E+00 
    1.8350697300119136E+00 
    1.8094884338033044E+00 
    1.7869481999183037E+00 
    1.7676947845085984E+00 
    1.7499062532576937E+00 
    1.7361968140577959E+00 
    1.7296792643086878E+00 
    2.1059789101238553E+00 
    2.0840559017756295E+00 
    2.0521074850917960E+00 
    2.0168400355493983E+00 
    1.9816755880472305E+00 
    1.9473711156913522E+00 
    1.9139751834252334E+00 
    1.8820584130544946E+00 
    1.8519016330498059E+00 
    1.8237796719694950E+00 
    1.7980821237004954E+00 
    1.7752689284839449E+00 
    1.7556731089826902E+00 
    1.7374921246371235E+00 
    1.7234355334295268E+00 
    1.7167411127732253E+00 
    2.0541164371945499E+00 
    2.0401327961008731E+00 
    2.0168901279715641E+00 
    1.9888965432270005E+00 
    1.9586692643246228E+00 
    1.9273407989472060E+00 
    1.8958520431584491E+00 
    1.8650268846593465E+00 
    1.8353013791006985E+00 
    1.8071650379088606E+00 
    1.7811221160689155E+00 
    1.7577910391001492E+00 
    1.7376239537389262E+00 
    1.7187813584763389E+00 
    1.7041239472382190E+00 
    1.6971212718070754E+00 
    2.0094638851229840E+00 
    1.9994655245777864E+00 
    1.9817721515170299E+00 
    1.9587177315997721E+00 
    1.9320941921825532E+00 
    1.9032795407899352E+00 
    1.8734902390569868E+00 
    1.8435412561647520E+00 
    1.8139938254923231E+00 
    1.7855037007987788E+00 
    1.7587594596692029E+00 
    1.7345617822235477E+00 
    1.7134829181191638E+00 
    1.6935907031170363E+00 
    1.6779891384453534E+00 
    1.6705150324163431E+00 
    1.9699519245691097E+00 
    1.9621470561722352E+00 
    1.9475104946268909E+00 
    1.9274356084819939E+00 
    1.9033281745014881E+00 
    1.8764550127827904E+00 
    1.8478822131448218E+00 
    1.8183180324331563E+00 
    1.7884597921917154E+00 
    1.7591379697953540E+00 
    1.7312177007092595E+00 
    1.7056409210358601E+00 
    1.6831195623134383E+00 
    1.6616128840608237E+00 
    1.6446095632140993E+00 
    1.6364557744012058E+00 
    1.9338618355444765E+00 
    1.9270896395556683E+00 
    1.9141573717670493E+00 
    1.8959893728911927E+00 
    1.8735791746645014E+00 
    1.8479239667539644E+00 
    1.8198378945819560E+00 
    1.7899888710553442E+00 
    1.7592240648178976E+00 
    1.7284684966812274E+00 
    1.6987072347485963E+00 
    1.6709817236786804E+00 
    1.6462658523094624E+00 
    1.6223930325213527E+00 
    1.6033704716623984E+00 
    1.5942335209395604E+00 
    1.9003269013726090E+00 
    1.8941646466505979E+00 
    1.8822778276568024E+00 
    1.8652035599711043E+00 
    1.8436726264958025E+00 
    1.8184037139003455E+00 
    1.7900311083649714E+00 
    1.7592547969348753E+00 
    1.7269346319089711E+00 
    1.6939920065223302E+00 
    1.6614402838805236E+00 
    1.6305158342453683E+00 
    1.6025430846203688E+00 
    1.5752725636010487E+00 
    1.5534189668683271E+00 
    1.5428798668041770E+00 
    1.8694122197080698E+00 
    1.8635812231300175E+00 
    1.8521580767862555E+00 
    1.8355187512046944E+00 
    1.8141672821826149E+00 
    1.7885866630111342E+00 
    1.7593089141437039E+00 
    1.7269767135743519E+00 
    1.6923364614744307E+00 
    1.6562211968622309E+00 
    1.6197110639002013E+00 
    1.5842417963719828E+00 
    1.5515044765023305E+00 
    1.5193906264921957E+00 
    1.4935817490267942E+00 
    1.4809884335422618E+00 
    1.8411354094197563E+00 
    1.8353931515224657E+00 
    1.8240753836542696E+00 
    1.8074243989387986E+00 
    1.7857193418314117E+00 
    1.7593055921158260E+00 
    1.7285942439403132E+00 
    1.6940751723542591E+00 
    1.6562639190248369E+00 
    1.6158912059313990E+00 
    1.5740817256461845E+00 
    1.5324052796879917E+00 
    1.4928205186648447E+00 
    1.4539799583784598E+00 
    1.4224732860887948E+00 
    1.4064958266701619E+00 
    1.8156202654789892E+00 
    1.8098482787853916E+00 
    1.7984171992344091E+00 
    1.7814235927973276E+00 
    1.7590173324131115E+00 
    1.7314242700257836E+00 
    1.6988646384642394E+00 
    1.6615580727004591E+00 
    1.6197949147233488E+00 
    1.5741275652875650E+00 
    1.5255515646202855E+00 
    1.4756357987123683E+00 
    1.4265788858318418E+00 
    1.3786649545765950E+00 
    1.3382103009064346E+00 
    1.3158513429936562E+00 
    1.7932111077829542E+00 
    1.7873356012567279E+00 
    1.7756347659594489E+00 
    1.7581288570449303E+00 
    1.7348558556381699E+00 
    1.7058728605694313E+00 
    1.6711558526343522E+00 
    1.6306598462287483E+00 
    1.5843691390845240E+00 
    1.5325009333425066E+00 
    1.4756779815903072E+00 
    1.4151822675136851E+00 
    1.3531751797990021E+00 
    1.2917765006939390E+00 
    1.2356769082081680E+00 
    1.2015237489301480E+00 
    1.7741300117879530E+00 
    1.7680994391713962E+00 
    1.7560588136003190E+00 
    1.7379832490601319E+00 
    1.7137921197543640E+00 
    1.6833590090960697E+00 
    1.6464575005363116E+00 
    1.6027303982717751E+00 
    1.5516937258482275E+00 
    1.4929728801793316E+00 
    1.4266427272876887E+00 
    1.3531828924800835E+00 
    1.2736676557663853E+00 
    1.1907101442444863E+00 
    1.1072718870806220E+00 
    1.0514578126676257E+00 
    1.7565363059744239E+00 
    1.7503249336324906E+00 
    1.7378911981520546E+00 
    1.7191493279484800E+00 
    1.6939063905890719E+00 
    1.6618713378257801E+00 
    1.6226258000928886E+00 
    1.5755112403659490E+00 
    1.5196220866042762E+00 
    1.4541603733618433E+00 
    1.3787071192795515E+00 
    1.2917637129159838E+00 
    1.1907453934179340E+00 
    1.0756218311147296E+00 
    9.4719198570908558E-01 
    8.4640635223004013E-01 
    1.7429934781631671E+00 
    1.7366230162877070E+00 
    1.7238415017004918E+00 
    1.7044991336941366E+00 
    1.6783229355183877E+00 
    1.6449029857327049E+00 
    1.6036378542929697E+00 
    1.5536692825566274E+00 
    1.4938024735225606E+00 
    1.4226384156906093E+00 
    1.3382258643659495E+00 
    1.2356555534730367E+00 
    1.1073380299193456E+00 
    9.4718274103162403E-01 
    7.4468524226848820E-01 
    5.3278583252531619E-01 
    1.7365446113682239E+00 
    1.7300972781146269E+00 
    1.7171396663447220E+00 
    1.6974915128066126E+00 
    1.6708504732350276E+00 
    1.6367564474218688E+00 
    1.5945038554975219E+00 
    1.5431218394920989E+00 
    1.4811932475545895E+00 
    1.4066437926863031E+00 
    1.3158837545240996E+00 
    1.2015190384274861E+00 
    1.0514967714908856E+00 
    8.4639172947390007E-01 
    5.3278782060686569E-01 
    0.0000000000000000E+00 

SCALARS Saturarion double 1 
LOOKUP_TABLE default 

    1.0000000000000104E+00 
    9.7170467146558348E-01 
    9.1780798893539772E-01 
    8.6072246579279565E-01 
    8.0539372023969735E-01 
    7.5256184781131463E-01 
    7.0463917552587074E-01 
    6.5896431686054002E-01 
    6.1679849670902220E-01 
    5.7495892503990309E-01 
    5.3273798764165159E-01 
    4.9049331990814238E-01 
    4.3916669560066102E-01 
    1.0618042597499314E-01 
    1.0000000809983450E-06 
    1.0000000000000311E-06 
    9.7170231442039690E-01 
    9.4887219496160113E-01 
    9.0142388059253498E-01 
    8.4849140626458686E-01 
    7.9639104872451971E-01 
    7.4655649590895856E-01 
    7.0038197333359165E-01 
    6.5606453464439962E-01 
    6.1498106676370567E-01 
    5.7398227886347175E-01 
    5.3233138153788018E-01 
    4.9045747458985800E-01 
    4.3940991695937093E-01 
    1.0439947344227832E-01 
    1.3290776690941567E-06 
    1.0000000620584461E-06 
    9.1779610659996602E-01 
    9.0141516015753720E-01 
    8.6360389871022603E-01 
    8.2149898490763618E-01 
    7.7633805182446392E-01 
    7.3212945609719005E-01 
    6.8937633755867067E-01 
    6.4837265938122612E-01 
    6.0976710094631670E-01 
    5.7040719672025741E-01 
    5.3021158760769960E-01 
    4.8941795829343115E-01 
    4.3849282875028051E-01 
    1.0301058471034992E-01 
    1.1643115956731090E-06 
    1.0000000787783219E-06 
    8.6069176031713013E-01 
    8.4846620611649248E-01 
    8.2148511299174054E-01 
    7.8553626417153188E-01 
    7.4998872110692449E-01 
    7.1244730154287939E-01 
    6.7442644447727906E-01 
    6.3771316375814124E-01 
    6.0196657829098221E-01 
    5.6504849897617215E-01 
    5.2692009985129951E-01 
    4.8768179169967141E-01 
    4.3727440243204374E-01 
    1.0104455885044381E-01 
    1.4251761861759672E-06 
    1.0000001040608311E-06 
    8.0535540103122416E-01 
    7.9636405414996148E-01 
    7.7631358602527334E-01 
    7.4997880814383622E-01 
    7.1893197293837996E-01 
    6.8867746578658118E-01 
    6.5727686245874495E-01 
    6.2517051437587789E-01 
    5.9236936498787229E-01 
    5.5863263775660055E-01 
    5.2349976533855513E-01 
    4.8646577406541569E-01 
    4.3738875492849655E-01 
    1.1455389955911982E-01 
    5.0253211059890590E-06 
    1.0000038031957149E-06 
    7.5257264493521481E-01 
    7.4654952645744344E-01 
    7.3211192811465131E-01 
    7.1242850559825688E-01 
    6.8867000708888726E-01 
    6.6276344882615057E-01 
    6.3671041723685573E-01 
    6.0973020361529040E-01 
    5.8138269045889945E-01 
    5.5130865669772466E-01 
    5.1978437630561691E-01 
    4.8568338141907186E-01 
    4.3880722908264252E-01 
    1.2733516963096428E-01 
    1.4747834125287639E-06 
    1.0000001649423194E-06 
    7.0465716606430095E-01 
    7.0037722930751101E-01 
    6.8935824749204100E-01 
    6.7440032487167245E-01 
    6.5725382312800962E-01 
    6.3670243871680576E-01 
    6.1413169864414108E-01 
    5.9181065321104998E-01 
    5.6851024824381124E-01 
    5.4294707315887092E-01 
    5.1484900382398535E-01 
    4.8337450403779259E-01 
    4.3897196534301042E-01 
    1.4329287381754266E-01 
    2.6520717589437635E-06 
    1.0000012808212136E-06 
    6.5895893237302650E-01 
    6.5604534287936955E-01 
    6.4834135344402077E-01 
    6.3767468852612252E-01 
    6.2513329595422706E-01 
    6.0970605127093791E-01 
    5.9180273662853677E-01 
    5.7276097708289642E-01 
    5.5396095481039909E-01 
    5.3335733567255239E-01 
    5.0934495748239617E-01 
    4.8141406022832667E-01 
    4.4032811192364324E-01 
    1.6554637216055820E-01 
    5.8411218607882268E-06 
    1.0000067170832128E-06 
    6.1677963052404561E-01 
    6.1494841321105076E-01 
    6.0971928158596389E-01 
    6.0191259799055619E-01 
    5.9231325353579245E-01 
    5.8133387780494405E-01 
    5.6848240629786462E-01 
    5.5395427960861021E-01 
    5.3819715329812756E-01 
    5.2209822519852944E-01 
    5.0303820533357246E-01 
    4.7951257841239758E-01 
    4.4404418846688914E-01 
    2.0601124529989112E-01 
    1.3920649421869140E-04 
    1.0014960809416775E-06 
    5.7498570193490117E-01 
    5.7396059746448436E-01 
    5.7035369579105399E-01 
    5.6497964701581838E-01 
    5.5855663296444136E-01 
    5.5123531749273547E-01 
    5.4289263661014331E-01 
    5.3332802986736394E-01 
    5.2209211013545409E-01 
    5.0913822553292609E-01 
    4.9553205102899289E-01 
    4.7729672069130330E-01 
    4.4884780772207800E-01 
    2.6731287243721452E-01 
    8.5886234648554637E-04 
    1.0177844304109921E-06 
    5.3277324416707195E-01 
    5.3231846102471592E-01 
    5.3015835555603852E-01 
    5.2683498646024496E-01 
    5.2339873985655105E-01 
    5.1969249574112375E-01 
    5.1477982824312152E-01 
    5.0929565735981452E-01 
    5.0300586544607084E-01 
    4.9552407750537536E-01 
    4.8625445832825687E-01 
    4.7407096588179148E-01 
    4.5274089652472799E-01 
    3.3715547827597281E-01 
    1.0397701233018667E-02 
    3.6589809423192791E-06 
    4.9050609740404327E-01 
    4.9044167323022175E-01 
    4.8935880764297579E-01 
    4.8756629123577155E-01 
    4.8623348414036560E-01 
    4.8541930214387596E-01 
    4.8326150637680720E-01 
    4.8146748523869531E-01 
    4.7957783855462011E-01 
    4.7733861475733841E-01 
    4.7409323765831746E-01 
    4.6798932375307856E-01 
    4.5391626970273419E-01 
    3.8527569072948231E-01 
    8.7181994691505477E-02 
    1.0476167349630757E-04 
    4.3913438126475529E-01 
    4.3937195911317056E-01 
    4.3842048720280014E-01 
    4.3707491583700986E-01 
    4.3616001964471163E-01 
    4.3807162772313468E-01 
    4.3918744782770597E-01 
    4.4137011580882968E-01 
    4.4445159527090722E-01 
    4.4875517593684361E-01 
    4.5251807887400142E-01 
    4.5394594640790592E-01 
    4.5123513871239002E-01 
    4.1349395092045166E-01 
    1.7054355947450217E-01 
    2.4943179016377582E-04 
    1.0582672747079980E-01 
    1.0411741324911813E-01 
    1.0269067480914675E-01 
    1.0186758749145219E-01 
    1.1611523895362889E-01 
    1.2744057143852763E-01 
    1.4037973074484031E-01 
    1.6178036442384164E-01 
    2.0403851577289522E-01 
    2.6607643617662330E-01 
    3.3543780074428226E-01 
    3.8681516538443356E-01 
    4.1330980455764127E-01 
    4.1927554348782153E-01 
    2.8588585764494701E-01 
    1.7873168218756511E-02 
    1.0000000811832201E-06 
    1.3260461639691422E-06 
    1.1781783223401597E-06 
    1.0021559004137504E-06 
    3.1952390362307276E-06 
    1.4051160759270851E-06 
    1.9833375791557878E-06 
    6.3556435983457205E-06 
    1.0217670445214537E-04 
    1.1037498462948335E-03 
    1.2729989750929732E-02 
    8.2834469686324796E-02 
    1.6840599798250525E-01 
    2.8461684951567157E-01 
    3.1325944306240178E-01 
    1.0006034036514547E-01 
    1.0000000000000302E-06 
    1.0000000610744157E-06 
    1.0000000850729115E-06 
    1.0000000011779157E-06 
    1.0000014321033705E-06 
    1.0000001235647337E-06 
    1.0000006387833466E-06 
    1.0000104915325082E-06 
    1.0008923296789268E-06 
    1.0313945628651670E-06 
    4.8701421045538719E-06 
    9.7738748567764475E-05 
    2.4603065203186573E-04 
    1.7252505427681409E-02 
    9.9682695283095771E-02 
    4.6670349721678890E-02 
