# vtk DataFile Version 2.0
Pressure Field Data 
ASCII 
DATASET UNSTRUCTURED_GRID 

POINTS 289 double 

    0.0000000000000000E+00     0.0000000000000000E+00     0.0000000000000000E+00 
    1.0000000000000000E+00     0.0000000000000000E+00     0.0000000000000000E+00 
    1.0000000000000000E+00     1.0000000000000000E+00     0.0000000000000000E+00 
    0.0000000000000000E+00     1.0000000000000000E+00     0.0000000000000000E+00 
    6.2499999999872928E-02     0.0000000000000000E+00     0.0000000000000000E+00 
    1.2499999999977310E-01     0.0000000000000000E+00     0.0000000000000000E+00 
    1.8749999999959341E-01     0.0000000000000000E+00     0.0000000000000000E+00 
    2.4999999999941089E-01     0.0000000000000000E+00     0.0000000000000000E+00 
    3.1249999999922851E-01     0.0000000000000000E+00     0.0000000000000000E+00 
    3.7499999999904610E-01     0.0000000000000000E+00     0.0000000000000000E+00 
    4.3749999999886358E-01     0.0000000000000000E+00     0.0000000000000000E+00 
    4.9999999999869210E-01     0.0000000000000000E+00     0.0000000000000000E+00 
    5.6249999999884603E-01     0.0000000000000000E+00     0.0000000000000000E+00 
    6.2499999999901090E-01     0.0000000000000000E+00     0.0000000000000000E+00 
    6.8749999999917577E-01     0.0000000000000000E+00     0.0000000000000000E+00 
    7.4999999999934064E-01     0.0000000000000000E+00     0.0000000000000000E+00 
    8.1249999999950551E-01     0.0000000000000000E+00     0.0000000000000000E+00 
    8.7499999999967026E-01     0.0000000000000000E+00     0.0000000000000000E+00 
    9.3749999999983513E-01     0.0000000000000000E+00     0.0000000000000000E+00 
    1.0000000000000000E+00     6.2499999999872928E-02     0.0000000000000000E+00 
    1.0000000000000000E+00     1.2499999999977310E-01     0.0000000000000000E+00 
    1.0000000000000000E+00     1.8749999999959341E-01     0.0000000000000000E+00 
    1.0000000000000000E+00     2.4999999999941089E-01     0.0000000000000000E+00 
    1.0000000000000000E+00     3.1249999999922851E-01     0.0000000000000000E+00 
    1.0000000000000000E+00     3.7499999999904610E-01     0.0000000000000000E+00 
    1.0000000000000000E+00     4.3749999999886358E-01     0.0000000000000000E+00 
    1.0000000000000000E+00     4.9999999999869210E-01     0.0000000000000000E+00 
    1.0000000000000000E+00     5.6249999999884603E-01     0.0000000000000000E+00 
    1.0000000000000000E+00     6.2499999999901090E-01     0.0000000000000000E+00 
    1.0000000000000000E+00     6.8749999999917577E-01     0.0000000000000000E+00 
    1.0000000000000000E+00     7.4999999999934064E-01     0.0000000000000000E+00 
    1.0000000000000000E+00     8.1249999999950551E-01     0.0000000000000000E+00 
    1.0000000000000000E+00     8.7499999999967026E-01     0.0000000000000000E+00 
    1.0000000000000000E+00     9.3749999999983513E-01     0.0000000000000000E+00 
    9.3749999999973976E-01     1.0000000000000000E+00     0.0000000000000000E+00 
    8.7499999999950118E-01     1.0000000000000000E+00     0.0000000000000000E+00 
    8.1249999999991318E-01     1.0000000000000000E+00     0.0000000000000000E+00 
    7.5000000000034706E-01     1.0000000000000000E+00     0.0000000000000000E+00 
    6.8750000000078049E-01     1.0000000000000000E+00     0.0000000000000000E+00 
    6.2500000000121403E-01     1.0000000000000000E+00     0.0000000000000000E+00 
    5.6250000000164757E-01     1.0000000000000000E+00     0.0000000000000000E+00 
    5.0000000000205946E-01     1.0000000000000000E+00     0.0000000000000000E+00 
    4.3750000000182099E-01     1.0000000000000000E+00     0.0000000000000000E+00 
    3.7500000000156092E-01     1.0000000000000000E+00     0.0000000000000000E+00 
    3.1250000000130068E-01     1.0000000000000000E+00     0.0000000000000000E+00 
    2.5000000000104050E-01     1.0000000000000000E+00     0.0000000000000000E+00 
    1.8750000000078040E-01     1.0000000000000000E+00     0.0000000000000000E+00 
    1.2500000000052031E-01     1.0000000000000000E+00     0.0000000000000000E+00 
    6.2500000000260125E-02     1.0000000000000000E+00     0.0000000000000000E+00 
    0.0000000000000000E+00     9.3749999999973976E-01     0.0000000000000000E+00 
    0.0000000000000000E+00     8.7499999999950118E-01     0.0000000000000000E+00 
    0.0000000000000000E+00     8.1249999999991318E-01     0.0000000000000000E+00 
    0.0000000000000000E+00     7.5000000000034706E-01     0.0000000000000000E+00 
    0.0000000000000000E+00     6.8750000000078049E-01     0.0000000000000000E+00 
    0.0000000000000000E+00     6.2500000000121403E-01     0.0000000000000000E+00 
    0.0000000000000000E+00     5.6250000000164757E-01     0.0000000000000000E+00 
    0.0000000000000000E+00     5.0000000000205946E-01     0.0000000000000000E+00 
    0.0000000000000000E+00     4.3750000000182099E-01     0.0000000000000000E+00 
    0.0000000000000000E+00     3.7500000000156092E-01     0.0000000000000000E+00 
    0.0000000000000000E+00     3.1250000000130068E-01     0.0000000000000000E+00 
    0.0000000000000000E+00     2.5000000000104050E-01     0.0000000000000000E+00 
    0.0000000000000000E+00     1.8750000000078040E-01     0.0000000000000000E+00 
    0.0000000000000000E+00     1.2500000000052031E-01     0.0000000000000000E+00 
    0.0000000000000000E+00     6.2500000000260125E-02     0.0000000000000000E+00 
    6.2499999999897131E-02     6.2500000000235922E-02     0.0000000000000000E+00 
    6.2499999999921327E-02     1.2500000000047351E-01     0.0000000000000000E+00 
    6.2499999999945530E-02     1.8750000000070621E-01     0.0000000000000000E+00 
    6.2499999999969733E-02     2.5000000000093858E-01     0.0000000000000000E+00 
    6.2499999999993928E-02     3.1250000000117117E-01     0.0000000000000000E+00 
    6.2500000000018124E-02     3.7500000000140382E-01     0.0000000000000000E+00 
    6.2500000000042327E-02     4.3750000000163619E-01     0.0000000000000000E+00 
    6.2500000000066530E-02     5.0000000000184897E-01     0.0000000000000000E+00 
    6.2500000000090733E-02     5.6250000000147260E-01     0.0000000000000000E+00 
    6.2500000000114922E-02     6.2500000000107636E-01     0.0000000000000000E+00 
    6.2500000000139125E-02     6.8750000000068034E-01     0.0000000000000000E+00 
    6.2500000000163328E-02     7.5000000000028411E-01     0.0000000000000000E+00 
    6.2500000000187531E-02     8.1249999999988787E-01     0.0000000000000000E+00 
    6.2500000000211720E-02     8.7499999999951172E-01     0.0000000000000000E+00 
    6.2500000000235922E-02     9.3749999999974565E-01     0.0000000000000000E+00 
    1.2499999999981980E-01     6.2500000000211733E-02     0.0000000000000000E+00 
    1.2499999999986650E-01     1.2500000000042691E-01     0.0000000000000000E+00 
    1.2499999999991319E-01     1.8750000000063199E-01     0.0000000000000000E+00 
    1.2499999999995989E-01     2.5000000000083678E-01     0.0000000000000000E+00 
    1.2500000000000661E-01     3.1250000000104172E-01     0.0000000000000000E+00 
    1.2500000000005329E-01     3.7500000000124661E-01     0.0000000000000000E+00 
    1.2500000000010000E-01     4.3750000000145117E-01     0.0000000000000000E+00 
    1.2500000000014669E-01     5.0000000000163858E-01     0.0000000000000000E+00 
    1.2500000000019340E-01     5.6250000000129741E-01     0.0000000000000000E+00 
    1.2500000000024011E-01     6.2500000000093847E-01     0.0000000000000000E+00 
    1.2500000000028680E-01     6.8750000000057998E-01     0.0000000000000000E+00 
    1.2500000000033351E-01     7.5000000000022127E-01     0.0000000000000000E+00 
    1.2500000000038020E-01     8.1249999999986211E-01     0.0000000000000000E+00 
    1.2500000000042691E-01     8.7499999999952238E-01     0.0000000000000000E+00 
    1.2500000000047359E-01     9.3749999999975164E-01     0.0000000000000000E+00 
    1.8749999999966760E-01     6.2500000000187531E-02     0.0000000000000000E+00 
    1.8749999999974179E-01     1.2500000000038020E-01     0.0000000000000000E+00 
    1.8749999999981601E-01     1.8750000000055780E-01     0.0000000000000000E+00 
    1.8749999999989009E-01     2.5000000000073502E-01     0.0000000000000000E+00 
    1.8749999999996431E-01     3.1250000000091221E-01     0.0000000000000000E+00 
    1.8750000000003850E-01     3.7500000000108941E-01     0.0000000000000000E+00 
    1.8750000000011269E-01     4.3750000000126649E-01     0.0000000000000000E+00 
    1.8750000000018691E-01     5.0000000000142808E-01     0.0000000000000000E+00 
    1.8750000000026110E-01     5.6250000000112244E-01     0.0000000000000000E+00 
    1.8750000000033529E-01     6.2500000000080080E-01     0.0000000000000000E+00 
    1.8750000000040951E-01     6.8750000000047962E-01     0.0000000000000000E+00 
    1.8750000000048361E-01     7.5000000000015843E-01     0.0000000000000000E+00 
    1.8750000000055780E-01     8.1249999999983680E-01     0.0000000000000000E+00 
    1.8750000000063199E-01     8.7499999999953304E-01     0.0000000000000000E+00 
    1.8750000000070621E-01     9.3749999999975764E-01     0.0000000000000000E+00 
    2.4999999999951281E-01     6.2500000000163314E-02     0.0000000000000000E+00 
    2.4999999999961461E-01     1.2500000000033351E-01     0.0000000000000000E+00 
    2.4999999999971650E-01     1.8750000000048361E-01     0.0000000000000000E+00 
    2.4999999999981831E-01     2.5000000000063310E-01     0.0000000000000000E+00 
    2.4999999999992020E-01     3.1250000000078260E-01     0.0000000000000000E+00 
    2.5000000000002198E-01     3.7500000000093209E-01     0.0000000000000000E+00 
    2.5000000000012390E-01     4.3750000000108180E-01     0.0000000000000000E+00 
    2.5000000000022571E-01     5.0000000000121769E-01     0.0000000000000000E+00 
    2.5000000000032763E-01     5.6250000000094724E-01     0.0000000000000000E+00 
    2.5000000000042938E-01     6.2500000000066314E-01     0.0000000000000000E+00 
    2.5000000000053119E-01     6.8750000000037925E-01     0.0000000000000000E+00 
[...]
CELL_DATA 256 
SCALARS Pressure double 1 
LOOKUP_TABLE default 

    2.6171280008090583E+00 
    2.5050424472988753E+00 
    2.4231760848610162E+00 
    2.3513745683386182E+00 
    2.2847514771190971E+00 
    2.2208957951116792E+00 
    2.1585781824210111E+00 
    2.0961949255185419E+00 
    2.0285338414225267E+00 
    1.9641179873494399E+00 
    1.9123638581492060E+00 
    1.8696213126473844E+00 
    1.8355817830515595E+00 
    1.8100977322876770E+00 
    1.7931161894561733E+00 
    1.7846307579597274E+00 
    2.5050619908473504E+00 
    2.4541722639190890E+00 
    2.3938717813759860E+00 
    2.3315701840075738E+00 
    2.2698708871931497E+00 
    2.2086374394834700E+00 
    2.1480639801534172E+00 
    2.0854091633224781E+00 
    2.0174371280910677E+00 
    1.9546402146575224E+00 
    1.9033792695866172E+00 
    1.8609341205353334E+00 
    1.8270405199725854E+00 
    1.8016086506011071E+00 
    1.7846340442351285E+00 
    1.7761479249988057E+00 
    2.4232237298287393E+00 
    2.3938984245481829E+00 
    2.3494792097872264E+00 
    2.2978260049916588E+00 
    2.2425198485536657E+00 
    2.1852974582343476E+00 
    2.1273672090300995E+00 
    2.0640826865398947E+00 
    1.9958945151841996E+00 
    1.9358956337147757E+00 
    1.8856267579311523E+00 
    1.8437255146851805E+00 
    1.8100693700995600E+00 
    1.7846955365886585E+00 
    1.7677011472901072E+00 
    1.7591905791405191E+00 
    2.3514487738700574E+00 
    2.3316207500554276E+00 
    2.2978509338898294E+00 
    2.2547241124532515E+00 
    2.2054947384259145E+00 
    2.1525841808623527E+00 
    2.0964617244514119E+00 
    2.0320197791878476E+00 
    1.9652149590226715E+00 
    1.9084659586361550E+00 
    1.8595556279278469E+00 
    1.8182992407148968E+00 
    1.7848456493631850E+00 
    1.7594363775891779E+00 
    1.7423263870210717E+00 
    1.7337315010021424E+00 
    2.2848431463854113E+00 
    2.2699400633428235E+00 
    2.2425684202320859E+00 
    2.2055199213263057E+00 
    2.1613947293108806E+00 
    2.1119407959490579E+00 
    2.0553863540207287E+00 
    1.9901361013488676E+00 
    1.9273849805349703E+00 
    1.8734562098138505E+00 
    1.8258720189135742E+00 
    1.7850924657066956E+00 
    1.7516046616152918E+00 
    1.7259129779551903E+00 
    1.7084844731092030E+00 
    1.6996888377477033E+00 
    2.2209983315983259E+00 
    2.2087271125249588E+00 
    2.1853690448871856E+00 
    2.1526329575009719E+00 
    2.1119649497056754E+00 
    2.0630117928634690E+00 
    2.0041633242587205E+00 
    1.9415326662791070E+00 
    1.8840847477941329E+00 
    1.8321600663540729E+00 
    1.7854058329680813E+00 
    1.7446107225915604E+00 
    1.7105903370331497E+00 
    1.6841587309576149E+00 
    1.6660572863188858E+00 
    1.6568652364469092E+00 
    2.1586959887818047E+00 
    2.1481714485021217E+00 
    2.1274568653282540E+00 
    2.0965271724699530E+00 
    2.0554266210881473E+00 
    2.0041821742934434E+00 
    1.9466113531601126E+00 
    1.8900495731093332E+00 
    1.8364425361639825E+00 
    1.7857244900519875E+00 
    1.7389957122004047E+00 
    1.6973655935035938E+00 
    1.6620049003085313E+00 
    1.6340965464740635E+00 
    1.6147469136285029E+00 
    1.6048404909041099E+00 
    2.0963220450773909E+00 
    2.0855267448532953E+00 
    2.0641844621878898E+00 
    2.0321006795675767E+00 
    1.9901969012858154E+00 
    1.9415748536601700E+00 
    1.8900719473970902E+00 
    1.8379915507243016E+00 
    1.7859640191014527E+00 
    1.7353511876397687E+00 
    1.6875199025743632E+00 
    1.6438915465250854E+00 
    1.6060065442140374E+00 
    1.5755149881745507E+00 
    1.5540342132308302E+00 
    1.5429141130238648E+00 
    2.0286839494040074E+00 
    2.0175777714301510E+00 
    1.9960201654014336E+00 
    1.9653224790114994E+00 
    1.9274734107733327E+00 
    1.8841529774856731E+00 
    1.8364909344024261E+00 
    1.7859896430735993E+00 
    1.7341020132889307E+00 
    1.6822354648165383E+00 
    1.6318785074706323E+00 
    1.5846902760984813E+00 
    1.5426265973003894E+00 
    1.5079359926620444E+00 
    1.4829831231091766E+00 
    1.4698706244562803E+00 
    1.9643035153528767E+00 
    1.9548151807677994E+00 
    1.9360541699852474E+00 
    1.9086044881441242E+00 
    1.8735736015740900E+00 
    1.8322563079571472E+00 
    1.7858017419041505E+00 
    1.7354050551698530E+00 
    1.6822634257969202E+00 
    1.6276655997774796E+00 
    1.5730888166103625E+00 
    1.5203644642528780E+00 
    1.4718695546079754E+00 
    1.4306183317518308E+00 
    1.4001015196925464E+00 
    1.3837198876473693E+00 
    1.9125748338804329E+00 
    1.9035808395604208E+00 
    1.8858136806937091E+00 
    1.8597242197218864E+00 
    1.8260203083000071E+00 
    1.7855330676256396E+00 
    1.7391013350138456E+00 
    1.6876021755150949E+00 
    1.6319353623054196E+00 
    1.5731183012021659E+00 
    1.5124487922126943E+00 
    1.4517887242714316E+00 
    1.3938512298080845E+00 
    1.3425478064041263E+00 
    1.3030632309767434E+00 
    1.2811732735391794E+00 
    1.8698553211415476E+00 
    1.8611597674060203E+00 
    1.8439379709143964E+00 
    1.8184946650023899E+00 
    1.7852682791455543E+00 
    1.7447653057783417E+00 
    1.6974976879453694E+00 
    1.6440004491343216E+00 
    1.5847738276708101E+00 
    1.5204205175905599E+00 
    1.4518155631687111E+00 
    1.3805241865551907E+00 
    1.3092434214823447E+00 
    1.2427056055285324E+00 
    1.1884779794739555E+00 
    1.1567620274137462E+00 
    1.8358347981199621E+00 
    1.8272860264014836E+00 
    1.8103026910283655E+00 
    1.7850628437615632E+00 
    1.7518029079139741E+00 
    1.7107676959495415E+00 
    1.6621600067331068E+00 
    1.6061385268514177E+00 
    1.5427333102063223E+00 
    1.4719489699993222E+00 
    1.3939016901215149E+00 
    1.3092671576531434E+00 
    1.2199141706837353E+00 
    1.1305718374478455E+00 
    1.0514078475989248E+00 
    1.0006471538331929E+00 
    1.8103636746997800E+00 
    1.8018677523509119E+00 
    1.7849432477294152E+00 
    1.7596688411728494E+00 
    1.7261273997823527E+00 
    1.6843530547142940E+00 
    1.6342689809555180E+00 
    1.5756642560874288E+00 
    1.5080600895475518E+00 
    1.4307154916892473E+00 
    1.3426165093069813E+00 
    1.2427479613132582E+00 
    1.1305907275709890E+00 
    1.0082711738931844E+00 
    8.8595536341056336E-01 
    7.9378024211938036E-01 
    1.7933869532689264E+00 
    1.7848986083174661E+00 
    1.7679551312914719E+00 
    1.7425660529035862E+00 
    1.7087070148526036E+00 
    1.6662605662121970E+00 
    1.6149285753315707E+00 
    1.5541926517206266E+00 
    1.4831166155722373E+00 
    1.4002086762911374E+00 
    1.3031427556703361E+00 
    1.1885319045680858E+00 
    1.0514390022332256E+00 
    8.8596810411028304E-01 
    6.9035953186074461E-01 
    4.9472742466283454E-01 
    1.7848964290881564E+00 
    1.7764082086106787E+00 
    1.7594411665521601E+00 
    1.7339686274525830E+00 
    1.6999095233241763E+00 
    1.6570672742239563E+00 
    1.6050211907823237E+00 
    1.5430717438906698E+00 
    1.4700036711307845E+00 
    1.3838271960566042E+00 
    1.2812542752397622E+00 
    1.1568187211634791E+00 
    1.0006823916927003E+00 
    7.9379823806503580E-01 
    4.9473345263862473E-01 
    0.0000000000000000E+00 

SCALARS Saturarion double 1 
LOOKUP_TABLE default 

    1.0000000066370611E+00 
    9.1819860786677865E-01 
    8.0311122548827196E-01 
    7.0950746096806805E-01 
    6.3127219636156595E-01 
    5.6463856101489229E-01 
    5.0495109512530090E-01 
    4.4606478625950058E-01 
    1.1186887830312178E-01 
    1.0000675860937836E-06 
    1.0000000000560778E-06 
    9.9999999999999953E-07 
    9.9999999999999995E-07 
    9.9999999999999995E-07 
    9.9999999999999995E-07 
    9.9999999999999995E-07 
    9.1819533791458852E-01 
    8.6515584555538150E-01 
    7.7577034061476058E-01 
    6.9193591204312688E-01 
    6.2067484799176464E-01 
    5.5634583239792201E-01 
    4.9963476920923511E-01 
    4.2742339506804522E-01 
    7.3066837493747580E-02 
    1.6116054189927569E-05 
    1.0000431860650919E-06 
    1.0000000000000002E-06 
    9.9999999999999995E-07 
    9.9999999999999995E-07 
    9.9999999999999995E-07 
    9.9999999999999995E-07 
    8.0310027340731149E-01 
    7.7576250391005996E-01 
    7.1546439425160935E-01 
    6.5578035472591567E-01 
    5.9594603730542572E-01 
    5.3782858668777211E-01 
    4.8746409758375803E-01 
    3.7468563838234853E-01 
    2.3988002577800448E-02 
    1.2369504104314301E-05 
    1.0000113728091660E-06 
    1.0000000000000006E-06 
    9.9999999999999995E-07 
    9.9999999999999995E-07 
    9.9999999999999995E-07 
    9.9999999999999995E-07 
    7.0948587085369963E-01 
    6.9191590094645694E-01 
    6.5576997488340505E-01 
    6.0557788131994472E-01 
    5.5949016544552910E-01 
    5.1326086408551042E-01 
    4.6602653795335991E-01 
    2.5705481557838494E-01 
    1.2646174331544197E-03 
    1.0928145023449578E-06 
    1.0000000210164394E-06 
    1.0000000000000006E-06 
    9.9999999999999995E-07 
    9.9999999999999995E-07 
    9.9999999999999995E-07 
    9.9999999999999995E-07 
    6.3124727972884409E-01 
    6.2065211337851645E-01 
    5.9592518634692881E-01 
    5.5948521999469059E-01 
    5.1849352586960351E-01 
    4.8130191003548656E-01 
    4.0472550686705056E-01 
    8.6315418903202740E-02 
    2.7622353976897022E-04 
    1.0101624044636790E-06 
    1.0000000000000050E-06 
    9.9999999999999995E-07 
    9.9999999999999995E-07 
    9.9999999999999995E-07 
    9.9999999999999995E-07 
    9.9999999999999995E-07 
    5.6462635145533169E-01 
    5.5632566036380959E-01 
    5.3780512353625243E-01 
    5.1324202610313951E-01 
    4.8129252016885560E-01 
    4.2796892666157788E-01 
    2.0555045348122516E-01 
    2.1887382212382855E-03 
    1.2362983323704291E-06 
    1.0000000255983963E-06 
    1.0000000000000059E-06 
    9.9999999999999995E-07 
    9.9999999999999995E-07 
    9.9999999999999995E-07 
    9.9999999999999995E-07 
    9.9999999999999995E-07 
    5.0493073209395656E-01 
    4.9960327412456851E-01 
    4.8742548045207501E-01 
    4.6598255542030481E-01 
    4.0465870095787471E-01 
    2.0546244357367743E-01 
    9.7075924320783099E-03 
    4.2393425425599326E-06 
    1.0000011696507009E-06 
    1.0000000000000421E-06 
    9.9999999999999995E-07 
    9.9999999999999995E-07 
    9.9999999999999995E-07 
    9.9999999999999995E-07 
    9.9999999999999995E-07 
    9.9999999999999995E-07 
    4.4602342731947159E-01 
    4.2734731306809060E-01 
    3.7451455452731880E-01 
    2.5680005835577124E-01 
    8.6165637515313143E-02 
    2.1809014508474703E-03 
    4.2339373379370976E-06 
    1.0000023835682427E-06 
    1.0000000000004072E-06 
    9.9999999999999995E-07 
    9.9999999999999995E-07 
    9.9999999999999995E-07 
    9.9999999999999995E-07 
    9.9999999999999995E-07 
    9.9999999999999995E-07 
    9.9999999999999995E-07 
    1.1160376958332896E-01 
    7.2834173156449938E-02 
    2.3854916272285764E-02 
    1.2540759357492783E-03 
    2.7537198463451889E-04 
    1.2307362794844200E-06 
    1.0000011687888068E-06 
    1.0000000000004070E-06 
    9.9999999999999995E-07 
    9.9999999999999995E-07 
    9.9999999999999995E-07 
    9.9999999999999995E-07 
    9.9999999999999995E-07 
    9.9999999999999995E-07 
    9.9999999999999995E-07 
    9.9999999999999995E-07 
    1.0000674427813769E-06 
    1.6083624593405467E-05 
    1.2277098241140513E-05 
    1.0921277780969254E-06 
    1.0100792196171329E-06 
    1.0000000233618907E-06 
    1.0000000000000436E-06 
    9.9999999999999995E-07 
    9.9999999999999995E-07 
    9.9999999999999995E-07 
    9.9999999999999995E-07 
    9.9999999999999995E-07 
    9.9999999999999995E-07 
    9.9999999999999995E-07 
    9.9999999999999995E-07 
    9.9999999999999995E-07 
    1.0000000000558698E-06 
    1.0000428981318209E-06 
    1.0000111825608337E-06 
    1.0000000208711328E-06 
    1.0000000000000076E-06 
    1.0000000000000063E-06 
    9.9999999999999995E-07 
    9.9999999999999995E-07 
    9.9999999999999995E-07 
    9.9999999999999995E-07 
    9.9999999999999995E-07 
    9.9999999999999995E-07 
    9.9999999999999995E-07 
    9.9999999999999995E-07 
    9.9999999999999995E-07 
    9.9999999999999995E-07 
    9.9999999999999974E-07 
    1.0000000000000012E-06 
    1.0000000000000002E-06 
    1.0000000000000002E-06 
    9.9999999999999995E-07 
    9.9999999999999995E-07 
    9.9999999999999995E-07 
    9.9999999999999995E-07 
    9.9999999999999995E-07 
    9.9999999999999995E-07 
    9.9999999999999995E-07 
    9.9999999999999995E-07 
    9.9999999999999995E-07 
    9.9999999999999995E-07 
    9.9999999999999995E-07 
    9.9999999999999995E-07 
    9.9999999999999995E-07 
    9.9999999999999995E-07 
    9.9999999999999995E-07 
    9.9999999999999995E-07 
    9.9999999999999995E-07 
    9.9999999999999995E-07 
    9.9999999999999995E-07 
    9.9999999999999995E-07 
    9.9999999999999995E-07 
    9.9999999999999995E-07 
    9.9999999999999995E-07 
    9.9999999999999995E-07 
    9.9999999999999995E-07 
    9.9999999999999995E-07 
    9.9999999999999995E-07 
    9.9999999999999995E-07 
    9.9999999999999995E-07 
    9.9999999999999995E-07 
    9.9999999999999995E-07 
    9.9999999999999995E-07 
    9.9999999999999995E-07 
    9.9999999999999995E-07 
    9.9999999999999995E-07 
    9.9999999999999995E-07 
    9.9999999999999995E-07 
    9.9999999999999995E-07 
    9.9999999999999995E-07 
    9.9999999999999995E-07 
    9.9999999999999995E-07 
    9.9999999999999995E-07 
    9.9999999999999995E-07 
    9.9999999999999995E-07 
    9.9999999999999995E-07 
    9.9999999999999995E-07 
    9.9999999999999995E-07 
    9.9999999999999995E-07 
    9.9999999999999995E-07 
    9.9999999999999995E-07 
    9.9999999999999995E-07 
    9.9999999999999995E-07 
    9.9999999999999995E-07 
    9.9999999999999995E-07 
    9.9999999999999995E-07 
    9.9999999999999995E-07 
    9.9999999999999995E-07 
    9.9999999999999995E-07 
    9.9999999999999995E-07 
    9.9999999999999995E-07 
    9.9999999999999995E-07 
    9.9999999999999995E-07 
    9.9999999999999995E-07 
    9.9999999999999995E-07 
    9.9999999999999995E-07 
    9.9999999999999995E-07 
    9.9999999999999995E-07 
    9.9999999999999995E-07 
    9.9999999999999995E-07 
    9.9999999999999995E-07 
    9.9999999999999995E-07 
    9.9999999999999995E-07 
    9.9999999999999995E-07 
    9.9999999999999995E-07 
    9.9999999999999995E-07 
    1.0000000378950015E-06 
