# vtk DataFile Version 2.0
Pressure Field Data 
ASCII 
DATASET UNSTRUCTURED_GRID 

POINTS 289 double 

    0.0000000000000000E+00     0.0000000000000000E+00     0.0000000000000000E+00 
    1.0000000000000000E+00     0.0000000000000000E+00     0.0000000000000000E+00 
    1.0000000000000000E+00     1.0000000000000000E+00     0.0000000000000000E+00 
    0.0000000000000000E+00     1.0000000000000000E+00     0.0000000000000000E+00 
    6.2499999999872928E-02     0.0000000000000000E+00     0.0000000000000000E+00 
    1.2499999999977310E-01     0.0000000000000000E+00     0.0000000000000000E+00 
    1.8749999999959341E-01     0.0000000000000000E+00     0.0000000000000000E+00 
    2.4999999999941089E-01     0.0000000000000000E+00     0.0000000000000000E+00 
    3.1249999999922851E-01     0.0000000000000000E+00     0.0000000000000000E+00 
    3.7499999999904610E-01     0.0000000000000000E+00     0.0000000000000000E+00 
    4.3749999999886358E-01     0.0000000000000000E+00     0.0000000000000000E+00 
    4.9999999999869210E-01     0.0000000000000000E+00     0.0000000000000000E+00 
    5.6249999999884603E-01     0.0000000000000000E+00     0.0000000000000000E+00 
    6.2499999999901090E-01     0.0000000000000000E+00     0.0000000000000000E+00 
    6.8749999999917577E-01     0.0000000000000000E+00     0.0000000000000000E+00 
    7.4999999999934064E-01     0.0000000000000000E+00     0.0000000000000000E+00 
    8.1249999999950551E-01     0.0000000000000000E+00     0.0000000000000000E+00 
    8.7499999999967026E-01     0.0000000000000000E+00     0.0000000000000000E+00 
    9.3749999999983513E-01     0.0000000000000000E+00     0.0000000000000000E+00 
    1.0000000000000000E+00     6.2499999999872928E-02     0.0000000000000000E+00 
    1.0000000000000000E+00     1.2499999999977310E-01     0.0000000000000000E+00 
    1.0000000000000000E+00     1.8749999999959341E-01     0.0000000000000000E+00 
    1.0000000000000000E+00     2.4999999999941089E-01     0.0000000000000000E+00 
    1.0000000000000000E+00     3.1249999999922851E-01     0.0000000000000000E+00 
    1.0000000000000000E+00     3.7499999999904610E-01     0.0000000000000000E+00 
    1.0000000000000000E+00     4.3749999999886358E-01     0.0000000000000000E+00 
    1.0000000000000000E+00     4.9999999999869210E-01     0.0000000000000000E+00 
    1.0000000000000000E+00     5.6249999999884603E-01     0.0000000000000000E+00 
    1.0000000000000000E+00     6.2499999999901090E-01     0.0000000000000000E+00 
    1.0000000000000000E+00     6.8749999999917577E-01     0.0000000000000000E+00 
    1.0000000000000000E+00     7.4999999999934064E-01     0.0000000000000000E+00 
    1.0000000000000000E+00     8.1249999999950551E-01     0.0000000000000000E+00 
    1.0000000000000000E+00     8.7499999999967026E-01     0.0000000000000000E+00 
    1.0000000000000000E+00     9.3749999999983513E-01     0.0000000000000000E+00 
    9.3749999999973976E-01     1.0000000000000000E+00     0.0000000000000000E+00 
    8.7499999999950118E-01     1.0000000000000000E+00     0.0000000000000000E+00 
    8.1249999999991318E-01     1.0000000000000000E+00     0.0000000000000000E+00 
    7.5000000000034706E-01     1.0000000000000000E+00     0.0000000000000000E+00 
    6.8750000000078049E-01     1.0000000000000000E+00     0.0000000000000000E+00 
    6.2500000000121403E-01     1.0000000000000000E+00     0.0000000000000000E+00 
    5.6250000000164757E-01     1.0000000000000000E+00     0.0000000000000000E+00 
    5.0000000000205946E-01     1.0000000000000000E+00     0.0000000000000000E+00 
    4.3750000000182099E-01     1.0000000000000000E+00     0.0000000000000000E+00 
    3.7500000000156092E-01     1.0000000000000000E+00     0.0000000000000000E+00 
    3.1250000000130068E-01     1.0000000000000000E+00     0.0000000000000000E+00 
    2.5000000000104050E-01     1.0000000000000000E+00     0.0000000000000000E+00 
    1.8750000000078040E-01     1.0000000000000000E+00     0.0000000000000000E+00 
    1.2500000000052031E-01     1.0000000000000000E+00     0.0000000000000000E+00 
    6.2500000000260125E-02     1.0000000000000000E+00     0.0000000000000000E+00 
    0.0000000000000000E+00     9.3749999999973976E-01     0.0000000000000000E+00 
    0.0000000000000000E+00     8.7499999999950118E-01     0.0000000000000000E+00 
    0.0000000000000000E+00     8.1249999999991318E-01     0.0000000000000000E+00 
    0.0000000000000000E+00     7.5000000000034706E-01     0.0000000000000000E+00 
    0.0000000000000000E+00     6.8750000000078049E-01     0.0000000000000000E+00 
    0.0000000000000000E+00     6.2500000000121403E-01     0.0000000000000000E+00 
    0.0000000000000000E+00     5.6250000000164757E-01     0.0000000000000000E+00 
    0.0000000000000000E+00     5.0000000000205946E-01     0.0000000000000000E+00 
    0.0000000000000000E+00     4.3750000000182099E-01     0.0000000000000000E+00 
    0.0000000000000000E+00     3.7500000000156092E-01     0.0000000000000000E+00 
    0.0000000000000000E+00     3.1250000000130068E-01     0.0000000000000000E+00 
    0.0000000000000000E+00     2.5000000000104050E-01     0.0000000000000000E+00 
    0.0000000000000000E+00     1.8750000000078040E-01     0.0000000000000000E+00 
    0.0000000000000000E+00     1.2500000000052031E-01     0.0000000000000000E+00 
    0.0000000000000000E+00     6.2500000000260125E-02     0.0000000000000000E+00 
    6.2499999999897131E-02     6.2500000000235922E-02     0.0000000000000000E+00 
    6.2499999999921327E-02     1.2500000000047351E-01     0.0000000000000000E+00 
    6.2499999999945530E-02     1.8750000000070621E-01     0.0000000000000000E+00 
    6.2499999999969733E-02     2.5000000000093858E-01     0.0000000000000000E+00 
    6.2499999999993928E-02     3.1250000000117117E-01     0.0000000000000000E+00 
    6.2500000000018124E-02     3.7500000000140382E-01     0.0000000000000000E+00 
    6.2500000000042327E-02     4.3750000000163619E-01     0.0000000000000000E+00 
    6.2500000000066530E-02     5.0000000000184897E-01     0.0000000000000000E+00 
    6.2500000000090733E-02     5.6250000000147260E-01     0.0000000000000000E+00 
    6.2500000000114922E-02     6.2500000000107636E-01     0.0000000000000000E+00 
    6.2500000000139125E-02     6.8750000000068034E-01     0.0000000000000000E+00 
    6.2500000000163328E-02     7.5000000000028411E-01     0.0000000000000000E+00 
    6.2500000000187531E-02     8.1249999999988787E-01     0.0000000000000000E+00 
    6.2500000000211720E-02     8.7499999999951172E-01     0.0000000000000000E+00 
    6.2500000000235922E-02     9.3749999999974565E-01     0.0000000000000000E+00 
    1.2499999999981980E-01     6.2500000000211733E-02     0.0000000000000000E+00 
    1.2499999999986650E-01     1.2500000000042691E-01     0.0000000000000000E+00 
    1.2499999999991319E-01     1.8750000000063199E-01     0.0000000000000000E+00 
    1.2499999999995989E-01     2.5000000000083678E-01     0.0000000000000000E+00 
    1.2500000000000661E-01     3.1250000000104172E-01     0.0000000000000000E+00 
    1.2500000000005329E-01     3.7500000000124661E-01     0.0000000000000000E+00 
    1.2500000000010000E-01     4.3750000000145117E-01     0.0000000000000000E+00 
    1.2500000000014669E-01     5.0000000000163858E-01     0.0000000000000000E+00 
    1.2500000000019340E-01     5.6250000000129741E-01     0.0000000000000000E+00 
    1.2500000000024011E-01     6.2500000000093847E-01     0.0000000000000000E+00 
    1.2500000000028680E-01     6.8750000000057998E-01     0.0000000000000000E+00 
    1.2500000000033351E-01     7.5000000000022127E-01     0.0000000000000000E+00 
    1.2500000000038020E-01     8.1249999999986211E-01     0.0000000000000000E+00 
    1.2500000000042691E-01     8.7499999999952238E-01     0.0000000000000000E+00 
    1.2500000000047359E-01     9.3749999999975164E-01     0.0000000000000000E+00 
    1.8749999999966760E-01     6.2500000000187531E-02     0.0000000000000000E+00 
    1.8749999999974179E-01     1.2500000000038020E-01     0.0000000000000000E+00 
    1.8749999999981601E-01     1.8750000000055780E-01     0.0000000000000000E+00 
    1.8749999999989009E-01     2.5000000000073502E-01     0.0000000000000000E+00 
    1.8749999999996431E-01     3.1250000000091221E-01     0.0000000000000000E+00 
    1.8750000000003850E-01     3.7500000000108941E-01     0.0000000000000000E+00 
    1.8750000000011269E-01     4.3750000000126649E-01     0.0000000000000000E+00 
    1.8750000000018691E-01     5.0000000000142808E-01     0.0000000000000000E+00 
    1.8750000000026110E-01     5.6250000000112244E-01     0.0000000000000000E+00 
    1.8750000000033529E-01     6.2500000000080080E-01     0.0000000000000000E+00 
    1.8750000000040951E-01     6.8750000000047962E-01     0.0000000000000000E+00 
    1.8750000000048361E-01     7.5000000000015843E-01     0.0000000000000000E+00 
    1.8750000000055780E-01     8.1249999999983680E-01     0.0000000000000000E+00 
    1.8750000000063199E-01     8.7499999999953304E-01     0.0000000000000000E+00 
    1.8750000000070621E-01     9.3749999999975764E-01     0.0000000000000000E+00 
    2.4999999999951281E-01     6.2500000000163314E-02     0.0000000000000000E+00 
    2.4999999999961461E-01     1.2500000000033351E-01     0.0000000000000000E+00 
    2.4999999999971650E-01     1.8750000000048361E-01     0.0000000000000000E+00 
    2.4999999999981831E-01     2.5000000000063310E-01     0.0000000000000000E+00 
    2.4999999999992020E-01     3.1250000000078260E-01     0.0000000000000000E+00 
    2.5000000000002198E-01     3.7500000000093209E-01     0.0000000000000000E+00 
    2.5000000000012390E-01     4.3750000000108180E-01     0.0000000000000000E+00 
    2.5000000000022571E-01     5.0000000000121769E-01     0.0000000000000000E+00 
    2.5000000000032763E-01     5.6250000000094724E-01     0.0000000000000000E+00 
    2.5000000000042938E-01     6.2500000000066314E-01     0.0000000000000000E+00 
    2.5000000000053119E-01     6.8750000000037925E-01     0.0000000000000000E+00 
[...]
CELL_DATA 256 
SCALARS Pressure double 1 
LOOKUP_TABLE default 

    2.2909864776214035E+00 
    2.1866812073655626E+00 
    2.1187726220667353E+00 
    2.0651917735463816E+00 
    2.0186625269813625E+00 
    1.9771360359113102E+00 
    1.9388101692557553E+00 
    1.9030169389969189E+00 
    1.8698389496598589E+00 
    1.8392699395136536E+00 
    1.8114874610472997E+00 
    1.7868678685984880E+00 
    1.7628516492777335E+00 
    1.7414798021920157E+00 
    1.7275441159979761E+00 
    1.7205401694128089E+00 
    2.1866995199997237E+00 
    2.1432161878785752E+00 
    2.0962157855458887E+00 
    2.0506749378928477E+00 
    2.0082496323137753E+00 
    1.9689259917727691E+00 
    1.9316747204716496E+00 
    1.8965290777269581E+00 
    1.8636781546952068E+00 
    1.8331769322718841E+00 
    1.8053518430210753E+00 
    1.7806135863042372E+00 
    1.7563625891326387E+00 
    1.7347269007970445E+00 
    1.7206263945554803E+00 
    1.7135388473912025E+00 
    2.1188242324194619E+00 
    2.0962485601002911E+00 
    2.0631860857906861E+00 
    2.0265417652917068E+00 
    1.9897463381097018E+00 
    1.9535113231876435E+00 
    1.9180332279691610E+00 
    1.8839513151299241E+00 
    1.8515534512074392E+00 
    1.8211341852948799E+00 
    1.7931626176465514E+00 
    1.7681180581359970E+00 
    1.7433627725842089E+00 
    1.7211849702596014E+00 
    1.7067345835202223E+00 
    1.6994624980542330E+00 
    2.0652902899486616E+00 
    2.0507502467467504E+00 
    2.0265813387040188E+00 
    1.9973331707807163E+00 
    1.9655050994570935E+00 
    1.9323135710040857E+00 
    1.8988102446011694E+00 
    1.8658362491416969E+00 
    1.8338503947334783E+00 
    1.8033686198236558E+00 
    1.7750122627532301E+00 
    1.7493824758585861E+00 
    1.7237880643685375E+00 
    1.7007415914363464E+00 
    1.6857087719087884E+00 
    1.6781240356332494E+00 
    2.0188025291502885E+00 
    2.0083598345736262E+00 
    1.9898213784237295E+00 
    1.9655429115133212E+00 
    1.9373715084690759E+00 
    1.9067901341911913E+00 
    1.8750372776965403E+00 
    1.8429233678058707E+00 
    1.8110693652004151E+00 
    1.7801914810062629E+00 
    1.7510939133961601E+00 
    1.7244795714673244E+00 
    1.6975897766327912E+00 
    1.6732268692617118E+00 
    1.6572861998247139E+00 
    1.6492131259911667E+00 
    1.9772968139898415E+00 
    1.9690646469460340E+00 
    1.9536206700919569E+00 
    1.9323890544326963E+00 
    1.9068296353437992E+00 
    1.8782529290479559E+00 
    1.8477007557915870E+00 
    1.8159320120775657E+00 
    1.7837391667890388E+00 
    1.7520034635694168E+00 
    1.7216481198226194E+00 
    1.6934752918890912E+00 
    1.6646490159749139E+00 
    1.6383465580528831E+00 
    1.6210481375373924E+00 
    1.6122444220354415E+00 
    1.9390003104289615E+00 
    1.9318476990207152E+00 
    1.9181788599689260E+00 
    1.8989216211426221E+00 
    1.8751106415175438E+00 
    1.8477355719398438E+00 
    1.8176289342324468E+00 
    1.7855664360813792E+00 
    1.7524601702053353E+00 
    1.7192312493357373E+00 
    1.6868784090309794E+00 
    1.6563272572935834E+00 
    1.6246928662766100E+00 
    1.5956238387765462E+00 
    1.5763458193176860E+00 
    1.5664636976940949E+00 
    1.9032368107783588E+00 
    1.8967315341241773E+00 
    1.8841267788837759E+00 
    1.8659796475852493E+00 
    1.8430318776993013E+00 
    1.8160038575700477E+00 
    1.7856025181548254E+00 
    1.7526164580191841E+00 
    1.7178989261921034E+00 
    1.6823600942872226E+00 
    1.6470567196865287E+00 
    1.6130762013235762E+00 
    1.5774703840866444E+00 
    1.5444728673823063E+00 
    1.5222886314562443E+00 
    1.5108060293464840E+00 
    1.8700830146418825E+00 
    1.8639057930220657E+00 
    1.8517574568652611E+00 
    1.8340257916555156E+00 
    1.8112121956614449E+00 
    1.7838466280401817E+00 
    1.7525345550162466E+00 
    1.7179376062929854E+00 
    1.6807769945136470E+00 
    1.6419605557404620E+00 
    1.6026345869817868E+00 
    1.5639491918530093E+00 
    1.5227974253467951E+00 
    1.4840972939707364E+00 
    1.4575503981602593E+00 
    1.4436695569585734E+00 
    1.8395362393414285E+00 
    1.8334295960720948E+00 
    1.8213666134514519E+00 
    1.8035747249258187E+00 
    1.7803680026753257E+00 
    1.7521485113595974E+00 
    1.7193459875273573E+00 
    1.6824405846468891E+00 
    1.6420039522872509E+00 
    1.5989081426364649E+00 
    1.5542850755011564E+00 
    1.5092466911802354E+00 
    1.4602390555675171E+00 
    1.4131884434896036E+00 
    1.3801539342434817E+00 
    1.3626574486260341E+00 
    1.8117769149491803E+00 
    1.8056297157101486E+00 
    1.7934215642618474E+00 
    1.7752467724678340E+00 
    1.7513039530888557E+00 
    1.7218331561777249E+00 
    1.6870343854001546E+00 
    1.6471849904194946E+00 
    1.6027311302285412E+00 
    1.5543400024916667E+00 
    1.5028200241289742E+00 
    1.4489416231647705E+00 
    1.3884928246081771E+00 
    1.3295435885516060E+00 
    1.2871763528221467E+00 
    1.2641371549616769E+00 
    1.7871754504402513E+00 
    1.7809104571496990E+00 
    1.7683965278791771E+00 
    1.7496432378465232E+00 
    1.7247319115126438E+00 
    1.6937109113862636E+00 
    1.6565338933778497E+00 
    1.6132630006738859E+00 
    1.5641117322471176E+00 
    1.5093577887619900E+00 
    1.4489780907851728E+00 
    1.3821870678165895E+00 
    1.3052671396223376E+00 
    1.2308497449261346E+00 
    1.1749456686979614E+00 
    1.1426068660274595E+00 
    1.7631774431445080E+00 
    1.7566792286349873E+00 
    1.7436639408782997E+00 
    1.7240792314403539E+00 
    1.6978759619381374E+00 
    1.6649067264228610E+00 
    1.6249116491243913E+00 
    1.5776661720480560E+00 
    1.5229675447817850E+00 
    1.4603305427699611E+00 
    1.3884825327551160E+00 
    1.3052344252398038E+00 
    1.2108214184262094E+00 
    1.1179254022934473E+00 
    1.0392702890903238E+00 
    9.8875271478763482E-01 
    1.7418221780375676E+00 
    1.7350615236824838E+00 
    1.7215073783320169E+00 
    1.7010517323725005E+00 
    1.6735168201691020E+00 
    1.6385950605914354E+00 
    1.5958270519959543E+00 
    1.5446405364476712E+00 
    1.4842259940289759E+00 
    1.4132207978979774E+00 
    1.3294813808811208E+00 
    1.2307990307738963E+00 
    1.1179107406740809E+00 
    9.9621590770760571E-01 
    8.7552263098106853E-01 
    7.8439089582453903E-01 
    1.7278926066286917E+00 
    1.7209676668326630E+00 
    1.7070635838528423E+00 
    1.6860209298604383E+00 
    1.6575740201634821E+00 
    1.6213010480535051E+00 
    1.5765573622874223E+00 
    1.5224580349307597E+00 
    1.4576732714666487E+00 
    1.3802002312919244E+00 
    1.2871537366023054E+00 
    1.1749199074306040E+00 
    1.0392580959774802E+00 
    8.7551895396332791E-01 
    6.8221719890881094E-01 
    4.8888515923111531E-01 
    1.7208827907299400E+00 
    1.7138748727374264E+00 
    1.6997863809508651E+00 
    1.6784298910862732E+00 
    1.6494938112234920E+00 
    1.6124921299482620E+00 
    1.5666713544290962E+00 
    1.5109698029462939E+00 
    1.4437839031597022E+00 
    1.3627144209235249E+00 
    1.2641456835784619E+00 
    1.1425983958657531E+00 
    9.8874437678315996E-01 
    7.8438646391352584E-01 
    4.8888373283307840E-01 
    0.0000000000000000E+00 

SCALARS Saturarion double 1 
LOOKUP_TABLE default 

    1.0000000000067313E+00 
    9.6758727731630634E-01 
    9.0768391560974482E-01 
    8.4597037459372471E-01 
    7.8716317035194749E-01 
    7.3279610745220558E-01 
    6.8269521147049261E-01 
    6.3644666623187196E-01 
    5.9340603206751363E-01 
    5.4998696626453791E-01 
    5.0785242463804192E-01 
    4.6344039012698363E-01 
    3.0336756107406965E-01 
    9.8607101945936284E-05 
    1.0000000014656088E-06 
    1.0000000000000004E-06 
    9.6758490844739720E-01 
    9.4195667345406997E-01 
    8.8983303430308502E-01 
    8.3308858742323655E-01 
    7.7772213249378930E-01 
    7.2656357605393851E-01 
    6.7821328492782862E-01 
    6.3350142643137286E-01 
    5.9144252436633493E-01 
    5.4888845605014946E-01 
    5.0734703251642144E-01 
    4.6310078991926551E-01 
    2.9885980272779156E-01 
    1.5051465674191872E-04 
    1.0000342664015533E-06 
    1.0000000000016845E-06 
    9.0767250205030015E-01 
    8.8982468747629606E-01 
    8.4913026167681238E-01 
    8.0442581053497075E-01 
    7.5732174435488386E-01 
    7.1131395895270955E-01 
    6.6689967387059046E-01 
    6.2576663584538028E-01 
    5.8583039033071327E-01 
    5.4506176065307499E-01 
    5.0495045220635404E-01 
    4.6120758509136411E-01 
    2.9290837724616464E-01 
    7.1945937364570719E-05 
    1.0000627003174158E-06 
    1.0000000000036030E-06 
    8.4594210629614319E-01 
    8.3306509752316638E-01 
    8.0441267238591607E-01 
    7.6697328394808406E-01 
    7.2982241323978680E-01 
    6.9088136864771721E-01 
    6.5208879794012076E-01 
    6.1470912211848838E-01 
    5.7743046923442842E-01 
    5.3938726295737693E-01 
    5.0159970374803919E-01 
    4.5842911200036324E-01 
    2.8533619960373474E-01 
    1.0195061119523751E-04 
    1.0001006912933290E-06 
    1.0000000000048238E-06 
    7.8712750771026763E-01 
    7.7769679853391072E-01 
    7.5729857521176946E-01 
    7.2981291648665170E-01 
    6.9768615649531707E-01 
    6.6664937679121061E-01 
    6.3437404636772698E-01 
    6.0126613976715426E-01 
    5.6725967841533287E-01 
    5.3297698357809331E-01 
    4.9822630555729136E-01 
    4.5734726849160029E-01 
    2.8528595315517868E-01 
    1.3705911037889551E-04 
    1.0001549113611407E-06 
    1.0000000000137757E-06 
    7.3280409706407235E-01 
    7.2655576992567039E-01 
    7.1129693472992217E-01 
    6.9086219453594944E-01 
    6.6664242664393081E-01 
    6.3963302722458326E-01 
    6.1261411523645759E-01 
    5.8492396397164970E-01 
    5.5578188146620877E-01 
    5.2532758049128381E-01 
    4.9350506931025451E-01 
    4.5500588901874212E-01 
    2.8238128937413454E-01 
    6.0787895786521978E-05 
    1.0001119645612057E-06 
    1.0000000000124763E-06 
    6.8270871624053930E-01 
    6.7820672008737271E-01 
    6.6688051267215753E-01 
    6.5206236387600292E-01 
    6.3435410972856310E-01 
    6.1260791785994129E-01 
    5.8913982805382858E-01 
    5.6627227252530699E-01 
    5.4251231909710451E-01 
    5.1632866092641161E-01 
    4.8814757508079470E-01 
    4.5200921548389728E-01 
    2.8178108424437298E-01 
    3.9961050863731161E-05 
    1.0000933152316692E-06 
    1.0000000000017827E-06 
    6.3643946071029289E-01 
    6.3348177607404821E-01 
    6.2573521622349970E-01 
    6.1467215639590700E-01 
    6.0123171963192779E-01 
    5.8490242216456845E-01 
    5.6626713745876966E-01 
    5.4654343709452491E-01 
    5.2721199004818797E-01 
    5.0583866573014125E-01 
    4.8163458989149355E-01 
    4.4990435246507932E-01 
    2.8703983295504881E-01 
    4.7783328449996902E-05 
    1.0001085066317177E-06 
    1.0000000000148201E-06 
    5.9338506236713928E-01 
    5.9140846703439798E-01 
    5.8578058470511074E-01 
    5.7737530986948371E-01 
    5.6720504503156899E-01 
    5.5573668346556704E-01 
    5.4248833483352987E-01 
    5.2720950685063306E-01 
    5.1047346217522338E-01 
    4.9431221303199285E-01 
    4.7492506620781988E-01 
    4.4824110676708623E-01 
    3.0843437424496245E-01 
    3.8773368633288605E-04 
    1.0006351418676930E-06 
    1.0000000000873746E-06 
    5.5000291994883566E-01 
    5.4886242043070566E-01 
    5.4500358191101417E-01 
    5.3931225421307782E-01 
    5.3289774350057018E-01 
    5.2526152147955862E-01 
    5.1628554121346115E-01 
    5.0581798513514953E-01 
    4.9430792774810339E-01 
    4.8205943140256707E-01 
    4.6740184918766525E-01 
    4.4390292455242247E-01 
    3.2084038699017414E-01 
    6.6010468643342638E-04 
    1.0025113969139265E-06 
    1.0000000003780574E-06 
    5.0787596844708904E-01 
    5.0732926249563293E-01 
    5.0488646608849819E-01 
    5.0151947973178401E-01 
    4.9818027376593849E-01 
    4.9344562590096980E-01 
    4.8808920344528511E-01 
    4.8169610605299606E-01 
    4.7500214540076352E-01 
    4.6751693115172877E-01 
    4.5794541636647218E-01 
    4.3568628133661819E-01 
    3.0962588060889812E-01 
    3.6135138104284896E-03 
    1.1187053001705125E-06 
    1.0000000084520452E-06 
    4.6345215722262506E-01 
    4.6308611852947706E-01 
    4.6114650561695408E-01 
    4.5836732876719544E-01 
    4.5773524844890690E-01 
    4.5527286205016321E-01 
    4.5228648595103882E-01 
    4.5007767666176052E-01 
    4.4827628581304996E-01 
    4.4399035665625225E-01 
    4.3528762317270148E-01 
    4.1517813979159163E-01 
    2.5364767855164816E-01 
    2.7090032104431835E-03 
    1.1617589244468077E-06 
    1.0000000125557997E-06 
    3.0338175494992708E-01 
    2.9889921106051986E-01 
    2.9276648925429199E-01 
    2.8702116051947035E-01 
    2.8434885832670959E-01 
    2.7956679939366857E-01 
    2.7904213290589058E-01 
    2.8536177917552058E-01 
    3.0553901888058399E-01 
    3.1708336791150038E-01 
    3.0686308117936384E-01 
    2.5370841162858920E-01 
    6.6339902672315335E-02 
    2.6894794855203912E-04 
    1.0084419783701078E-06 
    1.0000000000000582E-06 
    9.8888034735020178E-05 
    1.5162707896780584E-04 
    7.0937775994479789E-05 
    8.4219717994924232E-05 
    1.6037791970097292E-04 
    6.5649535979953841E-05 
    3.2250833819080755E-05 
    6.2536947507741184E-05 
    3.3528342151407968E-04 
    3.6379736860068360E-03 
    4.4521191204540027E-03 
    2.7367734959056244E-03 
    2.6917009076170490E-04 
    1.0259280612306255E-06 
    1.0000000073880928E-06 
    1.0000000000000006E-06 
    1.0000000014594754E-06 
    1.0000343714078807E-06 
    1.0000691552625832E-06 
    1.0002137983037473E-06 
    1.0004225212567840E-06 
    1.0001898530049468E-06 
    1.0000643636043525E-06 
    1.0002027810899007E-06 
    1.0013155757289433E-06 
    1.0074650618965610E-06 
    1.1587007619931808E-06 
    1.1569594462857910E-06 
    1.0084492801832259E-06 
    1.0000000073909916E-06 
    1.0000000000000019E-06 
    9.9999999999999995E-07 
    9.9999999999999995E-07 
    1.0000000000016781E-06 
    1.0000000000037678E-06 
    1.0000000000462177E-06 
    1.0000000000475223E-06 
    1.0000000000329214E-06 
    1.0000000000020572E-06 
    1.0000000000107922E-06 
    1.0000000003186516E-06 
    1.0000000007737832E-06 
    1.0000000103420878E-06 
    1.0000000221530544E-06 
    1.0000000000000756E-06 
    9.9999999999999995E-07 
    9.9999999999999995E-07 
    1.0000001125194020E-06 
