# vtk DataFile Version 2.0
Pressure Field Data 
ASCII 
DATASET UNSTRUCTURED_GRID 

POINTS 289 double 

    0.0000000000000000E+00     0.0000000000000000E+00     0.0000000000000000E+00 
    1.0000000000000000E+00     0.0000000000000000E+00     0.0000000000000000E+00 
    1.0000000000000000E+00     1.0000000000000000E+00     0.0000000000000000E+00 
    0.0000000000000000E+00     1.0000000000000000E+00     0.0000000000000000E+00 
    6.2499999999872928E-02     0.0000000000000000E+00     0.0000000000000000E+00 
    1.2499999999977310E-01     0.0000000000000000E+00     0.0000000000000000E+00 
    1.8749999999959341E-01     0.0000000000000000E+00     0.0000000000000000E+00 
    2.4999999999941089E-01     0.0000000000000000E+00     0.0000000000000000E+00 
    3.1249999999922851E-01     0.0000000000000000E+00     0.0000000000000000E+00 
    3.7499999999904610E-01     0.0000000000000000E+00     0.0000000000000000E+00 
    4.3749999999886358E-01     0.0000000000000000E+00     0.0000000000000000E+00 
    4.9999999999869210E-01     0.0000000000000000E+00     0.0000000000000000E+00 
    5.6249999999884603E-01     0.0000000000000000E+00     0.0000000000000000E+00 
    6.2499999999901090E-01     0.0000000000000000E+00     0.0000000000000000E+00 
    6.8749999999917577E-01     0.0000000000000000E+00     0.0000000000000000E+00 
    7.4999999999934064E-01     0.0000000000000000E+00     0.0000000000000000E+00 
    8.1249999999950551E-01     0.0000000000000000E+00     0.0000000000000000E+00 
    8.7499999999967026E-01     0.0000000000000000E+00     0.0000000000000000E+00 
    9.3749999999983513E-01     0.0000000000000000E+00     0.0000000000000000E+00 
    1.0000000000000000E+00     6.2499999999872928E-02     0.0000000000000000E+00 
    1.0000000000000000E+00     1.2499999999977310E-01     0.0000000000000000E+00 
    1.0000000000000000E+00     1.8749999999959341E-01     0.0000000000000000E+00 
    1.0000000000000000E+00     2.4999999999941089E-01     0.0000000000000000E+00 
    1.0000000000000000E+00     3.1249999999922851E-01     0.0000000000000000E+00 
    1.0000000000000000E+00     3.7499999999904610E-01     0.0000000000000000E+00 
    1.0000000000000000E+00     4.3749999999886358E-01     0.0000000000000000E+00 
    1.0000000000000000E+00     4.9999999999869210E-01     0.0000000000000000E+00 
    1.0000000000000000E+00     5.6249999999884603E-01     0.0000000000000000E+00 
    1.0000000000000000E+00     6.2499999999901090E-01     0.0000000000000000E+00 
    1.0000000000000000E+00     6.8749999999917577E-01     0.0000000000000000E+00 
    1.0000000000000000E+00     7.4999999999934064E-01     0.0000000000000000E+00 
    1.0000000000000000E+00     8.1249999999950551E-01     0.0000000000000000E+00 
    1.0000000000000000E+00     8.7499999999967026E-01     0.0000000000000000E+00 
    1.0000000000000000E+00     9.3749999999983513E-01     0.0000000000000000E+00 
    9.3749999999973976E-01     1.0000000000000000E+00     0.0000000000000000E+00 
    8.7499999999950118E-01     1.0000000000000000E+00     0.0000000000000000E+00 
    8.1249999999991318E-01     1.0000000000000000E+00     0.0000000000000000E+00 
    7.5000000000034706E-01     1.0000000000000000E+00     0.0000000000000000E+00 
    6.8750000000078049E-01     1.0000000000000000E+00     0.0000000000000000E+00 
    6.2500000000121403E-01     1.0000000000000000E+00     0.0000000000000000E+00 
    5.6250000000164757E-01     1.0000000000000000E+00     0.0000000000000000E+00 
    5.0000000000205946E-01     1.0000000000000000E+00     0.0000000000000000E+00 
    4.3750000000182099E-01     1.0000000000000000E+00     0.0000000000000000E+00 
    3.7500000000156092E-01     1.0000000000000000E+00     0.0000000000000000E+00 
    3.1250000000130068E-01     1.0000000000000000E+00     0.0000000000000000E+00 
    2.5000000000104050E-01     1.0000000000000000E+00     0.0000000000000000E+00 
    1.8750000000078040E-01     1.0000000000000000E+00     0.0000000000000000E+00 
    1.2500000000052031E-01     1.0000000000000000E+00     0.0000000000000000E+00 
    6.2500000000260125E-02     1.0000000000000000E+00     0.0000000000000000E+00 
    0.0000000000000000E+00     9.3749999999973976E-01     0.0000000000000000E+00 
    0.0000000000000000E+00     8.7499999999950118E-01     0.0000000000000000E+00 
    0.0000000000000000E+00     8.1249999999991318E-01     0.0000000000000000E+00 
    0.0000000000000000E+00     7.5000000000034706E-01     0.0000000000000000E+00 
    0.0000000000000000E+00     6.8750000000078049E-01     0.0000000000000000E+00 
    0.0000000000000000E+00     6.2500000000121403E-01     0.0000000000000000E+00 
    0.0000000000000000E+00     5.6250000000164757E-01     0.0000000000000000E+00 
    0.0000000000000000E+00     5.0000000000205946E-01     0.0000000000000000E+00 
    0.0000000000000000E+00     4.3750000000182099E-01     0.0000000000000000E+00 
    0.0000000000000000E+00     3.7500000000156092E-01     0.0000000000000000E+00 
    0.0000000000000000E+00     3.1250000000130068E-01     0.0000000000000000E+00 
    0.0000000000000000E+00     2.5000000000104050E-01     0.0000000000000000E+00 
    0.0000000000000000E+00     1.8750000000078040E-01     0.0000000000000000E+00 
    0.0000000000000000E+00     1.2500000000052031E-01     0.0000000000000000E+00 
    0.0000000000000000E+00     6.2500000000260125E-02     0.0000000000000000E+00 
    6.2499999999897131E-02     6.2500000000235922E-02     0.0000000000000000E+00 
    6.2499999999921327E-02     1.2500000000047351E-01     0.0000000000000000E+00 
    6.2499999999945530E-02     1.8750000000070621E-01     0.0000000000000000E+00 
    6.2499999999969733E-02     2.5000000000093858E-01     0.0000000000000000E+00 
    6.2499999999993928E-02     3.1250000000117117E-01     0.0000000000000000E+00 
    6.2500000000018124E-02     3.7500000000140382E-01     0.0000000000000000E+00 
    6.2500000000042327E-02     4.3750000000163619E-01     0.0000000000000000E+00 
    6.2500000000066530E-02     5.0000000000184897E-01     0.0000000000000000E+00 
    6.2500000000090733E-02     5.6250000000147260E-01     0.0000000000000000E+00 
    6.2500000000114922E-02     6.2500000000107636E-01     0.0000000000000000E+00 
    6.2500000000139125E-02     6.8750000000068034E-01     0.0000000000000000E+00 
    6.2500000000163328E-02     7.5000000000028411E-01     0.0000000000000000E+00 
    6.2500000000187531E-02     8.1249999999988787E-01     0.0000000000000000E+00 
    6.2500000000211720E-02     8.7499999999951172E-01     0.0000000000000000E+00 
    6.2500000000235922E-02     9.3749999999974565E-01     0.0000000000000000E+00 
    1.2499999999981980E-01     6.2500000000211733E-02     0.0000000000000000E+00 
    1.2499999999986650E-01     1.2500000000042691E-01     0.0000000000000000E+00 
    1.2499999999991319E-01     1.8750000000063199E-01     0.0000000000000000E+00 
    1.2499999999995989E-01     2.5000000000083678E-01     0.0000000000000000E+00 
    1.2500000000000661E-01     3.1250000000104172E-01     0.0000000000000000E+00 
    1.2500000000005329E-01     3.7500000000124661E-01     0.0000000000000000E+00 
    1.2500000000010000E-01     4.3750000000145117E-01     0.0000000000000000E+00 
    1.2500000000014669E-01     5.0000000000163858E-01     0.0000000000000000E+00 
    1.2500000000019340E-01     5.6250000000129741E-01     0.0000000000000000E+00 
    1.2500000000024011E-01     6.2500000000093847E-01     0.0000000000000000E+00 
    1.2500000000028680E-01     6.8750000000057998E-01     0.0000000000000000E+00 
    1.2500000000033351E-01     7.5000000000022127E-01     0.0000000000000000E+00 
    1.2500000000038020E-01     8.1249999999986211E-01     0.0000000000000000E+00 
    1.2500000000042691E-01     8.7499999999952238E-01     0.0000000000000000E+00 
    1.2500000000047359E-01     9.3749999999975164E-01     0.0000000000000000E+00 
    1.8749999999966760E-01     6.2500000000187531E-02     0.0000000000000000E+00 
    1.8749999999974179E-01     1.2500000000038020E-01     0.0000000000000000E+00 
    1.8749999999981601E-01     1.8750000000055780E-01     0.0000000000000000E+00 
    1.8749999999989009E-01     2.5000000000073502E-01     0.0000000000000000E+00 
    1.8749999999996431E-01     3.1250000000091221E-01     0.0000000000000000E+00 
    1.8750000000003850E-01     3.7500000000108941E-01     0.0000000000000000E+00 
    1.8750000000011269E-01     4.3750000000126649E-01     0.0000000000000000E+00 
    1.8750000000018691E-01     5.0000000000142808E-01     0.0000000000000000E+00 
    1.8750000000026110E-01     5.6250000000112244E-01     0.0000000000000000E+00 
    1.8750000000033529E-01     6.2500000000080080E-01     0.0000000000000000E+00 
    1.8750000000040951E-01     6.8750000000047962E-01     0.0000000000000000E+00 
    1.8750000000048361E-01     7.5000000000015843E-01     0.0000000000000000E+00 
    1.8750000000055780E-01     8.1249999999983680E-01     0.0000000000000000E+00 
    1.8750000000063199E-01     8.7499999999953304E-01     0.0000000000000000E+00 
    1.8750000000070621E-01     9.3749999999975764E-01     0.0000000000000000E+00 
    2.4999999999951281E-01     6.2500000000163314E-02     0.0000000000000000E+00 
    2.4999999999961461E-01     1.2500000000033351E-01     0.0000000000000000E+00 
    2.4999999999971650E-01     1.8750000000048361E-01     0.0000000000000000E+00 
    2.4999999999981831E-01     2.5000000000063310E-01     0.0000000000000000E+00 
    2.4999999999992020E-01     3.1250000000078260E-01     0.0000000000000000E+00 
    2.5000000000002198E-01     3.7500000000093209E-01     0.0000000000000000E+00 
    2.5000000000012390E-01     4.3750000000108180E-01     0.0000000000000000E+00 
    2.5000000000022571E-01     5.0000000000121769E-01     0.0000000000000000E+00 
    2.5000000000032763E-01     5.6250000000094724E-01     0.0000000000000000E+00 
    2.5000000000042938E-01     6.2500000000066314E-01     0.0000000000000000E+00 
    2.5000000000053119E-01     6.8750000000037925E-01     0.0000000000000000E+00 
[...]
CELL_DATA 256 
SCALARS Pressure double 1 
LOOKUP_TABLE default 

    2.3330270703290088E+00 
    2.2281896756510138E+00 
    2.1592849467808697E+00 
    2.1043380291615410E+00 
    2.0563127749588999E+00 
    2.0131442016317176E+00 
    1.9730155692454254E+00 
    1.9353830979120570E+00 
    1.9002926237150564E+00 
    1.8677274980049936E+00 
    1.8379462132901094E+00 
    1.8111731660046837E+00 
    1.7845701971793588E+00 
    1.7615376857984451E+00 
    1.7469649519530932E+00 
    1.7396424429688822E+00 
    2.2282092541476874E+00 
    2.1841999961234029E+00 
    2.1362034057970378E+00 
    2.0893878607709517E+00 
    2.0455601288405982E+00 
    2.0046156857945858E+00 
    1.9656005620068997E+00 
    1.9286422997619401E+00 
    1.8938763473326221E+00 
    1.8613708049813757E+00 
    1.8315237300827403E+00 
    1.8045408900209889E+00 
    1.7776876918835713E+00 
    1.7544645197616804E+00 
    1.7397287741933698E+00 
    1.7323227934529191E+00 
    2.1593413649974993E+00 
    2.1362396253918345E+00 
    2.1022836045061095E+00 
    2.0645303926751870E+00 
    2.0264024152956823E+00 
    1.9885911268120218E+00 
    1.9514178039892838E+00 
    1.9155493009619839E+00 
    1.8812403540558289E+00 
    1.8488123283591635E+00 
    1.8187837553747064E+00 
    1.7913315039792306E+00 
    1.7639284242726252E+00 
    1.7402852570757501E+00 
    1.7252000888590477E+00 
    1.7176091046238620E+00 
    2.1044475281090937E+00 
    2.0894726150860703E+00 
    2.0645760636895139E+00 
    2.0343241978274058E+00 
    2.0012072137966936E+00 
    1.9665250151256621E+00 
    1.9314053569620644E+00 
    1.8966769891141699E+00 
    1.8627903346107941E+00 
    1.8303029817883054E+00 
    1.7998633839870843E+00 
    1.7715956071520789E+00 
    1.7432580440691232E+00 
    1.7188912248664998E+00 
    1.7032190581169844E+00 
    1.6953138656910998E+00 
    2.0564729531143926E+00 
    2.0456893333082089E+00 
    2.0264936409560357E+00 
    2.0012552957107923E+00 
    1.9718788058543546E+00 
    1.9399206286004622E+00 
    1.9066178775346354E+00 
    1.8727752327289700E+00 
    1.8390479175428505E+00 
    1.8061979335098866E+00 
    1.7750031369594397E+00 
    1.7454390873971557E+00 
    1.7156341666501862E+00 
    1.6901065784712459E+00 
    1.6735191444478064E+00 
    1.6651251961320748E+00 
    2.0133396125410497E+00 
    2.0047884128546678E+00 
    1.9887321269472642E+00 
    1.9666264997367520E+00 
    1.9399758781094363E+00 
    1.9101028166476295E+00 
    1.8780365573039064E+00 
    1.8445854247810687E+00 
    1.8105878030280689E+00 
    1.7769329346495730E+00 
    1.7444655509766911E+00 
    1.7129255813034809E+00 
    1.6809068385102015E+00 
    1.6536192091313653E+00 
    1.6356736406369432E+00 
    1.6265574263158462E+00 
    1.9732598245018078E+00 
    1.9658276931579532E+00 
    1.9516164689943973E+00 
    1.9315653374626811E+00 
    1.9067296066513399E+00 
    1.8780928955547320E+00 
    1.8465250873444550E+00 
    1.8128679446591847E+00 
    1.7780450850215286E+00 
    1.7429632248880018E+00 
    1.7085352085079306E+00 
    1.6740888541738042E+00 
    1.6388038621798429E+00 
    1.6089351564612520E+00 
    1.5890262542664997E+00 
    1.5788660866943327E+00 
    1.9356794589495512E+00 
    1.9289235839645693E+00 
    1.9158065508981563E+00 
    1.8969005137257899E+00 
    1.8729525915784833E+00 
    1.8447052480853821E+00 
    1.8129264813140364E+00 
    1.7784313880691218E+00 
    1.7420765125586881E+00 
    1.7048086213705758E+00 
    1.6675969199854936E+00 
    1.6289503069821689E+00 
    1.5888630992408519E+00 
    1.5553428513220202E+00 
    1.5326707545840446E+00 
    1.5210204680292831E+00 
    1.9006379172038501E+00 
    1.8942127247411409E+00 
    1.8815644450521689E+00 
    1.8630901896560592E+00 
    1.8393016843146728E+00 
    1.8107757782318821E+00 
    1.7781616738449944E+00 
    1.7421246164440698E+00 
    1.7034213987621294E+00 
    1.6630158879470338E+00 
    1.6218299267577787E+00 
    1.5769826346898523E+00 
    1.5301435126483680E+00 
    1.4918132414084901E+00 
    1.4653162666295325E+00 
    1.4515287052155763E+00 
    1.8681168890677560E+00 
    1.8617630539370649E+00 
    1.8492142052900751E+00 
    1.8307006580578280E+00 
    1.8065492790705311E+00 
    1.7772017170185002E+00 
    1.7431345584285460E+00 
    1.7048832051872651E+00 
    1.6630302818957179E+00 
    1.6182642355654684E+00 
    1.5708403040076329E+00 
    1.5168559150673451E+00 
    1.4616143324712891E+00 
    1.4172167819809125E+00 
    1.3852622858098476E+00 
    1.3682550346753333E+00 
    1.8383666903125386E+00 
    1.8319610347060942E+00 
    1.8192736462799408E+00 
    1.8004006189400674E+00 
    1.7754905466192610E+00 
    1.7448319737441347E+00 
    1.7087443852428355E+00 
    1.6676474676348372E+00 
    1.6218060283745770E+00 
    1.5708139675932666E+00 
    1.5133328901507157E+00 
    1.4475014181288173E+00 
    1.3833996061901230E+00 
    1.3305791305709616E+00 
    1.2902400645848535E+00 
    1.2679620671357501E+00 
    1.8115924211034018E+00 
    1.8049748661343303E+00 
    1.7918165328489675E+00 
    1.7721012169740809E+00 
    1.7458163691185946E+00 
    1.7131291672563727E+00 
    1.6741046038000809E+00 
    1.6288020679200996E+00 
    1.5768294665894700E+00 
    1.5167617996180640E+00 
    1.4474570548345516E+00 
    1.3719686723490512E+00 
    1.2982857635699125E+00 
    1.2316012703171466E+00 
    1.1772055666569008E+00 
    1.1454181151157192E+00 
    1.7849553625000725E+00 
    1.7780650516478338E+00 
    1.7642849224257879E+00 
    1.7435157332574518E+00 
    1.7156739429704511E+00 
    1.6807662224472555E+00 
    1.6385197189931395E+00 
    1.5885051887228498E+00 
    1.5298881716383310E+00 
    1.4614694489173994E+00 
    1.3833230592255019E+00 
    1.2982563023684801E+00 
    1.2092781688539211E+00 
    1.1203729622714147E+00 
    1.0415912291349034E+00 
    9.9110043532097147E-01 
    1.7618776783725019E+00 
    1.7547813785244586E+00 
    1.7405482949589912E+00 
    1.7190434109065167E+00 
    1.6900943348240933E+00 
    1.6534724451056761E+00 
    1.6086882019096229E+00 
    1.5550593980042897E+00 
    1.4915984366322841E+00 
    1.4170765720706489E+00 
    1.3304934828138621E+00 
    1.2315558649607525E+00 
    1.1203551430416885E+00 
    9.9903302658295778E-01 
    8.7770831754248291E-01 
    7.8630131015417870E-01 
    1.7472692374359942E+00 
    1.7400055334483264E+00 
    1.7254203570788123E+00 
    1.7033496633223133E+00 
    1.6735379069171499E+00 
    1.6355913758675744E+00 
    1.5888699477770010E+00 
    1.5324848126721164E+00 
    1.4651514233765472E+00 
    1.3851377172379149E+00 
    1.2901541686974656E+00 
    1.1771527511260025E+00 
    1.0415633358422041E+00 
    8.7769764424882768E-01 
    6.8390580434266168E-01 
    4.9008392074219886E-01 
    1.7399199539359338E+00 
    1.7325728760131465E+00 
    1.7178052096556733E+00 
    1.6954314715424335E+00 
    1.6651510226082562E+00 
    1.6264986361886273E+00 
    1.5787442704003889E+00 
    1.5208697746733735E+00 
    1.4513840544725589E+00 
    1.3681365919045660E+00 
    1.2678744955470731E+00 
    1.1453599820621561E+00 
    9.9106621260344918E-01 
    7.8628455201363789E-01 
    4.9007838626217681E-01 
    0.0000000000000000E+00 

SCALARS Saturarion double 1 
LOOKUP_TABLE default 

    1.0000000000458193E+00 
    9.6407834779451607E-01 
    8.9928775207155776E-01 
    8.3410233483166907E-01 
    7.7259513325226159E-01 
    7.1713774582195433E-01 
    6.6543417667233085E-01 
    6.1916395789529144E-01 
    5.7467027764280099E-01 
    5.3067150679919395E-01 
    4.8835304786052230E-01 
    4.3943706579202196E-01 
    1.1861767761186920E-01 
    1.0000005535706185E-06 
    1.0000000000003646E-06 
    9.9999999999999995E-07 
    9.6407598305717634E-01 
    9.3614964007565427E-01 
    8.8033448177555729E-01 
    8.2061470067073861E-01 
    7.6301016640627672E-01 
    7.1061568939412945E-01 
    6.6086694611123198E-01 
    6.1613184560349832E-01 
    5.7257913334878185E-01 
    5.2949994034199466E-01 
    4.8773672604870555E-01 
    4.3870924645500120E-01 
    1.1100866756992314E-01 
    2.1429336494035674E-06 
    1.0000007450142103E-06 
    1.0000000000000192E-06 
    8.9927676846871285E-01 
    8.8032649292122511E-01 
    8.3738650076189725E-01 
    7.9083336816425320E-01 
    7.4230497863931699E-01 
    6.9466824171229846E-01 
    6.4958356304366383E-01 
    6.0812099515343665E-01 
    5.6666843132753453E-01 
    5.2549050813766973E-01 
    4.8516159591350388E-01 
    4.3486387733808357E-01 
    1.0174647200332410E-01 
    6.8123081746010082E-06 
    1.0000079358558504E-06 
    9.9999999999999974E-07 
    8.3407589432356455E-01 
    8.2059253540966748E-01 
    7.9082086800322415E-01 
    7.5218692973395529E-01 
    7.1383216427277596E-01 
    6.7407300395800651E-01 
    6.3477848431972095E-01 
    5.9637196441378293E-01 
    5.5791885981994427E-01 
    5.1984469091114949E-01 
    4.8167973413546228E-01 
    4.2977956521741523E-01 
    9.0521841867143474E-02 
    7.0465714420665166E-06 
    1.0000082969842900E-06 
    1.0000000000000042E-06 
    7.7256263072891784E-01 
    7.6298686805249305E-01 
    7.4228343317846213E-01 
    7.1382308223469049E-01 
    6.8105520245742213E-01 
    6.4925280982476297E-01 
    6.1620028878853561E-01 
    5.8222311865768894E-01 
    5.4750494363550606E-01 
    5.1328685190537082E-01 
    4.7733755035068265E-01 
    4.2478681869591561E-01 
    7.6414199163184079E-02 
    8.8081141964924021E-06 
    1.0000125015680600E-06 
    1.0000000000000008E-06 
    7.1714503207659563E-01 
    7.1060824389424726E-01 
    6.9465192484532556E-01 
    6.7405450477376427E-01 
    6.4924730192571900E-01 
    6.2122438391551082E-01 
    5.9356101946209694E-01 
    5.6541037239155312E-01 
    5.3579656131235365E-01 
    5.0510690032417938E-01 
    4.7176642637554200E-01 
    4.1686619521153917E-01 
    6.3718045329622996E-02 
    7.9295308497570506E-06 
    1.0000073570265289E-06 
    9.9999999999999974E-07 
    6.6544567578643932E-01 
    6.6086054602106148E-01 
    6.4956511194969080E-01 
    6.3475453954927041E-01 
    6.1618380320345734E-01 
    5.9355685116246049E-01 
    5.6945851479120002E-01 
    5.4630020858476036E-01 
    5.2199702752552923E-01 
    4.9548530672491747E-01 
    4.6610981352979314E-01 
    4.0786252697383585E-01 
    5.0261318734551134E-02 
    5.4238022632008568E-06 
    1.0000040638176693E-06 
    9.9999999999999974E-07 
    6.1915681285360924E-01 
    6.1611303857281929E-01 
    6.0809127962899268E-01 
    5.9633814651398342E-01 
    5.8219221109687602E-01 
    5.6539187217563247E-01 
    5.4629819455904782E-01 
    5.2579271266162009E-01 
    5.0606123268244019E-01 
    4.8453302685166411E-01 
    4.5950093575389100E-01 
    3.9598755486121529E-01 
    3.9762970789420433E-02 
    6.5806648579431765E-06 
    1.0000039021454183E-06 
    9.9999999999999974E-07 
    5.7465022741232707E-01 
    5.7254650100338977E-01 
    5.6662060944556625E-01 
    5.5786649494565099E-01 
    5.4745589584668619E-01 
    5.3575928985767207E-01 
    5.2197894246641097E-01 
    5.0606083978661842E-01 
    4.8979290369287182E-01 
    4.7343330219479368E-01 
    4.4984121898702045E-01 
    3.6704030325043879E-01 
    2.4609246477337501E-02 
    7.3244381467908889E-06 
    1.0000036655113727E-06 
    1.0000000000000004E-06 
    5.3068251294218272E-01 
    5.2947402775026409E-01 
    5.2543321406873245E-01 
    5.1976923375029216E-01 
    5.1321607110238421E-01 
    5.0505676810006928E-01 
    4.9545801637844838E-01 
    4.8451751638677820E-01 
    4.7342572789259724E-01 
    4.6052229825790891E-01 
    4.3552287794582367E-01 
    3.0120376137625793E-01 
    7.7195827989206918E-03 
    2.1354915866662633E-06 
    1.0000002081341906E-06 
    1.0000000000000002E-06 
    4.8836888849877969E-01 
    4.8771639652535492E-01 
    4.8508895614620895E-01 
    4.8149591941130565E-01 
    4.7715289278817496E-01 
    4.7167612462685532E-01 
    4.6596451671835681E-01 
    4.5931662759873365E-01 
    4.4958171140390457E-01 
    4.3553042628151117E-01 
    3.9901250538518918E-01 
    1.6245581103547227E-01 
    5.7432952333398817E-04 
    1.1004416448348886E-06 
    1.0000000000315100E-06 
    9.9999999999999995E-07 
    4.3945975913397939E-01 
    4.3870028038211750E-01 
    4.3474031545194775E-01 
    4.2390142941854264E-01 
    4.1626563667465255E-01 
    4.0957989784715976E-01 
    4.0151598531793165E-01 
    3.9224737542638866E-01 
    3.6312360118401416E-01 
    3.0111357062707456E-01 
    1.6227293686001687E-01 
    8.7797358462990208E-03 
    2.7980162894908487E-06 
    1.0000005654670233E-06 
    1.0000000000000775E-06 
    9.9999999999999995E-07 
    1.1869192453033914E-01 
    1.1107937483722838E-01 
    1.0160851307177214E-01 
    9.7477213811461919E-02 
    8.5254322920388828E-02 
    6.6979736194591036E-02 
    5.6463911581295552E-02 
    4.0336894921326596E-02 
    2.8227036054442683E-02 
    7.7091334035972276E-03 
    5.7501247523614012E-04 
    2.8029283123693450E-06 
    1.0000019097894938E-06 
    1.0000000000008108E-06 
    9.9999999999999995E-07 
    9.9999999999999995E-07 
    1.0000005605761468E-06 
    2.1599962274277017E-06 
    7.1042928435210509E-06 
    7.3249625971563292E-06 
    1.2917049372419281E-05 
    9.6732376011234926E-06 
    5.2339975662398239E-06 
    7.9708941265773989E-06 
    6.5998412881546815E-06 
    2.1843799932574446E-06 
    1.1036455042033809E-06 
    1.0000005644207696E-06 
    1.0000000000008104E-06 
    9.9999999999999995E-07 
    9.9999999999999995E-07 
    9.9999999999999995E-07 
    1.0000000000003646E-06 
    1.0000007096055507E-06 
    1.0000084881569542E-06 
    1.0000040471039866E-06 
    1.0000261075044582E-06 
    1.0000152967493188E-06 
    1.0000032165045805E-06 
    1.0000072579885295E-06 
    1.0000033030049822E-06 
    1.0000002087616421E-06 
    1.0000000001044868E-06 
    1.0000000000000768E-06 
    9.9999999999999995E-07 
    9.9999999999999995E-07 
    9.9999999999999995E-07 
    9.9999999999999995E-07 
    9.9999999999999995E-07 
    1.0000000000000328E-06 
    1.0000000000000004E-06 
    1.0000000000000002E-06 
    1.0000000000000012E-06 
    1.0000000000000002E-06 
    1.0000000000000002E-06 
    1.0000000000000004E-06 
    9.9999999999999995E-07 
    1.0000000000000002E-06 
    9.9999999999999995E-07 
    9.9999999999999995E-07 
    9.9999999999999995E-07 
    9.9999999999999995E-07 
    9.9999999999999995E-07 
    1.0000001004979081E-06 
