# vtk DataFile Version 2.0
Pressure Field Data 
ASCII 
DATASET UNSTRUCTURED_GRID 

POINTS 289 double 

    0.0000000000000000E+00     0.0000000000000000E+00     0.0000000000000000E+00 
    1.0000000000000000E+00     0.0000000000000000E+00     0.0000000000000000E+00 
    1.0000000000000000E+00     1.0000000000000000E+00     0.0000000000000000E+00 
    0.0000000000000000E+00     1.0000000000000000E+00     0.0000000000000000E+00 
    6.2499999999872928E-02     0.0000000000000000E+00     0.0000000000000000E+00 
    1.2499999999977310E-01     0.0000000000000000E+00     0.0000000000000000E+00 
    1.8749999999959341E-01     0.0000000000000000E+00     0.0000000000000000E+00 
    2.4999999999941089E-01     0.0000000000000000E+00     0.0000000000000000E+00 
    3.1249999999922851E-01     0.0000000000000000E+00     0.0000000000000000E+00 
    3.7499999999904610E-01     0.0000000000000000E+00     0.0000000000000000E+00 
    4.3749999999886358E-01     0.0000000000000000E+00     0.0000000000000000E+00 
    4.9999999999869210E-01     0.0000000000000000E+00     0.0000000000000000E+00 
    5.6249999999884603E-01     0.0000000000000000E+00     0.0000000000000000E+00 
    6.2499999999901090E-01     0.0000000000000000E+00     0.0000000000000000E+00 
    6.8749999999917577E-01     0.0000000000000000E+00     0.0000000000000000E+00 
    7.4999999999934064E-01     0.0000000000000000E+00     0.0000000000000000E+00 
    8.1249999999950551E-01     0.0000000000000000E+00     0.0000000000000000E+00 
    8.7499999999967026E-01     0.0000000000000000E+00     0.0000000000000000E+00 
    9.3749999999983513E-01     0.0000000000000000E+00     0.0000000000000000E+00 
    1.0000000000000000E+00     6.2499999999872928E-02     0.0000000000000000E+00 
    1.0000000000000000E+00     1.2499999999977310E-01     0.0000000000000000E+00 
    1.0000000000000000E+00     1.8749999999959341E-01     0.0000000000000000E+00 
    1.0000000000000000E+00     2.4999999999941089E-01     0.0000000000000000E+00 
    1.0000000000000000E+00     3.1249999999922851E-01     0.0000000000000000E+00 
    1.0000000000000000E+00     3.7499999999904610E-01     0.0000000000000000E+00 
    1.0000000000000000E+00     4.3749999999886358E-01     0.0000000000000000E+00 
    1.0000000000000000E+00     4.9999999999869210E-01     0.0000000000000000E+00 
    1.0000000000000000E+00     5.6249999999884603E-01     0.0000000000000000E+00 
    1.0000000000000000E+00     6.2499999999901090E-01     0.0000000000000000E+00 
    1.0000000000000000E+00     6.8749999999917577E-01     0.0000000000000000E+00 
    1.0000000000000000E+00     7.4999999999934064E-01     0.0000000000000000E+00 
    1.0000000000000000E+00     8.1249999999950551E-01     0.0000000000000000E+00 
    1.0000000000000000E+00     8.7499999999967026E-01     0.0000000000000000E+00 
    1.0000000000000000E+00     9.3749999999983513E-01     0.0000000000000000E+00 
    9.3749999999973976E-01     1.0000000000000000E+00     0.0000000000000000E+00 
    8.7499999999950118E-01     1.0000000000000000E+00     0.0000000000000000E+00 
    8.1249999999991318E-01     1.0000000000000000E+00     0.0000000000000000E+00 
    7.5000000000034706E-01     1.0000000000000000E+00     0.0000000000000000E+00 
    6.8750000000078049E-01     1.0000000000000000E+00     0.0000000000000000E+00 
    6.2500000000121403E-01     1.0000000000000000E+00     0.0000000000000000E+00 
    5.6250000000164757E-01     1.0000000000000000E+00     0.0000000000000000E+00 
    5.0000000000205946E-01     1.0000000000000000E+00     0.0000000000000000E+00 
    4.3750000000182099E-01     1.0000000000000000E+00     0.0000000000000000E+00 
    3.7500000000156092E-01     1.0000000000000000E+00     0.0000000000000000E+00 
    3.1250000000130068E-01     1.0000000000000000E+00     0.0000000000000000E+00 
    2.5000000000104050E-01     1.0000000000000000E+00     0.0000000000000000E+00 
    1.8750000000078040E-01     1.0000000000000000E+00     0.0000000000000000E+00 
    1.2500000000052031E-01     1.0000000000000000E+00     0.0000000000000000E+00 
    6.2500000000260125E-02     1.0000000000000000E+00     0.0000000000000000E+00 
    0.0000000000000000E+00     9.3749999999973976E-01     0.0000000000000000E+00 
    0.0000000000000000E+00     8.7499999999950118E-01     0.0000000000000000E+00 
    0.0000000000000000E+00     8.1249999999991318E-01     0.0000000000000000E+00 
    0.0000000000000000E+00     7.5000000000034706E-01     0.0000000000000000E+00 
    0.0000000000000000E+00     6.8750000000078049E-01     0.0000000000000000E+00 
    0.0000000000000000E+00     6.2500000000121403E-01     0.0000000000000000E+00 
    0.0000000000000000E+00     5.6250000000164757E-01     0.0000000000000000E+00 
    0.0000000000000000E+00     5.0000000000205946E-01     0.0000000000000000E+00 
    0.0000000000000000E+00     4.3750000000182099E-01     0.0000000000000000E+00 
    0.0000000000000000E+00     3.7500000000156092E-01     0.0000000000000000E+00 
    0.0000000000000000E+00     3.1250000000130068E-01     0.0000000000000000E+00 
    0.0000000000000000E+00     2.5000000000104050E-01     0.0000000000000000E+00 
    0.0000000000000000E+00     1.8750000000078040E-01     0.0000000000000000E+00 
    0.0000000000000000E+00     1.2500000000052031E-01     0.0000000000000000E+00 
    0.0000000000000000E+00     6.2500000000260125E-02     0.0000000000000000E+00 
    6.2499999999897131E-02     6.2500000000235922E-02     0.0000000000000000E+00 
    6.2499999999921327E-02     1.2500000000047351E-01     0.0000000000000000E+00 
    6.2499999999945530E-02     1.8750000000070621E-01     0.0000000000000000E+00 
    6.2499999999969733E-02     2.5000000000093858E-01     0.0000000000000000E+00 
    6.2499999999993928E-02     3.1250000000117117E-01     0.0000000000000000E+00 
    6.2500000000018124E-02     3.7500000000140382E-01     0.0000000000000000E+00 
    6.2500000000042327E-02     4.3750000000163619E-01     0.0000000000000000E+00 
    6.2500000000066530E-02     5.0000000000184897E-01     0.0000000000000000E+00 
    6.2500000000090733E-02     5.6250000000147260E-01     0.0000000000000000E+00 
    6.2500000000114922E-02     6.2500000000107636E-01     0.0000000000000000E+00 
    6.2500000000139125E-02     6.8750000000068034E-01     0.0000000000000000E+00 
    6.2500000000163328E-02     7.5000000000028411E-01     0.0000000000000000E+00 
    6.2500000000187531E-02     8.1249999999988787E-01     0.0000000000000000E+00 
    6.2500000000211720E-02     8.7499999999951172E-01     0.0000000000000000E+00 
    6.2500000000235922E-02     9.3749999999974565E-01     0.0000000000000000E+00 
    1.2499999999981980E-01     6.2500000000211733E-02     0.0000000000000000E+00 
    1.2499999999986650E-01     1.2500000000042691E-01     0.0000000000000000E+00 
    1.2499999999991319E-01     1.8750000000063199E-01     0.0000000000000000E+00 
    1.2499999999995989E-01     2.5000000000083678E-01     0.0000000000000000E+00 
    1.2500000000000661E-01     3.1250000000104172E-01     0.0000000000000000E+00 
    1.2500000000005329E-01     3.7500000000124661E-01     0.0000000000000000E+00 
    1.2500000000010000E-01     4.3750000000145117E-01     0.0000000000000000E+00 
    1.2500000000014669E-01     5.0000000000163858E-01     0.0000000000000000E+00 
    1.2500000000019340E-01     5.6250000000129741E-01     0.0000000000000000E+00 
    1.2500000000024011E-01     6.2500000000093847E-01     0.0000000000000000E+00 
    1.2500000000028680E-01     6.8750000000057998E-01     0.0000000000000000E+00 
    1.2500000000033351E-01     7.5000000000022127E-01     0.0000000000000000E+00 
    1.2500000000038020E-01     8.1249999999986211E-01     0.0000000000000000E+00 
    1.2500000000042691E-01     8.7499999999952238E-01     0.0000000000000000E+00 
    1.2500000000047359E-01     9.3749999999975164E-01     0.0000000000000000E+00 
    1.8749999999966760E-01     6.2500000000187531E-02     0.0000000000000000E+00 
    1.8749999999974179E-01     1.2500000000038020E-01     0.0000000000000000E+00 
    1.8749999999981601E-01     1.8750000000055780E-01     0.0000000000000000E+00 
    1.8749999999989009E-01     2.5000000000073502E-01     0.0000000000000000E+00 
    1.8749999999996431E-01     3.1250000000091221E-01     0.0000000000000000E+00 
    1.8750000000003850E-01     3.7500000000108941E-01     0.0000000000000000E+00 
    1.8750000000011269E-01     4.3750000000126649E-01     0.0000000000000000E+00 
    1.8750000000018691E-01     5.0000000000142808E-01     0.0000000000000000E+00 
    1.8750000000026110E-01     5.6250000000112244E-01     0.0000000000000000E+00 
    1.8750000000033529E-01     6.2500000000080080E-01     0.0000000000000000E+00 
    1.8750000000040951E-01     6.8750000000047962E-01     0.0000000000000000E+00 
    1.8750000000048361E-01     7.5000000000015843E-01     0.0000000000000000E+00 
    1.8750000000055780E-01     8.1249999999983680E-01     0.0000000000000000E+00 
    1.8750000000063199E-01     8.7499999999953304E-01     0.0000000000000000E+00 
    1.8750000000070621E-01     9.3749999999975764E-01     0.0000000000000000E+00 
    2.4999999999951281E-01     6.2500000000163314E-02     0.0000000000000000E+00 
    2.4999999999961461E-01     1.2500000000033351E-01     0.0000000000000000E+00 
    2.4999999999971650E-01     1.8750000000048361E-01     0.0000000000000000E+00 
    2.4999999999981831E-01     2.5000000000063310E-01     0.0000000000000000E+00 
    2.4999999999992020E-01     3.1250000000078260E-01     0.0000000000000000E+00 
    2.5000000000002198E-01     3.7500000000093209E-01     0.0000000000000000E+00 
    2.5000000000012390E-01     4.3750000000108180E-01     0.0000000000000000E+00 
    2.5000000000022571E-01     5.0000000000121769E-01     0.0000000000000000E+00 
    2.5000000000032763E-01     5.6250000000094724E-01     0.0000000000000000E+00 
    2.5000000000042938E-01     6.2500000000066314E-01     0.0000000000000000E+00 
    2.5000000000053119E-01     6.8750000000037925E-01     0.0000000000000000E+00 
[...]
CELL_DATA 256 
SCALARS Pressure double 1 
LOOKUP_TABLE default 

    2.6911109308667807E+00 
    2.5757187168300244E+00 
    2.4880818718045479E+00 
    2.4088380356866552E+00 
    2.3336934267566205E+00 
    2.2604820386704407E+00 
    2.1859106571827658E+00 
    2.1053018260029388E+00 
    2.0293648646158591E+00 
    1.9673642052133349E+00 
    1.9151820183633455E+00 
    1.8721771499461446E+00 
    1.8379718536417573E+00 
    1.8123835814527909E+00 
    1.7953408451303798E+00 
    1.7868267723087625E+00 
    2.5757370656017535E+00 
    2.5218054970793160E+00 
    2.4561980194175788E+00 
    2.3869778199506606E+00 
    2.3170295905862308E+00 
    2.2469031309310585E+00 
    2.1724557747655555E+00 
    2.0918032596777305E+00 
    2.0185236076638442E+00 
    1.9575651065448147E+00 
    1.9060320769799817E+00 
    1.8633954720072470E+00 
    1.8293707224000804E+00 
    1.8038521206448226E+00 
    1.7868251169930489E+00 
    1.7783143239787795E+00 
    2.4881256061160482E+00 
    2.4562219542361041E+00 
    2.4072727359222599E+00 
    2.3491994076706217E+00 
    2.2861203181391265E+00 
    2.2200792819318100E+00 
    2.1456421979301656E+00 
    2.0662070458832384E+00 
    1.9973464599668378E+00 
    1.9383803845254386E+00 
    1.8880319858488370E+00 
    1.8460346634471498E+00 
    1.8122974548880617E+00 
    1.7868637904250544E+00 
    1.7698311153634574E+00 
    1.7613021617444855E+00 
    2.4089043756444255E+00 
    2.3870231159952922E+00 
    2.3492223537270047E+00 
    2.3002648713278440E+00 
    2.2438404403830607E+00 
    2.1802222493576808E+00 
    2.1057106366079505E+00 
    2.0309576569155485E+00 
    1.9670102650130099E+00 
    1.9106191812401481E+00 
    1.8617281379658512E+00 
    1.8204440757514182E+00 
    1.7869526688889186E+00 
    1.7615095911371756E+00 
    1.7443758775427758E+00 
    1.7357692199789392E+00 
    2.3337759234783468E+00 
    2.3170932792595389E+00 
    2.2861655607951876E+00 
    2.2438635663560134E+00 
    2.1914421606447609E+00 
    2.1273589681549288E+00 
    2.0558210207577989E+00 
    1.9888548782752227E+00 
    1.9292356393945320E+00 
    1.8754001479977351E+00 
    1.8278579590715882E+00 
    1.7870860840652303E+00 
    1.7535889231070980E+00 
    1.7278829112581511E+00 
    1.7104423666736579E+00 
    1.7016403622183529E+00 
    2.2605748587013101E+00 
    2.2469850978037802E+00 
    2.2201436937543981E+00 
    2.1802647626042222E+00 
    2.1273801219594692E+00 
    2.0647943267702686E+00 
    2.0015156707975481E+00 
    1.9418059608268652E+00 
    1.8857292281239222E+00 
    1.8339326312227449E+00 
    1.7872411204214533E+00 
    1.7464727932722186E+00 
    1.7124589542027779E+00 
    1.6860247319537391E+00 
    1.6679186859822757E+00 
    1.6587237483340151E+00 
    2.1860142985997264E+00 
    2.1725507947313871E+00 
    2.1457217595545433E+00 
    2.1057710415474600E+00 
    2.0558622455283770E+00 
    2.0015366762427238E+00 
    1.9462826326872369E+00 
    1.8913682366957834E+00 
    1.8379878315380369E+00 
    1.7873863345269598E+00 
    1.7407191539376350E+00 
    1.6991187759462587E+00 
    1.6637688850052614E+00 
    1.6358617517737450E+00 
    1.6165100734661046E+00 
    1.6066019738691704E+00 
    2.1054281670109973E+00 
    2.0919210765934837E+00 
    2.0663110236804183E+00 
    2.0310444987051959E+00 
    1.9889221770831611E+00 
    1.9418518871162775E+00 
    1.8913921724676632E+00 
    1.8394408328005025E+00 
    1.7875034136212413E+00 
    1.7369575833823825E+00 
    1.6891662774240623E+00 
    1.6455566441149290E+00 
    1.6076770958676070E+00 
    1.5771839084415717E+00 
    1.5556993382405992E+00 
    1.5445765469980319E+00 
    2.0295252784604987E+00 
    2.0186746692386071E+00 
    1.9974814005418235E+00 
    1.9671255235181468E+00 
    1.9293295014842042E+00 
    1.8858011952408384E+00 
    1.8380387656368797E+00 
    1.7875302984308046E+00 
    1.7356618290570931E+00 
    1.6838155561610939E+00 
    1.6334693137817127E+00 
    1.5862816066985912E+00 
    1.5442114728671186E+00 
    1.5095111211617565E+00 
    1.4845490258416270E+00 
    1.4714308622127319E+00 
    1.9675524091525864E+00 
    1.9577437220598384E+00 
    1.9385437999552015E+00 
    1.9107634627357921E+00 
    1.8755230134411474E+00 
    1.8340334576049058E+00 
    1.7874670854136541E+00 
    1.7370138081250253E+00 
    1.6838446286811644E+00 
    1.6292291212902206E+00 
    1.5746343838632009E+00 
    1.5218894875764275E+00 
    1.4733720231710994E+00 
    1.4320987712680362E+00 
    1.4015640566327305E+00 
    1.3851720615362773E+00 
    1.9153974887113399E+00 
    1.9062387819060338E+00 
    1.8882247157488394E+00 
    1.8619029553839224E+00 
    1.8280123442798331E+00 
    1.7873738228653049E+00 
    1.7408294316055271E+00 
    1.6892521092797126E+00 
    1.6335285795941714E+00 
    1.5746650405637101E+00 
    1.5139520751318769E+00 
    1.4532496362811738E+00 
    1.3952704489331653E+00 
    1.3439286082230670E+00 
    1.3044134892802366E+00 
    1.2825064797750685E+00 
    1.8724174040151271E+00 
    1.8636278335360679E+00 
    1.8462541639344561E+00 
    1.8206466042952563E+00 
    1.7872686800421906E+00 
    1.7466335834971458E+00 
    1.6992565942993754E+00 
    1.6456701854141582E+00 
    1.5863686001870836E+00 
    1.5219477436237643E+00 
    1.4532776695785454E+00 
    1.3819223252824178E+00 
    1.3105783697459699E+00 
    1.2439812456122776E+00 
    1.1897046997256273E+00 
    1.1579600742515321E+00 
    1.8382324327548725E+00 
    1.8296241009543186E+00 
    1.8125387504577872E+00 
    1.7871776844469125E+00 
    1.7537945589148114E+00 
    1.7126431492064735E+00 
    1.6639304016735603E+00 
    1.6078144647565880E+00 
    1.5443224152897919E+00 
    1.4734544533109442E+00 
    1.3953229110547549E+00 
    1.3106029177742617E+00 
    1.2211622899775501E+00 
    1.1317331073194321E+00 
    1.0524918536475407E+00 
    1.0016812932084191E+00 
    1.8126578642588440E+00 
    1.8041197538295626E+00 
    1.7871199881457354E+00 
    1.7617502543411061E+00 
    1.7281050150815154E+00 
    1.6862261444492139E+00 
    1.6360408831346311E+00 
    1.5773389563927143E+00 
    1.5096398895988348E+00 
    1.4321993474869117E+00 
    1.3439996799047893E+00 
    1.2440248269065439E+00 
    1.1317524392690281E+00 
    1.0093091734526978E+00 
    8.8686960680607485E-01 
    7.9460040096879136E-01 
    1.7956201903897493E+00 
    1.7870983573788528E+00 
    1.7700936319757734E+00 
    1.7446237213837632E+00 
    1.7106725347893066E+00 
    1.6681289500853733E+00 
    1.6166983566680146E+00 
    1.5558636039984983E+00 
    1.4846872941230087E+00 
    1.4016746384906005E+00 
    1.3044953748592460E+00 
    1.1897599411119801E+00 
    1.0525236000623794E+00 
    8.8688252096885622E-01 
    6.9107318488178326E-01 
    4.9523897631406733E-01 
    1.7871009289049220E+00 
    1.7785830684287356E+00 
    1.7615609944845110E+00 
    1.7360142302497652E+00 
    1.7018684271141467E+00 
    1.6589325450319303E+00 
    1.6067890222236059E+00 
    1.5447397868106250E+00 
    1.4715685149809896E+00 
    1.3852825865495455E+00 
    1.2825897083409357E+00 
    1.1580180945501903E+00 
    1.0017172078091365E+00 
    7.9461867318577817E-01 
    4.9524508289972230E-01 
    0.0000000000000000E+00 

SCALARS Saturarion double 1 
LOOKUP_TABLE default 

    9.9999997242593996E-01 
    8.9788291814370125E-01 
    7.6703271643150583E-01 
    6.6537327571731297E-01 
    5.8556931320616379E-01 
    5.1404319973057377E-01 
    4.4881164164775411E-01 
    9.7055925426999257E-02 
    1.0001775297477265E-06 
    1.0000000001291142E-06 
    9.9999999999999911E-07 
    9.9999999999999995E-07 
    9.9999999999999995E-07 
    9.9999999999999995E-07 
    9.9999999999999995E-07 
    9.9999999999999995E-07 
    8.9787908530618288E-01 
    8.3641299383220657E-01 
    7.3761326171595121E-01 
    6.4813576261810302E-01 
    5.7317598576221040E-01 
    5.0685073397565505E-01 
    4.1835924616108211E-01 
    5.6341990838633213E-02 
    1.8704054729950948E-05 
    1.0000446966276898E-06 
    1.0000000000000042E-06 
    9.9999999999999995E-07 
    9.9999999999999995E-07 
    9.9999999999999995E-07 
    9.9999999999999995E-07 
    9.9999999999999995E-07 
    7.6702071080066270E-01 
    7.3760474105097806E-01 
    6.7295806974881012E-01 
    6.0976857425715825E-01 
    5.4597267351610634E-01 
    4.8919450664031167E-01 
    3.3724174018663522E-01 
    1.0679827366186495E-02 
    3.6424162658015609E-06 
    1.0000007907982071E-06 
    1.0000000000000006E-06 
    9.9999999999999995E-07 
    9.9999999999999995E-07 
    9.9999999999999995E-07 
    9.9999999999999995E-07 
    9.9999999999999995E-07 
    6.6535107953610528E-01 
    6.4811553572130776E-01 
    6.0975948073915442E-01 
    5.5533191721459785E-01 
    5.0919058819484575E-01 
    4.4860706067296330E-01 
    1.7144496473509885E-01 
    4.1668892234331448E-04 
    1.0688824539581662E-06 
    1.0000000000001418E-06 
    9.9999999999999995E-07 
    9.9999999999999995E-07 
    9.9999999999999995E-07 
    9.9999999999999995E-07 
    9.9999999999999995E-07 
    9.9999999999999995E-07 
    5.8553976666852092E-01 
    5.7314873976793290E-01 
    5.4594963063545010E-01 
    5.0918252458172197E-01 
    4.6000518795774920E-01 
    3.1180308575615368E-01 
    2.0128526447837067E-02 
    1.7602859403377721E-05 
    1.0000183498337590E-06 
    1.0000000000000082E-06 
    9.9999999999999995E-07 
    9.9999999999999995E-07 
    9.9999999999999995E-07 
    9.9999999999999995E-07 
    9.9999999999999995E-07 
    9.9999999999999995E-07 
    5.1401807846515701E-01 
    5.0681774334166496E-01 
    4.8915910642869409E-01 
    4.4856457966151891E-01 
    3.1173472688872411E-01 
    4.9487870324130670E-02 
    1.5802331142436918E-04 
    1.0020041802645684E-06 
    1.0000000000107511E-06 
    9.9999999999999995E-07 
    9.9999999999999995E-07 
    9.9999999999999995E-07 
    9.9999999999999995E-07 
    9.9999999999999995E-07 
    9.9999999999999995E-07 
    9.9999999999999995E-07 
    4.4877884683571345E-01 
    4.1827857776617827E-01 
    3.3706375590966681E-01 
    1.7127370941445536E-01 
    2.0090185872361797E-02 
    1.5788222456975957E-04 
    1.0039123352492619E-06 
    1.0000000004385256E-06 
    1.0000000000000006E-06 
    9.9999999999999995E-07 
    9.9999999999999995E-07 
    9.9999999999999995E-07 
    9.9999999999999995E-07 
    9.9999999999999995E-07 
    9.9999999999999995E-07 
    9.9999999999999995E-07 
    9.6876389773352806E-02 
    5.6197884476732053E-02 
    1.0629139154808925E-02 
    4.1638117169881891E-04 
    1.7523332712323043E-05 
    1.0019999615928198E-06 
    1.0000000004377758E-06 
    1.0000000000000006E-06 
    9.9999999999999995E-07 
    9.9999999999999995E-07 
    9.9999999999999995E-07 
    9.9999999999999995E-07 
    9.9999999999999995E-07 
    9.9999999999999995E-07 
    9.9999999999999995E-07 
    9.9999999999999995E-07 
    1.0001771870902017E-06 
    1.8668852559940090E-05 
    3.6187575641103157E-06 
    1.0686736356262938E-06 
    1.0000181726859480E-06 
    1.0000000000107081E-06 
    9.9999999999999974E-07 
    9.9999999999999995E-07 
    9.9999999999999995E-07 
    9.9999999999999995E-07 
    9.9999999999999995E-07 
    9.9999999999999995E-07 
    9.9999999999999995E-07 
    9.9999999999999995E-07 
    9.9999999999999995E-07 
    9.9999999999999995E-07 
    1.0000000001287274E-06 
    1.0000444575575065E-06 
    1.0000007799738049E-06 
    1.0000000000001410E-06 
    1.0000000000000080E-06 
    9.9999999999999995E-07 
    9.9999999999999995E-07 
    9.9999999999999995E-07 
    9.9999999999999995E-07 
    9.9999999999999995E-07 
    9.9999999999999995E-07 
    9.9999999999999995E-07 
    9.9999999999999995E-07 
    9.9999999999999995E-07 
    9.9999999999999995E-07 
    9.9999999999999995E-07 
    9.9999999999999995E-07 
    1.0000000000000050E-06 
    1.0000000000000004E-06 
    9.9999999999999995E-07 
    9.9999999999999995E-07 
    9.9999999999999995E-07 
    9.9999999999999995E-07 
    9.9999999999999995E-07 
    9.9999999999999995E-07 
    9.9999999999999995E-07 
    9.9999999999999995E-07 
    9.9999999999999995E-07 
    9.9999999999999995E-07 
    9.9999999999999995E-07 
    9.9999999999999995E-07 
    9.9999999999999995E-07 
    9.9999999999999995E-07 
    9.9999999999999995E-07 
    9.9999999999999995E-07 
    9.9999999999999995E-07 
    9.9999999999999995E-07 
    9.9999999999999995E-07 
    9.9999999999999995E-07 
    9.9999999999999995E-07 
    9.9999999999999995E-07 
    9.9999999999999995E-07 
    9.9999999999999995E-07 
    9.9999999999999995E-07 
    9.9999999999999995E-07 
    9.9999999999999995E-07 
    9.9999999999999995E-07 
    9.9999999999999995E-07 
    9.9999999999999995E-07 
    9.9999999999999995E-07 
    9.9999999999999995E-07 
    9.9999999999999995E-07 
    9.9999999999999995E-07 
    9.9999999999999995E-07 
    9.9999999999999995E-07 
    9.9999999999999995E-07 
    9.9999999999999995E-07 
    9.9999999999999995E-07 
    9.9999999999999995E-07 
    9.9999999999999995E-07 
    9.9999999999999995E-07 
    9.9999999999999995E-07 
    9.9999999999999995E-07 
    9.9999999999999995E-07 
    9.9999999999999995E-07 
    9.9999999999999995E-07 
    9.9999999999999995E-07 
    9.9999999999999995E-07 
    9.9999999999999995E-07 
    9.9999999999999995E-07 
    9.9999999999999995E-07 
    9.9999999999999995E-07 
    9.9999999999999995E-07 
    9.9999999999999995E-07 
    9.9999999999999995E-07 
    9.9999999999999995E-07 
    9.9999999999999995E-07 
    9.9999999999999995E-07 
    9.9999999999999995E-07 
    9.9999999999999995E-07 
    9.9999999999999995E-07 
    9.9999999999999995E-07 
    9.9999999999999995E-07 
    9.9999999999999995E-07 
    9.9999999999999995E-07 
    9.9999999999999995E-07 
    9.9999999999999995E-07 
    9.9999999999999995E-07 
    9.9999999999999995E-07 
    9.9999999999999995E-07 
    9.9999999999999995E-07 
    9.9999999999999995E-07 
    9.9999999999999995E-07 
    9.9999999999999995E-07 
    9.9999999999999995E-07 
    9.9999999999999995E-07 
    9.9999999999999995E-07 
    9.9999999999999995E-07 
    9.9999999999999995E-07 
    9.9999999999999995E-07 
    9.9999999999999995E-07 
    9.9999999999999995E-07 
    9.9999999999999995E-07 
    9.9999999999999995E-07 
    9.9999999999999995E-07 
    9.9999999999999995E-07 
    9.9999999999999995E-07 
    9.9999999999999995E-07 
    9.9999999999999995E-07 
    9.9999999999999995E-07 
    9.9999999999999995E-07 
    1.0000000284153666E-06 
