# vtk DataFile Version 2.0
Pressure Field Data 
ASCII 
DATASET UNSTRUCTURED_GRID 

POINTS 289 double 

    0.0000000000000000E+00     0.0000000000000000E+00     0.0000000000000000E+00 
    1.0000000000000000E+00     0.0000000000000000E+00     0.0000000000000000E+00 
    1.0000000000000000E+00     1.0000000000000000E+00     0.0000000000000000E+00 
    0.0000000000000000E+00     1.0000000000000000E+00     0.0000000000000000E+00 
    6.2499999999872928E-02     0.0000000000000000E+00     0.0000000000000000E+00 
    1.2499999999977310E-01     0.0000000000000000E+00     0.0000000000000000E+00 
    1.8749999999959341E-01     0.0000000000000000E+00     0.0000000000000000E+00 
    2.4999999999941089E-01     0.0000000000000000E+00     0.0000000000000000E+00 
    3.1249999999922851E-01     0.0000000000000000E+00     0.0000000000000000E+00 
    3.7499999999904610E-01     0.0000000000000000E+00     0.0000000000000000E+00 
    4.3749999999886358E-01     0.0000000000000000E+00     0.0000000000000000E+00 
    4.9999999999869210E-01     0.0000000000000000E+00     0.0000000000000000E+00 
    5.6249999999884603E-01     0.0000000000000000E+00     0.0000000000000000E+00 
    6.2499999999901090E-01     0.0000000000000000E+00     0.0000000000000000E+00 
    6.8749999999917577E-01     0.0000000000000000E+00     0.0000000000000000E+00 
    7.4999999999934064E-01     0.0000000000000000E+00     0.0000000000000000E+00 
    8.1249999999950551E-01     0.0000000000000000E+00     0.0000000000000000E+00 
    8.7499999999967026E-01     0.0000000000000000E+00     0.0000000000000000E+00 
    9.3749999999983513E-01     0.0000000000000000E+00     0.0000000000000000E+00 
    1.0000000000000000E+00     6.2499999999872928E-02     0.0000000000000000E+00 
    1.0000000000000000E+00     1.2499999999977310E-01     0.0000000000000000E+00 
    1.0000000000000000E+00     1.8749999999959341E-01     0.0000000000000000E+00 
    1.0000000000000000E+00     2.4999999999941089E-01     0.0000000000000000E+00 
    1.0000000000000000E+00     3.1249999999922851E-01     0.0000000000000000E+00 
    1.0000000000000000E+00     3.7499999999904610E-01     0.0000000000000000E+00 
    1.0000000000000000E+00     4.3749999999886358E-01     0.0000000000000000E+00 
    1.0000000000000000E+00     4.9999999999869210E-01     0.0000000000000000E+00 
    1.0000000000000000E+00     5.6249999999884603E-01     0.0000000000000000E+00 
    1.0000000000000000E+00     6.2499999999901090E-01     0.0000000000000000E+00 
    1.0000000000000000E+00     6.8749999999917577E-01     0.0000000000000000E+00 
    1.0000000000000000E+00     7.4999999999934064E-01     0.0000000000000000E+00 
    1.0000000000000000E+00     8.1249999999950551E-01     0.0000000000000000E+00 
    1.0000000000000000E+00     8.7499999999967026E-01     0.0000000000000000E+00 
    1.0000000000000000E+00     9.3749999999983513E-01     0.0000000000000000E+00 
    9.3749999999973976E-01     1.0000000000000000E+00     0.0000000000000000E+00 
    8.7499999999950118E-01     1.0000000000000000E+00     0.0000000000000000E+00 
    8.1249999999991318E-01     1.0000000000000000E+00     0.0000000000000000E+00 
    7.5000000000034706E-01     1.0000000000000000E+00     0.0000000000000000E+00 
    6.8750000000078049E-01     1.0000000000000000E+00     0.0000000000000000E+00 
    6.2500000000121403E-01     1.0000000000000000E+00     0.0000000000000000E+00 
    5.6250000000164757E-01     1.0000000000000000E+00     0.0000000000000000E+00 
    5.0000000000205946E-01     1.0000000000000000E+00     0.0000000000000000E+00 
    4.3750000000182099E-01     1.0000000000000000E+00     0.0000000000000000E+00 
    3.7500000000156092E-01     1.0000000000000000E+00     0.0000000000000000E+00 
    3.1250000000130068E-01     1.0000000000000000E+00     0.0000000000000000E+00 
    2.5000000000104050E-01     1.0000000000000000E+00     0.0000000000000000E+00 
    1.8750000000078040E-01     1.0000000000000000E+00     0.0000000000000000E+00 
    1.2500000000052031E-01     1.0000000000000000E+00     0.0000000000000000E+00 
    6.2500000000260125E-02     1.0000000000000000E+00     0.0000000000000000E+00 
    0.0000000000000000E+00     9.3749999999973976E-01     0.0000000000000000E+00 
    0.0000000000000000E+00     8.7499999999950118E-01     0.0000000000000000E+00 
    0.0000000000000000E+00     8.1249999999991318E-01     0.0000000000000000E+00 
    0.0000000000000000E+00     7.5000000000034706E-01     0.0000000000000000E+00 
    0.0000000000000000E+00     6.8750000000078049E-01     0.0000000000000000E+00 
    0.0000000000000000E+00     6.2500000000121403E-01     0.0000000000000000E+00 
    0.0000000000000000E+00     5.6250000000164757E-01     0.0000000000000000E+00 
    0.0000000000000000E+00     5.0000000000205946E-01     0.0000000000000000E+00 
    0.0000000000000000E+00     4.3750000000182099E-01     0.0000000000000000E+00 
    0.0000000000000000E+00     3.7500000000156092E-01     0.0000000000000000E+00 
    0.0000000000000000E+00     3.1250000000130068E-01     0.0000000000000000E+00 
    0.0000000000000000E+00     2.5000000000104050E-01     0.0000000000000000E+00 
    0.0000000000000000E+00     1.8750000000078040E-01     0.0000000000000000E+00 
    0.0000000000000000E+00     1.2500000000052031E-01     0.0000000000000000E+00 
    0.0000000000000000E+00     6.2500000000260125E-02     0.0000000000000000E+00 
    6.2499999999897131E-02     6.2500000000235922E-02     0.0000000000000000E+00 
    6.2499999999921327E-02     1.2500000000047351E-01     0.0000000000000000E+00 
    6.2499999999945530E-02     1.8750000000070621E-01     0.0000000000000000E+00 
    6.2499999999969733E-02     2.5000000000093858E-01     0.0000000000000000E+00 
    6.2499999999993928E-02     3.1250000000117117E-01     0.0000000000000000E+00 
    6.2500000000018124E-02     3.7500000000140382E-01     0.0000000000000000E+00 
    6.2500000000042327E-02     4.3750000000163619E-01     0.0000000000000000E+00 
    6.2500000000066530E-02     5.0000000000184897E-01     0.0000000000000000E+00 
    6.2500000000090733E-02     5.6250000000147260E-01     0.0000000000000000E+00 
    6.2500000000114922E-02     6.2500000000107636E-01     0.0000000000000000E+00 
    6.2500000000139125E-02     6.8750000000068034E-01     0.0000000000000000E+00 
    6.2500000000163328E-02     7.5000000000028411E-01     0.0000000000000000E+00 
    6.2500000000187531E-02     8.1249999999988787E-01     0.0000000000000000E+00 
    6.2500000000211720E-02     8.7499999999951172E-01     0.0000000000000000E+00 
    6.2500000000235922E-02     9.3749999999974565E-01     0.0000000000000000E+00 
    1.2499999999981980E-01     6.2500000000211733E-02     0.0000000000000000E+00 
    1.2499999999986650E-01     1.2500000000042691E-01     0.0000000000000000E+00 
    1.2499999999991319E-01     1.8750000000063199E-01     0.0000000000000000E+00 
    1.2499999999995989E-01     2.5000000000083678E-01     0.0000000000000000E+00 
    1.2500000000000661E-01     3.1250000000104172E-01     0.0000000000000000E+00 
    1.2500000000005329E-01     3.7500000000124661E-01     0.0000000000000000E+00 
    1.2500000000010000E-01     4.3750000000145117E-01     0.0000000000000000E+00 
    1.2500000000014669E-01     5.0000000000163858E-01     0.0000000000000000E+00 
    1.2500000000019340E-01     5.6250000000129741E-01     0.0000000000000000E+00 
    1.2500000000024011E-01     6.2500000000093847E-01     0.0000000000000000E+00 
    1.2500000000028680E-01     6.8750000000057998E-01     0.0000000000000000E+00 
    1.2500000000033351E-01     7.5000000000022127E-01     0.0000000000000000E+00 
    1.2500000000038020E-01     8.1249999999986211E-01     0.0000000000000000E+00 
    1.2500000000042691E-01     8.7499999999952238E-01     0.0000000000000000E+00 
    1.2500000000047359E-01     9.3749999999975164E-01     0.0000000000000000E+00 
    1.8749999999966760E-01     6.2500000000187531E-02     0.0000000000000000E+00 
    1.8749999999974179E-01     1.2500000000038020E-01     0.0000000000000000E+00 
    1.8749999999981601E-01     1.8750000000055780E-01     0.0000000000000000E+00 
    1.8749999999989009E-01     2.5000000000073502E-01     0.0000000000000000E+00 
    1.8749999999996431E-01     3.1250000000091221E-01     0.0000000000000000E+00 
    1.8750000000003850E-01     3.7500000000108941E-01     0.0000000000000000E+00 
    1.8750000000011269E-01     4.3750000000126649E-01     0.0000000000000000E+00 
    1.8750000000018691E-01     5.0000000000142808E-01     0.0000000000000000E+00 
    1.8750000000026110E-01     5.6250000000112244E-01     0.0000000000000000E+00 
    1.8750000000033529E-01     6.2500000000080080E-01     0.0000000000000000E+00 
    1.8750000000040951E-01     6.8750000000047962E-01     0.0000000000000000E+00 
    1.8750000000048361E-01     7.5000000000015843E-01     0.0000000000000000E+00 
    1.8750000000055780E-01     8.1249999999983680E-01     0.0000000000000000E+00 
    1.8750000000063199E-01     8.7499999999953304E-01     0.0000000000000000E+00 
    1.8750000000070621E-01     9.3749999999975764E-01     0.0000000000000000E+00 
    2.4999999999951281E-01     6.2500000000163314E-02     0.0000000000000000E+00 
    2.4999999999961461E-01     1.2500000000033351E-01     0.0000000000000000E+00 
    2.4999999999971650E-01     1.8750000000048361E-01     0.0000000000000000E+00 
    2.4999999999981831E-01     2.5000000000063310E-01     0.0000000000000000E+00 
    2.4999999999992020E-01     3.1250000000078260E-01     0.0000000000000000E+00 
    2.5000000000002198E-01     3.7500000000093209E-01     0.0000000000000000E+00 
    2.5000000000012390E-01     4.3750000000108180E-01     0.0000000000000000E+00 
    2.5000000000022571E-01     5.0000000000121769E-01     0.0000000000000000E+00 
    2.5000000000032763E-01     5.6250000000094724E-01     0.0000000000000000E+00 
    2.5000000000042938E-01     6.2500000000066314E-01     0.0000000000000000E+00 
    2.5000000000053119E-01     6.8750000000037925E-01     0.0000000000000000E+00 
[...]
CELL_DATA 256 
SCALARS Pressure double 1 
LOOKUP_TABLE default 

    2.3056921844809466E+00 
    2.2012376135929652E+00 
    2.1330504569249547E+00 
    2.0790887624562755E+00 
    2.0321459693680226E+00 
    1.9901716813032440E+00 
    1.9513574929986874E+00 
    1.9150770168554729E+00 
    1.8814087491322049E+00 
    1.8503424841550706E+00 
    1.8220833176884301E+00 
    1.7970179788852674E+00 
    1.7719194264461970E+00 
    1.7495163597313821E+00 
    1.7353254891199494E+00 
    1.7281926091875988E+00 
    2.2012560508775580E+00 
    2.1576244200059218E+00 
    2.1103438209720200E+00 
    2.0644464585338769E+00 
    2.0216337677692859E+00 
    1.9818666436925192E+00 
    1.9441366522635366E+00 
    1.9085100888181163E+00 
    1.8751659074720339E+00 
    1.8441623307064146E+00 
    1.8158539520542054E+00 
    1.7906535027175678E+00 
    1.7653087817183339E+00 
    1.7426415480363886E+00 
    1.7282814886286295E+00 
    1.7210624610248186E+00 
    2.1331021315849252E+00 
    2.1103764814979784E+00 
    2.0770605172449121E+00 
    2.0401052397774366E+00 
    2.0029406322335266E+00 
    1.9662710323469981E+00 
    1.9303296937023371E+00 
    1.8957696045762624E+00 
    1.8628744496318936E+00 
    1.8319468467974798E+00 
    1.8034810607613398E+00 
    1.7779471808912317E+00 
    1.7520725777461963E+00 
    1.7288558541382433E+00 
    1.7141350301493894E+00 
    1.7067257151640547E+00 
    2.0791867771966506E+00 
    2.0645210320784937E+00 
    2.0401442777568799E+00 
    2.0106130869471155E+00 
    1.9784234338672222E+00 
    1.9448147485254461E+00 
    1.9108635515707719E+00 
    1.8774128448972300E+00 
    1.8449237172687005E+00 
    1.8139260964952704E+00 
    1.7850670752964677E+00 
    1.7589187759205280E+00 
    1.7321608201163903E+00 
    1.7080448126747332E+00 
    1.6927207789562830E+00 
    1.6849894737440583E+00 
    2.0322843882257349E+00 
    2.0217423432095090E+00 
    2.0030144908029293E+00 
    1.9784606391154318E+00 
    1.9499431739926076E+00 
    1.9189680830343920E+00 
    1.8867766371762589E+00 
    1.8541806669002610E+00 
    1.8218161432225781E+00 
    1.7904192033019966E+00 
    1.7608108079159892E+00 
    1.7336428240508985E+00 
    1.7055144103165900E+00 
    1.6800201432653796E+00 
    1.6637643617088440E+00 
    1.6555341234785461E+00 
    1.9903300997894968E+00 
    1.9820031944789802E+00 
    1.9663787081371222E+00 
    1.9448890416332218E+00 
    1.9190069077042640E+00 
    1.8900486137100241E+00 
    1.8590528415057419E+00 
    1.8267957389861287E+00 
    1.7940906508300536E+00 
    1.7618316522038142E+00 
    1.7309481411519716E+00 
    1.7021766672362235E+00 
    1.6719988958649956E+00 
    1.6444697948930178E+00 
    1.6268328858908017E+00 
    1.6178639090156655E+00 
    1.9515448574088075E+00 
    1.9443070296832778E+00 
    1.9304730600284121E+00 
    1.9109730514138317E+00 
    1.8868484406352175E+00 
    1.8590865042007887E+00 
    1.8285303243253823E+00 
    1.7959793547341334E+00 
    1.7623565844688156E+00 
    1.7285889305945084E+00 
    1.6956880048876337E+00 
    1.6645029903409916E+00 
    1.6313585033077467E+00 
    1.6009052607164198E+00 
    1.5812625354504521E+00 
    1.5712166908812126E+00 
    1.9152929632202944E+00 
    1.9087088126527845E+00 
    1.8959418640730219E+00 
    1.8775534308679471E+00 
    1.8542862590650941E+00 
    1.8268643659359380E+00 
    1.7960128246961733E+00 
    1.7625318731764250E+00 
    1.7272748575580774E+00 
    1.6911719283008821E+00 
    1.6553095278431162E+00 
    1.6206706080536146E+00 
    1.5832940852931572E+00 
    1.5486673792992180E+00 
    1.5261367244743678E+00 
    1.5145291146222943E+00 
    1.8816473306558903E+00 
    1.8753885442535796E+00 
    1.8630743645235337E+00 
    1.8450953802532184E+00 
    1.8219543346741569E+00 
    1.7941917084694790E+00 
    1.7624236759868497E+00 
    1.7273081532477002E+00 
    1.6895715527034882E+00 
    1.6501595575395467E+00 
    1.6102417362305073E+00 
    1.5707384196805163E+00 
    1.5272955441806018E+00 
    1.4867655550340673E+00 
    1.4601100548828554E+00 
    1.4462377720201400E+00 
    1.8506011565117626E+00 
    1.8444083549602832E+00 
    1.8321743048689805E+00 
    1.8141282006798563E+00 
    1.7905898682808001E+00 
    1.7619660570985083E+00 
    1.7286886669885448E+00 
    1.6912378403696955E+00 
    1.6501945274794045E+00 
    1.6064270692542328E+00 
    1.5610227351804680E+00 
    1.5145137693623973E+00 
    1.4623739521076882E+00 
    1.4138077730333964E+00 
    1.3813084036385499E+00 
    1.3640794760576247E+00 
    1.8223619170709537E+00 
    1.8161223532087789E+00 
    1.8037344684232766E+00 
    1.7852999864838388E+00 
    1.7610163555496250E+00 
    1.7311174945530554E+00 
    1.6958181068377658E+00 
    1.6554113175815346E+00 
    1.6103186409731243E+00 
    1.5610616801711246E+00 
    1.5083036503276095E+00 
    1.4514694194370121E+00 
    1.3871380157809934E+00 
    1.3282057971027605E+00 
    1.2872129987450407E+00 
    1.2646803753616660E+00 
    1.7973099607985510E+00 
    1.7909354159826236E+00 
    1.7782129247434590E+00 
    1.7591633105617450E+00 
    1.7338619751990751E+00 
    1.7023575186960826E+00 
    1.6646446135074473E+00 
    1.6207906774241105E+00 
    1.5708308214732447E+00 
    1.5145587516831367E+00 
    1.4514752806880995E+00 
    1.3800853188977216E+00 
    1.3013390440087120E+00 
    1.2294448094677217E+00 
    1.1747113466619148E+00 
    1.1427778157962780E+00 
    1.7722245061508846E+00 
    1.7656035040288358E+00 
    1.7523482367348997E+00 
    1.7324120284532409E+00 
    1.7057371293575283E+00 
    1.6721792337834331E+00 
    1.6315018293614665E+00 
    1.5834118053361961E+00 
    1.5273755518241050E+00 
    1.4624103509350350E+00 
    1.3871477323717796E+00 
    1.3013474664931732E+00 
    1.2088384009367863E+00 
    1.1182238876403516E+00 
    1.0394466430635079E+00 
    9.8895649969169774E-01 
    1.7498336589370951E+00 
    1.7429492499128101E+00 
    1.7291470447411748E+00 
    1.7083148155195509E+00 
    1.6802622742878270E+00 
    1.6446730832564351E+00 
    1.6010712854091760E+00 
    1.5488002545505948E+00 
    1.4868629087362859E+00 
    1.4138737053074812E+00 
    1.3282463891472773E+00 
    1.2294711520080601E+00 
    1.1182368173967270E+00 
    9.9707231775464289E-01 
    8.7592299698977527E-01 
    7.8465477527693006E-01 
    1.7356458220636826E+00 
    1.7285929269932350E+00 
    1.7144309930072983E+00 
    1.6929954821057365E+00 
    1.6640120938603917E+00 
    1.6270482080567239E+00 
    1.5814430116683245E+00 
    1.5262837081422362E+00 
    1.4602242820452103E+00 
    1.3813933441473114E+00 
    1.2872720263337325E+00 
    1.1747508003102118E+00 
    1.0394698708213954E+00 
    8.7593273686821593E-01 
    6.8251602875352890E-01 
    4.8907264974598758E-01 
    1.7285056462957289E+00 
    1.7213675149712082E+00 
    1.7070162537457276E+00 
    1.6852594525171432E+00 
    1.6557781833354801E+00 
    1.6180779783916834E+00 
    1.5713976687531039E+00 
    1.5146774755768397E+00 
    1.4463548801386670E+00 
    1.3641686386540866E+00 
    1.2647441506832082E+00 
    1.1428212328865044E+00 
    9.8898334451507608E-01 
    7.8466857059193096E-01 
    4.8907729974000175E-01 
    0.0000000000000000E+00 

SCALARS Saturarion double 1 
LOOKUP_TABLE default 

    1.0000000000142097E+00 
    9.6662947090440310E-01 
    9.0537245224248064E-01 
    8.4267311178280901E-01 
    7.8309391693391017E-01 
    7.2843546227319378E-01 
    6.7784743251610569E-01 
    6.3158719164548638E-01 
    5.8819423799625337E-01 
    5.4453419785919677E-01 
    5.0244381378817615E-01 
    4.5759214580922819E-01 
    2.5025647697519854E-01 
    1.0117746260390890E-05 
    1.0000000006869723E-06 
    9.9999999999999995E-07 
    9.6662708847484879E-01 
    9.4036375632541946E-01 
    8.8720587860191202E-01 
    8.2963158486638822E-01 
    7.7359571702617103E-01 
    7.2213047909452033E-01 
    6.7333293728152244E-01 
    6.2862526917156192E-01 
    5.8619396489457920E-01 
    5.4341481667615565E-01 
    5.0191856979990879E-01 
    4.5717347675547376E-01 
    2.4495094287678904E-01 
    2.0293562471619249E-05 
    1.0000018958250096E-06 
    1.0000000000005863E-06 
    9.0536108024572892E-01 
    8.8719757409426414E-01 
    8.4587387561388439E-01 
    8.0063075758910818E-01 
    7.5312866994152472E-01 
    7.0667372283404850E-01 
    6.6200694029097118E-01 
    6.2084132359904354E-01 
    5.8049132287623273E-01 
    5.3953886348772240E-01 
    4.9948110115963507E-01 
    4.5502210569510931E-01 
    2.3808104141108119E-01 
    1.6059467485517206E-05 
    1.0000325469235847E-06 
    1.0000000000007837E-06 
    8.4264518035335034E-01 
    8.2960830608432179E-01 
    8.0061769988269460E-01 
    7.6285290291427255E-01 
    7.2535195130467212E-01 
    6.8615495565605200E-01 
    6.4723085267838243E-01 
    6.0960805145545260E-01 
    5.7197878333371088E-01 
    5.3383209761822592E-01 
    4.9616344507892196E-01 
    4.5198149559358297E-01 
    2.2940694733159747E-01 
    1.2848527303602807E-05 
    1.0000441253108455E-06 
    1.0000000000001924E-06 
    7.8305873461410713E-01 
    7.7357060340906580E-01 
    7.5310567365090797E-01 
    7.2534242889373923E-01 
    6.9302240248587488E-01 
    6.6179269153210341E-01 
    6.2930067507323206E-01 
    5.9595296195053848E-01 
    5.6171267123264035E-01 
    5.2743654898531900E-01 
    4.9256599156262670E-01 
    4.5050703795480768E-01 
    2.2472628918964957E-01 
    1.9053453963611330E-05 
    1.0000468286057719E-06 
    1.0000000000039075E-06 
    7.2844270355291707E-01 
    7.2212222382130375E-01 
    7.0665641988223371E-01 
    6.8613546886632493E-01 
    6.6178588691821671E-01 
    6.3449305075394791E-01 
    6.0728227427069759E-01 
    5.7945034888572511E-01 
    5.5016792575721785E-01 
    5.1964486799262999E-01 
    4.8763160325620414E-01 
    4.4765407064726886E-01 
    2.1823642674942551E-01 
    1.4648215925055442E-05 
    1.0000688684170177E-06 
    1.0000000000031520E-06 
    6.7785957046141121E-01 
    6.7332558803664766E-01 
    6.6198711308462899E-01 
    6.4720421508624770E-01 
    6.2928118265410349E-01 
    6.0727637026151871E-01 
    5.8362053998831387E-01 
    5.6066596218926446E-01 
    5.3678485723851543E-01 
    5.1046506509339973E-01 
    4.8221585273504719E-01 
    4.4437825470515113E-01 
    2.1331664337464498E-01 
    9.3854324673822000E-06 
    1.0000312452887757E-06 
    1.0000000000000288E-06 
    6.3157906624396498E-01 
    6.2860484714203413E-01 
    6.2080919879508079E-01 
    6.0957072429958115E-01 
    5.9591848851515661E-01 
    5.7942904901681602E-01 
    5.6066150315186525E-01 
    5.4075281160316047E-01 
    5.2126346873852758E-01 
    4.9978475284234392E-01 
    4.7556000173660395E-01 
    4.4185660220434297E-01 
    2.1477029516019591E-01 
    1.5211676221837702E-05 
    1.0000987827997535E-06 
    1.0000000000070392E-06 
    5.8817245545760799E-01 
    5.8615895136102081E-01 
    5.8044021470025042E-01 
    5.7192230623751261E-01 
    5.6165747769009089E-01 
    5.5012356785434702E-01 
    5.3676218650129093E-01 
    5.2126201308668829E-01 
    5.0442388921415948E-01 
    4.8846071158178306E-01 
    4.6872918531056401E-01 
    4.3917745980300416E-01 
    2.2144852432233178E-01 
    4.1967013965233761E-05 
    1.0005157451245306E-06 
    1.0000000000446881E-06 
    5.4454795509034060E-01 
    5.4338745611564487E-01 
    5.3947856435297725E-01 
    5.3375363807540344E-01 
    5.2735550601342118E-01 
    5.1958138973986645E-01 
    5.1042589452968568E-01 
    4.9976622719411440E-01 
    4.8845485870430938E-01 
    4.7628812478900701E-01 
    4.6045806031331915E-01 
    4.3032495080186084E-01 
    2.1394592802824164E-01 
    7.2760263989703878E-05 
    1.0017873010059323E-06 
    1.0000000001104118E-06 
    5.0246517483948561E-01 
    5.0189978614910302E-01 
    4.9941280674807165E-01 
    4.9608455251083311E-01 
    4.9251677502996355E-01 
    4.8756790229550401E-01 
    4.8217941199647701E-01 
    4.7569963118343150E-01 
    4.6891196179558542E-01 
    4.6052624745531567E-01 
    4.4930666389333473E-01 
    4.1541960698817115E-01 
    1.7708192215585031E-01 
    1.1673621404758752E-04 
    1.0044205226110908E-06 
    1.0000000002019684E-06 
    4.5760581375071213E-01 
    4.5715940688091922E-01 
    4.5496791045972679E-01 
    4.5158634514967011E-01 
    4.5023502375333274E-01 
    4.4711760636113751E-01 
    4.4424405118183108E-01 
    4.4185325198640862E-01 
    4.3887217097265513E-01 
    4.2990237106651108E-01 
    4.1536267005000638E-01 
    3.6156657203844894E-01 
    7.6832902052976604E-02 
    2.3211057885769442E-04 
    1.0058912701664420E-06 
    1.0000000000000010E-06 
    2.5032707431321322E-01 
    2.4505002562451905E-01 
    2.3795549281381059E-01 
    2.3152584283547573E-01 
    2.2446047586600015E-01 
    2.1540115694130563E-01 
    2.1218360800917024E-01 
    2.1181389079475810E-01 
    2.1996862854688401E-01 
    2.1225338771948596E-01 
    1.7682656191864662E-01 
    7.6853683456168123E-02 
    1.7395226854052741E-03 
    1.1601050719940069E-06 
    1.0000000244848862E-06 
    1.0000000000000029E-06 
    1.0225195954540832E-05 
    2.0508008504192763E-05 
    1.6325567275586867E-05 
    3.5539084717418031E-05 
    3.4102903828170320E-05 
    2.0277786716716247E-05 
    1.0779671037519031E-05 
    1.5750030998333840E-05 
    4.4690000368593428E-05 
    6.5646066347079199E-05 
    1.2311405506099099E-04 
    2.3114960931257847E-04 
    1.1590258028693241E-06 
    1.0000000975126461E-06 
    1.0000000000000336E-06 
    9.9999999999999995E-07 
    1.0000000006744646E-06 
    1.0000018755371835E-06 
    1.0000378032616639E-06 
    1.0001459975847639E-06 
    1.0001406484156020E-06 
    1.0000841898425882E-06 
    1.0000575402994146E-06 
    1.0000781452335077E-06 
    1.0006157210883660E-06 
    1.0011422092324029E-06 
    1.0052521300913065E-06 
    1.0058366821894944E-06 
    1.0000000243134865E-06 
    1.0000000000000334E-06 
    9.9999999999999995E-07 
    9.9999999999999995E-07 
    9.9999999999999995E-07 
    1.0000000000005833E-06 
    1.0000000000004597E-06 
    1.0000000000071163E-06 
    1.0000000000055971E-06 
    1.0000000000022681E-06 
    1.0000000000000516E-06 
    1.0000000000021006E-06 
    1.0000000000338986E-06 
    1.0000000001103673E-06 
    1.0000000001415561E-06 
    1.0000000000000008E-06 
    1.0000000000000033E-06 
    9.9999999999999995E-07 
    9.9999999999999995E-07 
    1.0000001089880232E-06 
