# vtk DataFile Version 2.0
Pressure Field Data 
ASCII 
DATASET UNSTRUCTURED_GRID 

POINTS 289 double 

    0.0000000000000000E+00     0.0000000000000000E+00     0.0000000000000000E+00 
    1.0000000000000000E+00     0.0000000000000000E+00     0.0000000000000000E+00 
    1.0000000000000000E+00     1.0000000000000000E+00     0.0000000000000000E+00 
    0.0000000000000000E+00     1.0000000000000000E+00     0.0000000000000000E+00 
    6.2499999999872928E-02     0.0000000000000000E+00     0.0000000000000000E+00 
    1.2499999999977310E-01     0.0000000000000000E+00     0.0000000000000000E+00 
    1.8749999999959341E-01     0.0000000000000000E+00     0.0000000000000000E+00 
    2.4999999999941089E-01     0.0000000000000000E+00     0.0000000000000000E+00 
    3.1249999999922851E-01     0.0000000000000000E+00     0.0000000000000000E+00 
    3.7499999999904610E-01     0.0000000000000000E+00     0.0000000000000000E+00 
    4.3749999999886358E-01     0.0000000000000000E+00     0.0000000000000000E+00 
    4.9999999999869210E-01     0.0000000000000000E+00     0.0000000000000000E+00 
    5.6249999999884603E-01     0.0000000000000000E+00     0.0000000000000000E+00 
    6.2499999999901090E-01     0.0000000000000000E+00     0.0000000000000000E+00 
    6.8749999999917577E-01     0.0000000000000000E+00     0.0000000000000000E+00 
    7.4999999999934064E-01     0.0000000000000000E+00     0.0000000000000000E+00 
    8.1249999999950551E-01     0.0000000000000000E+00     0.0000000000000000E+00 
    8.7499999999967026E-01     0.0000000000000000E+00     0.0000000000000000E+00 
    9.3749999999983513E-01     0.0000000000000000E+00     0.0000000000000000E+00 
    1.0000000000000000E+00     6.2499999999872928E-02     0.0000000000000000E+00 
    1.0000000000000000E+00     1.2499999999977310E-01     0.0000000000000000E+00 
    1.0000000000000000E+00     1.8749999999959341E-01     0.0000000000000000E+00 
    1.0000000000000000E+00     2.4999999999941089E-01     0.0000000000000000E+00 
    1.0000000000000000E+00     3.1249999999922851E-01     0.0000000000000000E+00 
    1.0000000000000000E+00     3.7499999999904610E-01     0.0000000000000000E+00 
    1.0000000000000000E+00     4.3749999999886358E-01     0.0000000000000000E+00 
    1.0000000000000000E+00     4.9999999999869210E-01     0.0000000000000000E+00 
    1.0000000000000000E+00     5.6249999999884603E-01     0.0000000000000000E+00 
    1.0000000000000000E+00     6.2499999999901090E-01     0.0000000000000000E+00 
    1.0000000000000000E+00     6.8749999999917577E-01     0.0000000000000000E+00 
    1.0000000000000000E+00     7.4999999999934064E-01     0.0000000000000000E+00 
    1.0000000000000000E+00     8.1249999999950551E-01     0.0000000000000000E+00 
    1.0000000000000000E+00     8.7499999999967026E-01     0.0000000000000000E+00 
    1.0000000000000000E+00     9.3749999999983513E-01     0.0000000000000000E+00 
    9.3749999999973976E-01     1.0000000000000000E+00     0.0000000000000000E+00 
    8.7499999999950118E-01     1.0000000000000000E+00     0.0000000000000000E+00 
    8.1249999999991318E-01     1.0000000000000000E+00     0.0000000000000000E+00 
    7.5000000000034706E-01     1.0000000000000000E+00     0.0000000000000000E+00 
    6.8750000000078049E-01     1.0000000000000000E+00     0.0000000000000000E+00 
    6.2500000000121403E-01     1.0000000000000000E+00     0.0000000000000000E+00 
    5.6250000000164757E-01     1.0000000000000000E+00     0.0000000000000000E+00 
    5.0000000000205946E-01     1.0000000000000000E+00     0.0000000000000000E+00 
    4.3750000000182099E-01     1.0000000000000000E+00     0.0000000000000000E+00 
    3.7500000000156092E-01     1.0000000000000000E+00     0.0000000000000000E+00 
    3.1250000000130068E-01     1.0000000000000000E+00     0.0000000000000000E+00 
    2.5000000000104050E-01     1.0000000000000000E+00     0.0000000000000000E+00 
    1.8750000000078040E-01     1.0000000000000000E+00     0.0000000000000000E+00 
    1.2500000000052031E-01     1.0000000000000000E+00     0.0000000000000000E+00 
    6.2500000000260125E-02     1.0000000000000000E+00     0.0000000000000000E+00 
    0.0000000000000000E+00     9.3749999999973976E-01     0.0000000000000000E+00 
    0.0000000000000000E+00     8.7499999999950118E-01     0.0000000000000000E+00 
    0.0000000000000000E+00     8.1249999999991318E-01     0.0000000000000000E+00 
    0.0000000000000000E+00     7.5000000000034706E-01     0.0000000000000000E+00 
    0.0000000000000000E+00     6.8750000000078049E-01     0.0000000000000000E+00 
    0.0000000000000000E+00     6.2500000000121403E-01     0.0000000000000000E+00 
    0.0000000000000000E+00     5.6250000000164757E-01     0.0000000000000000E+00 
    0.0000000000000000E+00     5.0000000000205946E-01     0.0000000000000000E+00 
    0.0000000000000000E+00     4.3750000000182099E-01     0.0000000000000000E+00 
    0.0000000000000000E+00     3.7500000000156092E-01     0.0000000000000000E+00 
    0.0000000000000000E+00     3.1250000000130068E-01     0.0000000000000000E+00 
    0.0000000000000000E+00     2.5000000000104050E-01     0.0000000000000000E+00 
    0.0000000000000000E+00     1.8750000000078040E-01     0.0000000000000000E+00 
    0.0000000000000000E+00     1.2500000000052031E-01     0.0000000000000000E+00 
    0.0000000000000000E+00     6.2500000000260125E-02     0.0000000000000000E+00 
    6.2499999999897131E-02     6.2500000000235922E-02     0.0000000000000000E+00 
    6.2499999999921327E-02     1.2500000000047351E-01     0.0000000000000000E+00 
    6.2499999999945530E-02     1.8750000000070621E-01     0.0000000000000000E+00 
    6.2499999999969733E-02     2.5000000000093858E-01     0.0000000000000000E+00 
    6.2499999999993928E-02     3.1250000000117117E-01     0.0000000000000000E+00 
    6.2500000000018124E-02     3.7500000000140382E-01     0.0000000000000000E+00 
    6.2500000000042327E-02     4.3750000000163619E-01     0.0000000000000000E+00 
    6.2500000000066530E-02     5.0000000000184897E-01     0.0000000000000000E+00 
    6.2500000000090733E-02     5.6250000000147260E-01     0.0000000000000000E+00 
    6.2500000000114922E-02     6.2500000000107636E-01     0.0000000000000000E+00 
    6.2500000000139125E-02     6.8750000000068034E-01     0.0000000000000000E+00 
    6.2500000000163328E-02     7.5000000000028411E-01     0.0000000000000000E+00 
    6.2500000000187531E-02     8.1249999999988787E-01     0.0000000000000000E+00 
    6.2500000000211720E-02     8.7499999999951172E-01     0.0000000000000000E+00 
    6.2500000000235922E-02     9.3749999999974565E-01     0.0000000000000000E+00 
    1.2499999999981980E-01     6.2500000000211733E-02     0.0000000000000000E+00 
    1.2499999999986650E-01     1.2500000000042691E-01     0.0000000000000000E+00 
    1.2499999999991319E-01     1.8750000000063199E-01     0.0000000000000000E+00 
    1.2499999999995989E-01     2.5000000000083678E-01     0.0000000000000000E+00 
    1.2500000000000661E-01     3.1250000000104172E-01     0.0000000000000000E+00 
    1.2500000000005329E-01     3.7500000000124661E-01     0.0000000000000000E+00 
    1.2500000000010000E-01     4.3750000000145117E-01     0.0000000000000000E+00 
    1.2500000000014669E-01     5.0000000000163858E-01     0.0000000000000000E+00 
    1.2500000000019340E-01     5.6250000000129741E-01     0.0000000000000000E+00 
    1.2500000000024011E-01     6.2500000000093847E-01     0.0000000000000000E+00 
    1.2500000000028680E-01     6.8750000000057998E-01     0.0000000000000000E+00 
    1.2500000000033351E-01     7.5000000000022127E-01     0.0000000000000000E+00 
    1.2500000000038020E-01     8.1249999999986211E-01     0.0000000000000000E+00 
    1.2500000000042691E-01     8.7499999999952238E-01     0.0000000000000000E+00 
    1.2500000000047359E-01     9.3749999999975164E-01     0.0000000000000000E+00 
    1.8749999999966760E-01     6.2500000000187531E-02     0.0000000000000000E+00 
    1.8749999999974179E-01     1.2500000000038020E-01     0.0000000000000000E+00 
    1.8749999999981601E-01     1.8750000000055780E-01     0.0000000000000000E+00 
    1.8749999999989009E-01     2.5000000000073502E-01     0.0000000000000000E+00 
    1.8749999999996431E-01     3.1250000000091221E-01     0.0000000000000000E+00 
    1.8750000000003850E-01     3.7500000000108941E-01     0.0000000000000000E+00 
    1.8750000000011269E-01     4.3750000000126649E-01     0.0000000000000000E+00 
    1.8750000000018691E-01     5.0000000000142808E-01     0.0000000000000000E+00 
    1.8750000000026110E-01     5.6250000000112244E-01     0.0000000000000000E+00 
    1.8750000000033529E-01     6.2500000000080080E-01     0.0000000000000000E+00 
    1.8750000000040951E-01     6.8750000000047962E-01     0.0000000000000000E+00 
    1.8750000000048361E-01     7.5000000000015843E-01     0.0000000000000000E+00 
    1.8750000000055780E-01     8.1249999999983680E-01     0.0000000000000000E+00 
    1.8750000000063199E-01     8.7499999999953304E-01     0.0000000000000000E+00 
    1.8750000000070621E-01     9.3749999999975764E-01     0.0000000000000000E+00 
    2.4999999999951281E-01     6.2500000000163314E-02     0.0000000000000000E+00 
    2.4999999999961461E-01     1.2500000000033351E-01     0.0000000000000000E+00 
    2.4999999999971650E-01     1.8750000000048361E-01     0.0000000000000000E+00 
    2.4999999999981831E-01     2.5000000000063310E-01     0.0000000000000000E+00 
    2.4999999999992020E-01     3.1250000000078260E-01     0.0000000000000000E+00 
    2.5000000000002198E-01     3.7500000000093209E-01     0.0000000000000000E+00 
    2.5000000000012390E-01     4.3750000000108180E-01     0.0000000000000000E+00 
    2.5000000000022571E-01     5.0000000000121769E-01     0.0000000000000000E+00 
    2.5000000000032763E-01     5.6250000000094724E-01     0.0000000000000000E+00 
    2.5000000000042938E-01     6.2500000000066314E-01     0.0000000000000000E+00 
    2.5000000000053119E-01     6.8750000000037925E-01     0.0000000000000000E+00 
[...]
CELL_DATA 256 
SCALARS Pressure double 1 
LOOKUP_TABLE default 

    2.2490287273380707E+00 
    2.1452648053552870E+00 
    2.0783614894824893E+00 
    2.0261676462839633E+00 
    1.9811560377514763E+00 
    1.9412796139734736E+00 
    1.9047784315594469E+00 
    1.8708174733247944E+00 
    1.8394713879681479E+00 
    1.8107521959702115E+00 
    1.7847834579924373E+00 
    1.7619234531343531E+00 
    1.7422806418368113E+00 
    1.7244239249773310E+00 
    1.7109166035508465E+00 
    1.7044144685112010E+00 
    2.1452867434006802E+00 
    2.1023409687604819E+00 
    2.0563560160136474E+00 
    2.0121208197488314E+00 
    1.9711196595840206E+00 
    1.9334313986152363E+00 
    1.8979649758628971E+00 
    1.8646209860659304E+00 
    1.8336069731018669E+00 
    1.8049738675056142E+00 
    1.7789720959148896E+00 
    1.7560052483944815E+00 
    1.7361987113815245E+00 
    1.7181587705048971E+00 
    1.7044962525319134E+00 
    1.6979151296964741E+00 
    2.0784215890226716E+00 
    2.0563938123159695E+00 
    2.0242632558141715E+00 
    1.9887665405068049E+00 
    1.9533283510223960E+00 
    1.9186977627284028E+00 
    1.8849463671046536E+00 
    1.8526539499426053E+00 
    1.8221042628083965E+00 
    1.7935734843447397E+00 
    1.7674532136107282E+00 
    1.7442116363372018E+00 
    1.7240526377402030E+00 
    1.7056178775379376E+00 
    1.6916127532751224E+00 
    1.6848501549782546E+00 
    2.0262816791035769E+00 
    2.0122083222911420E+00 
    1.9888130842179983E+00 
    1.9606107015323764E+00 
    1.9301156827421404E+00 
    1.8984736366655393E+00 
    1.8666439213883950E+00 
    1.8354517694516210E+00 
    1.8053374139928298E+00 
    1.7767895924092019E+00 
    1.7503225105619700E+00 
    1.7265630579282465E+00 
    1.7058263638572395E+00 
    1.6867284043013606E+00 
    1.6721183077917690E+00 
    1.6650345919898075E+00 
    1.9813203245014748E+00 
    1.9712500799490609E+00 
    1.9534174954240791E+00 
    1.9301602753277123E+00 
    1.9032791192501795E+00 
    1.8741702798437592E+00 
    1.8440547574173245E+00 
    1.8137437989931871E+00 
    1.7838065313276421E+00 
    1.7549035545381795E+00 
    1.7277387639520685E+00 
    1.7031114466622295E+00 
    1.6814594004560779E+00 
    1.6613032046767628E+00 
    1.6457279069808028E+00 
    1.6381505938691869E+00 
    1.9414702125680157E+00 
    1.9335955462419425E+00 
    1.9188261097654875E+00 
    1.8985608268667273E+00 
    1.8742149949637548E+00 
    1.8470648154604012E+00 
    1.8181705267444053E+00 
    1.7882435179790357E+00 
    1.7579966183236801E+00 
    1.7282683960807586E+00 
    1.6999326470753675E+00 
    1.6739199044077799E+00 
    1.6508237402367079E+00 
    1.6290317781594725E+00 
    1.6120046168508657E+00 
    1.6037088809584248E+00 
    1.9050009102434129E+00 
    1.8981663781589584E+00 
    1.8851142501939746E+00 
    1.8667702244098909E+00 
    1.8441362795277625E+00 
    1.8182084987302409E+00 
    1.7897983382135958E+00 
    1.7595896819454293E+00 
    1.7284442703493730E+00 
    1.6972901068460837E+00 
    1.6671144208866360E+00 
    1.6389593732413017E+00 
    1.6136958754994453E+00 
    1.5894936435953142E+00 
    1.5703214669546945E+00 
    1.5609624055213847E+00 
    1.8710736515648245E+00 
    1.8648563034396493E+00 
    1.8528559184876883E+00 
    1.8356140263256906E+00 
    1.8138638885095810E+00 
    1.7883209877091795E+00 
    1.7596271116860234E+00 
    1.7284995199463713E+00 
    1.6958021330020108E+00 
    1.6624551824351594E+00 
    1.6294858332347351E+00 
    1.5981536596670911E+00 
    1.5696943904260718E+00 
    1.5419927393222379E+00 
    1.5197477950171450E+00 
    1.5088620515347391E+00 
    1.8397570893148516E+00 
    1.8338729721072440E+00 
    1.8223401775023607E+00 
    1.8055369155910816E+00 
    1.7839646065398298E+00 
    1.7581102561061126E+00 
    1.7285179423236461E+00 
    1.6958368995566266E+00 
    1.6608069799908214E+00 
    1.6242664240062461E+00 
    1.5873250385443336E+00 
    1.5514544015280010E+00 
    1.5182975980571680E+00 
    1.4855239668046591E+00 
    1.4589425624939978E+00 
    1.4458781419409099E+00 
    1.8110669869107809E+00 
    1.8052715463107984E+00 
    1.7938455445756731E+00 
    1.7770275964104112E+00 
    1.7550996889895862E+00 
    1.7284174454950130E+00 
    1.6973966315159921E+00 
    1.6625201912751877E+00 
    1.6242976814968699E+00 
    1.5834724410024088E+00 
    1.5412007750377996E+00 
    1.4990869323851337E+00 
    1.4590896870600694E+00 
    1.4190654287687245E+00 
    1.3862704586041668E+00 
    1.3698309525046648E+00 
    1.7851284323912362E+00 
    1.7793031144910767E+00 
    1.7677615676127467E+00 
    1.7505997687942723E+00 
    1.7279740842117377E+00 
    1.7001165743888551E+00 
    1.6672433642278575E+00 
    1.6295686898455251E+00 
    1.5873809447379712E+00 
    1.5412349934821288E+00 
    1.4921248826837983E+00 
    1.4416307412816369E+00 
    1.3919323464505580E+00 
    1.3419296860652645E+00 
    1.2997731623844093E+00 
    1.2772920388856537E+00 
    1.7622916125503243E+00 
    1.7563611502616516E+00 
    1.7445484072787298E+00 
    1.7268754591750075E+00 
    1.7033820091970397E+00 
    1.6741287966567515E+00 
    1.6390932295208527E+00 
    1.5982332109058082E+00 
    1.5515319434794790E+00 
    1.4991690227196228E+00 
    1.4416851312153909E+00 
    1.3803728446822321E+00 
    1.3173944418445402E+00 
    1.2534710117153780E+00 
    1.1958167204420131E+00 
    1.1616942872702074E+00 
    1.7426621770570330E+00 
    1.7365695874725648E+00 
    1.7244072433928004E+00 
    1.7061581389737295E+00 
    1.6817388136510230E+00 
    1.6510271234429288E+00 
    1.6138209243879429E+00 
    1.5697893665336708E+00 
    1.5184383788683933E+00 
    1.4592490045428543E+00 
    1.3920520065009625E+00 
    1.3174523939082994E+00 
    1.2368801735796333E+00 
    1.1519953001065719E+00 
    1.0668876530615767E+00 
    1.0102189767720058E+00 
    1.7248160784792319E+00 
    1.7185403599561426E+00 
    1.7059811408786667E+00 
    1.6870603538856872E+00 
    1.6615746303439056E+00 
    1.6292332222434189E+00 
    1.5896473954983084E+00 
    1.5421536225693939E+00 
    1.4857341351448368E+00 
    1.4192651984172207E+00 
    1.3420526769508576E+00 
    1.2535072015400217E+00 
    1.1519764227538887E+00 
    1.0354973088559947E+00 
    9.0307130897884758E-01 
    8.0128173689108984E-01 
    1.7113132890615110E+00 
    1.7048818825494754E+00 
    1.6919775422107846E+00 
    1.6724495474572569E+00 
    1.6460106975408590E+00 
    1.6122397403461906E+00 
    1.5705281292233064E+00 
    1.5199512370684973E+00 
    1.4591465083524744E+00 
    1.3864400360671014E+00 
    1.2998538577845549E+00 
    1.1958275888276793E+00 
    1.0668926393120117E+00 
    9.0307960423213385E-01 
    6.9649209722262739E-01 
    4.9455934461615553E-01 
    1.7048016235340921E+00 
    1.6982915933515939E+00 
    1.6852058718986020E+00 
    1.6653592032543432E+00 
    1.6384360583558721E+00 
    1.6039563946794428E+00 
    1.5611817378617954E+00 
    1.5090650925099942E+00 
    1.4460638901285476E+00 
    1.3699806282648550E+00 
    1.2773668786911911E+00 
    1.1617283747961695E+00 
    1.0102789215874337E+00 
    8.0133050104448988E-01 
    4.9457503950160958E-01 
    0.0000000000000000E+00 

SCALARS Saturarion double 1 
LOOKUP_TABLE default 

    1.0000000000000939E+00 
    9.7107519553023991E-01 
    9.1623888271895659E-01 
    8.5840228854273470E-01 
    8.0253392213114427E-01 
    7.4941902326332643E-01 
    7.0117835425364960E-01 
    6.5533970301224131E-01 
    6.1311208551511298E-01 
    5.7100230552250775E-01 
    5.2874264885483557E-01 
    4.8632677654164908E-01 
    4.3108301952770506E-01 
    7.5506384933774776E-02 
    1.0000000613966387E-06 
    1.0000000000000192E-06 
    9.7107284675501959E-01 
    9.4780776835443625E-01 
    8.9962064548482346E-01 
    8.4607252706285729E-01 
    7.9344447822565700E-01 
    7.4338469390599748E-01 
    6.9687739014789851E-01 
    6.5243205893423484E-01 
    6.1127458924917266E-01 
    5.7000093756593240E-01 
    5.2831736364994741E-01 
    4.8627600347294836E-01 
    4.3111589116101978E-01 
    7.3486018419610014E-02 
    1.2626806993268355E-06 
    1.0000000338106221E-06 
    9.1622713293252567E-01 
    8.9961202551141917E-01 
    8.6133808115705424E-01 
    8.1880797130929139E-01 
    7.7331601534760741E-01 
    7.2885041027105524E-01 
    6.8579530353104179E-01 
    6.4473934158379909E-01 
    6.0600545840491782E-01 
    5.6638005071553676E-01 
    5.2615358539742108E-01 
    4.8515792576551336E-01 
    4.2995612773988234E-01 
    7.1662520244635930E-02 
    1.1519744590013694E-06 
    1.0000000487063578E-06 
    8.5837213449359617E-01 
    8.4604774820396311E-01 
    8.1879430695630429E-01 
    7.8259898659837368E-01 
    7.4680184253463389E-01 
    7.0901776768975755E-01 
    6.7084313057990985E-01 
    6.3406121942514837E-01 
    5.9810439134036752E-01 
    5.6096382674357870E-01 
    5.2280859154368597E-01 
    4.8334056089556870E-01 
    4.2853566306412189E-01 
    6.9046796931949178E-02 
    1.3854784368184647E-06 
    1.0000000618245428E-06 
    8.0249591569789092E-01 
    7.9341766992423124E-01 
    7.7329171630966198E-01 
    7.4679198793109480E-01 
    7.1555072317234092E-01 
    6.8517050396050738E-01 
    6.5364727393619515E-01 
    6.2139580626565605E-01 
    5.8839922659947697E-01 
    5.5452069366295531E-01 
    5.1946735472592231E-01 
    4.8216885721467212E-01 
    4.2893230823249318E-01 
    8.1251020036530550E-02 
    4.2207790798185171E-06 
    1.0000017101812905E-06 
    7.4942890378180094E-01 
    7.4337745979348979E-01 
    7.2883297819419091E-01 
    7.0899893416148685E-01 
    6.8516306195101107E-01 
    6.5910909527870987E-01 
    6.3289576242668333E-01 
    6.0579669501307187E-01 
    5.7731263897589702E-01 
    5.4715367546881866E-01 
    5.1565133713054756E-01 
    4.8129768192146904E-01 
    4.3070773726156369E-01 
    9.1105875952852688E-02 
    1.2851463690942322E-06 
    1.0000000645609486E-06 
    7.0119548077975558E-01 
    6.9687229856754573E-01 
    6.8577707291760714E-01 
    6.7081687092440101E-01 
    6.5362467117118950E-01 
    6.3288803778108615E-01 
    6.1016821856508052E-01 
    5.8774408181820426E-01 
    5.6436805026918990E-01 
    5.3872172418022490E-01 
    5.1057789195070191E-01 
    4.7895500204769759E-01 
    4.3201952585265097E-01 
    1.0369213272459360E-01 
    2.3500838012356502E-06 
    1.0000006300041046E-06 
    6.5533409120797803E-01 
    6.5241293017936663E-01 
    6.4470814902485418E-01 
    6.3402305009675297E-01 
    6.2135912156745199E-01 
    6.0577291586869908E-01 
    5.8773644356091193E-01 
    5.6858390873554765E-01 
    5.4972255584279206E-01 
    5.2900921780539034E-01 
    5.0493689368403460E-01 
    4.7682739993275597E-01 
    4.3288369374152619E-01 
    1.2441600974778906E-01 
    4.8985874903969206E-06 
    1.0000034126540524E-06 
    6.1309256717826066E-01 
    6.1124170102805442E-01 
    6.0595743557357462E-01 
    5.9805038308580361E-01 
    5.8834341082822272E-01 
    5.7726408223508885E-01 
    5.6434021804019341E-01 
    5.4971618378004861E-01 
    5.3381078866908960E-01 
    5.1760942451510017E-01 
    4.9848032675066523E-01 
    4.7479867371571277E-01 
    4.3681212722548673E-01 
    1.6626009161724103E-01 
    4.2453163329544193E-05 
    1.0004764215738806E-06 
    5.7102608917868547E-01 
    5.6997808395586957E-01 
    5.6632575853759803E-01 
    5.6089429596541440E-01 
    5.5444436300958067E-01 
    5.4708043000174678E-01 
    5.3866770193684543E-01 
    5.2898035988535097E-01 
    5.1760411172378562E-01 
    5.0457918345448016E-01 
    4.9108017997155451E-01 
    4.7275008569012400E-01 
    4.4248562749279519E-01 
    2.2329448355994169E-01 
    2.0007788392467009E-04 
    1.0011501837315053E-06 
    5.2877511939453492E-01 
    5.2830307835663470E-01 
    5.2609900522309827E-01 
    5.2272169239585087E-01 
    5.1936577033133979E-01 
    5.1555805440350888E-01 
    5.1050902659516695E-01 
    5.0488857199964177E-01 
    4.9844644099941865E-01 
    4.9106992171671421E-01 
    4.8190571983069030E-01 
    4.6929384154636122E-01 
    4.4632497606384569E-01 
    2.9435854779051901E-01 
    2.7566659960252577E-03 
    1.1619487299179257E-06 
    4.8633837898034543E-01 
    4.8625982796281808E-01 
    4.8509656938492973E-01 
    4.8321724532130861E-01 
    4.8190995656659807E-01 
    4.8100622573891216E-01 
    4.7872162894479314E-01 
    4.7686169330361500E-01 
    4.7495124183975912E-01 
    4.7287750274365403E-01 
    4.6938116384585854E-01 
    4.6323920580010741E-01 
    4.4796033187158091E-01 
    3.5897228568926082E-01 
    3.4387972864023800E-02 
    3.0557593316341884E-05 
    4.3104468892238312E-01 
    4.3107360687760143E-01 
    4.2987825106974781E-01 
    4.2834064502043617E-01 
    4.2738516657451942E-01 
    4.2978190255523080E-01 
    4.3100520957711208E-01 
    4.3425572417412095E-01 
    4.3836607124987947E-01 
    4.4314385689680164E-01 
    4.4599604671734611E-01 
    4.4791808233911079E-01 
    4.4409003280180104E-01 
    3.9807974571711896E-01 
    1.1350019004715559E-01 
    1.2656733857213488E-04 
    7.5238643297261057E-02 
    7.3275911898402019E-02 
    7.1403917384665699E-02 
    7.0063004544829444E-02 
    8.3150731167033615E-02 
    9.1444164436363176E-02 
    1.0154420704180300E-01 
    1.2111883128543474E-01 
    1.6285885925714283E-01 
    2.2106236835342191E-01 
    2.9437583902716541E-01 
    3.5711321398027690E-01 
    3.9723295285315074E-01 
    4.0325308616759414E-01 
    1.9151702912492397E-01 
    1.2379371958102430E-04 
    1.0000000615464378E-06 
    1.2603628742074357E-06 
    1.1643735347585550E-06 
    1.0020824095230385E-06 
    2.8483282543872720E-06 
    1.2132276817530074E-06 
    1.7860631999877683E-06 
    6.0096344738738738E-06 
    3.5136463209582667E-05 
    2.3216919299114998E-04 
    3.8634176118666074E-03 
    3.2680745387682252E-02 
    1.1165500286516697E-01 
    1.9026590382917438E-01 
    1.3758120534517079E-01 
    1.8498368329811598E-03 
    1.0000000000000184E-06 
    1.0000000332992031E-06 
    1.0000000524122293E-06 
    1.0000000007952381E-06 
    1.0000006657327277E-06 
    1.0000000459894275E-06 
    1.0000003219803614E-06 
    1.0000053954509615E-06 
    1.0003600631356975E-06 
    1.0027703941477801E-06 
    1.2434922459230905E-06 
    2.4331224734551496E-05 
    1.3711790468553056E-04 
    1.1983886413692690E-04 
    1.8416527092187918E-03 
    6.5617828980166290E-06 
