# vtk DataFile Version 2.0
Pressure Field Data 
ASCII 
DATASET UNSTRUCTURED_GRID 

POINTS 289 double 

    0.0000000000000000E+00     0.0000000000000000E+00     0.0000000000000000E+00 
    1.0000000000000000E+00     0.0000000000000000E+00     0.0000000000000000E+00 
    1.0000000000000000E+00     1.0000000000000000E+00     0.0000000000000000E+00 
    0.0000000000000000E+00     1.0000000000000000E+00     0.0000000000000000E+00 
    6.2499999999872928E-02     0.0000000000000000E+00     0.0000000000000000E+00 
    1.2499999999977310E-01     0.0000000000000000E+00     0.0000000000000000E+00 
    1.8749999999959341E-01     0.0000000000000000E+00     0.0000000000000000E+00 
    2.4999999999941089E-01     0.0000000000000000E+00     0.0000000000000000E+00 
    3.1249999999922851E-01     0.0000000000000000E+00     0.0000000000000000E+00 
    3.7499999999904610E-01     0.0000000000000000E+00     0.0000000000000000E+00 
    4.3749999999886358E-01     0.0000000000000000E+00     0.0000000000000000E+00 
    4.9999999999869210E-01     0.0000000000000000E+00     0.0000000000000000E+00 
    5.6249999999884603E-01     0.0000000000000000E+00     0.0000000000000000E+00 
    6.2499999999901090E-01     0.0000000000000000E+00     0.0000000000000000E+00 
    6.8749999999917577E-01     0.0000000000000000E+00     0.0000000000000000E+00 
    7.4999999999934064E-01     0.0000000000000000E+00     0.0000000000000000E+00 
    8.1249999999950551E-01     0.0000000000000000E+00     0.0000000000000000E+00 
    8.7499999999967026E-01     0.0000000000000000E+00     0.0000000000000000E+00 
    9.3749999999983513E-01     0.0000000000000000E+00     0.0000000000000000E+00 
    1.0000000000000000E+00     6.2499999999872928E-02     0.0000000000000000E+00 
    1.0000000000000000E+00     1.2499999999977310E-01     0.0000000000000000E+00 
    1.0000000000000000E+00     1.8749999999959341E-01     0.0000000000000000E+00 
    1.0000000000000000E+00     2.4999999999941089E-01     0.0000000000000000E+00 
    1.0000000000000000E+00     3.1249999999922851E-01     0.0000000000000000E+00 
    1.0000000000000000E+00     3.7499999999904610E-01     0.0000000000000000E+00 
    1.0000000000000000E+00     4.3749999999886358E-01     0.0000000000000000E+00 
    1.0000000000000000E+00     4.9999999999869210E-01     0.0000000000000000E+00 
    1.0000000000000000E+00     5.6249999999884603E-01     0.0000000000000000E+00 
    1.0000000000000000E+00     6.2499999999901090E-01     0.0000000000000000E+00 
    1.0000000000000000E+00     6.8749999999917577E-01     0.0000000000000000E+00 
    1.0000000000000000E+00     7.4999999999934064E-01     0.0000000000000000E+00 
    1.0000000000000000E+00     8.1249999999950551E-01     0.0000000000000000E+00 
    1.0000000000000000E+00     8.7499999999967026E-01     0.0000000000000000E+00 
    1.0000000000000000E+00     9.3749999999983513E-01     0.0000000000000000E+00 
    9.3749999999973976E-01     1.0000000000000000E+00     0.0000000000000000E+00 
    8.7499999999950118E-01     1.0000000000000000E+00     0.0000000000000000E+00 
    8.1249999999991318E-01     1.0000000000000000E+00     0.0000000000000000E+00 
    7.5000000000034706E-01     1.0000000000000000E+00     0.0000000000000000E+00 
    6.8750000000078049E-01     1.0000000000000000E+00     0.0000000000000000E+00 
    6.2500000000121403E-01     1.0000000000000000E+00     0.0000000000000000E+00 
    5.6250000000164757E-01     1.0000000000000000E+00     0.0000000000000000E+00 
    5.0000000000205946E-01     1.0000000000000000E+00     0.0000000000000000E+00 
    4.3750000000182099E-01     1.0000000000000000E+00     0.0000000000000000E+00 
    3.7500000000156092E-01     1.0000000000000000E+00     0.0000000000000000E+00 
    3.1250000000130068E-01     1.0000000000000000E+00     0.0000000000000000E+00 
    2.5000000000104050E-01     1.0000000000000000E+00     0.0000000000000000E+00 
    1.8750000000078040E-01     1.0000000000000000E+00     0.0000000000000000E+00 
    1.2500000000052031E-01     1.0000000000000000E+00     0.0000000000000000E+00 
    6.2500000000260125E-02     1.0000000000000000E+00     0.0000000000000000E+00 
    0.0000000000000000E+00     9.3749999999973976E-01     0.0000000000000000E+00 
    0.0000000000000000E+00     8.7499999999950118E-01     0.0000000000000000E+00 
    0.0000000000000000E+00     8.1249999999991318E-01     0.0000000000000000E+00 
    0.0000000000000000E+00     7.5000000000034706E-01     0.0000000000000000E+00 
    0.0000000000000000E+00     6.8750000000078049E-01     0.0000000000000000E+00 
    0.0000000000000000E+00     6.2500000000121403E-01     0.0000000000000000E+00 
    0.0000000000000000E+00     5.6250000000164757E-01     0.0000000000000000E+00 
    0.0000000000000000E+00     5.0000000000205946E-01     0.0000000000000000E+00 
    0.0000000000000000E+00     4.3750000000182099E-01     0.0000000000000000E+00 
    0.0000000000000000E+00     3.7500000000156092E-01     0.0000000000000000E+00 
    0.0000000000000000E+00     3.1250000000130068E-01     0.0000000000000000E+00 
    0.0000000000000000E+00     2.5000000000104050E-01     0.0000000000000000E+00 
    0.0000000000000000E+00     1.8750000000078040E-01     0.0000000000000000E+00 
    0.0000000000000000E+00     1.2500000000052031E-01     0.0000000000000000E+00 
    0.0000000000000000E+00     6.2500000000260125E-02     0.0000000000000000E+00 
    6.2499999999897131E-02     6.2500000000235922E-02     0.0000000000000000E+00 
    6.2499999999921327E-02     1.2500000000047351E-01     0.0000000000000000E+00 
    6.2499999999945530E-02     1.8750000000070621E-01     0.0000000000000000E+00 
    6.2499999999969733E-02     2.5000000000093858E-01     0.0000000000000000E+00 
    6.2499999999993928E-02     3.1250000000117117E-01     0.0000000000000000E+00 
    6.2500000000018124E-02     3.7500000000140382E-01     0.0000000000000000E+00 
    6.2500000000042327E-02     4.3750000000163619E-01     0.0000000000000000E+00 
    6.2500000000066530E-02     5.0000000000184897E-01     0.0000000000000000E+00 
    6.2500000000090733E-02     5.6250000000147260E-01     0.0000000000000000E+00 
    6.2500000000114922E-02     6.2500000000107636E-01     0.0000000000000000E+00 
    6.2500000000139125E-02     6.8750000000068034E-01     0.0000000000000000E+00 
    6.2500000000163328E-02     7.5000000000028411E-01     0.0000000000000000E+00 
    6.2500000000187531E-02     8.1249999999988787E-01     0.0000000000000000E+00 
    6.2500000000211720E-02     8.7499999999951172E-01     0.0000000000000000E+00 
    6.2500000000235922E-02     9.3749999999974565E-01     0.0000000000000000E+00 
    1.2499999999981980E-01     6.2500000000211733E-02     0.0000000000000000E+00 
    1.2499999999986650E-01     1.2500000000042691E-01     0.0000000000000000E+00 
    1.2499999999991319E-01     1.8750000000063199E-01     0.0000000000000000E+00 
    1.2499999999995989E-01     2.5000000000083678E-01     0.0000000000000000E+00 
    1.2500000000000661E-01     3.1250000000104172E-01     0.0000000000000000E+00 
    1.2500000000005329E-01     3.7500000000124661E-01     0.0000000000000000E+00 
    1.2500000000010000E-01     4.3750000000145117E-01     0.0000000000000000E+00 
    1.2500000000014669E-01     5.0000000000163858E-01     0.0000000000000000E+00 
    1.2500000000019340E-01     5.6250000000129741E-01     0.0000000000000000E+00 
    1.2500000000024011E-01     6.2500000000093847E-01     0.0000000000000000E+00 
    1.2500000000028680E-01     6.8750000000057998E-01     0.0000000000000000E+00 
    1.2500000000033351E-01     7.5000000000022127E-01     0.0000000000000000E+00 
    1.2500000000038020E-01     8.1249999999986211E-01     0.0000000000000000E+00 
    1.2500000000042691E-01     8.7499999999952238E-01     0.0000000000000000E+00 
    1.2500000000047359E-01     9.3749999999975164E-01     0.0000000000000000E+00 
    1.8749999999966760E-01     6.2500000000187531E-02     0.0000000000000000E+00 
    1.8749999999974179E-01     1.2500000000038020E-01     0.0000000000000000E+00 
    1.8749999999981601E-01     1.8750000000055780E-01     0.0000000000000000E+00 
    1.8749999999989009E-01     2.5000000000073502E-01     0.0000000000000000E+00 
    1.8749999999996431E-01     3.1250000000091221E-01     0.0000000000000000E+00 
    1.8750000000003850E-01     3.7500000000108941E-01     0.0000000000000000E+00 
    1.8750000000011269E-01     4.3750000000126649E-01     0.0000000000000000E+00 
    1.8750000000018691E-01     5.0000000000142808E-01     0.0000000000000000E+00 
    1.8750000000026110E-01     5.6250000000112244E-01     0.0000000000000000E+00 
    1.8750000000033529E-01     6.2500000000080080E-01     0.0000000000000000E+00 
    1.8750000000040951E-01     6.8750000000047962E-01     0.0000000000000000E+00 
    1.8750000000048361E-01     7.5000000000015843E-01     0.0000000000000000E+00 
    1.8750000000055780E-01     8.1249999999983680E-01     0.0000000000000000E+00 
    1.8750000000063199E-01     8.7499999999953304E-01     0.0000000000000000E+00 
    1.8750000000070621E-01     9.3749999999975764E-01     0.0000000000000000E+00 
    2.4999999999951281E-01     6.2500000000163314E-02     0.0000000000000000E+00 
    2.4999999999961461E-01     1.2500000000033351E-01     0.0000000000000000E+00 
    2.4999999999971650E-01     1.8750000000048361E-01     0.0000000000000000E+00 
    2.4999999999981831E-01     2.5000000000063310E-01     0.0000000000000000E+00 
    2.4999999999992020E-01     3.1250000000078260E-01     0.0000000000000000E+00 
    2.5000000000002198E-01     3.7500000000093209E-01     0.0000000000000000E+00 
    2.5000000000012390E-01     4.3750000000108180E-01     0.0000000000000000E+00 
    2.5000000000022571E-01     5.0000000000121769E-01     0.0000000000000000E+00 
    2.5000000000032763E-01     5.6250000000094724E-01     0.0000000000000000E+00 
    2.5000000000042938E-01     6.2500000000066314E-01     0.0000000000000000E+00 
    2.5000000000053119E-01     6.8750000000037925E-01     0.0000000000000000E+00 
[...]
CELL_DATA 256 
SCALARS Pressure double 1 
LOOKUP_TABLE default 

    2.2937717586845636E+00 
    2.1902075503711060E+00 
    2.1236756542583226E+00 
    2.0720045086411507E+00 
    2.0275727611826966E+00 
    1.9883319652813654E+00 
    1.9525453082850726E+00 
    1.9193213969482801E+00 
    1.8887283532277459E+00 
    1.8607808200490874E+00 
    1.8356021165503040E+00 
    1.8135375357340380E+00 
    1.7948684739008338E+00 
    1.7774972391106465E+00 
    1.7639686196048991E+00 
    1.7575896951530225E+00 
    2.1902332392833275E+00 
    2.1474842048319411E+00 
    2.1018744749836298E+00 
    2.0581329361148550E+00 
    2.0176772885329477E+00 
    1.9806204745453597E+00 
    1.9458536996437878E+00 
    1.9132322189626094E+00 
    1.8829672905443244E+00 
    1.8551063332667481E+00 
    1.8298946666288269E+00 
    1.8077264027904545E+00 
    1.7889053121365908E+00 
    1.7713551020434830E+00 
    1.7576672004348246E+00 
    1.7512136557126339E+00 
    2.1237444045365699E+00 
    2.1019172111336566E+00 
    2.0701345254468952E+00 
    2.0350744327156955E+00 
    2.0001563918376992E+00 
    1.9661455261081033E+00 
    1.9330682833025408E+00 
    1.9014863712622991E+00 
    1.8716781585169950E+00 
    1.8439159805368535E+00 
    1.8185898248271870E+00 
    1.7961491317302183E+00 
    1.7769910931575252E+00 
    1.7590537166341740E+00 
    1.7450235559313405E+00 
    1.7384013406755197E+00 
    2.0721334399366524E+00 
    2.0582316872423654E+00 
    2.0351273483714212E+00 
    2.0073223633875927E+00 
    1.9773368124449513E+00 
    1.9462911283010433E+00 
    1.9151081030459838E+00 
    1.8846103606265292E+00 
    1.8552295336752722E+00 
    1.8274551201124163E+00 
    1.8017837243133330E+00 
    1.7788216133953718E+00 
    1.7590912316138556E+00 
    1.7405003466256688E+00 
    1.7258913409348779E+00 
    1.7189801093025217E+00 
    2.0277592111608382E+00 
    2.0178261477044535E+00 
    2.0002590879387796E+00 
    1.9773885768354653E+00 
    1.9509986780649273E+00 
    1.9224497892904755E+00 
    1.8929531609052392E+00 
    1.8633278652143823E+00 
    1.8341269090186261E+00 
    1.8060004443610964E+00 
    1.7796216689798761E+00 
    1.7557865445422260E+00 
    1.7351368396316131E+00 
    1.7155192870742508E+00 
    1.7000169262295064E+00 
    1.6926647137121131E+00 
    1.9885509571006488E+00 
    1.9808099165152764E+00 
    1.9662943360681953E+00 
    1.9463926286365716E+00 
    1.9225019628996101E+00 
    1.8958794601477178E+00 
    1.8675966258193637E+00 
    1.8383595344341239E+00 
    1.8088494080617981E+00 
    1.7798864177168063E+00 
    1.7523234286019687E+00 
    1.7271032447897310E+00 
    1.7050030765025006E+00 
    1.6838242979580029E+00 
    1.6670084694794243E+00 
    1.6590193566427118E+00 
    1.9528019023675003E+00 
    1.9460864999448626E+00 
    1.9332631071221813E+00 
    1.9152554890202989E+00 
    1.8930491657838864E+00 
    1.8676421926455895E+00 
    1.8398519692980555E+00 
    1.8103314854170085E+00 
    1.7799115871926550E+00 
    1.7495114521444752E+00 
    1.7201100266822618E+00 
    1.6927388600306965E+00 
    1.6684308589860022E+00 
    1.6449715069631323E+00 
    1.6262805795841053E+00 
    1.6173755933227927E+00 
    1.9196175377141920E+00 
    1.9135051121222479E+00 
    1.9017217652494789E+00 
    1.8848007634994486E+00 
    1.8634705218790961E+00 
    1.8384538251419880E+00 
    1.8103788460186114E+00 
    1.7799281398499112E+00 
    1.7479558110955018E+00 
    1.7153830712688471E+00 
    1.6832088520581410E+00 
    1.6526418792819300E+00 
    1.6250517674480172E+00 
    1.5983362362868720E+00 
    1.5770471635585896E+00 
    1.5668324899842900E+00 
    1.8890600747808552E+00 
    1.8832771000872592E+00 
    1.8719540475973233E+00 
    1.8554646751679735E+00 
    1.8343165886880815E+00 
    1.8089908566340096E+00 
    1.7800084786839176E+00 
    1.7480051202219966E+00 
    1.7137335029526304E+00 
    1.6780224127558561E+00 
    1.6419212545459445E+00 
    1.6068237188279602E+00 
    1.5744442471772264E+00 
    1.5431514246638505E+00 
    1.5182563649011362E+00 
    1.5060724359298252E+00 
    1.8611477315761900E+00 
    1.8554539144922844E+00 
    1.8442347729671908E+00 
    1.8277366455204413E+00 
    1.8062379513991151E+00 
    1.7800759869978164E+00 
    1.7496583393603276E+00 
    1.7154831131985695E+00 
    1.6780743226287360E+00 
    1.6381521150081968E+00 
    1.5968057518343484E+00 
    1.5555677536572705E+00 
    1.5164017675357513E+00 
    1.4788739330554297E+00 
    1.4486887762291547E+00 
    1.4330948388442861E+00 
    1.8360052561432285E+00 
    1.8302819436939675E+00 
    1.8189515200596242E+00 
    1.8021113184540523E+00 
    1.7799069021570968E+00 
    1.7525607493827162E+00 
    1.7203007663383647E+00 
    1.6833567171613506E+00 
    1.6420250565064072E+00 
    1.5968579625065995E+00 
    1.5488371697885757E+00 
    1.4995124797486872E+00 
    1.4510774742635248E+00 
    1.4050104718420935E+00 
    1.3661428681045302E+00 
    1.3440958904696139E+00 
    1.8139691683432402E+00 
    1.8081438844087350E+00 
    1.7965440830539601E+00 
    1.7791876799012110E+00 
    1.7561123639674918E+00 
    1.7273768424891007E+00 
    1.6929638590460470E+00 
    1.6528330259180981E+00 
    1.6069801657848370E+00 
    1.5556635147850335E+00 
    1.4995349437788028E+00 
    1.4398742220036551E+00 
    1.3788424732717237E+00 
    1.3195626213352554E+00 
    1.2652031904948378E+00 
    1.2315516784928440E+00 
    1.7953176316660830E+00 
    1.7893420059586389E+00 
    1.7774075709349226E+00 
    1.7594805786122703E+00 
    1.7354833703705350E+00 
    1.7052953153743184E+00 
    1.6686827594206410E+00 
    1.6252789365503160E+00 
    1.5746340899833964E+00 
    1.5165184060224979E+00 
    1.4510752716860358E+00 
    1.3787749732103987E+00 
    1.3005976242683537E+00 
    1.2196237377402830E+00 
    1.1388015986105842E+00 
    1.0845295110808708E+00 
    1.7779612622746177E+00 
    1.7718076324849981E+00 
    1.7594860560481036E+00 
    1.7409028147569305E+00 
    1.7158779531904735E+00 
    1.6841358404361759E+00 
    1.6452493892065954E+00 
    1.5985809943149234E+00 
    1.5433461222129210E+00 
    1.4790062241181485E+00 
    1.4049852753250962E+00 
    1.3194739876332044E+00 
    1.2196913559653670E+00 
    1.1059728518434113E+00 
    9.8105679594874351E-01 
    8.8055922946700893E-01 
    1.7644412219738872E+00 
    1.7581288794939771E+00 
    1.7454652602832488E+00 
    1.7263038500296901E+00 
    1.7003917337996168E+00 
    1.6673429506401336E+00 
    1.6265751850889167E+00 
    1.5772962802509138E+00 
    1.5184548554690009E+00 
    1.4488345027366696E+00 
    1.3661385631760521E+00 
    1.2651730407433346E+00 
    1.1389405586030603E+00 
    9.8112408196984269E-01 
    7.8203651370686655E-01 
    5.6363813055634304E-01 
    1.7580536378960716E+00 
    1.7516674971787876E+00 
    1.7388360848180897E+00 
    1.7193872437334936E+00 
    1.6930372264674285E+00 
    1.6593532485935065E+00 
    1.6176673226485132E+00 
    1.5670781126356637E+00 
    1.5062679378706250E+00 
    1.4332312872364301E+00 
    1.3441265637917137E+00 
    1.2315531338469130E+00 
    1.0845651967343721E+00 
    8.8055014318416913E-01 
    5.6365230370436714E-01 
    0.0000000000000000E+00 

SCALARS Saturarion double 1 
LOOKUP_TABLE default 

    9.9999999999999978E-01 
    9.7228779898603890E-01 
    9.1926902898643570E-01 
    8.6289359159334966E-01 
    8.0806592928341747E-01 
    7.5551725079122989E-01 
    7.0787772456491804E-01 
    6.6238326205609366E-01 
    6.2025688898892994E-01 
    5.7866455070123224E-01 
    5.3650420750958772E-01 
    4.9434479406215237E-01 
    4.4509121713774591E-01 
    1.3667250750468027E-01 
    1.0000001083499831E-06 
    1.0000000000000470E-06 
    9.7228542780164007E-01 
    9.4986054673726295E-01 
    9.0310438165250506E-01 
    8.5075539020009738E-01 
    7.9914871979851620E-01 
    7.4953872223068185E-01 
    7.0366367298971666E-01 
    6.5949215969536956E-01 
    6.1845685223629143E-01 
    5.7771328804010003E-01 
    5.3611611801354198E-01 
    4.9431727863686886E-01 
    4.4542448914086596E-01 
    1.3521786731409441E-01 
    1.3600009996133287E-06 
    1.0000000939769701E-06 
    9.1925698548887347E-01 
    9.0309553975496304E-01 
    8.6572121041455652E-01 
    8.2401821030407763E-01 
    7.7917792964173327E-01 
    7.3520214698701092E-01 
    6.9273797857358810E-01 
    6.5180374311606581E-01 
    6.1328944271428720E-01 
    5.7418365817193984E-01 
    5.3403667224986795E-01 
    4.9334031731869449E-01 
    4.4468749284754688E-01 
    1.3428184644228541E-01 
    1.1663398745780574E-06 
    1.0000001088182338E-06 
    8.6286226926337017E-01 
    8.5072970194606734E-01 
    8.2400408389775970E-01 
    7.8829304574490255E-01 
    7.5297646277679220E-01 
    7.1566740671471396E-01 
    6.7780398139479481E-01 
    6.4115034393266124E-01 
    6.0558135277300573E-01 
    5.6888070195015561E-01 
    5.3080138734081805E-01 
    4.9164978042634638E-01 
    4.4358252481134613E-01 
    1.3306792643745516E-01 
    1.4316963625548158E-06 
    1.0000001467370293E-06 
    8.0802729338811830E-01 
    7.9912153480031034E-01 
    7.7915328145239826E-01 
    7.5296648067060956E-01 
    7.2210913981789215E-01 
    6.9197700300647202E-01 
    6.6068665440086305E-01 
    6.2871039070793810E-01 
    5.9609089264905846E-01 
    5.6250055699039858E-01 
    5.2732203145917678E-01 
    4.9041099466636684E-01 
    4.4341394357478287E-01 
    1.4701291127679955E-01 
    5.2260991795828615E-06 
    1.0000061233147920E-06 
    7.5552911907596432E-01 
    7.4953202378915273E-01 
    7.3518447844423118E-01 
    7.1564857448559571E-01 
    6.9196950699721294E-01 
    6.6619161347850087E-01 
    6.4028826409745732E-01 
    6.1342212835476539E-01 
    5.8520401778638875E-01 
    5.5522257247355489E-01 
    5.2366184965807439E-01 
    4.8968260973800021E-01 
    4.4469010696592504E-01 
    1.6226286058397676E-01 
    1.5108789898381695E-06 
    1.0000002920727736E-06 
    7.0789653849534784E-01 
    7.0365919909539953E-01 
    6.9271990908073910E-01 
    6.7777789614260597E-01 
    6.6066312039316522E-01 
    6.4027997097766121E-01 
    6.1785200970524501E-01 
    5.9563182218266719E-01 
    5.7240609155525346E-01 
    5.4692112805906368E-01 
    5.1886435711624557E-01 
    4.8755813470790610E-01 
    4.4528460111721530E-01 
    1.7952420334076585E-01 
    3.3241222341458426E-06 
    1.0000020103999419E-06 
    6.6237795382163778E-01 
    6.5947273735845635E-01 
    6.5177213574840198E-01 
    6.4111139908567871E-01 
    6.2867241819173425E-01 
    6.1339738986235559E-01 
    5.9562352720966449E-01 
    5.7668934253798043E-01 
    5.5794445534248693E-01 
    5.3743318751535074E-01 
    5.1349661162756488E-01 
    4.8570930561719772E-01 
    4.4660284800429145E-01 
    2.0354051409691357E-01 
    1.9028800167753835E-05 
    1.0000196342364450E-06 
    6.2023854688626312E-01 
    6.1842423227017718E-01 
    6.1324156863578794E-01 
    6.0552708618186679E-01 
    5.9603414058188886E-01 
    5.8515452802574452E-01 
    5.7237786772071853E-01 
    5.5793728864368353E-01 
    5.4230750297085217E-01 
    5.2630907177345387E-01 
    5.0733439381217116E-01 
    4.8391237564182149E-01 
    4.5003997587905248E-01 
    2.4358277514132076E-01 
    4.4532690416059569E-04 
    1.0080715141300576E-06 
    5.7869458681520802E-01 
    5.7769276632991662E-01 
    5.7413076459737433E-01 
    5.6881220705946123E-01 
    5.6242440539346772E-01 
    5.5514858039762449E-01 
    5.4686566367326894E-01 
    5.3740288547958359E-01 
    5.2630226617218001E-01 
    5.1345513513441998E-01 
    4.9977469206103137E-01 
    4.8165023158743842E-01 
    4.5507817386840405E-01 
    3.0406666501522917E-01 
    2.7290804558240027E-03 
    1.1489018301022354E-06 
    5.3654232621922071E-01 
    5.3610456144485641E-01 
    5.3398453673622259E-01 
    5.3071758624352583E-01 
    5.2722295941973407E-01 
    5.2357185963570774E-01 
    5.1879424356825143E-01 
    5.1344475674295698E-01 
    5.0730212014816289E-01 
    4.9976704383354831E-01 
    4.9034138436930097E-01 
    4.7847673582264105E-01 
    4.5823069137581507E-01 
    3.7014891661410132E-01 
    2.6634373964575277E-02 
    1.7412556344083390E-05 
    4.9435874203246466E-01 
    4.9430189682502951E-01 
    4.9328275568725261E-01 
    4.9153987710783048E-01 
    4.9022180141972488E-01 
    4.8946907305884374E-01 
    4.8745942710197054E-01 
    4.8569633022955661E-01 
    4.8389476371320678E-01 
    4.8158492056961000E-01 
    4.7845344240421794E-01 
    4.7234558975222057E-01 
    4.5959089555118049E-01 
    4.1267396359357800E-01 
    1.1722563338533222E-01 
    1.7906335518956215E-04 
    4.4506423463898898E-01 
    4.4539042109950527E-01 
    4.4461993277268164E-01 
    4.4340403678118917E-01 
    4.4249627285878751E-01 
    4.4412525159081651E-01 
    4.4531382018688387E-01 
    4.4686198813035383E-01 
    4.4959905225936536E-01 
    4.5393610341231494E-01 
    4.5818205670910400E-01 
    4.5963369858536440E-01 
    4.5731784384477181E-01 
    4.2620320311220289E-01 
    2.1462044250168053E-01 
    1.4970897739124706E-03 
    1.3622822536694940E-01 
    1.3486028064653041E-01 
    1.3390216489932918E-01 
    1.3366412734610961E-01 
    1.4820049677068689E-01 
    1.6213847147633126E-01 
    1.7731960034222224E-01 
    2.0008503556194429E-01 
    2.4277365654087962E-01 
    3.0417067646656337E-01 
    3.6777297861849123E-01 
    4.1432175212734779E-01 
    4.2934337766687297E-01 
    4.3044795600080232E-01 
    3.2450901105587443E-01 
    6.5508007680303112E-02 
    1.0000001084735201E-06 
    1.3566732525439191E-06 
    1.1805899380374747E-06 
    1.0032042578589061E-06 
    3.2405784412109324E-06 
    1.4558731372756499E-06 
    2.2458076310650170E-06 
    1.3149492568970692E-05 
    4.0535856932476754E-04 
    3.0788148538175857E-03 
    2.8837122818677077E-02 
    1.1411337562339410E-01 
    2.0929947992568218E-01 
    3.2311865339588863E-01 
    3.4438576302512713E-01 
    1.8303730819062558E-01 
    1.0000000000000453E-06 
    1.0000000924285323E-06 
    1.0000001177608754E-06 
    1.0000000016169122E-06 
    1.0000021068031774E-06 
    1.0000002338907100E-06 
    1.0000009524740058E-06 
    1.0000193355806924E-06 
    1.0048263342685130E-06 
    1.2321673645515976E-06 
    2.1584691625116070E-05 
    1.8533590468325248E-04 
    1.4085256420863048E-03 
    6.4288684684439726E-02 
    1.8288987227091222E-01 
    1.7830072441493772E-01 
