# vtk DataFile Version 2.0
Pressure Field Data 
ASCII 
DATASET UNSTRUCTURED_GRID 

POINTS 289 double 

    0.0000000000000000E+00     0.0000000000000000E+00     0.0000000000000000E+00 
    1.0000000000000000E+00     0.0000000000000000E+00     0.0000000000000000E+00 
    1.0000000000000000E+00     1.0000000000000000E+00     0.0000000000000000E+00 
    0.0000000000000000E+00     1.0000000000000000E+00     0.0000000000000000E+00 
    6.2499999999872928E-02     0.0000000000000000E+00     0.0000000000000000E+00 
    1.2499999999977310E-01     0.0000000000000000E+00     0.0000000000000000E+00 
    1.8749999999959341E-01     0.0000000000000000E+00     0.0000000000000000E+00 
    2.4999999999941089E-01     0.0000000000000000E+00     0.0000000000000000E+00 
    3.1249999999922851E-01     0.0000000000000000E+00     0.0000000000000000E+00 
    3.7499999999904610E-01     0.0000000000000000E+00     0.0000000000000000E+00 
    4.3749999999886358E-01     0.0000000000000000E+00     0.0000000000000000E+00 
    4.9999999999869210E-01     0.0000000000000000E+00     0.0000000000000000E+00 
    5.6249999999884603E-01     0.0000000000000000E+00     0.0000000000000000E+00 
    6.2499999999901090E-01     0.0000000000000000E+00     0.0000000000000000E+00 
    6.8749999999917577E-01     0.0000000000000000E+00     0.0000000000000000E+00 
    7.4999999999934064E-01     0.0000000000000000E+00     0.0000000000000000E+00 
    8.1249999999950551E-01     0.0000000000000000E+00     0.0000000000000000E+00 
    8.7499999999967026E-01     0.0000000000000000E+00     0.0000000000000000E+00 
    9.3749999999983513E-01     0.0000000000000000E+00     0.0000000000000000E+00 
    1.0000000000000000E+00     6.2499999999872928E-02     0.0000000000000000E+00 
    1.0000000000000000E+00     1.2499999999977310E-01     0.0000000000000000E+00 
    1.0000000000000000E+00     1.8749999999959341E-01     0.0000000000000000E+00 
    1.0000000000000000E+00     2.4999999999941089E-01     0.0000000000000000E+00 
    1.0000000000000000E+00     3.1249999999922851E-01     0.0000000000000000E+00 
    1.0000000000000000E+00     3.7499999999904610E-01     0.0000000000000000E+00 
    1.0000000000000000E+00     4.3749999999886358E-01     0.0000000000000000E+00 
    1.0000000000000000E+00     4.9999999999869210E-01     0.0000000000000000E+00 
    1.0000000000000000E+00     5.6249999999884603E-01     0.0000000000000000E+00 
    1.0000000000000000E+00     6.2499999999901090E-01     0.0000000000000000E+00 
    1.0000000000000000E+00     6.8749999999917577E-01     0.0000000000000000E+00 
    1.0000000000000000E+00     7.4999999999934064E-01     0.0000000000000000E+00 
    1.0000000000000000E+00     8.1249999999950551E-01     0.0000000000000000E+00 
    1.0000000000000000E+00     8.7499999999967026E-01     0.0000000000000000E+00 
    1.0000000000000000E+00     9.3749999999983513E-01     0.0000000000000000E+00 
    9.3749999999973976E-01     1.0000000000000000E+00     0.0000000000000000E+00 
    8.7499999999950118E-01     1.0000000000000000E+00     0.0000000000000000E+00 
    8.1249999999991318E-01     1.0000000000000000E+00     0.0000000000000000E+00 
    7.5000000000034706E-01     1.0000000000000000E+00     0.0000000000000000E+00 
    6.8750000000078049E-01     1.0000000000000000E+00     0.0000000000000000E+00 
    6.2500000000121403E-01     1.0000000000000000E+00     0.0000000000000000E+00 
    5.6250000000164757E-01     1.0000000000000000E+00     0.0000000000000000E+00 
    5.0000000000205946E-01     1.0000000000000000E+00     0.0000000000000000E+00 
    4.3750000000182099E-01     1.0000000000000000E+00     0.0000000000000000E+00 
    3.7500000000156092E-01     1.0000000000000000E+00     0.0000000000000000E+00 
    3.1250000000130068E-01     1.0000000000000000E+00     0.0000000000000000E+00 
    2.5000000000104050E-01     1.0000000000000000E+00     0.0000000000000000E+00 
    1.8750000000078040E-01     1.0000000000000000E+00     0.0000000000000000E+00 
    1.2500000000052031E-01     1.0000000000000000E+00     0.0000000000000000E+00 
    6.2500000000260125E-02     1.0000000000000000E+00     0.0000000000000000E+00 
    0.0000000000000000E+00     9.3749999999973976E-01     0.0000000000000000E+00 
    0.0000000000000000E+00     8.7499999999950118E-01     0.0000000000000000E+00 
    0.0000000000000000E+00     8.1249999999991318E-01     0.0000000000000000E+00 
    0.0000000000000000E+00     7.5000000000034706E-01     0.0000000000000000E+00 
    0.0000000000000000E+00     6.8750000000078049E-01     0.0000000000000000E+00 
    0.0000000000000000E+00     6.2500000000121403E-01     0.0000000000000000E+00 
    0.0000000000000000E+00     5.6250000000164757E-01     0.0000000000000000E+00 
    0.0000000000000000E+00     5.0000000000205946E-01     0.0000000000000000E+00 
    0.0000000000000000E+00     4.3750000000182099E-01     0.0000000000000000E+00 
    0.0000000000000000E+00     3.7500000000156092E-01     0.0000000000000000E+00 
    0.0000000000000000E+00     3.1250000000130068E-01     0.0000000000000000E+00 
    0.0000000000000000E+00     2.5000000000104050E-01     0.0000000000000000E+00 
    0.0000000000000000E+00     1.8750000000078040E-01     0.0000000000000000E+00 
    0.0000000000000000E+00     1.2500000000052031E-01     0.0000000000000000E+00 
    0.0000000000000000E+00     6.2500000000260125E-02     0.0000000000000000E+00 
    6.2499999999897131E-02     6.2500000000235922E-02     0.0000000000000000E+00 
    6.2499999999921327E-02     1.2500000000047351E-01     0.0000000000000000E+00 
    6.2499999999945530E-02     1.8750000000070621E-01     0.0000000000000000E+00 
    6.2499999999969733E-02     2.5000000000093858E-01     0.0000000000000000E+00 
    6.2499999999993928E-02     3.1250000000117117E-01     0.0000000000000000E+00 
    6.2500000000018124E-02     3.7500000000140382E-01     0.0000000000000000E+00 
    6.2500000000042327E-02     4.3750000000163619E-01     0.0000000000000000E+00 
    6.2500000000066530E-02     5.0000000000184897E-01     0.0000000000000000E+00 
    6.2500000000090733E-02     5.6250000000147260E-01     0.0000000000000000E+00 
    6.2500000000114922E-02     6.2500000000107636E-01     0.0000000000000000E+00 
    6.2500000000139125E-02     6.8750000000068034E-01     0.0000000000000000E+00 
    6.2500000000163328E-02     7.5000000000028411E-01     0.0000000000000000E+00 
    6.2500000000187531E-02     8.1249999999988787E-01     0.0000000000000000E+00 
    6.2500000000211720E-02     8.7499999999951172E-01     0.0000000000000000E+00 
    6.2500000000235922E-02     9.3749999999974565E-01     0.0000000000000000E+00 
    1.2499999999981980E-01     6.2500000000211733E-02     0.0000000000000000E+00 
    1.2499999999986650E-01     1.2500000000042691E-01     0.0000000000000000E+00 
    1.2499999999991319E-01     1.8750000000063199E-01     0.0000000000000000E+00 
    1.2499999999995989E-01     2.5000000000083678E-01     0.0000000000000000E+00 
    1.2500000000000661E-01     3.1250000000104172E-01     0.0000000000000000E+00 
    1.2500000000005329E-01     3.7500000000124661E-01     0.0000000000000000E+00 
    1.2500000000010000E-01     4.3750000000145117E-01     0.0000000000000000E+00 
    1.2500000000014669E-01     5.0000000000163858E-01     0.0000000000000000E+00 
    1.2500000000019340E-01     5.6250000000129741E-01     0.0000000000000000E+00 
    1.2500000000024011E-01     6.2500000000093847E-01     0.0000000000000000E+00 
    1.2500000000028680E-01     6.8750000000057998E-01     0.0000000000000000E+00 
    1.2500000000033351E-01     7.5000000000022127E-01     0.0000000000000000E+00 
    1.2500000000038020E-01     8.1249999999986211E-01     0.0000000000000000E+00 
    1.2500000000042691E-01     8.7499999999952238E-01     0.0000000000000000E+00 
    1.2500000000047359E-01     9.3749999999975164E-01     0.0000000000000000E+00 
    1.8749999999966760E-01     6.2500000000187531E-02     0.0000000000000000E+00 
    1.8749999999974179E-01     1.2500000000038020E-01     0.0000000000000000E+00 
    1.8749999999981601E-01     1.8750000000055780E-01     0.0000000000000000E+00 
    1.8749999999989009E-01     2.5000000000073502E-01     0.0000000000000000E+00 
    1.8749999999996431E-01     3.1250000000091221E-01     0.0000000000000000E+00 
    1.8750000000003850E-01     3.7500000000108941E-01     0.0000000000000000E+00 
    1.8750000000011269E-01     4.3750000000126649E-01     0.0000000000000000E+00 
    1.8750000000018691E-01     5.0000000000142808E-01     0.0000000000000000E+00 
    1.8750000000026110E-01     5.6250000000112244E-01     0.0000000000000000E+00 
    1.8750000000033529E-01     6.2500000000080080E-01     0.0000000000000000E+00 
    1.8750000000040951E-01     6.8750000000047962E-01     0.0000000000000000E+00 
    1.8750000000048361E-01     7.5000000000015843E-01     0.0000000000000000E+00 
    1.8750000000055780E-01     8.1249999999983680E-01     0.0000000000000000E+00 
    1.8750000000063199E-01     8.7499999999953304E-01     0.0000000000000000E+00 
    1.8750000000070621E-01     9.3749999999975764E-01     0.0000000000000000E+00 
    2.4999999999951281E-01     6.2500000000163314E-02     0.0000000000000000E+00 
    2.4999999999961461E-01     1.2500000000033351E-01     0.0000000000000000E+00 
    2.4999999999971650E-01     1.8750000000048361E-01     0.0000000000000000E+00 
    2.4999999999981831E-01     2.5000000000063310E-01     0.0000000000000000E+00 
    2.4999999999992020E-01     3.1250000000078260E-01     0.0000000000000000E+00 
    2.5000000000002198E-01     3.7500000000093209E-01     0.0000000000000000E+00 
    2.5000000000012390E-01     4.3750000000108180E-01     0.0000000000000000E+00 
    2.5000000000022571E-01     5.0000000000121769E-01     0.0000000000000000E+00 
    2.5000000000032763E-01     5.6250000000094724E-01     0.0000000000000000E+00 
    2.5000000000042938E-01     6.2500000000066314E-01     0.0000000000000000E+00 
    2.5000000000053119E-01     6.8750000000037925E-01     0.0000000000000000E+00 
[...]
CELL_DATA 256 
SCALARS Pressure double 1 
LOOKUP_TABLE default 

    2.2651329432507916E+00 
    2.1616532587508512E+00 
    2.0952804213860667E+00 
    2.0438335334664690E+00 
    1.9996462310023240E+00 
    1.9606692993014436E+00 
    1.9251778737995435E+00 
    1.8922544685790270E+00 
    1.8619643944257771E+00 
    1.8343224445870969E+00 
    1.8094537108361037E+00 
    1.7876957560362665E+00 
    1.7693527199921555E+00 
    1.7522187011147392E+00 
    1.7387737872770594E+00 
    1.7324516883382046E+00 
    2.1616793165187236E+00 
    2.1190148679605461E+00 
    2.0735670873531178E+00 
    2.0300371742229362E+00 
    1.9898103614175486E+00 
    1.9530158121631691E+00 
    1.9185377601888356E+00 
    1.8862100555408841E+00 
    1.8562464296609278E+00 
    1.8286913019050888E+00 
    1.8037895841946254E+00 
    1.7819291298782247E+00 
    1.7634367490263516E+00 
    1.7461268681169120E+00 
    1.7325257578735977E+00 
    1.7261325061948605E+00 
    2.0953502089629041E+00 
    2.0736105265985647E+00 
    2.0419782909094537E+00 
    2.0071038325803769E+00 
    1.9724031767055794E+00 
    1.9386500512459968E+00 
    1.9058501214767734E+00 
    1.8745572450839492E+00 
    1.8450472894104755E+00 
    1.8175890287649956E+00 
    1.7925742869766987E+00 
    1.7704407042587735E+00 
    1.7516129398987723E+00 
    1.7339231280049272E+00 
    1.7199905587686817E+00 
    1.7134377835708432E+00 
    2.0439647195552384E+00 
    2.0301379332842098E+00 
    2.0071580669537101E+00 
    1.9795206566664714E+00 
    1.9497484324634753E+00 
    1.9189511154228094E+00 
    1.8880340866832523E+00 
    1.8578193298395258E+00 
    1.8287333813186586E+00 
    1.8012650297220700E+00 
    1.7759048697902253E+00 
    1.7532438381413082E+00 
    1.7338377002255154E+00 
    1.7155064321423517E+00 
    1.7010255609446643E+00 
    1.6942039224563497E+00 
    1.9998368988234230E+00 
    1.9899631989635191E+00 
    1.9725090674355263E+00 
    1.9498020339475113E+00 
    1.9236190005619473E+00 
    1.8953038635804222E+00 
    1.8660621257967467E+00 
    1.8367174785389220E+00 
    1.8078142519945606E+00 
    1.7799967579960529E+00 
    1.7539230410709299E+00 
    1.7303786969404391E+00 
    1.7100390099932763E+00 
    1.6907094170883941E+00 
    1.6753976018702814E+00 
    1.6681659618067810E+00 
    1.9608947493541664E+00 
    1.9532113471826518E+00 
    1.9388041290118996E+00 
    1.9190565742798367E+00 
    1.8953582353334815E+00 
    1.8689565745011256E+00 
    1.8409278437379157E+00 
    1.8119771059249694E+00 
    1.7827692260326737E+00 
    1.7541130337112363E+00 
    1.7268473095603027E+00 
    1.7019090640769152E+00 
    1.6801056038383111E+00 
    1.6592770634965421E+00 
    1.6427500024101558E+00 
    1.6349192922678828E+00 
    1.9254429894390548E+00 
    1.9187787754227763E+00 
    1.9060524628613913E+00 
    1.8881878365168856E+00 
    1.8661629488515650E+00 
    1.8409762584201748E+00 
    1.8134489983339352E+00 
    1.7842202743800160E+00 
    1.7541038031918350E+00 
    1.7240109690091601E+00 
    1.6949125215794880E+00 
    1.6678243840488332E+00 
    1.6438022174097056E+00 
    1.6207912684643926E+00 
    1.6025300938531848E+00 
    1.5938325712967589E+00 
    1.8925616076200313E+00 
    1.8864937802093655E+00 
    1.8748028768777143E+00 
    1.8580190359383830E+00 
    1.8368683238734815E+00 
    1.8120781506136627E+00 
    1.7842719366445594E+00 
    1.7541149755702337E+00 
    1.7224539309813591E+00 
    1.6902086194274646E+00 
    1.6583637876744424E+00 
    1.6280957809534753E+00 
    1.6007832873996992E+00 
    1.5746701703953714E+00 
    1.5540098070213211E+00 
    1.5440537388981532E+00 
    1.8623098599756525E+00 
    1.8565698530827826E+00 
    1.8453363355185830E+00 
    1.8289812432562187E+00 
    1.8080163991953955E+00 
    1.7829227646442125E+00 
    1.7542112759485098E+00 
    1.7225099557685075E+00 
    1.6885764004152068E+00 
    1.6532352219568522E+00 
    1.6175076004808666E+00 
    1.5827488249558448E+00 
    1.5506734363192505E+00 
    1.5202562953108409E+00 
    1.4962360142715931E+00 
    1.4843103142985188E+00 
    1.8347059299355983E+00 
    1.8290553132117096E+00 
    1.8179241730964655E+00 
    1.8015631993327161E+00 
    1.7802518894283743E+00 
    1.7543215853239944E+00 
    1.7241770854657901E+00 
    1.6903249744696407E+00 
    1.6532970986053461E+00 
    1.6138013363682853E+00 
    1.5728909934558819E+00 
    1.5320696102929039E+00 
    1.4933199908805346E+00 
    1.4570752423998712E+00 
    1.4279750590275782E+00 
    1.4125352134723281E+00 
    1.8098762455149426E+00 
    1.8041962713920721E+00 
    1.7929555992280579E+00 
    1.7762528626113854E+00 
    1.7542311568249642E+00 
    1.7271120729386060E+00 
    1.6951342796909845E+00 
    1.6585413391166033E+00 
    1.6176352797175060E+00 
    1.5729587681680057E+00 
    1.5254608151403706E+00 
    1.4766640137149987E+00 
    1.4287886304093933E+00 
    1.3841922770363764E+00 
    1.3464111926118838E+00 
    1.3245516829705315E+00 
    1.7881494649046032E+00 
    1.7823687479031201E+00 
    1.7708579357645600E+00 
    1.7536327921067931E+00 
    1.7307319099824987E+00 
    1.7022204777973795E+00 
    1.6680960574287471E+00 
    1.6283320978682387E+00 
    1.5829428053806298E+00 
    1.5322016641540057E+00 
    1.4767283372178848E+00 
    1.4177407562488133E+00 
    1.3574027534712494E+00 
    1.2995189565879981E+00 
    1.2463982745004896E+00 
    1.2133643259975908E+00 
    1.7698263543530093E+00 
    1.7638980044823174E+00 
    1.7520540459962832E+00 
    1.7342526961983846E+00 
    1.7104189319829419E+00 
    1.6804455775624219E+00 
    1.6441089023260502E+00 
    1.6010539041997767E+00 
    1.5508942750079855E+00 
    1.4934780415959510E+00 
    1.4289098380362055E+00 
    1.3574480761106107E+00 
    1.2801281319677671E+00 
    1.2006771026907304E+00 
    1.1221162131346050E+00 
    1.0691675345792506E+00 
    1.7527086144548394E+00 
    1.7466056796661891E+00 
    1.7343825391486141E+00 
    1.7159387895658105E+00 
    1.6911068076020006E+00 
    1.6596369597035239E+00 
    1.6211148812987510E+00 
    1.5749413023994241E+00 
    1.5204670061723715E+00 
    1.4572365397076328E+00 
    1.3843269216004952E+00 
    1.2995112784414471E+00 
    1.2006094619838592E+00 
    1.0886651619103234E+00 
    9.6669186987902955E-01 
    8.6683987551929509E-01 
    1.7392733221322485E+00 
    1.7330150825381319E+00 
    1.7204614195272616E+00 
    1.7014703359890548E+00 
    1.6758098461821627E+00 
    1.6431246769295558E+00 
    1.6028599405821649E+00 
    1.5542822597269192E+00 
    1.4964511957825264E+00 
    1.4281410547268403E+00 
    1.3465095850677935E+00 
    1.2463281471817396E+00 
    1.1220125059206592E+00 
    9.6668068878484825E-01 
    7.7047222571545815E-01 
    5.5286801615135894E-01 
    1.7329433743101967E+00 
    1.7266148697685824E+00 
    1.7139026312696339E+00 
    1.6946436313986895E+00 
    1.6685737694620180E+00 
    1.6352889875816721E+00 
    1.5941562681130856E+00 
    1.5443242712971390E+00 
    1.4845237709962360E+00 
    1.4126866073315096E+00 
    1.3246156053881026E+00 
    1.2133069184636316E+00 
    1.0690889567063675E+00 
    8.6682463074732818E-01 
    5.5284835074813288E-01 
    0.0000000000000000E+00 

SCALARS Saturarion double 1 
LOOKUP_TABLE default 

    1.0000000000051927E+00 
    9.7286378678430296E-01 
    9.2073691699312921E-01 
    8.6507711859757075E-01 
    8.1075128543655284E-01 
    7.5850767482902792E-01 
    7.1113772085399662E-01 
    6.6585059068759911E-01 
    6.2375183968113135E-01 
    5.8239969647623568E-01 
    5.4032464563194615E-01 
    4.9819279123744131E-01 
    4.4999848870405657E-01 
    1.6848369390336060E-01 
    1.0000001532512933E-06 
    1.0000000000000692E-06 
    9.7286138895767216E-01 
    9.5084735481776783E-01 
    9.0478815706205862E-01 
    8.5303387142782017E-01 
    8.0192323421626321E-01 
    7.5255581414613837E-01 
    7.0696840899555480E-01 
    6.6296965713370015E-01 
    6.2196743321578241E-01 
    5.8147507936751652E-01 
    5.3995583069100384E-01 
    4.9817172632957063E-01 
    4.5035162156220149E-01 
    1.6739998009728072E-01 
    1.3667168541638066E-06 
    1.0000001287017175E-06 
    9.2072469289144998E-01 
    9.0477917309036338E-01 
    8.6784859242411694E-01 
    8.2655340364166541E-01 
    7.8204739354921560E-01 
    7.3830014549485912E-01 
    6.9613025817364016E-01 
    6.5528841694057272E-01 
    6.1684108874464882E-01 
    5.7799327124091870E-01 
    5.3791644284153128E-01 
    4.9725106420636722E-01 
    4.4976904973867066E-01 
    1.6692820373571104E-01 
    1.1667219600004235E-06 
    1.0000001398572888E-06 
    8.6504510396740808E-01 
    8.5300762171614597E-01 
    8.2653897567565160E-01 
    7.9107532825793370E-01 
    7.5598859730830370E-01 
    7.1891788099556664E-01 
    6.8122647915789536E-01 
    6.4463259668055772E-01 
    6.0922199101362906E-01 
    5.7274826599408479E-01 
    5.3473950706213014E-01 
    4.9558961497236648E-01 
    4.4875769521333919E-01 
    1.6649558019805014E-01 
    1.4355826333085280E-06 
    1.0000001902833512E-06 
    8.1071219295760688E-01 
    8.0189574635856631E-01 
    7.8202247642022404E-01 
    7.5597849566150532E-01 
    7.2531840618026056E-01 
    6.9531515151115586E-01 
    6.6413329331017024E-01 
    6.3228211838529569E-01 
    5.9984306122506814E-01 
    5.6641248681746259E-01 
    5.3122386890577378E-01 
    4.9433678392044894E-01 
    4.4839968665023000E-01 
    1.8031399946738308E-01 
    5.6807212854612201E-06 
    1.0000082393482861E-06 
    7.5852058676148659E-01 
    7.5254927608368161E-01 
    7.3828219218936753E-01 
    7.1889886614639253E-01 
    6.9530756387643089E-01 
    6.6965140231518305E-01 
    6.4389754960044954E-01 
    6.1714891070146272E-01 
    5.8906164817604600E-01 
    5.5918665760452357E-01 
    5.2758573268208708E-01 
    4.9365182308433248E-01 
    4.4968055144724761E-01 
    1.9777170863999324E-01 
    2.3133061080741502E-06 
    1.0000005160062985E-06 
    7.1115719443783543E-01 
    7.0696400340962662E-01 
    6.9611196957599830E-01 
    6.8120020825612893E-01 
    6.6410909944556695E-01 
    6.4388881117472319E-01 
    6.2160759534613708E-01 
    5.9949236747043078E-01 
    5.7634576218126365E-01 
    5.5094327684172339E-01 
    5.2292349715998976E-01 
    4.9176754524154320E-01 
    4.5089528990480165E-01 
    2.1630873073522908E-01 
    1.3248381479503134E-05 
    1.0000051789720282E-06 
    6.6584506834967616E-01 
    6.6294968469708959E-01 
    6.5525616120977803E-01 
    6.4459284980801013E-01 
    6.3224299081372448E-01 
    6.1712320776444207E-01 
    5.9948348962956888E-01 
    5.8066092260792634E-01 
    5.6197187379793490E-01 
    5.4154406614159889E-01 
    5.1769623207798576E-01 
    4.8999863546325578E-01 
    4.5234156613578097E-01 
    2.4143655465726399E-01 
    7.0660003816322087E-05 
    1.0001428668145823E-06 
    6.2373352648201963E-01 
    6.2193436466877794E-01 
    6.1679265356729784E-01 
    6.0916686755943983E-01 
    5.9978505403729532E-01 
    5.8901078230803450E-01 
    5.7631651362957959E-01 
    5.6196384631936780E-01 
    5.4645087024545325E-01 
    5.3055165966050011E-01 
    5.1167833074647795E-01 
    4.8832315330566539E-01 
    4.5576187898493914E-01 
    2.8155428611622924E-01 
    1.0155160353140949E-03 
    1.0487869334757735E-06 
    5.8243279215618082E-01 
    5.8145533822613626E-01 
    5.7794046163197799E-01 
    5.7267945567033662E-01 
    5.6633535457606421E-01 
    5.5911090520082374E-01 
    5.5088562647699046E-01 
    5.4151181589366248E-01 
    5.3054386289407718E-01 
    5.1782482090429705E-01 
    5.0411775827047478E-01 
    4.8607421171241877E-01 
    4.6026886282100549E-01 
    3.3757597972438241E-01 
    8.1497675156569777E-03 
    2.1765550019627582E-06 
    5.4036536673737967E-01 
    5.3994525492822010E-01 
    5.3786479054972636E-01 
    5.3465610799056174E-01 
    5.3112640223111340E-01 
    5.2749665469493690E-01 
    5.2285087031411259E-01 
    5.1763999584162501E-01 
    5.1164391067705650E-01 
    5.0410854663905769E-01 
    4.9453659871551076E-01 
    4.8286659313576086E-01 
    4.6355646590412136E-01 
    3.9451323408192851E-01 
    5.3878237011661848E-02 
    5.7113611817351427E-05 
    4.9820754836927306E-01 
    4.9815640137062361E-01 
    4.9719415709631054E-01 
    4.9548325068765176E-01 
    4.9418495678288060E-01 
    4.9349043235371681E-01 
    4.9165413634816368E-01 
    4.8991147965454790E-01 
    4.8822708792606140E-01 
    4.8594507399464698E-01 
    4.8281973604801315E-01 
    4.7679498827565509E-01 
    4.6472819233631885E-01 
    4.3054849613762070E-01 
    1.3795505428927077E-01 
    1.9390839977261509E-04 
    4.4997469042946925E-01 
    4.5031962204740522E-01 
    4.4970421070548933E-01 
    4.4860753159045696E-01 
    4.4775903836372005E-01 
    4.4929127250513834E-01 
    4.5070895127803046E-01 
    4.5201350324701656E-01 
    4.5479760990993245E-01 
    4.5897351433471639E-01 
    4.6322413352010600E-01 
    4.6465849764784861E-01 
    4.6213645784350676E-01 
    4.3939005154977023E-01 
    2.5549461817338187E-01 
    6.2566978453271055E-03 
    1.6793701649280199E-01 
    1.6695680862063977E-01 
    1.6648295183307776E-01 
    1.6684751508675175E-01 
    1.8119130963986377E-01 
    1.9731704792706309E-01 
    2.1466008278437274E-01 
    2.3862171159689044E-01 
    2.8141286412235395E-01 
    3.3737360662980215E-01 
    3.9415682288751669E-01 
    4.2685841334907987E-01 
    4.4043358145251471E-01 
    4.4074920564399434E-01 
    3.5008034595459492E-01 
    1.1671692699641585E-01 
    1.0000001531453968E-06 
    1.3634612452801645E-06 
    1.1809522466300981E-06 
    1.0061763675137826E-06 
    4.2956214610444089E-06 
    1.6697339041657335E-06 
    7.1079346318565673E-06 
    5.7325719027580088E-05 
    1.0875112935371176E-03 
    8.3224515865317674E-03 
    5.4578827771325819E-02 
    1.3931856136459778E-01 
    2.5495467511868941E-01 
    3.4861170750764692E-01 
    3.6193545892467555E-01 
    2.1613658849385092E-01 
    1.0000000000000673E-06 
    1.0000001265296717E-06 
    1.0000001514965345E-06 
    1.0000000024309026E-06 
    1.0000026123323604E-06 
    1.0000003677507066E-06 
    1.0000019243238954E-06 
    1.0000649141832339E-06 
    1.0310270816690997E-06 
    2.3704106745782018E-06 
    6.4080624521512165E-05 
    1.9489750902964567E-04 
    5.4403499766279631E-03 
    1.1477955058801100E-01 
    2.1591341751952636E-01 
    2.1498843049676722E-01 
