# vtk DataFile Version 2.0
Pressure Field Data 
ASCII 
DATASET UNSTRUCTURED_GRID 

POINTS 289 double 

    0.0000000000000000E+00     0.0000000000000000E+00     0.0000000000000000E+00 
    1.0000000000000000E+00     0.0000000000000000E+00     0.0000000000000000E+00 
    1.0000000000000000E+00     1.0000000000000000E+00     0.0000000000000000E+00 
    0.0000000000000000E+00     1.0000000000000000E+00     0.0000000000000000E+00 
    6.2499999999872928E-02     0.0000000000000000E+00     0.0000000000000000E+00 
    1.2499999999977310E-01     0.0000000000000000E+00     0.0000000000000000E+00 
    1.8749999999959341E-01     0.0000000000000000E+00     0.0000000000000000E+00 
    2.4999999999941089E-01     0.0000000000000000E+00     0.0000000000000000E+00 
    3.1249999999922851E-01     0.0000000000000000E+00     0.0000000000000000E+00 
    3.7499999999904610E-01     0.0000000000000000E+00     0.0000000000000000E+00 
    4.3749999999886358E-01     0.0000000000000000E+00     0.0000000000000000E+00 
    4.9999999999869210E-01     0.0000000000000000E+00     0.0000000000000000E+00 
    5.6249999999884603E-01     0.0000000000000000E+00     0.0000000000000000E+00 
    6.2499999999901090E-01     0.0000000000000000E+00     0.0000000000000000E+00 
    6.8749999999917577E-01     0.0000000000000000E+00     0.0000000000000000E+00 
    7.4999999999934064E-01     0.0000000000000000E+00     0.0000000000000000E+00 
    8.1249999999950551E-01     0.0000000000000000E+00     0.0000000000000000E+00 
    8.7499999999967026E-01     0.0000000000000000E+00     0.0000000000000000E+00 
    9.3749999999983513E-01     0.0000000000000000E+00     0.0000000000000000E+00 
    1.0000000000000000E+00     6.2499999999872928E-02     0.0000000000000000E+00 
    1.0000000000000000E+00     1.2499999999977310E-01     0.0000000000000000E+00 
    1.0000000000000000E+00     1.8749999999959341E-01     0.0000000000000000E+00 
    1.0000000000000000E+00     2.4999999999941089E-01     0.0000000000000000E+00 
    1.0000000000000000E+00     3.1249999999922851E-01     0.0000000000000000E+00 
    1.0000000000000000E+00     3.7499999999904610E-01     0.0000000000000000E+00 
    1.0000000000000000E+00     4.3749999999886358E-01     0.0000000000000000E+00 
    1.0000000000000000E+00     4.9999999999869210E-01     0.0000000000000000E+00 
    1.0000000000000000E+00     5.6249999999884603E-01     0.0000000000000000E+00 
    1.0000000000000000E+00     6.2499999999901090E-01     0.0000000000000000E+00 
    1.0000000000000000E+00     6.8749999999917577E-01     0.0000000000000000E+00 
    1.0000000000000000E+00     7.4999999999934064E-01     0.0000000000000000E+00 
    1.0000000000000000E+00     8.1249999999950551E-01     0.0000000000000000E+00 
    1.0000000000000000E+00     8.7499999999967026E-01     0.0000000000000000E+00 
    1.0000000000000000E+00     9.3749999999983513E-01     0.0000000000000000E+00 
    9.3749999999973976E-01     1.0000000000000000E+00     0.0000000000000000E+00 
    8.7499999999950118E-01     1.0000000000000000E+00     0.0000000000000000E+00 
    8.1249999999991318E-01     1.0000000000000000E+00     0.0000000000000000E+00 
    7.5000000000034706E-01     1.0000000000000000E+00     0.0000000000000000E+00 
    6.8750000000078049E-01     1.0000000000000000E+00     0.0000000000000000E+00 
    6.2500000000121403E-01     1.0000000000000000E+00     0.0000000000000000E+00 
    5.6250000000164757E-01     1.0000000000000000E+00     0.0000000000000000E+00 
    5.0000000000205946E-01     1.0000000000000000E+00     0.0000000000000000E+00 
    4.3750000000182099E-01     1.0000000000000000E+00     0.0000000000000000E+00 
    3.7500000000156092E-01     1.0000000000000000E+00     0.0000000000000000E+00 
    3.1250000000130068E-01     1.0000000000000000E+00     0.0000000000000000E+00 
    2.5000000000104050E-01     1.0000000000000000E+00     0.0000000000000000E+00 
    1.8750000000078040E-01     1.0000000000000000E+00     0.0000000000000000E+00 
    1.2500000000052031E-01     1.0000000000000000E+00     0.0000000000000000E+00 
    6.2500000000260125E-02     1.0000000000000000E+00     0.0000000000000000E+00 
    0.0000000000000000E+00     9.3749999999973976E-01     0.0000000000000000E+00 
    0.0000000000000000E+00     8.7499999999950118E-01     0.0000000000000000E+00 
    0.0000000000000000E+00     8.1249999999991318E-01     0.0000000000000000E+00 
    0.0000000000000000E+00     7.5000000000034706E-01     0.0000000000000000E+00 
    0.0000000000000000E+00     6.8750000000078049E-01     0.0000000000000000E+00 
    0.0000000000000000E+00     6.2500000000121403E-01     0.0000000000000000E+00 
    0.0000000000000000E+00     5.6250000000164757E-01     0.0000000000000000E+00 
    0.0000000000000000E+00     5.0000000000205946E-01     0.0000000000000000E+00 
    0.0000000000000000E+00     4.3750000000182099E-01     0.0000000000000000E+00 
    0.0000000000000000E+00     3.7500000000156092E-01     0.0000000000000000E+00 
    0.0000000000000000E+00     3.1250000000130068E-01     0.0000000000000000E+00 
    0.0000000000000000E+00     2.5000000000104050E-01     0.0000000000000000E+00 
    0.0000000000000000E+00     1.8750000000078040E-01     0.0000000000000000E+00 
    0.0000000000000000E+00     1.2500000000052031E-01     0.0000000000000000E+00 
    0.0000000000000000E+00     6.2500000000260125E-02     0.0000000000000000E+00 
    6.2499999999897131E-02     6.2500000000235922E-02     0.0000000000000000E+00 
    6.2499999999921327E-02     1.2500000000047351E-01     0.0000000000000000E+00 
    6.2499999999945530E-02     1.8750000000070621E-01     0.0000000000000000E+00 
    6.2499999999969733E-02     2.5000000000093858E-01     0.0000000000000000E+00 
    6.2499999999993928E-02     3.1250000000117117E-01     0.0000000000000000E+00 
    6.2500000000018124E-02     3.7500000000140382E-01     0.0000000000000000E+00 
    6.2500000000042327E-02     4.3750000000163619E-01     0.0000000000000000E+00 
    6.2500000000066530E-02     5.0000000000184897E-01     0.0000000000000000E+00 
    6.2500000000090733E-02     5.6250000000147260E-01     0.0000000000000000E+00 
    6.2500000000114922E-02     6.2500000000107636E-01     0.0000000000000000E+00 
    6.2500000000139125E-02     6.8750000000068034E-01     0.0000000000000000E+00 
    6.2500000000163328E-02     7.5000000000028411E-01     0.0000000000000000E+00 
    6.2500000000187531E-02     8.1249999999988787E-01     0.0000000000000000E+00 
    6.2500000000211720E-02     8.7499999999951172E-01     0.0000000000000000E+00 
    6.2500000000235922E-02     9.3749999999974565E-01     0.0000000000000000E+00 
    1.2499999999981980E-01     6.2500000000211733E-02     0.0000000000000000E+00 
    1.2499999999986650E-01     1.2500000000042691E-01     0.0000000000000000E+00 
    1.2499999999991319E-01     1.8750000000063199E-01     0.0000000000000000E+00 
    1.2499999999995989E-01     2.5000000000083678E-01     0.0000000000000000E+00 
    1.2500000000000661E-01     3.1250000000104172E-01     0.0000000000000000E+00 
    1.2500000000005329E-01     3.7500000000124661E-01     0.0000000000000000E+00 
    1.2500000000010000E-01     4.3750000000145117E-01     0.0000000000000000E+00 
    1.2500000000014669E-01     5.0000000000163858E-01     0.0000000000000000E+00 
    1.2500000000019340E-01     5.6250000000129741E-01     0.0000000000000000E+00 
    1.2500000000024011E-01     6.2500000000093847E-01     0.0000000000000000E+00 
    1.2500000000028680E-01     6.8750000000057998E-01     0.0000000000000000E+00 
    1.2500000000033351E-01     7.5000000000022127E-01     0.0000000000000000E+00 
    1.2500000000038020E-01     8.1249999999986211E-01     0.0000000000000000E+00 
    1.2500000000042691E-01     8.7499999999952238E-01     0.0000000000000000E+00 
    1.2500000000047359E-01     9.3749999999975164E-01     0.0000000000000000E+00 
    1.8749999999966760E-01     6.2500000000187531E-02     0.0000000000000000E+00 
    1.8749999999974179E-01     1.2500000000038020E-01     0.0000000000000000E+00 
    1.8749999999981601E-01     1.8750000000055780E-01     0.0000000000000000E+00 
    1.8749999999989009E-01     2.5000000000073502E-01     0.0000000000000000E+00 
    1.8749999999996431E-01     3.1250000000091221E-01     0.0000000000000000E+00 
    1.8750000000003850E-01     3.7500000000108941E-01     0.0000000000000000E+00 
    1.8750000000011269E-01     4.3750000000126649E-01     0.0000000000000000E+00 
    1.8750000000018691E-01     5.0000000000142808E-01     0.0000000000000000E+00 
    1.8750000000026110E-01     5.6250000000112244E-01     0.0000000000000000E+00 
    1.8750000000033529E-01     6.2500000000080080E-01     0.0000000000000000E+00 
    1.8750000000040951E-01     6.8750000000047962E-01     0.0000000000000000E+00 
    1.8750000000048361E-01     7.5000000000015843E-01     0.0000000000000000E+00 
    1.8750000000055780E-01     8.1249999999983680E-01     0.0000000000000000E+00 
    1.8750000000063199E-01     8.7499999999953304E-01     0.0000000000000000E+00 
    1.8750000000070621E-01     9.3749999999975764E-01     0.0000000000000000E+00 
    2.4999999999951281E-01     6.2500000000163314E-02     0.0000000000000000E+00 
    2.4999999999961461E-01     1.2500000000033351E-01     0.0000000000000000E+00 
    2.4999999999971650E-01     1.8750000000048361E-01     0.0000000000000000E+00 
    2.4999999999981831E-01     2.5000000000063310E-01     0.0000000000000000E+00 
    2.4999999999992020E-01     3.1250000000078260E-01     0.0000000000000000E+00 
    2.5000000000002198E-01     3.7500000000093209E-01     0.0000000000000000E+00 
    2.5000000000012390E-01     4.3750000000108180E-01     0.0000000000000000E+00 
    2.5000000000022571E-01     5.0000000000121769E-01     0.0000000000000000E+00 
    2.5000000000032763E-01     5.6250000000094724E-01     0.0000000000000000E+00 
    2.5000000000042938E-01     6.2500000000066314E-01     0.0000000000000000E+00 
    2.5000000000053119E-01     6.8750000000037925E-01     0.0000000000000000E+00 
[...]
CELL_DATA 256 
SCALARS Pressure double 1 
LOOKUP_TABLE default 

    2.8735105337365558E+00 
    2.7456645792467693E+00 
    2.6354988557648307E+00 
    2.5269892245353365E+00 
    2.4094836175385890E+00 
    2.2866544077763313E+00 
    2.1832482100736921E+00 
    2.0967840214745341E+00 
    2.0234337830165590E+00 
    1.9612392141509509E+00 
    1.9089807850100635E+00 
    1.8659528341782836E+00 
    1.8317517973428741E+00 
    1.8061794401300972E+00 
    1.7891546344095404E+00 
    1.7806535881743861E+00 
    2.7456787876774658E+00 
    2.6803318553272302E+00 
    2.5937955461806581E+00 
    2.4960532802796189E+00 
    2.3828504582544769E+00 
    2.2647831674817507E+00 
    2.1670209565220722E+00 
    2.0837495312071281E+00 
    2.0123571540013945E+00 
    1.9513484161752452E+00 
    1.8997948241870395E+00 
    1.8571594623104657E+00 
    1.8231502842539709E+00 
    1.7976528561948850E+00 
    1.7806468880970217E+00 
    1.7721539040732821E+00 
    2.6355324916256877E+00 
    2.5938148850243481E+00 
    2.5260063063393190E+00 
    2.4381631628027414E+00 
    2.3312132975675621E+00 
    2.2253347705226587E+00 
    2.1366660218027560E+00 
    2.0589021828653191E+00 
    1.9909542218199832E+00 
    1.9320662078830624E+00 
    1.8817593971640112E+00 
    1.8397964860517473E+00 
    1.8060929327713497E+00 
    1.7806903361011170E+00 
    1.7636844861656067E+00 
    1.7551784342847661E+00 
    2.5270475162948056E+00 
    2.4960966045775868E+00 
    2.4381867556397245E+00 
    2.3565154834895501E+00 
    2.2624188999968244E+00 
    2.1741803432890565E+00 
    2.0955231499388796E+00 
    2.0243027392896566E+00 
    1.9605582386528186E+00 
    1.9042666093062464E+00 
    1.8554505782557826E+00 
    1.8142283663510756E+00 
    1.7807892181992053E+00 
    1.7553888059502116E+00 
    1.7382885361038598E+00 
    1.7297090160695521E+00 
    2.4095669714098089E+00 
    2.3829210465945656E+00 
    2.3312672270745827E+00 
    2.2624503780654663E+00 
    2.1885126389847351E+00 
    2.1161881440391763E+00 
    2.0470290621428133E+00 
    1.9822900691195204E+00 
    1.9227754548235321E+00 
    1.8690542597606157E+00 
    1.8216115486433500E+00 
    1.7809250656063347E+00 
    1.7474982231964657E+00 
    1.7218475593527915E+00 
    1.7044480088677456E+00 
    1.6956765604065438E+00 
    2.2867752858886172E+00 
    2.2648952012399097E+00 
    2.2254301213452909E+00 
    2.1742501040834452E+00 
    2.1162249361481029E+00 
    2.0551880902941648E+00 
    1.9941808802288126E+00 
    1.9351130550621674E+00 
    1.8792628438523384E+00 
    1.8276265759057588E+00 
    1.7810608031485338E+00 
    1.7404001451791176E+00 
    1.7064742921281586E+00 
    1.6801095010996012E+00 
    1.6620548652804121E+00 
    1.6528954148671986E+00 
    2.1834203574314666E+00 
    2.1671804137371842E+00 
    2.1368038471542738E+00 
    2.0956316672070008E+00 
    2.0471028602468229E+00 
    1.9942183228143864E+00 
    1.9394886038175942E+00 
    1.8847921265645065E+00 
    1.8316048639681719E+00 
    1.7811658749641943E+00 
    1.7346425898340598E+00 
    1.6931667421250181E+00 
    1.6579215073163038E+00 
    1.6300975632865076E+00 
    1.6108066167236352E+00 
    1.6009380360804193E+00 
    2.0970026793223338E+00 
    2.0839545196296996E+00 
    2.0590836061586297E+00 
    2.0244529451235707E+00 
    1.9824045727038824E+00 
    1.9351908941447811E+00 
    1.8848325324938238E+00 
    1.8330325918628847E+00 
    1.7812591740769448E+00 
    1.7308739525636685E+00 
    1.6832372062147369E+00 
    1.6397693418939197E+00 
    1.6020116316023214E+00 
    1.5716159477936562E+00 
    1.5502007599351726E+00 
    1.5391190294087915E+00 
    2.0236992884550333E+00 
    2.0126085412608430E+00 
    1.9911808595065499E+00 
    1.9607525438698210E+00 
    1.9229331114118882E+00 
    1.8793833353633023E+00 
    1.8316897279586328E+00 
    1.7813037836436976E+00 
    1.7295841829541918E+00 
    1.6778984922232438E+00 
    1.6277185674736425E+00 
    1.5806893874448673E+00 
    1.5387600236366634E+00 
    1.5041751174156119E+00 
    1.4792952107427806E+00 
    1.4662218808143674E+00 
    1.9615521619578755E+00 
    1.9516464007514247E+00 
    1.9323395518585520E+00 
    1.9045078370115236E+00 
    1.8692588237280139E+00 
    1.8277937557684425E+00 
    1.7812995505498403E+00 
    1.7309668730375072E+00 
    1.6779463341511807E+00 
    1.6234985669465416E+00 
    1.5690812201306323E+00 
    1.5165133798457178E+00 
    1.4681592822987781E+00 
    1.4270262521098447E+00 
    1.3965955749620451E+00 
    1.3802592138700935E+00 
    1.9093387586421731E+00 
    1.9001387792065936E+00 
    1.8820801787529970E+00 
    1.8557410914914887E+00 
    1.8218674096938441E+00 
    1.7812802221133077E+00 
    1.7348252728979645E+00 
    1.6833791893053822E+00 
    1.6278165172629808E+00 
    1.5691317222024059E+00 
    1.5086037811285926E+00 
    1.4480968367051792E+00 
    1.3903101793979142E+00 
    1.3391424093486930E+00 
    1.2997636879420731E+00 
    1.2779376933712379E+00 
    1.8663506488151678E+00 
    1.8575445718195795E+00 
    1.8401600972549037E+00 
    1.8145633145566349E+00 
    1.7812264583204642E+00 
    1.7406654362334950E+00 
    1.6933947472465312E+00 
    1.6399568375896270E+00 
    1.5808326321828030E+00 
    1.5166090045136387E+00 
    1.4481430743336825E+00 
    1.3770207294811954E+00 
    1.3059164674028454E+00 
    1.2395481480369173E+00 
    1.1854607526541556E+00 
    1.1538328035381717E+00 
    1.8321810456796614E+00 
    1.8235680207520384E+00 
    1.8064906035375847E+00 
    1.7811596639379808E+00 
    1.7478363544279174E+00 
    1.7067771413724797E+00 
    1.6581876633524089E+00 
    1.6022375676179961E+00 
    1.5389419542162892E+00 
    1.4682939688077203E+00 
    1.3903958263940170E+00 
    1.3059560895546003E+00 
    1.2168212735705000E+00 
    1.1277056421544414E+00 
    1.0487452826512289E+00 
    9.9811884868376666E-01 
    1.8066288093026150E+00 
    1.7980917736555078E+00 
    1.7811105148015602E+00 
    1.7557832829888074E+00 
    1.7222112615306999E+00 
    1.6804392119382847E+00 
    1.6303914175046574E+00 
    1.5718699441680160E+00 
    1.5043854441734137E+00 
    1.4271897022147020E+00 
    1.3392574850896706E+00 
    1.2396180089019893E+00 
    1.1277364061358599E+00 
    1.0057303295705111E+00 
    8.8373059531293652E-01 
    7.9179020476770368E-01 
    1.7896105078306628E+00 
    1.7810932769241383E+00 
    1.7641134545668906E+00 
    1.7386934073490998E+00 
    1.7048237090395135E+00 
    1.6623978870239513E+00 
    1.6111144696606396E+00 
    1.5504691735220844E+00 
    1.4795205277788961E+00 
    1.3967745654431825E+00 
    1.2998955848758096E+00 
    1.1855490240222126E+00 
    1.0487957166039195E+00 
    8.8375103415744671E-01 
    6.8864737632921047E-01 
    4.9350197369538529E-01 
    1.7811008375828843E+00 
    1.7725925732908103E+00 
    1.7556009367251784E+00 
    1.7301088873615826E+00 
    1.6960486566314650E+00 
    1.6532359605189684E+00 
    1.6012436024111671E+00 
    1.5393855626302813E+00 
    1.4664460697963269E+00 
    1.3804379547524401E+00 
    1.2780717600884368E+00 
    1.1539258041147302E+00 
    9.9817620368054194E-01 
    7.9181931387627080E-01 
    4.9351169283895197E-01 
    0.0000000000000000E+00 

SCALARS Saturarion double 1 
LOOKUP_TABLE default 

    9.9953222503166383E-01 
    8.2357828838967562E-01 
    6.5194844749379643E-01 
    5.3621290966074164E-01 
    4.1171502639166224E-01 
    2.4840940123614538E-02 
    1.0003309953524043E-06 
    1.0000000000802233E-06 
    9.9999999999999974E-07 
    9.9999999999999995E-07 
    9.9999999999999995E-07 
    9.9999999999999995E-07 
    9.9999999999999995E-07 
    9.9999999999999995E-07 
    9.9999999999999995E-07 
    9.9999999999999995E-07 
    8.2357296703817096E-01 
    7.3916547387594478E-01 
    6.1907029580282258E-01 
    5.1820253445507147E-01 
    3.2731540519965624E-01 
    4.6266504920416405E-03 
    1.3321185578833832E-06 
    1.0000000268304032E-06 
    1.0000000000000012E-06 
    9.9999999999999995E-07 
    9.9999999999999995E-07 
    9.9999999999999995E-07 
    9.9999999999999995E-07 
    9.9999999999999995E-07 
    9.9999999999999995E-07 
    9.9999999999999995E-07 
    6.5193436909207658E-01 
    6.1906144559108600E-01 
    5.3907403931904607E-01 
    4.5716220768696864E-01 
    1.5328429878554742E-01 
    4.0034731050809304E-04 
    1.0487840575167650E-06 
    1.0000000000000016E-06 
    9.9999999999999995E-07 
    9.9999999999999995E-07 
    9.9999999999999995E-07 
    9.9999999999999995E-07 
    9.9999999999999995E-07 
    9.9999999999999995E-07 
    9.9999999999999995E-07 
    9.9999999999999995E-07 
    5.3618397739447554E-01 
    5.1817761589250610E-01 
    4.5714111984020983E-01 
    2.5617837012185785E-01 
    1.0026064211593693E-02 
    4.0445079046023851E-06 
    1.0000008454564817E-06 
    1.0000000000000040E-06 
    9.9999999999999995E-07 
    9.9999999999999995E-07 
    9.9999999999999995E-07 
    9.9999999999999995E-07 
    9.9999999999999995E-07 
    9.9999999999999995E-07 
    9.9999999999999995E-07 
    9.9999999999999995E-07 
    4.1162954690170550E-01 
    3.2717772350883351E-01 
    1.5317634908117589E-01 
    1.0015251283510810E-02 
    7.2730638009733542E-06 
    1.0000028037084315E-06 
    1.0000000000001399E-06 
    9.9999999999999995E-07 
    9.9999999999999995E-07 
    9.9999999999999995E-07 
    9.9999999999999995E-07 
    9.9999999999999995E-07 
    9.9999999999999995E-07 
    9.9999999999999995E-07 
    9.9999999999999995E-07 
    9.9999999999999995E-07 
    2.4738450412265394E-02 
    4.6076295251373340E-03 
    4.0016683688894327E-04 
    4.0354763942597633E-06 
    1.0000028008454464E-06 
    1.0000000000003483E-06 
    9.9999999999999995E-07 
    9.9999999999999995E-07 
    9.9999999999999995E-07 
    9.9999999999999995E-07 
    9.9999999999999995E-07 
    9.9999999999999995E-07 
    9.9999999999999995E-07 
    9.9999999999999995E-07 
    9.9999999999999995E-07 
    9.9999999999999995E-07 
    1.0003294361064856E-06 
    1.3300143831277683E-06 
    1.0486473998124339E-06 
    1.0000008406469435E-06 
    1.0000000000001395E-06 
    9.9999999999999995E-07 
    9.9999999999999995E-07 
    9.9999999999999995E-07 
    9.9999999999999995E-07 
    9.9999999999999995E-07 
    9.9999999999999995E-07 
    9.9999999999999995E-07 
    9.9999999999999995E-07 
    9.9999999999999995E-07 
    9.9999999999999995E-07 
    9.9999999999999995E-07 
    1.0000000000797115E-06 
    1.0000000266465206E-06 
    1.0000000000000042E-06 
    1.0000000000000029E-06 
    9.9999999999999995E-07 
    9.9999999999999995E-07 
    9.9999999999999995E-07 
    9.9999999999999995E-07 
    9.9999999999999995E-07 
    9.9999999999999995E-07 
    9.9999999999999995E-07 
    9.9999999999999995E-07 
    9.9999999999999995E-07 
    9.9999999999999995E-07 
    9.9999999999999995E-07 
    9.9999999999999995E-07 
    1.0000000000000002E-06 
    1.0000000000000012E-06 
    9.9999999999999995E-07 
    9.9999999999999995E-07 
    9.9999999999999995E-07 
    9.9999999999999995E-07 
    9.9999999999999995E-07 
    9.9999999999999995E-07 
    9.9999999999999995E-07 
    9.9999999999999995E-07 
    9.9999999999999995E-07 
    9.9999999999999995E-07 
    9.9999999999999995E-07 
    9.9999999999999995E-07 
    9.9999999999999995E-07 
    9.9999999999999995E-07 
    9.9999999999999995E-07 
    9.9999999999999995E-07 
    9.9999999999999995E-07 
    9.9999999999999995E-07 
    9.9999999999999995E-07 
    9.9999999999999995E-07 
    9.9999999999999995E-07 
    9.9999999999999995E-07 
    9.9999999999999995E-07 
    9.9999999999999995E-07 
    9.9999999999999995E-07 
    9.9999999999999995E-07 
    9.9999999999999995E-07 
    9.9999999999999995E-07 
    9.9999999999999995E-07 
    9.9999999999999995E-07 
    9.9999999999999995E-07 
    9.9999999999999995E-07 
    9.9999999999999995E-07 
    9.9999999999999995E-07 
    9.9999999999999995E-07 
    9.9999999999999995E-07 
    9.9999999999999995E-07 
    9.9999999999999995E-07 
    9.9999999999999995E-07 
    9.9999999999999995E-07 
    9.9999999999999995E-07 
    9.9999999999999995E-07 
    9.9999999999999995E-07 
    9.9999999999999995E-07 
    9.9999999999999995E-07 
    9.9999999999999995E-07 
    9.9999999999999995E-07 
    9.9999999999999995E-07 
    9.9999999999999995E-07 
    9.9999999999999995E-07 
    9.9999999999999995E-07 
    9.9999999999999995E-07 
    9.9999999999999995E-07 
    9.9999999999999995E-07 
    9.9999999999999995E-07 
    9.9999999999999995E-07 
    9.9999999999999995E-07 
    9.9999999999999995E-07 
    9.9999999999999995E-07 
    9.9999999999999995E-07 
    9.9999999999999995E-07 
    9.9999999999999995E-07 
    9.9999999999999995E-07 
    9.9999999999999995E-07 
    9.9999999999999995E-07 
    9.9999999999999995E-07 
    9.9999999999999995E-07 
    9.9999999999999995E-07 
    9.9999999999999995E-07 
    9.9999999999999995E-07 
    9.9999999999999995E-07 
    9.9999999999999995E-07 
    9.9999999999999995E-07 
    9.9999999999999995E-07 
    9.9999999999999995E-07 
    9.9999999999999995E-07 
    9.9999999999999995E-07 
    9.9999999999999995E-07 
    9.9999999999999995E-07 
    9.9999999999999995E-07 
    9.9999999999999995E-07 
    9.9999999999999995E-07 
    9.9999999999999995E-07 
    9.9999999999999995E-07 
    9.9999999999999995E-07 
    9.9999999999999995E-07 
    9.9999999999999995E-07 
    9.9999999999999995E-07 
    9.9999999999999995E-07 
    9.9999999999999995E-07 
    9.9999999999999995E-07 
    9.9999999999999995E-07 
    9.9999999999999995E-07 
    9.9999999999999995E-07 
    9.9999999999999995E-07 
    9.9999999999999995E-07 
    9.9999999999999995E-07 
    9.9999999999999995E-07 
    9.9999999999999995E-07 
    9.9999999999999995E-07 
    9.9999999999999995E-07 
    9.9999999999999995E-07 
    9.9999999999999995E-07 
    9.9999999999999995E-07 
    9.9999999999999995E-07 
    9.9999999999999995E-07 
    9.9999999999999995E-07 
    9.9999999999999995E-07 
    9.9999999999999995E-07 
    9.9999999999999995E-07 
    9.9999999999999995E-07 
    9.9999999999999995E-07 
    9.9999999999999995E-07 
    9.9999999999999995E-07 
    9.9999999999999995E-07 
    9.9999999999999995E-07 
    9.9999999999999995E-07 
    9.9999999999999995E-07 
    9.9999999999999995E-07 
    9.9999999999999995E-07 
    9.9999999999999995E-07 
    9.9999999999999995E-07 
    9.9999999999999995E-07 
    9.9999999999999995E-07 
    9.9999999999999995E-07 
    1.0000000130039024E-06 
