# vtk DataFile Version 2.0
Pressure Field Data 
ASCII 
DATASET UNSTRUCTURED_GRID 

POINTS 289 double 

    0.0000000000000000E+00     0.0000000000000000E+00     0.0000000000000000E+00 
    1.0000000000000000E+00     0.0000000000000000E+00     0.0000000000000000E+00 
    1.0000000000000000E+00     1.0000000000000000E+00     0.0000000000000000E+00 
    0.0000000000000000E+00     1.0000000000000000E+00     0.0000000000000000E+00 
    6.2499999999872928E-02     0.0000000000000000E+00     0.0000000000000000E+00 
    1.2499999999977310E-01     0.0000000000000000E+00     0.0000000000000000E+00 
    1.8749999999959341E-01     0.0000000000000000E+00     0.0000000000000000E+00 
    2.4999999999941089E-01     0.0000000000000000E+00     0.0000000000000000E+00 
    3.1249999999922851E-01     0.0000000000000000E+00     0.0000000000000000E+00 
    3.7499999999904610E-01     0.0000000000000000E+00     0.0000000000000000E+00 
    4.3749999999886358E-01     0.0000000000000000E+00     0.0000000000000000E+00 
    4.9999999999869210E-01     0.0000000000000000E+00     0.0000000000000000E+00 
    5.6249999999884603E-01     0.0000000000000000E+00     0.0000000000000000E+00 
    6.2499999999901090E-01     0.0000000000000000E+00     0.0000000000000000E+00 
    6.8749999999917577E-01     0.0000000000000000E+00     0.0000000000000000E+00 
    7.4999999999934064E-01     0.0000000000000000E+00     0.0000000000000000E+00 
    8.1249999999950551E-01     0.0000000000000000E+00     0.0000000000000000E+00 
    8.7499999999967026E-01     0.0000000000000000E+00     0.0000000000000000E+00 
    9.3749999999983513E-01     0.0000000000000000E+00     0.0000000000000000E+00 
    1.0000000000000000E+00     6.2499999999872928E-02     0.0000000000000000E+00 
    1.0000000000000000E+00     1.2499999999977310E-01     0.0000000000000000E+00 
    1.0000000000000000E+00     1.8749999999959341E-01     0.0000000000000000E+00 
    1.0000000000000000E+00     2.4999999999941089E-01     0.0000000000000000E+00 
    1.0000000000000000E+00     3.1249999999922851E-01     0.0000000000000000E+00 
    1.0000000000000000E+00     3.7499999999904610E-01     0.0000000000000000E+00 
    1.0000000000000000E+00     4.3749999999886358E-01     0.0000000000000000E+00 
    1.0000000000000000E+00     4.9999999999869210E-01     0.0000000000000000E+00 
    1.0000000000000000E+00     5.6249999999884603E-01     0.0000000000000000E+00 
    1.0000000000000000E+00     6.2499999999901090E-01     0.0000000000000000E+00 
    1.0000000000000000E+00     6.8749999999917577E-01     0.0000000000000000E+00 
    1.0000000000000000E+00     7.4999999999934064E-01     0.0000000000000000E+00 
    1.0000000000000000E+00     8.1249999999950551E-01     0.0000000000000000E+00 
    1.0000000000000000E+00     8.7499999999967026E-01     0.0000000000000000E+00 
    1.0000000000000000E+00     9.3749999999983513E-01     0.0000000000000000E+00 
    9.3749999999973976E-01     1.0000000000000000E+00     0.0000000000000000E+00 
    8.7499999999950118E-01     1.0000000000000000E+00     0.0000000000000000E+00 
    8.1249999999991318E-01     1.0000000000000000E+00     0.0000000000000000E+00 
    7.5000000000034706E-01     1.0000000000000000E+00     0.0000000000000000E+00 
    6.8750000000078049E-01     1.0000000000000000E+00     0.0000000000000000E+00 
    6.2500000000121403E-01     1.0000000000000000E+00     0.0000000000000000E+00 
    5.6250000000164757E-01     1.0000000000000000E+00     0.0000000000000000E+00 
    5.0000000000205946E-01     1.0000000000000000E+00     0.0000000000000000E+00 
    4.3750000000182099E-01     1.0000000000000000E+00     0.0000000000000000E+00 
    3.7500000000156092E-01     1.0000000000000000E+00     0.0000000000000000E+00 
    3.1250000000130068E-01     1.0000000000000000E+00     0.0000000000000000E+00 
    2.5000000000104050E-01     1.0000000000000000E+00     0.0000000000000000E+00 
    1.8750000000078040E-01     1.0000000000000000E+00     0.0000000000000000E+00 
    1.2500000000052031E-01     1.0000000000000000E+00     0.0000000000000000E+00 
    6.2500000000260125E-02     1.0000000000000000E+00     0.0000000000000000E+00 
    0.0000000000000000E+00     9.3749999999973976E-01     0.0000000000000000E+00 
    0.0000000000000000E+00     8.7499999999950118E-01     0.0000000000000000E+00 
    0.0000000000000000E+00     8.1249999999991318E-01     0.0000000000000000E+00 
    0.0000000000000000E+00     7.5000000000034706E-01     0.0000000000000000E+00 
    0.0000000000000000E+00     6.8750000000078049E-01     0.0000000000000000E+00 
    0.0000000000000000E+00     6.2500000000121403E-01     0.0000000000000000E+00 
    0.0000000000000000E+00     5.6250000000164757E-01     0.0000000000000000E+00 
    0.0000000000000000E+00     5.0000000000205946E-01     0.0000000000000000E+00 
    0.0000000000000000E+00     4.3750000000182099E-01     0.0000000000000000E+00 
    0.0000000000000000E+00     3.7500000000156092E-01     0.0000000000000000E+00 
    0.0000000000000000E+00     3.1250000000130068E-01     0.0000000000000000E+00 
    0.0000000000000000E+00     2.5000000000104050E-01     0.0000000000000000E+00 
    0.0000000000000000E+00     1.8750000000078040E-01     0.0000000000000000E+00 
    0.0000000000000000E+00     1.2500000000052031E-01     0.0000000000000000E+00 
    0.0000000000000000E+00     6.2500000000260125E-02     0.0000000000000000E+00 
    6.2499999999897131E-02     6.2500000000235922E-02     0.0000000000000000E+00 
    6.2499999999921327E-02     1.2500000000047351E-01     0.0000000000000000E+00 
    6.2499999999945530E-02     1.8750000000070621E-01     0.0000000000000000E+00 
    6.2499999999969733E-02     2.5000000000093858E-01     0.0000000000000000E+00 
    6.2499999999993928E-02     3.1250000000117117E-01     0.0000000000000000E+00 
    6.2500000000018124E-02     3.7500000000140382E-01     0.0000000000000000E+00 
    6.2500000000042327E-02     4.3750000000163619E-01     0.0000000000000000E+00 
    6.2500000000066530E-02     5.0000000000184897E-01     0.0000000000000000E+00 
    6.2500000000090733E-02     5.6250000000147260E-01     0.0000000000000000E+00 
    6.2500000000114922E-02     6.2500000000107636E-01     0.0000000000000000E+00 
    6.2500000000139125E-02     6.8750000000068034E-01     0.0000000000000000E+00 
    6.2500000000163328E-02     7.5000000000028411E-01     0.0000000000000000E+00 
    6.2500000000187531E-02     8.1249999999988787E-01     0.0000000000000000E+00 
    6.2500000000211720E-02     8.7499999999951172E-01     0.0000000000000000E+00 
    6.2500000000235922E-02     9.3749999999974565E-01     0.0000000000000000E+00 
    1.2499999999981980E-01     6.2500000000211733E-02     0.0000000000000000E+00 
    1.2499999999986650E-01     1.2500000000042691E-01     0.0000000000000000E+00 
    1.2499999999991319E-01     1.8750000000063199E-01     0.0000000000000000E+00 
    1.2499999999995989E-01     2.5000000000083678E-01     0.0000000000000000E+00 
    1.2500000000000661E-01     3.1250000000104172E-01     0.0000000000000000E+00 
    1.2500000000005329E-01     3.7500000000124661E-01     0.0000000000000000E+00 
    1.2500000000010000E-01     4.3750000000145117E-01     0.0000000000000000E+00 
    1.2500000000014669E-01     5.0000000000163858E-01     0.0000000000000000E+00 
    1.2500000000019340E-01     5.6250000000129741E-01     0.0000000000000000E+00 
    1.2500000000024011E-01     6.2500000000093847E-01     0.0000000000000000E+00 
    1.2500000000028680E-01     6.8750000000057998E-01     0.0000000000000000E+00 
    1.2500000000033351E-01     7.5000000000022127E-01     0.0000000000000000E+00 
    1.2500000000038020E-01     8.1249999999986211E-01     0.0000000000000000E+00 
    1.2500000000042691E-01     8.7499999999952238E-01     0.0000000000000000E+00 
    1.2500000000047359E-01     9.3749999999975164E-01     0.0000000000000000E+00 
    1.8749999999966760E-01     6.2500000000187531E-02     0.0000000000000000E+00 
    1.8749999999974179E-01     1.2500000000038020E-01     0.0000000000000000E+00 
    1.8749999999981601E-01     1.8750000000055780E-01     0.0000000000000000E+00 
    1.8749999999989009E-01     2.5000000000073502E-01     0.0000000000000000E+00 
    1.8749999999996431E-01     3.1250000000091221E-01     0.0000000000000000E+00 
    1.8750000000003850E-01     3.7500000000108941E-01     0.0000000000000000E+00 
    1.8750000000011269E-01     4.3750000000126649E-01     0.0000000000000000E+00 
    1.8750000000018691E-01     5.0000000000142808E-01     0.0000000000000000E+00 
    1.8750000000026110E-01     5.6250000000112244E-01     0.0000000000000000E+00 
    1.8750000000033529E-01     6.2500000000080080E-01     0.0000000000000000E+00 
    1.8750000000040951E-01     6.8750000000047962E-01     0.0000000000000000E+00 
    1.8750000000048361E-01     7.5000000000015843E-01     0.0000000000000000E+00 
    1.8750000000055780E-01     8.1249999999983680E-01     0.0000000000000000E+00 
    1.8750000000063199E-01     8.7499999999953304E-01     0.0000000000000000E+00 
    1.8750000000070621E-01     9.3749999999975764E-01     0.0000000000000000E+00 
    2.4999999999951281E-01     6.2500000000163314E-02     0.0000000000000000E+00 
    2.4999999999961461E-01     1.2500000000033351E-01     0.0000000000000000E+00 
    2.4999999999971650E-01     1.8750000000048361E-01     0.0000000000000000E+00 
    2.4999999999981831E-01     2.5000000000063310E-01     0.0000000000000000E+00 
    2.4999999999992020E-01     3.1250000000078260E-01     0.0000000000000000E+00 
    2.5000000000002198E-01     3.7500000000093209E-01     0.0000000000000000E+00 
    2.5000000000012390E-01     4.3750000000108180E-01     0.0000000000000000E+00 
    2.5000000000022571E-01     5.0000000000121769E-01     0.0000000000000000E+00 
    2.5000000000032763E-01     5.6250000000094724E-01     0.0000000000000000E+00 
    2.5000000000042938E-01     6.2500000000066314E-01     0.0000000000000000E+00 
    2.5000000000053119E-01     6.8750000000037925E-01     0.0000000000000000E+00 
[...]
CELL_DATA 256 
SCALARS Pressure double 1 
LOOKUP_TABLE default 

    2.4055008763603407E+00 
    2.2994975282442431E+00 
    2.2284746426692483E+00 
    2.1706846399621114E+00 
    2.1195823911980618E+00 
    2.0729888069058235E+00 
    2.0291669597375330E+00 
    1.9877757621570447E+00 
    1.9487276581689372E+00 
    1.9121572730317919E+00 
    1.8781880668209940E+00 
    1.8424112329338915E+00 
    1.8090695726280388E+00 
    1.7856630872058785E+00 
    1.7699542334044001E+00 
    1.7620726852313648E+00 
    2.2995144055518364E+00 
    2.2543808072768488E+00 
    2.2043106404523716E+00 
    2.1548728991041504E+00 
    2.1081273081470733E+00 
    2.0637896991122444E+00 
    2.0211620180910845E+00 
    1.9804816213794580E+00 
    1.9417573366928489E+00 
    1.9052279397980891E+00 
    1.8710398872459433E+00 
    1.8350057873610817E+00 
    1.8015531864379521E+00 
    1.7779788085102504E+00 
    1.7621410756542246E+00 
    1.7541941289239134E+00 
    2.2285225726085871E+00 
    2.2043405997651173E+00 
    2.1685681679691906E+00 
    2.1285177030411728E+00 
    2.0875719451235093E+00 
    2.0464754157791933E+00 
    2.0058283418154601E+00 
    1.9662726525728484E+00 
    1.9280247999752360E+00 
    1.8915588436700235E+00 
    1.8568448978043741E+00 
    1.8202151815071228E+00 
    1.7865298751445255E+00 
    1.7625896049007599E+00 
    1.7464737043959542E+00 
    1.7383806225063037E+00 
    2.1707729597335383E+00 
    2.1549380741577013E+00 
    2.1285504432355435E+00 
    2.0961759771599202E+00 
    2.0603450018426637E+00 
    2.0225825726080835E+00 
    1.9841271620776604E+00 
    1.9457563756503371E+00 
    1.9079913429582429E+00 
    1.8714966503881247E+00 
    1.8357940317966153E+00 
    1.7980757071039637E+00 
    1.7639763576617440E+00 
    1.7394079635376680E+00 
    1.7228243329440609E+00 
    1.7144836599974538E+00 
    2.1197016339078418E+00 
    2.1082180025644037E+00 
    2.0876327421886520E+00 
    2.0603757517317982E+00 
    2.0285034820986896E+00 
    1.9936787772314422E+00 
    1.9571305126179228E+00 
    1.9197148838075200E+00 
    1.8822331881325340E+00 
    1.8454934053278929E+00 
    1.8081520351753158E+00 
    1.7686256647775529E+00 
    1.7338174388550132E+00 
    1.7082753418536687E+00 
    1.6909787612584057E+00 
    1.6822581422649339E+00 
    2.0731223551531670E+00 
    2.0639039016604928E+00 
    2.0465654051249893E+00 
    2.0226449222745329E+00 
    1.9937114833291898E+00 
    1.9610836292356537E+00 
    1.9258424087350476E+00 
    1.8889429604996895E+00 
    1.8513453204713168E+00 
    1.8139222852942618E+00 
    1.7740054074419735E+00 
    1.7317607914206887E+00 
    1.6958556516523644E+00 
    1.6689286711097531E+00 
    1.6506038726837753E+00 
    1.6413274734502672E+00 
    2.0293263492417504E+00 
    2.0213060003742682E+00 
    2.0059491285072797E+00 
    1.9842193353354654E+00 
    1.9571905548857835E+00 
    1.9258701325445078E+00 
    1.8912356927124685E+00 
    1.8542534762841216E+00 
    1.8159063256612438E+00 
    1.7766992097082155E+00 
    1.7327737222186603E+00 
    1.6871347465061308E+00 
    1.6497813603950449E+00 
    1.6210012448643139E+00 
    1.6012071934452903E+00 
    1.5911134315017392E+00 
    1.9879582282292858E+00 
    1.9806484763525132E+00 
    1.9664175769471863E+00 
    1.9458745682451151E+00 
    1.9198026096281298E+00 
    1.8889990043431877E+00 
    1.8542805936498181E+00 
    1.8165222861830437E+00 
    1.7765126632691426E+00 
    1.7333562999861940E+00 
    1.6836557964680432E+00 
    1.6348914115997961E+00 
    1.5954986290636277E+00 
    1.5641251826795777E+00 
    1.5421508142032325E+00 
    1.5308115023048796E+00 
    1.9489285377126244E+00 
    1.9419445374313060E+00 
    1.9281938658702560E+00 
    1.9081355531224016E+00 
    1.8823464636951432E+00 
    1.8514265847722098E+00 
    1.8159602700251027E+00 
    1.7765393499740674E+00 
    1.7330645257381301E+00 
    1.6831618920369487E+00 
    1.6276758080176228E+00 
    1.5764155411764007E+00 
    1.5332757828806400E+00 
    1.4978630613575823E+00 
    1.4724822767487371E+00 
    1.4591741990434930E+00 
    1.9123731891224249E+00 
    1.9054337318978072E+00 
    1.8917516883093339E+00 
    1.8716669409207656E+00 
    1.8456300818398970E+00 
    1.8140272707935152E+00 
    1.7767766670285510E+00 
    1.7334054189906134E+00 
    1.6831856031324925E+00 
    1.6259693110602804E+00 
    1.5672013714541231E+00 
    1.5126138100382374E+00 
    1.4633301964374958E+00 
    1.4215680791062990E+00 
    1.3907516232154054E+00 
    1.3742344616645121E+00 
    1.8784165598866904E+00 
    1.8712586945417280E+00 
    1.8570505381306142E+00 
    1.8359724520395875E+00 
    1.8082931903852193E+00 
    1.7741225447653068E+00 
    1.7328670312024057E+00 
    1.6837250228754672E+00 
    1.6277243755492921E+00 
    1.5672276335077282E+00 
    1.5052504092721843E+00 
    1.4441420741156661E+00 
    1.3858456128988617E+00 
    1.3343093574296596E+00 
    1.2947018895185596E+00 
    1.2727646006768898E+00 
    1.8426530226869577E+00 
    1.8352368618657080E+00 
    1.8204279364051872E+00 
    1.7982565953169811E+00 
    1.7687765060960312E+00 
    1.7318981689577462E+00 
    1.6872522446011193E+00 
    1.6349886462783405E+00 
    1.5764926385571738E+00 
    1.5126667442086621E+00 
    1.4441672496438145E+00 
    1.3729005885920877E+00 
    1.3016437134281966E+00 
    1.2351676747961657E+00 
    1.1810287989726229E+00 
    1.1493824027020469E+00 
    1.8093268535687517E+00 
    1.8018007078024452E+00 
    1.7867604469475975E+00 
    1.7641827136746910E+00 
    1.7340016599938868E+00 
    1.6960230684032269E+00 
    1.6499266168477875E+00 
    1.5956216678279098E+00 
    1.5333758785799583E+00 
    1.4634052948803606E+00 
    1.3858932879576522E+00 
    1.3016663322722895E+00 
    1.2126815790790606E+00 
    1.1237068874072753E+00 
    1.0448897341084507E+00 
    9.9436642645416684E-01 
    1.7859295169343095E+00 
    1.7782362819158533E+00 
    1.7628322869627531E+00 
    1.7396313690072573E+00 
    1.7084787760576936E+00 
    1.6691128211672628E+00 
    1.6211639790189623E+00 
    1.5642659948929012E+00 
    1.4979804932783116E+00 
    1.4216604857050512E+00 
    1.3343748008210412E+00 
    1.2352083300788341E+00 
    1.1237251496026712E+00 
    1.0020996151014732E+00 
    8.8047769690732003E-01 
    7.8883614307101724E-01 
    1.7702229910524037E+00 
    1.7624018136423552E+00 
    1.7467213677445452E+00 
    1.7230551349845284E+00 
    1.6911910640967249E+00 
    1.6507971770748331E+00 
    1.6013794285595750E+00 
    1.5423010818059708E+00 
    1.4726092219036451E+00 
    1.3908540471319948E+00 
    1.2947781549918291E+00 
    1.1810808683009986E+00 
    1.0449200329558754E+00 
    8.8049018250061062E-01 
    6.8608345842646912E-01 
    4.9165398421472539E-01 
    1.7623349392202663E+00 
    1.7544495670778315E+00 
    1.7386244616375619E+00 
    1.7147121322054417E+00 
    1.6824690948979066E+00 
    1.6415200966314545E+00 
    1.5912852604435008E+00 
    1.5309613754126659E+00 
    1.4593009652196249E+00 
    1.3743372349058702E+00 
    1.2728424844290513E+00 
    1.1494372196305656E+00 
    9.9440070926226654E-01 
    7.8885375892436949E-01 
    4.9165990886645905E-01 
    0.0000000000000000E+00 

SCALARS Saturarion double 1 
LOOKUP_TABLE default 

    1.0000000004237095E+00 
    9.5655019178728773E-01 
    8.8192556916531573E-01 
    8.1018288587389797E-01 
    7.4445688401280941E-01 
    6.8581550671460911E-01 
    6.3293041129177585E-01 
    5.8510355332826125E-01 
    5.3803219315354589E-01 
    4.9434545949574776E-01 
    4.4686161198512031E-01 
    1.7287248847110370E-01 
    1.0000035138790843E-06 
    1.0000000000035683E-06 
    9.9999999999999995E-07 
    9.9999999999999995E-07 
    9.5654791876744294E-01 
    9.2394883855157417E-01 
    8.6104584805936724E-01 
    7.9541906781527039E-01 
    7.3469453931966910E-01 
    6.7876702122613863E-01 
    6.2833192594447218E-01 
    5.8171475130017047E-01 
    5.3576375727330738E-01 
    4.9287725760895135E-01 
    4.4508719258578933E-01 
    1.5763894702273726E-01 
    5.9268608141637403E-06 
    1.0000140527849559E-06 
    1.0000000000000099E-06 
    9.9999999999999995E-07 
    8.8191590649507745E-01 
    8.6103882768647610E-01 
    8.1379646021149454E-01 
    7.6419147698068002E-01 
    7.1260386802937992E-01 
    6.6241492155006276E-01 
    6.1694000576872621E-01 
    5.7281499638345190E-01 
    5.2947422915063058E-01 
    4.8865865088269883E-01 
    4.3925039909974289E-01 
    1.3244339512477049E-01 
    1.8368979515048872E-05 
    1.0000996284111531E-06 
    9.9999999999999763E-07 
    9.9999999999999995E-07 
    8.1016057819477083E-01 
    7.9540012432197393E-01 
    7.6418066404085594E-01 
    7.2296335122422162E-01 
    6.8287534180796305E-01 
    6.4187814875961324E-01 
    6.0085770151471141E-01 
    5.6002460687059596E-01 
    5.2093947085121384E-01 
    4.8259164189655485E-01 
    4.3036451926899866E-01 
    1.0066234220254847E-01 
    3.3985728480842334E-05 
    1.0002107487580437E-06 
    9.9999999999999763E-07 
    9.9999999999999995E-07 
    7.4443152819226388E-01 
    7.3467575275186492E-01 
    7.1258540355321254E-01 
    6.8286739681131770E-01 
    6.4862660898529834E-01 
    6.1499900635366556E-01 
    5.8060901239772345E-01 
    5.4524397883710773E-01 
    5.1022625202252336E-01 
    4.7441681533546676E-01 
    4.1383541088260362E-01 
    6.3298872582634544E-02 
    3.0402478094380628E-05 
    1.0001018032852793E-06 
    9.9999999999999911E-07 
    9.9999999999999995E-07 
    6.8582242358532308E-01 
    6.7876200704022149E-01 
    6.6240069896660325E-01 
    6.4186422106584584E-01 
    6.1499679587092948E-01 
    5.8525520909520068E-01 
    5.5682710287831239E-01 
    5.2785333725070049E-01 
    4.9735700779830821E-01 
    4.6534522255712368E-01 
    3.8391178005301957E-01 
    2.9842270933688082E-02 
    1.3289260789014101E-05 
    1.0000128908482606E-06 
    9.9999999999999911E-07 
    9.9999999999999995E-07 
    6.3294149085574569E-01 
    6.2832854373112024E-01 
    6.1692697489954051E-01 
    6.0084104745120603E-01 
    5.8059724714998762E-01 
    5.5682611582099273E-01 
    5.3153613653633913E-01 
    5.0753560958772004E-01 
    4.8249154005379108E-01 
    4.5322256188163440E-01 
    3.1743940371040774E-01 
    8.2861373764983957E-03 
    2.5118358146238274E-06 
    1.0000003066457593E-06 
    1.0000000000000002E-06 
    9.9999999999999995E-07 
    5.8510090234855627E-01 
    5.8170209678792828E-01 
    5.7279391031260751E-01 
    5.6000015793006053E-01 
    5.4522009036333485E-01 
    5.2783769413495607E-01 
    5.0753336638427715E-01 
    4.8719584480390071E-01 
    4.6626045596380433E-01 
    4.2845084776592701E-01 
    1.9916405683792510E-01 
    4.1461044528822891E-04 
    1.0466475302225080E-06 
    1.0000000002340809E-06 
    9.9999999999999995E-07 
    9.9999999999999995E-07 
    5.3801767529779665E-01 
    5.3574102154506775E-01 
    5.2944115672680148E-01 
    5.2090250674676974E-01 
    5.1019443134352627E-01 
    4.9732998292271213E-01 
    4.8246953881890448E-01 
    4.6624691346060132E-01 
    4.4266215926592184E-01 
    3.5967028065418655E-01 
    5.2281819447271512E-02 
    1.0242819450689054E-04 
    1.0008654320718157E-06 
    1.0000000000000019E-06 
    9.9999999999999995E-07 
    9.9999999999999995E-07 
    4.9434614521715420E-01 
    4.9285376943928061E-01 
    4.8861419467665296E-01 
    4.8253657025110896E-01 
    4.7436001154524771E-01 
    4.6528363108552379E-01 
    4.5317008672004755E-01 
    4.2839425334375825E-01 
    3.5956683442970172E-01 
    1.2167197921088681E-01 
    7.2500462872130582E-04 
    1.0897787744798308E-06 
    1.0000000004591028E-06 
    9.9999999999999995E-07 
    9.9999999999999995E-07 
    9.9999999999999995E-07 
    4.4685825291058412E-01 
    4.4505928892750751E-01 
    4.3919595651387078E-01 
    4.2971768285153966E-01 
    4.1344975951926310E-01 
    3.8375105486110578E-01 
    3.1707235617311114E-01 
    1.9876132180054587E-01 
    5.2111172478702561E-02 
    7.2234392187677963E-04 
    1.1817069105699377E-06 
    1.0000000734066066E-06 
    1.0000000000000059E-06 
    9.9999999999999995E-07 
    9.9999999999999995E-07 
    9.9999999999999995E-07 
    1.7283925956008678E-01 
    1.5747130545702404E-01 
    1.3208776381262072E-01 
    1.0113223473880528E-01 
    6.2607001430459872E-02 
    2.9552319038112035E-02 
    8.1830642927214342E-03 
    4.1107737230307756E-04 
    1.0166834988534768E-04 
    1.0892661223335150E-06 
    1.0000000730327223E-06 
    1.0000000000000148E-06 
    9.9999999999999995E-07 
    9.9999999999999995E-07 
    9.9999999999999995E-07 
    9.9999999999999995E-07 
    1.0000035800629485E-06 
    5.9849592763728846E-06 
    1.8422798516882808E-05 
    3.7343548007185079E-05 
    2.9347920289669241E-05 
    1.2930322675893061E-05 
    2.5104927161425622E-06 
    1.0466318746008361E-06 
    1.0008505870306967E-06 
    1.0000000004507367E-06 
    1.0000000000000065E-06 
    9.9999999999999995E-07 
    9.9999999999999995E-07 
    9.9999999999999995E-07 
    9.9999999999999995E-07 
    9.9999999999999995E-07 
    1.0000000000036295E-06 
    1.0000119957094599E-06 
    1.0000859217852902E-06 
    1.0002465014299565E-06 
    1.0000973219895302E-06 
    1.0000120937728145E-06 
    1.0000003109877330E-06 
    1.0000000002033158E-06 
    1.0000000000000023E-06 
    9.9999999999999974E-07 
    9.9999999999999995E-07 
    9.9999999999999995E-07 
    9.9999999999999995E-07 
    9.9999999999999995E-07 
    9.9999999999999995E-07 
    9.9999999999999995E-07 
    9.9999999999999995E-07 
    1.0000000000006380E-06 
    1.0000000000032098E-06 
    9.9999999999999932E-07 
    9.9999999999999995E-07 
    9.9999999999999953E-07 
    1.0000000000000002E-06 
    9.9999999999999995E-07 
    9.9999999999999995E-07 
    9.9999999999999995E-07 
    9.9999999999999995E-07 
    9.9999999999999995E-07 
    9.9999999999999995E-07 
    9.9999999999999995E-07 
    9.9999999999999995E-07 
    9.9999999999999995E-07 
    9.9999999999999995E-07 
    9.9999999999999995E-07 
    9.9999999999999995E-07 
    9.9999999999999995E-07 
    9.9999999999999995E-07 
    9.9999999999999995E-07 
    9.9999999999999995E-07 
    9.9999999999999995E-07 
    9.9999999999999995E-07 
    9.9999999999999995E-07 
    9.9999999999999995E-07 
    9.9999999999999995E-07 
    9.9999999999999995E-07 
    9.9999999999999995E-07 
    9.9999999999999995E-07 
    1.0000000812501908E-06 
