# vtk DataFile Version 2.0
Pressure Field Data 
ASCII 
DATASET UNSTRUCTURED_GRID 

POINTS 2213 double 

    0.0000000000000000E+00     0.0000000000000000E+00     0.0000000000000000E+00 
    5.0000000000000000E-01     0.0000000000000000E+00     0.0000000000000000E+00 
    1.0000000000000000E+00     0.0000000000000000E+00     0.0000000000000000E+00 
    1.0000000000000000E+00     5.0000000000000000E-01     0.0000000000000000E+00 
    1.0000000000000000E+00     1.0000000000000000E+00     0.0000000000000000E+00 
    5.0000000000000000E-01     1.0000000000000000E+00     0.0000000000000000E+00 
    0.0000000000000000E+00     1.0000000000000000E+00     0.0000000000000000E+00 
    0.0000000000000000E+00     5.0000000000000000E-01     0.0000000000000000E+00 
    1.5624999999971041E-02     0.0000000000000000E+00     0.0000000000000000E+00 
    3.1249999999936742E-02     0.0000000000000000E+00     0.0000000000000000E+00 
    4.6874999999913257E-02     0.0000000000000000E+00     0.0000000000000000E+00 
    6.2499999999889783E-02     0.0000000000000000E+00     0.0000000000000000E+00 
    7.8124999999844805E-02     0.0000000000000000E+00     0.0000000000000000E+00 
    9.3749999999799827E-02     0.0000000000000000E+00     0.0000000000000000E+00 
    1.0937499999975490E-01     0.0000000000000000E+00     0.0000000000000000E+00 
    1.2499999999970990E-01     0.0000000000000000E+00     0.0000000000000000E+00 
    1.4062499999966460E-01     0.0000000000000000E+00     0.0000000000000000E+00 
    1.5624999999961930E-01     0.0000000000000000E+00     0.0000000000000000E+00 
    1.7187499999957390E-01     0.0000000000000000E+00     0.0000000000000000E+00 
    1.8749999999952860E-01     0.0000000000000000E+00     0.0000000000000000E+00 
    2.0312499999948330E-01     0.0000000000000000E+00     0.0000000000000000E+00 
    2.1874999999943801E-01     0.0000000000000000E+00     0.0000000000000000E+00 
    2.3437499999939271E-01     0.0000000000000000E+00     0.0000000000000000E+00 
    2.4999999999934730E-01     0.0000000000000000E+00     0.0000000000000000E+00 
    2.6562499999938810E-01     0.0000000000000000E+00     0.0000000000000000E+00 
    2.8124999999942890E-01     0.0000000000000000E+00     0.0000000000000000E+00 
    2.9687499999946970E-01     0.0000000000000000E+00     0.0000000000000000E+00 
    3.1249999999951050E-01     0.0000000000000000E+00     0.0000000000000000E+00 
    3.2812499999955130E-01     0.0000000000000000E+00     0.0000000000000000E+00 
    3.4374999999959210E-01     0.0000000000000000E+00     0.0000000000000000E+00 
    3.5937499999963290E-01     0.0000000000000000E+00     0.0000000000000000E+00 
    3.7499999999967371E-01     0.0000000000000000E+00     0.0000000000000000E+00 
    3.9062499999971451E-01     0.0000000000000000E+00     0.0000000000000000E+00 
    4.0624999999975520E-01     0.0000000000000000E+00     0.0000000000000000E+00 
    4.2187499999979600E-01     0.0000000000000000E+00     0.0000000000000000E+00 
    4.3749999999983680E-01     0.0000000000000000E+00     0.0000000000000000E+00 
    4.5312499999987760E-01     0.0000000000000000E+00     0.0000000000000000E+00 
    4.6874999999991840E-01     0.0000000000000000E+00     0.0000000000000000E+00 
    4.8437499999995920E-01     0.0000000000000000E+00     0.0000000000000000E+00 
    5.1562499999992384E-01     0.0000000000000000E+00     0.0000000000000000E+00 
    5.3124999999985478E-01     0.0000000000000000E+00     0.0000000000000000E+00 
    5.4687499999994527E-01     0.0000000000000000E+00     0.0000000000000000E+00 
    5.6249999999998668E-01     0.0000000000000000E+00     0.0000000000000000E+00 
    5.7812499999998068E-01     0.0000000000000000E+00     0.0000000000000000E+00 
    5.9374999999994749E-01     0.0000000000000000E+00     0.0000000000000000E+00 
    6.0937499999997913E-01     0.0000000000000000E+00     0.0000000000000000E+00 
    6.2500000000000000E-01     0.0000000000000000E+00     0.0000000000000000E+00 
    6.4062499999998945E-01     0.0000000000000000E+00     0.0000000000000000E+00 
    6.5624999999996603E-01     0.0000000000000000E+00     0.0000000000000000E+00 
    6.7187499999995337E-01     0.0000000000000000E+00     0.0000000000000000E+00 
    6.8749999999998734E-01     0.0000000000000000E+00     0.0000000000000000E+00 
    7.0312499999998124E-01     0.0000000000000000E+00     0.0000000000000000E+00 
    7.1874999999997025E-01     0.0000000000000000E+00     0.0000000000000000E+00 
    7.3437499999999034E-01     0.0000000000000000E+00     0.0000000000000000E+00 
    7.5000000000000000E-01     0.0000000000000000E+00     0.0000000000000000E+00 
    7.6562499999996902E-01     0.0000000000000000E+00     0.0000000000000000E+00 
    7.8124999999993228E-01     0.0000000000000000E+00     0.0000000000000000E+00 
    7.9687499999989997E-01     0.0000000000000000E+00     0.0000000000000000E+00 
    8.1249999999996247E-01     0.0000000000000000E+00     0.0000000000000000E+00 
    8.2812499999999578E-01     0.0000000000000000E+00     0.0000000000000000E+00 
    8.4374999999999556E-01     0.0000000000000000E+00     0.0000000000000000E+00 
    8.5937500000000111E-01     0.0000000000000000E+00     0.0000000000000000E+00 
    8.7499999999997691E-01     0.0000000000000000E+00     0.0000000000000000E+00 
    8.9062500000000921E-01     0.0000000000000000E+00     0.0000000000000000E+00 
    9.0625000000004452E-01     0.0000000000000000E+00     0.0000000000000000E+00 
    9.2187500000005529E-01     0.0000000000000000E+00     0.0000000000000000E+00 
    9.3750000000012723E-01     0.0000000000000000E+00     0.0000000000000000E+00 
    9.5312500000011835E-01     0.0000000000000000E+00     0.0000000000000000E+00 
    9.6875000000005151E-01     0.0000000000000000E+00     0.0000000000000000E+00 
    9.8437500000003086E-01     0.0000000000000000E+00     0.0000000000000000E+00 
    1.0000000000000000E+00     1.5624999999971041E-02     0.0000000000000000E+00 
    1.0000000000000000E+00     3.1249999999936742E-02     0.0000000000000000E+00 
    1.0000000000000000E+00     4.6874999999913257E-02     0.0000000000000000E+00 
    1.0000000000000000E+00     6.2499999999889783E-02     0.0000000000000000E+00 
    1.0000000000000000E+00     7.8124999999844805E-02     0.0000000000000000E+00 
    1.0000000000000000E+00     9.3749999999799827E-02     0.0000000000000000E+00 
    1.0000000000000000E+00     1.0937499999975490E-01     0.0000000000000000E+00 
    1.0000000000000000E+00     1.2499999999970990E-01     0.0000000000000000E+00 
    1.0000000000000000E+00     1.4062499999966460E-01     0.0000000000000000E+00 
    1.0000000000000000E+00     1.5624999999961930E-01     0.0000000000000000E+00 
    1.0000000000000000E+00     1.7187499999957390E-01     0.0000000000000000E+00 
    1.0000000000000000E+00     1.8749999999952860E-01     0.0000000000000000E+00 
    1.0000000000000000E+00     2.0312499999948330E-01     0.0000000000000000E+00 
    1.0000000000000000E+00     2.1874999999943801E-01     0.0000000000000000E+00 
    1.0000000000000000E+00     2.3437499999939271E-01     0.0000000000000000E+00 
    1.0000000000000000E+00     2.4999999999934730E-01     0.0000000000000000E+00 
    1.0000000000000000E+00     2.6562499999938810E-01     0.0000000000000000E+00 
    1.0000000000000000E+00     2.8124999999942890E-01     0.0000000000000000E+00 
    1.0000000000000000E+00     2.9687499999946970E-01     0.0000000000000000E+00 
    1.0000000000000000E+00     3.1249999999951050E-01     0.0000000000000000E+00 
    1.0000000000000000E+00     3.2812499999955130E-01     0.0000000000000000E+00 
    1.0000000000000000E+00     3.4374999999959210E-01     0.0000000000000000E+00 
    1.0000000000000000E+00     3.5937499999963290E-01     0.0000000000000000E+00 
    1.0000000000000000E+00     3.7499999999967371E-01     0.0000000000000000E+00 
    1.0000000000000000E+00     3.9062499999971451E-01     0.0000000000000000E+00 
    1.0000000000000000E+00     4.0624999999975520E-01     0.0000000000000000E+00 
    1.0000000000000000E+00     4.2187499999979600E-01     0.0000000000000000E+00 
    1.0000000000000000E+00     4.3749999999983680E-01     0.0000000000000000E+00 
    1.0000000000000000E+00     4.5312499999987760E-01     0.0000000000000000E+00 
    1.0000000000000000E+00     4.6874999999991840E-01     0.0000000000000000E+00 
    1.0000000000000000E+00     4.8437499999995920E-01     0.0000000000000000E+00 
    1.0000000000000000E+00     5.1562499999992384E-01     0.0000000000000000E+00 
    1.0000000000000000E+00     5.3124999999985478E-01     0.0000000000000000E+00 
    1.0000000000000000E+00     5.4687499999994527E-01     0.0000000000000000E+00 
    1.0000000000000000E+00     5.6249999999998668E-01     0.0000000000000000E+00 
    1.0000000000000000E+00     5.7812499999998068E-01     0.0000000000000000E+00 
    1.0000000000000000E+00     5.9374999999994749E-01     0.0000000000000000E+00 
    1.0000000000000000E+00     6.0937499999997913E-01     0.0000000000000000E+00 
    1.0000000000000000E+00     6.2500000000000000E-01     0.0000000000000000E+00 
    1.0000000000000000E+00     6.4062499999998945E-01     0.0000000000000000E+00 
    1.0000000000000000E+00     6.5624999999996603E-01     0.0000000000000000E+00 
    1.0000000000000000E+00     6.7187499999995337E-01     0.0000000000000000E+00 
    1.0000000000000000E+00     6.8749999999998734E-01     0.0000000000000000E+00 
    1.0000000000000000E+00     7.0312499999998124E-01     0.0000000000000000E+00 
    1.0000000000000000E+00     7.1874999999997025E-01     0.0000000000000000E+00 
    1.0000000000000000E+00     7.3437499999999034E-01     0.0000000000000000E+00 
    1.0000000000000000E+00     7.5000000000000000E-01     0.0000000000000000E+00 
    1.0000000000000000E+00     7.6562499999996902E-01     0.0000000000000000E+00 
    1.0000000000000000E+00     7.8124999999993228E-01     0.0000000000000000E+00 
    1.0000000000000000E+00     7.9687499999989997E-01     0.0000000000000000E+00 
[...]
CELL_DATA 2084 
SCALARS Pressure double 1 
LOOKUP_TABLE default 

    6.0140664937998922E-01 
    6.2285419677547182E-01 
    8.2720936586309946E-01 
    6.2373287279002554E-01 
    7.4123973575280788E-01 
    6.9790285082562209E-01 
    5.9231015172369950E-01 
    6.8246882095265760E-01 
    6.9199770856589649E-01 
    7.4579721109856756E-01 
    8.2153172818616715E-01 
    5.9596174883831499E-01 
    6.6503226818008054E-01 
    6.3625024934580221E-01 
    6.0074312141859476E-01 
    6.2714488098943288E-01 
    7.8157145120636229E-01 
    6.5438694134870878E-01 
    8.5316377259825948E-01 
    6.0519072644105243E-01 
    6.0513713814961745E-01 
    7.2672878560002596E-01 
    6.2503118102373023E-01 
    6.6084034564713678E-01 
    6.0416267835855786E-01 
    6.6978821035037750E-01 
    6.1948699553205777E-01 
    5.8552725935090633E-01 
    6.7450768534818806E-01 
    6.4445701365718833E-01 
    5.8572241693921345E-01 
    6.8507325269821684E-01 
    5.8176866451249798E-01 
    6.0559356044063195E-01 
    5.9615906914709305E-01 
    7.3499946785567760E-01 
    6.4851196182393667E-01 
    6.4575577321466282E-01 
    7.2344342321166766E-01 
    6.8463001041878235E-01 
    5.9224001727364739E-01 
    7.5075632094987077E-01 
    6.1663869050725084E-01 
    7.0653852683547635E-01 
    6.9670695882022793E-01 
    5.8830106944467886E-01 
    7.4904420134970329E-01 
    5.8894139017145586E-01 
    5.8850354844726571E-01 
    6.7227811750968547E-01 
    6.6729692562798992E-01 
    5.9121483895397953E-01 
    6.0143658112010712E-01 
    6.5594103080604749E-01 
    6.5887561834898467E-01 
    5.9747629243823253E-01 
    5.8105440872736802E-01 
    7.0896248753944080E-01 
    7.2135032147149081E-01 
    6.6324974841295592E-01 
    6.6496921660857866E-01 
    6.1955149195056758E-01 
    6.0188117457347923E-01 
    6.3271552731892922E-01 
    7.4823256526361026E-01 
    6.6006409181911407E-01 
    6.9157289182762671E-01 
    5.9459317258016930E-01 
    5.8402115116791731E-01 
    5.8333543718743563E-01 
    6.1400016011887515E-01 
    8.8289279272925780E-01 
    6.6958589655880163E-01 
    8.0494008185050292E-01 
    7.1675100263765124E-01 
    8.0106461145590624E-01 
    6.6436229784353806E-01 
    7.4067469295801880E-01 
    6.0073616828646104E-01 
    7.5733043474718909E-01 
    6.2396544087241190E-01 
    6.8549927706417468E-01 
    7.0749221255342232E-01 
    5.8240073746261978E-01 
    6.9473208628489080E-01 
    6.2222289729801428E-01 
    6.4887740174672615E-01 
    6.9838189271967566E-01 
    7.1937086384658855E-01 
    7.0990874785741420E-01 
    6.9061384909380052E-01 
    6.8954118048104218E-01 
    6.0934507650777925E-01 
    7.0760553519802027E-01 
    6.5464136635168124E-01 
    5.8502026275169983E-01 
    6.3887007177985444E-01 
    6.7606776840355687E-01 
    7.3181034551436408E-01 
    6.4382607955877547E-01 
    7.4524628957683414E-01 
    7.0425349769577172E-01 
    7.2122839316606924E-01 
    7.2560942129740236E-01 
    6.5458419547074798E-01 
    7.0605931906065433E-01 
    6.7795405926457730E-01 
    7.3441250960710147E-01 
    6.1082902893105151E-01 
    9.1450855531003650E-01 
    6.2707271808701437E-01 
    6.7285080600943548E-01 
    7.0565043127386551E-01 
    7.6156895659879886E-01 
    8.1442930587328966E-01 
    6.3400413667262512E-01 
    7.0696110232503639E-01 
    7.0421892511482176E-01 
    6.4510433288175784E-01 
    5.9356637750277386E-01 
    6.5755505091719224E-01 
    7.1973286823499227E-01 
    5.9432863499436894E-01 
    7.8807130714917051E-01 
    6.7976954110063470E-01 
    7.2112465061334297E-01 
    6.6198078393870785E-01 
    5.9373492730263722E-01 
    6.4806370718741646E-01 
    6.2292230254440706E-01 
    8.1021275836693518E-01 
    8.2285040629717088E-01 
    5.8669207491066844E-01 
    7.4740261207489522E-01 
    7.3303771212236268E-01 
    6.6408694041999661E-01 
    7.1549768993678686E-01 
    5.9320747529187601E-01 
    7.3195624784296853E-01 
    7.9414902352618832E-01 
    6.9276123397193534E-01 
    8.3700844943990982E-01 
    8.0378653599688299E-01 
    6.7853291607715871E-01 
    6.3364299017454884E-01 
    6.7027252452032926E-01 
    7.0641859829917719E-01 
    7.2891838537970777E-01 
    6.5496916201332733E-01 
    6.9319943021548469E-01 
    6.9927265799542559E-01 
    7.9477399114578606E-01 
    8.6957590977022270E-01 
    6.5089524434885915E-01 
    6.5497167120558353E-01 
    8.5287245360284369E-01 
    6.2393924359083797E-01 
    7.0457686218013027E-01 
    6.4884741041895511E-01 
    7.8814498509601449E-01 
    9.9448258371850307E-01 
    9.3384077161621781E-01 
    8.7370061324316195E-01 
    8.9362486530027607E-01 
    8.4557360059677533E-01 
    8.6121453767980971E-01 
    7.0497516024012941E-01 
    9.0823840363331287E-01 
    6.9420304871270189E-01 
    8.5424090810753950E-01 
    6.9383720658003589E-01 
    7.8084761598376007E-01 
    8.0073413162410745E-01 
    7.3553072775232720E-01 
    7.7345835696312748E-01 
    6.3969530556209397E-01 
    7.7667435527479123E-01 
    6.8378237128227115E-01 
    6.9136246324995987E-01 
    6.9021958411002904E-01 
    7.1707819513794047E-01 
    6.3008823881060205E-01 
    7.8238186417508360E-01 
    7.2028671746287176E-01 
    7.1775582054763687E-01 
    5.7968426922334759E-01 
    7.4091655964942360E-01 
    8.0627803874287485E-01 
    6.3579727311775069E-01 
    7.6301126637449868E-01 
    8.2095708688328783E-01 
    8.4372114243253660E-01 
    7.1890576539652762E-01 
    6.5844034236939430E-01 
    6.3339093547690539E-01 
    6.3854992126201704E-01 
    7.5053821504867857E-01 
    7.1110513044702228E-01 
    6.5603836292338968E-01 
    7.5267120648840213E-01 
    6.8598607447469462E-01 
    6.4155214147043804E-01 
    7.1959204004506927E-01 
    6.0455331406891610E-01 
    6.4273980019261012E-01 
    8.2441629494838331E-01 
    7.4769567121178515E-01 
    6.3955719483587592E-01 
    7.7169722980777533E-01 
    7.6425271173020415E-01 
    6.5661464260719493E-01 
    6.7808026981116654E-01 
    6.8020142994386257E-01 
    7.3962464796120575E-01 
    7.3620418577485303E-01 
    7.9949093471576083E-01 
    6.7417794271412868E-01 
    7.3466122006713730E-01 
    7.4941480419692863E-01 
    6.5539835729136542E-01 
    6.6565416464516214E-01 
    5.7848077874532011E-01 
    6.5600140833283527E-01 
    8.3414926438972981E-01 
    7.1044999936662723E-01 
    7.3344061012343265E-01 
    6.8525707253533574E-01 
    7.3270499635902919E-01 
    6.4254947627067116E-01 
    6.3642100192161022E-01 
    6.1388152414663499E-01 
    6.4219589497384044E-01 
    6.1621531872163449E-01 
    6.6732338082907938E-01 
    7.2216086008113511E-01 
    6.2700820274213676E-01 
    7.6607146932073977E-01 
    7.6986111454289441E-01 
    6.6278803289391675E-01 
    6.2471028708938858E-01 
    7.2015154807906223E-01 
    6.5309547018144043E-01 
    5.9741584600932118E-01 
    6.4287456423661349E-01 
    5.9201910821982695E-01 
    6.1239864636523700E-01 
    6.5192527719196014E-01 
    7.0853071969787462E-01 
    7.8504924537232523E-01 
    6.0416717666528841E-01 
    6.4191504370044516E-01 
    6.2506792560130753E-01 
    6.4223183228664915E-01 
    8.8185164954676309E-01 
    6.0454887111602851E-01 
    6.8302532041829223E-01 
    6.1792564722746512E-01 
    6.6381974887212603E-01 
    6.2926272591928523E-01 
    6.6726965271100458E-01 
    6.0845746006208323E-01 
    6.6773667656259050E-01 
    6.3023129788619714E-01 
    6.7143455096248150E-01 
    6.3403311564071063E-01 
    6.2727524185220740E-01 
    6.0291735455584516E-01 
    6.1553250314705210E-01 
    7.6573157883489107E-01 
    5.8628514494329509E-01 
    5.9755364213030582E-01 
    6.4532706050261557E-01 
    6.1834530822227618E-01 
    9.4999697860271792E-01 
    6.3657923732762689E-01 
    7.3555182640851269E-01 
    6.3067507843033921E-01 
    5.9448113277634873E-01 
    6.5459399560614828E-01 
    6.1431363054795751E-01 
    6.7517410265280264E-01 
    6.3513678977673083E-01 
    6.3595258868601634E-01 
    6.4091677444534056E-01 
    5.9272244914360095E-01 
    6.3677999691310894E-01 
    6.2643447641444294E-01 
    5.9372485507188799E-01 
    6.2626530468039687E-01 
    6.2710149493367418E-01 
    6.3895634083653252E-01 
    5.9191161849816309E-01 
    6.0955573707311617E-01 
    6.3117537247780742E-01 
    6.6806880271483005E-01 
    6.1770632891449972E-01 
    6.0384489220353288E-01 
    7.4781042090582517E-01 
    6.1947791133739960E-01 
    6.9636452212417699E-01 
    9.5022131944534483E-01 
    7.5903798401225542E-01 
    6.9535212291947124E-01 
    7.8116253095566746E-01 
    6.2701684874727215E-01 
    6.2611850638604660E-01 
    6.0366895104402130E-01 
    6.1013383055837900E-01 
    6.1223905307846671E-01 
    5.8952828694498238E-01 
    7.8618344504681226E-01 
    5.9039854655252522E-01 
    6.6114934051406693E-01 
    7.6580073591877529E-01 
    6.6697994327657206E-01 
    6.1808270573210022E-01 
    7.2866694686070677E-01 
    6.0370239035725126E-01 
    6.0513548147608931E-01 
    6.0604409982167939E-01 
    9.1809538826079173E-01 
    7.0762385015014340E-01 
    7.7502112115572874E-01 
    7.7949882477095234E-01 
    6.7655557025242885E-01 
    7.5023443956700975E-01 
    6.0489820834357499E-01 
    5.7591420324561371E-01 
    1.0936057668839583E+00 
    5.8714089204832165E-01 
    5.9778489079596409E-01 
    5.9839741157819026E-01 
    6.9787406110200634E-01 
    7.6279294632678274E-01 
    5.7617714228441241E-01 
    8.1643920697342021E-01 
    8.3825073926351412E-01 
    6.7738740129028374E-01 
    6.3567164937898812E-01 
    8.0417974998665787E-01 
    6.8097608754912176E-01 
    6.0678156539204864E-01 
    7.7323022757147686E-01 
    5.9214798936580770E-01 
    5.9251457915285077E-01 
    6.9477431908417320E-01 
    6.4426407272930963E-01 
    5.7797785892687370E-01 
    6.2904349323341369E-01 
    5.8281963862617536E-01 
    7.9408291593999258E-01 
    5.8744617191145176E-01 
    6.1722931612222398E-01 
    7.6061034146902129E-01 
    6.3040945827657335E-01 
    6.8032668932620266E-01 
    5.8730723931908446E-01 
    6.5635913922435873E-01 
    6.6989895019909329E-01 
    6.0582933044565546E-01 
    6.4458641438856357E-01 
    7.6742587755491787E-01 
    5.8375898323035558E-01 
    6.4147374201043117E-01 
    5.9380707452708437E-01 
    6.1130213924694443E-01 
    6.4844242214927339E-01 
    5.9163916151501106E-01 
    6.4998897464900496E-01 
    7.8237609857349355E-01 
    7.9582806153405694E-01 
    5.8301913983244769E-01 
    9.6127478546831535E-01 
    6.5672787936039123E-01 
    6.1816982595970071E-01 
    8.2560268284776395E-01 
    6.8411840532385237E-01 
    7.0539781477735242E-01 
    6.0835632573034415E-01 
    6.1042493865994130E-01 
    7.2356244051683816E-01 
    6.8339683536533691E-01 
    5.7993893250142869E-01 
    6.1328118071620441E-01 
    8.5307808617911707E-01 
    6.7295417494797727E-01 
    7.5396147825545556E-01 
    6.9609047605424146E-01 
    7.6978274312965833E-01 
    7.2333140283866260E-01 
    5.7975868130932884E-01 
    5.9872568457086817E-01 
    6.2255470463530094E-01 
    7.9743005994226768E-01 
    7.5408304529814096E-01 
    6.1699295754604511E-01 
    6.1217172536617825E-01 
    6.1811362832073402E-01 
    6.1543569373292684E-01 
    7.3654733687391960E-01 
    5.9227021871261731E-01 
    7.0357854854564950E-01 
    8.9405101365587103E-01 
    6.0859540915247812E-01 
    8.5822245989745927E-01 
    6.5362030694214346E-01 
    8.7343525559890145E-01 
    7.6273966616887179E-01 
    1.0067346800986363E+00 
    6.0743056665946460E-01 
    7.5000442728051575E-01 
    6.7162428913040861E-01 
    5.8901424830664606E-01 
    7.7887869891793049E-01 
    6.6362647047859891E-01 
    7.8861677000891017E-01 
    5.9061059403615446E-01 
    7.5484114901692834E-01 
    6.4355478374484065E-01 
    6.8756227480610299E-01 
    5.8135297263005170E-01 
    5.9120641880743452E-01 
    5.8727063248301248E-01 
    8.1979755950545918E-01 
    6.0866671289760399E-01 
    8.8492864384336278E-01 
    8.3630940403450615E-01 
    6.1511896311767000E-01 
    6.5225125831213171E-01 
    6.2351445369490655E-01 
    5.8602956430322217E-01 
    6.4882495507512206E-01 
    7.6863125218076089E-01 
    6.1952201118549410E-01 
    5.9156318068736535E-01 
    9.1313776016110204E-01 
    7.3670972626673881E-01 
    5.7660891395566216E-01 
    5.7675471842136927E-01 
    5.9815519032703002E-01 
    6.0305971086461196E-01 
    5.8931019304259991E-01 
    5.8289411675595804E-01 
    6.1907710441604302E-01 
    6.0609390411477004E-01 
    5.7451937614196102E-01 
    5.7457681835881769E-01 
    5.7121551305673612E-01 
    5.6385676637776072E-01 
    5.6434609295337756E-01 
    5.6627810789176647E-01 
    5.6700793043201181E-01 
    5.6711514046345080E-01 
    5.7256595957216150E-01 
    5.6106408994270573E-01 
    5.7182014175926399E-01 
    5.6331212358423333E-01 
    5.6955578586729627E-01 
    5.6633762752665839E-01 
    5.6619113300805091E-01 
    5.6502297623985964E-01 
    5.6223951724491750E-01 
    5.7834588010090004E-01 
    5.7330233120204577E-01 
    5.7765587947487884E-01 
    5.7199848310896040E-01 
    5.6886794343401470E-01 
    5.6368297978255499E-01 
    5.6211057308207801E-01 
    5.7949504250390993E-01 
    5.7036769019884170E-01 
    5.6166822681592721E-01 
    5.6640705814308401E-01 
    5.7368513265006627E-01 
    5.7368281597769955E-01 
    5.5952740237278287E-01 
    5.6106167529875572E-01 
    5.7048278898003424E-01 
    5.7550240390756791E-01 
    5.7358151137856528E-01 
    5.6763535920985342E-01 
    5.6498778914417902E-01 
    5.7999053815536872E-01 
    5.7810545143468106E-01 
    5.7403985064405005E-01 
    5.8318002531551738E-01 
    5.6492869017989489E-01 
    5.6604737692015961E-01 
    5.6540399588694656E-01 
    5.7738767127338775E-01 
    5.6601453462888540E-01 
    5.7535858102467519E-01 
    5.7042817111125810E-01 
    5.7056964261115073E-01 
    5.7029595561578705E-01 
    5.6883244711723457E-01 
    5.7721727661679978E-01 
    5.7746996585981203E-01 
    5.6963451853171276E-01 
    5.6415888240447987E-01 
    5.6897758491408590E-01 
    5.6860925890610337E-01 
    5.6063405310062286E-01 
    5.7295736734729663E-01 
    5.6109102587248094E-01 
    5.7743721426590433E-01 
    5.6238467502362854E-01 
    5.7150533271856674E-01 
    5.6506228681967052E-01 
    5.5932204424816079E-01 
    5.5830831982629825E-01 
    5.5946582949109736E-01 
    5.6112339759695540E-01 
    5.6878733456465835E-01 
    5.6077631341222667E-01 
    5.6323856936244177E-01 
    5.6433685179205517E-01 
    5.8180926092425067E-01 
    5.6935349292254311E-01 
    5.6193830412374612E-01 
    5.7760005888053190E-01 
    5.6722166433777021E-01 
    5.6568512090805134E-01 
    5.7340061039284806E-01 
    5.8125672244039384E-01 
    5.7223842906787670E-01 
    5.7227949837154701E-01 
    5.6956459697791961E-01 
    5.7130003123651463E-01 
    5.7573246068860362E-01 
    5.7581451040715759E-01 
    5.7501733304090907E-01 
    5.7612349490965642E-01 
    5.7092237714994032E-01 
    5.7452337300175060E-01 
    5.7444165548259896E-01 
    5.7181996550918468E-01 
    5.7267481324686598E-01 
    5.8010487134288058E-01 
    5.7581607822229852E-01 
    5.7726978270140894E-01 
    5.8059163131620861E-01 
    5.6672369467779060E-01 
    5.6584077700687740E-01 
    5.7243742470212455E-01 
    5.7775501653462247E-01 
    5.8145380624428000E-01 
    5.7759056321393309E-01 
    5.5890692733541292E-01 
    5.6468307825960851E-01 
    5.7121972552491840E-01 
    5.6796050900596429E-01 
    5.6387029795445387E-01 
    5.7587926666998956E-01 
    5.7201579223990295E-01 
    5.6170953978168603E-01 
    5.7430947858124670E-01 
    5.6384685557796033E-01 
    5.6530335124517539E-01 
    5.6470543846192400E-01 
    5.7167580353126057E-01 
    5.7675600506739555E-01 
    5.7927626132455212E-01 
    5.7362914286773703E-01 
    5.7907144707286839E-01 
    5.6306601216500585E-01 
    5.6274900191571453E-01 
    5.7910966843845979E-01 
    5.7544526801286722E-01 
    5.5852279990330533E-01 
    5.5960230394365607E-01 
    5.7986711681173220E-01 
    5.7051980675364211E-01 
    5.7563573968233395E-01 
    5.7233427733194109E-01 
    5.6686309220252884E-01 
    5.7232282965327486E-01 
    5.7316479651702845E-01 
    5.7052765536315941E-01 
    5.6971394009455822E-01 
    5.6966549858003679E-01 
    5.6129833153375319E-01 
    5.7861372452731130E-01 
    5.8327000829174158E-01 
    5.6141342310136821E-01 
    5.6144318211187838E-01 
    5.6100338612638356E-01 
    5.6121519651556240E-01 
    5.5980829741890303E-01 
    5.7549472599315044E-01 
    5.6748499582279055E-01 
    5.6105836691287791E-01 
    5.7260778302644999E-01 
    5.7398105796659393E-01 
    5.6787041440004371E-01 
    5.6824997121737497E-01 
    5.6715832362050511E-01 
    5.6987046460131963E-01 
    5.7779315597660974E-01 
    5.6141945385224068E-01 
    5.6126474593589126E-01 
    5.6479165113593854E-01 
    5.6959868233518829E-01 
    5.7672377545989217E-01 
    5.6375403035668636E-01 
    5.7845020327108332E-01 
    5.6068433705582055E-01 
    5.6832129625737959E-01 
    5.5808863566650602E-01 
    5.5904707608548265E-01 
    5.6160169456746478E-01 
    5.7888128347140344E-01 
    5.7223882410831750E-01 
    5.6848609183999521E-01 
    5.7077820914441990E-01 
    5.7398430210998574E-01 
    5.6041906662623608E-01 
    5.6797417928973160E-01 
    5.7163435384521355E-01 
    5.7955949112161642E-01 
    5.7564327987388209E-01 
    5.7648101610613534E-01 
    5.7935285752830756E-01 
    5.8020422813569250E-01 
    5.7027226438765288E-01 
    5.6427274597034094E-01 
    5.7401172920273036E-01 
    5.7398821973106728E-01 
    5.6850175734684627E-01 
    5.6066901951297554E-01 
    5.7379638785605724E-01 
    5.7565586803966051E-01 
    5.7670855286140688E-01 
    5.7522674347076619E-01 
    5.6001311756923633E-01 
    5.7461596379053204E-01 
    5.7401159919045885E-01 
    5.6068027412475785E-01 
    5.6460329950714494E-01 
    5.7187357046142628E-01 
    5.7468987942589256E-01 
    5.7389043906294090E-01 
    5.7321647109759999E-01 
    5.7372094782788030E-01 
    5.7685470593601607E-01 
    5.7312198026053229E-01 
    5.7465066782794227E-01 
    5.7091763561998454E-01 
    5.7270744564613318E-01 
    5.6062205200162440E-01 
    5.8046636213484848E-01 
    5.7869991754606642E-01 
    5.8037123637677956E-01 
    5.6696392860662781E-01 
    5.6616245172539614E-01 
    5.6492008122086423E-01 
    5.7481944538699026E-01 
    5.7254698237820867E-01 
    5.7464019067318650E-01 
    5.6731684298373686E-01 
    5.6009797224081959E-01 
    5.6236410165424400E-01 
    5.7722593460678495E-01 
    5.6219460206867689E-01 
    5.6999420486171948E-01 
    5.6619242485707655E-01 
    5.7650516364058446E-01 
    5.7225030161376222E-01 
    5.7022909286781165E-01 
    5.7912023216323227E-01 
    5.7742739925476116E-01 
    5.6842255643368833E-01 
    5.6747293185263181E-01 
    5.6443811308376590E-01 
    5.6910258482815723E-01 
    5.7480749795385611E-01 
    5.6069962704698961E-01 
    5.7641512842172238E-01 
    5.7845186046335650E-01 
    5.6826717294284679E-01 
    5.6769624484534176E-01 
    5.6257303597876318E-01 
    5.6005095600849941E-01 
    5.7799796109643342E-01 
    5.6667613495901714E-01 
    5.7334037000877425E-01 
    5.6834547388650836E-01 
    5.7239669995298614E-01 
    5.6340139536157097E-01 
    5.7083114193481577E-01 
    5.7936988773052978E-01 
    5.6611047920996227E-01 
    5.6982793927964293E-01 
    5.6356143028684469E-01 
    5.6953032988397057E-01 
    5.7907895863781966E-01 
    5.6648551321012475E-01 
    5.7330229248602715E-01 
    5.6665958586527698E-01 
    5.6115005966404308E-01 
    5.7301208910400114E-01 
    5.7305275160671409E-01 
    5.7201929724526601E-01 
    5.6647748979223278E-01 
    5.6580142360177177E-01 
    5.6206544666151359E-01 
    5.7199024488173889E-01 
    5.7360150396423981E-01 
    5.7064169286427657E-01 
    5.6300890507543533E-01 
    5.6573080846609813E-01 