# vtk DataFile Version 2.0
Pressure Field Data 
ASCII 
DATASET UNSTRUCTURED_GRID 

POINTS 2213 double 

    0.0000000000000000E+00     0.0000000000000000E+00     0.0000000000000000E+00 
    5.0000000000000000E-01     0.0000000000000000E+00     0.0000000000000000E+00 
    1.0000000000000000E+00     0.0000000000000000E+00     0.0000000000000000E+00 
    1.0000000000000000E+00     5.0000000000000000E-01     0.0000000000000000E+00 
    1.0000000000000000E+00     1.0000000000000000E+00     0.0000000000000000E+00 
    5.0000000000000000E-01     1.0000000000000000E+00     0.0000000000000000E+00 
    0.0000000000000000E+00     1.0000000000000000E+00     0.0000000000000000E+00 
    0.0000000000000000E+00     5.0000000000000000E-01     0.0000000000000000E+00 
    1.5624999999971041E-02     0.0000000000000000E+00     0.0000000000000000E+00 
    3.1249999999936742E-02     0.0000000000000000E+00     0.0000000000000000E+00 
    4.6874999999913257E-02     0.0000000000000000E+00     0.0000000000000000E+00 
    6.2499999999889783E-02     0.0000000000000000E+00     0.0000000000000000E+00 
    7.8124999999844805E-02     0.0000000000000000E+00     0.0000000000000000E+00 
    9.3749999999799827E-02     0.0000000000000000E+00     0.0000000000000000E+00 
    1.0937499999975490E-01     0.0000000000000000E+00     0.0000000000000000E+00 
    1.2499999999970990E-01     0.0000000000000000E+00     0.0000000000000000E+00 
    1.4062499999966460E-01     0.0000000000000000E+00     0.0000000000000000E+00 
    1.5624999999961930E-01     0.0000000000000000E+00     0.0000000000000000E+00 
    1.7187499999957390E-01     0.0000000000000000E+00     0.0000000000000000E+00 
    1.8749999999952860E-01     0.0000000000000000E+00     0.0000000000000000E+00 
    2.0312499999948330E-01     0.0000000000000000E+00     0.0000000000000000E+00 
    2.1874999999943801E-01     0.0000000000000000E+00     0.0000000000000000E+00 
    2.3437499999939271E-01     0.0000000000000000E+00     0.0000000000000000E+00 
    2.4999999999934730E-01     0.0000000000000000E+00     0.0000000000000000E+00 
    2.6562499999938810E-01     0.0000000000000000E+00     0.0000000000000000E+00 
    2.8124999999942890E-01     0.0000000000000000E+00     0.0000000000000000E+00 
    2.9687499999946970E-01     0.0000000000000000E+00     0.0000000000000000E+00 
    3.1249999999951050E-01     0.0000000000000000E+00     0.0000000000000000E+00 
    3.2812499999955130E-01     0.0000000000000000E+00     0.0000000000000000E+00 
    3.4374999999959210E-01     0.0000000000000000E+00     0.0000000000000000E+00 
    3.5937499999963290E-01     0.0000000000000000E+00     0.0000000000000000E+00 
    3.7499999999967371E-01     0.0000000000000000E+00     0.0000000000000000E+00 
    3.9062499999971451E-01     0.0000000000000000E+00     0.0000000000000000E+00 
    4.0624999999975520E-01     0.0000000000000000E+00     0.0000000000000000E+00 
    4.2187499999979600E-01     0.0000000000000000E+00     0.0000000000000000E+00 
    4.3749999999983680E-01     0.0000000000000000E+00     0.0000000000000000E+00 
    4.5312499999987760E-01     0.0000000000000000E+00     0.0000000000000000E+00 
    4.6874999999991840E-01     0.0000000000000000E+00     0.0000000000000000E+00 
    4.8437499999995920E-01     0.0000000000000000E+00     0.0000000000000000E+00 
    5.1562499999992384E-01     0.0000000000000000E+00     0.0000000000000000E+00 
    5.3124999999985478E-01     0.0000000000000000E+00     0.0000000000000000E+00 
    5.4687499999994527E-01     0.0000000000000000E+00     0.0000000000000000E+00 
    5.6249999999998668E-01     0.0000000000000000E+00     0.0000000000000000E+00 
    5.7812499999998068E-01     0.0000000000000000E+00     0.0000000000000000E+00 
    5.9374999999994749E-01     0.0000000000000000E+00     0.0000000000000000E+00 
    6.0937499999997913E-01     0.0000000000000000E+00     0.0000000000000000E+00 
    6.2500000000000000E-01     0.0000000000000000E+00     0.0000000000000000E+00 
    6.4062499999998945E-01     0.0000000000000000E+00     0.0000000000000000E+00 
    6.5624999999996603E-01     0.0000000000000000E+00     0.0000000000000000E+00 
    6.7187499999995337E-01     0.0000000000000000E+00     0.0000000000000000E+00 
    6.8749999999998734E-01     0.0000000000000000E+00     0.0000000000000000E+00 
    7.0312499999998124E-01     0.0000000000000000E+00     0.0000000000000000E+00 
    7.1874999999997025E-01     0.0000000000000000E+00     0.0000000000000000E+00 
    7.3437499999999034E-01     0.0000000000000000E+00     0.0000000000000000E+00 
    7.5000000000000000E-01     0.0000000000000000E+00     0.0000000000000000E+00 
    7.6562499999996902E-01     0.0000000000000000E+00     0.0000000000000000E+00 
    7.8124999999993228E-01     0.0000000000000000E+00     0.0000000000000000E+00 
    7.9687499999989997E-01     0.0000000000000000E+00     0.0000000000000000E+00 
    8.1249999999996247E-01     0.0000000000000000E+00     0.0000000000000000E+00 
    8.2812499999999578E-01     0.0000000000000000E+00     0.0000000000000000E+00 
    8.4374999999999556E-01     0.0000000000000000E+00     0.0000000000000000E+00 
    8.5937500000000111E-01     0.0000000000000000E+00     0.0000000000000000E+00 
    8.7499999999997691E-01     0.0000000000000000E+00     0.0000000000000000E+00 
    8.9062500000000921E-01     0.0000000000000000E+00     0.0000000000000000E+00 
    9.0625000000004452E-01     0.0000000000000000E+00     0.0000000000000000E+00 
    9.2187500000005529E-01     0.0000000000000000E+00     0.0000000000000000E+00 
    9.3750000000012723E-01     0.0000000000000000E+00     0.0000000000000000E+00 
    9.5312500000011835E-01     0.0000000000000000E+00     0.0000000000000000E+00 
    9.6875000000005151E-01     0.0000000000000000E+00     0.0000000000000000E+00 
    9.8437500000003086E-01     0.0000000000000000E+00     0.0000000000000000E+00 
    1.0000000000000000E+00     1.5624999999971041E-02     0.0000000000000000E+00 
    1.0000000000000000E+00     3.1249999999936742E-02     0.0000000000000000E+00 
    1.0000000000000000E+00     4.6874999999913257E-02     0.0000000000000000E+00 
    1.0000000000000000E+00     6.2499999999889783E-02     0.0000000000000000E+00 
    1.0000000000000000E+00     7.8124999999844805E-02     0.0000000000000000E+00 
    1.0000000000000000E+00     9.3749999999799827E-02     0.0000000000000000E+00 
    1.0000000000000000E+00     1.0937499999975490E-01     0.0000000000000000E+00 
    1.0000000000000000E+00     1.2499999999970990E-01     0.0000000000000000E+00 
    1.0000000000000000E+00     1.4062499999966460E-01     0.0000000000000000E+00 
    1.0000000000000000E+00     1.5624999999961930E-01     0.0000000000000000E+00 
    1.0000000000000000E+00     1.7187499999957390E-01     0.0000000000000000E+00 
    1.0000000000000000E+00     1.8749999999952860E-01     0.0000000000000000E+00 
    1.0000000000000000E+00     2.0312499999948330E-01     0.0000000000000000E+00 
    1.0000000000000000E+00     2.1874999999943801E-01     0.0000000000000000E+00 
    1.0000000000000000E+00     2.3437499999939271E-01     0.0000000000000000E+00 
    1.0000000000000000E+00     2.4999999999934730E-01     0.0000000000000000E+00 
    1.0000000000000000E+00     2.6562499999938810E-01     0.0000000000000000E+00 
    1.0000000000000000E+00     2.8124999999942890E-01     0.0000000000000000E+00 
    1.0000000000000000E+00     2.9687499999946970E-01     0.0000000000000000E+00 
    1.0000000000000000E+00     3.1249999999951050E-01     0.0000000000000000E+00 
    1.0000000000000000E+00     3.2812499999955130E-01     0.0000000000000000E+00 
    1.0000000000000000E+00     3.4374999999959210E-01     0.0000000000000000E+00 
    1.0000000000000000E+00     3.5937499999963290E-01     0.0000000000000000E+00 
    1.0000000000000000E+00     3.7499999999967371E-01     0.0000000000000000E+00 
    1.0000000000000000E+00     3.9062499999971451E-01     0.0000000000000000E+00 
    1.0000000000000000E+00     4.0624999999975520E-01     0.0000000000000000E+00 
    1.0000000000000000E+00     4.2187499999979600E-01     0.0000000000000000E+00 
    1.0000000000000000E+00     4.3749999999983680E-01     0.0000000000000000E+00 
    1.0000000000000000E+00     4.5312499999987760E-01     0.0000000000000000E+00 
    1.0000000000000000E+00     4.6874999999991840E-01     0.0000000000000000E+00 
    1.0000000000000000E+00     4.8437499999995920E-01     0.0000000000000000E+00 
    1.0000000000000000E+00     5.1562499999992384E-01     0.0000000000000000E+00 
    1.0000000000000000E+00     5.3124999999985478E-01     0.0000000000000000E+00 
    1.0000000000000000E+00     5.4687499999994527E-01     0.0000000000000000E+00 
    1.0000000000000000E+00     5.6249999999998668E-01     0.0000000000000000E+00 
    1.0000000000000000E+00     5.7812499999998068E-01     0.0000000000000000E+00 
    1.0000000000000000E+00     5.9374999999994749E-01     0.0000000000000000E+00 
    1.0000000000000000E+00     6.0937499999997913E-01     0.0000000000000000E+00 
    1.0000000000000000E+00     6.2500000000000000E-01     0.0000000000000000E+00 
    1.0000000000000000E+00     6.4062499999998945E-01     0.0000000000000000E+00 
    1.0000000000000000E+00     6.5624999999996603E-01     0.0000000000000000E+00 
    1.0000000000000000E+00     6.7187499999995337E-01     0.0000000000000000E+00 
    1.0000000000000000E+00     6.8749999999998734E-01     0.0000000000000000E+00 
    1.0000000000000000E+00     7.0312499999998124E-01     0.0000000000000000E+00 
    1.0000000000000000E+00     7.1874999999997025E-01     0.0000000000000000E+00 
    1.0000000000000000E+00     7.3437499999999034E-01     0.0000000000000000E+00 
    1.0000000000000000E+00     7.5000000000000000E-01     0.0000000000000000E+00 
    1.0000000000000000E+00     7.6562499999996902E-01     0.0000000000000000E+00 
    1.0000000000000000E+00     7.8124999999993228E-01     0.0000000000000000E+00 
    1.0000000000000000E+00     7.9687499999989997E-01     0.0000000000000000E+00 
[...]
CELL_DATA 2084 
SCALARS Pressure double 1 
LOOKUP_TABLE default 

    7.1883953082668761E-01 
    7.8738352759752461E-01 
    1.2199486336056431E+00 
    7.9160840187051174E-01 
    1.0685762277812252E+00 
    9.7697446719594039E-01 
    6.9188188988895860E-01 
    9.4204359520701098E-01 
    9.6380493017878577E-01 
    1.0775231099968956E+00 
    1.2111291742932622E+00 
    7.0249004735767073E-01 
    9.0041261423863295E-01 
    8.1269547151830024E-01 
    7.1313203766419631E-01 
    7.8565284656271739E-01 
    1.1441041827997107E+00 
    8.7101400417155239E-01 
    1.2585758345109619E+00 
    7.2714679505832502E-01 
    7.3110671726715437E-01 
    1.0373289909050396E+00 
    7.8007127063434656E-01 
    8.9108106783432273E-01 
    7.2284366866067651E-01 
    9.1221940882234176E-01 
    7.7105541800775923E-01 
    6.7606143770861171E-01 
    9.2365623750303560E-01 
    8.4019903467512902E-01 
    6.7560654519403229E-01 
    9.4601043900933557E-01 
    6.6555759052953778E-01 
    7.3049428915223247E-01 
    7.0370950803238175E-01 
    1.0550190147329781E+00 
    8.5362163467080021E-01 
    8.4247601657518012E-01 
    1.0320165819646108E+00 
    9.4526213226784683E-01 
    6.9209197135688083E-01 
    1.0876895200957177E+00 
    7.5675580548915056E-01 
    9.9405367207417528E-01 
    9.7432254263262930E-01 
    6.8282203573490019E-01 
    1.0837990697553046E+00 
    6.8318340404023459E-01 
    6.8258642514141266E-01 
    9.1682774308579773E-01 
    9.0681893543115899E-01 
    6.8919241718134960E-01 
    7.1495244170059336E-01 
    8.7716419221027753E-01 
    8.8346281575244479E-01 
    7.0433460272779569E-01 
    6.6435245490446049E-01 
    1.0012802139543489E+00 
    1.0259819111536248E+00 
    8.9540585566714315E-01 
    8.9898084946516621E-01 
    7.6466809441973682E-01 
    7.1675513129351220E-01 
    8.0235943193545112E-01 
    1.0812273915385702E+00 
    8.8702261527142878E-01 
    9.6109549911602066E-01 
    6.9799924358216969E-01 
    6.7199401921875157E-01 
    6.7017232639160018E-01 
    7.4936348172030309E-01 
    1.2993332394576627E+00 
    9.1190906510484704E-01 
    1.1843143707499220E+00 
    1.0170545665107196E+00 
    1.1782552855960167E+00 
    8.9936231066159578E-01 
    1.0660796145122258E+00 
    7.1356938881726428E-01 
    1.0989627086722107E+00 
    7.7797771139313066E-01 
    9.4704647973564715E-01 
    9.9590489742675403E-01 
    6.6777208475958361E-01 
    9.7017922024674375E-01 
    7.7212789401964277E-01 
    8.5813494645511135E-01 
    9.7833384686238789E-01 
    1.0238528648724321E+00 
    1.0035427931534653E+00 
    9.6109455554680601E-01 
    9.5648388945321483E-01 
    7.4386277944547596E-01 
    9.9617856595567045E-01 
    8.7226598334677519E-01 
    6.7444417046495708E-01 
    8.2364500427957532E-01 
    9.2585796169384671E-01 
    1.0498098701566581E+00 
    8.3810070105497070E-01 
    1.0752465965061724E+00 
    9.9012310661325764E-01 
    1.0257798589214973E+00 
    1.0349844660768637E+00 
    8.7208612158920773E-01 
    9.9320021197173713E-01 
    9.3226340316474499E-01 
    1.0533097116075372E+00 
    7.4047859971328478E-01 
    1.3392695338704845E+00 
    7.8802390526607724E-01 
    9.2026654417476372E-01 
    9.9424371154216129E-01 
    1.1071983894878328E+00 
    1.2000784751744384E+00 
    8.0741549527080647E-01 
    9.9661554148438480E-01 
    9.9121368221525219E-01 
    8.4207130120505702E-01 
    7.0010128809075800E-01 
    8.8291755664250837E-01 
    1.0228481662969480E+00 
    7.0201239235140434E-01 
    1.1559960708847701E+00 
    9.3583411520880910E-01 
    1.0275750408713875E+00 
    8.9287181259522830E-01 
    7.0060546975332194E-01 
    8.5139963163475874E-01 
    7.7375162017056853E-01 
    1.1933179930729780E+00 
    1.2133818503417668E+00 
    6.7869802227968834E-01 
    1.0795523383659109E+00 
    1.0504009794516804E+00 
    8.9675159323157050E-01 
    1.0134269331637553E+00 
    6.9878736105621964E-01 
    1.0482157830422085E+00 
    1.1664930309838191E+00 
    9.6555598134354148E-01 
    1.2352296767967919E+00 
    1.1827046081864756E+00 
    9.3164024360300424E-01 
    8.0489086303606239E-01 
    9.1235827535960023E-01 
    9.9373808584481305E-01 
    1.0437900496836197E+00 
    8.7318981653646566E-01 
    9.6460439240128892E-01 
    9.8021982013859044E-01 
    1.1676887222679189E+00 
    1.2817327468934152E+00 
    8.6080366696079835E-01 
    8.7508650803406263E-01 
    1.2582115768644451E+00 
    7.7721531559386625E-01 
    9.8980909381382176E-01 
    8.6036142785042524E-01 
    1.1560470099177629E+00 
    1.4288012137236263E+00 
    1.3619049485272527E+00 
    1.2871239978500866E+00 
    1.3133303371525320E+00 
    1.2476339589729977E+00 
    1.2700760688824848E+00 
    9.9071390064121956E-01 
    1.3314805719097191E+00 
    9.6652963869296360E-01 
    1.2604080049232502E+00 
    9.6558540398768300E-01 
    1.1434658353643299E+00 
    1.1772819058532626E+00 
    1.0558342236462426E+00 
    1.1302153670862718E+00 
    8.2808233899304262E-01 
    1.1359203746527604E+00 
    9.4543866144319721E-01 
    9.6043943191599379E-01 
    9.5930799227857100E-01 
    1.0188970747845152E+00 
    8.0403164013262063E-01 
    1.1457615073886009E+00 
    1.0236788396271472E+00 
    1.0183772822581427E+00 
    6.6107906548289108E-01 
    1.0682669954653656E+00 
    1.1868348161741231E+00 
    8.2613334592806253E-01 
    1.1110649062300830E+00 
    1.2105389190287004E+00 
    1.2450820316391784E+00 
    1.0207595396173232E+00 
    8.8606096388523325E-01 
    8.0482437116275873E-01 
    8.3476315927289713E-01 
    1.0857870329698827E+00 
    1.0060819316571186E+00 
    8.7960144817710040E-01 
    1.0914187063122331E+00 
    9.5027804234208013E-01 
    8.4240456721344570E-01 
    1.0222914644013792E+00 
    7.2279563388455803E-01 
    8.4228113350016220E-01 
    1.2160183567978340E+00 
    1.0817359335691312E+00 
    8.2955291321558511E-01 
    1.1267234389576644E+00 
    1.1123858776927378E+00 
    8.7769090590154708E-01 
    9.3003887219933623E-01 
    9.3536188611115645E-01 
    1.0639521230269897E+00 
    1.0570370771450999E+00 
    1.1753588603316203E+00 
    9.2082462358978612E-01 
    1.0537948482440194E+00 
    1.0836520167564629E+00 
    8.7620435232330451E-01 
    9.0154188127220081E-01 
    6.5822810402244891E-01 
    8.7981004651307515E-01 
    1.2308277473896208E+00 
    1.0046506718429284E+00 
    1.0531938821554387E+00 
    9.4882602064797616E-01 
    1.0504029349309569E+00 
    8.4249515027145816E-01 
    8.1317434671940381E-01 
    7.4956547479734681E-01 
    8.3956783473680408E-01 
    7.5699335647445520E-01 
    9.0518834517728608E-01 
    1.0277816225544329E+00 
    7.8894324788888204E-01 
    1.1159800517982470E+00 
    1.1226895256798739E+00 
    8.9450558344495890E-01 
    7.9498202145645169E-01 
    1.0255541285843777E+00 
    8.6856539301398539E-01 
    7.0751848225933189E-01 
    8.4133609407638588E-01 
    6.9491674625502686E-01 
    7.4482703695667518E-01 
    8.6870275236298888E-01 
    9.9844299381619117E-01 
    1.1510464562299116E+00 
    7.2276279833874912E-01 
    8.3953476180927711E-01 
    7.7953501471620912E-01 
    8.3648406925668484E-01 
    1.2980739155520804E+00 
    7.2806760945510562E-01 
    9.4327638630554433E-01 
    7.6529843258145314E-01 
    8.9612444043126327E-01 
    7.9801825229325674E-01 
    9.0558961976397279E-01 
    7.4386215868411121E-01 
    9.0576716252166634E-01 
    7.9758895482733427E-01 
    9.1617272205537881E-01 
    8.0652656794022348E-01 
    7.9086707025287806E-01 
    7.1883047149193435E-01 
    7.5202269369812746E-01 
    1.1161033567750034E+00 
    6.7835695529260021E-01 
    7.0526809293247783E-01 
    8.4303746534679047E-01 
    7.6675953912292338E-01 
    1.3804926352354281E+00 
    8.2725538158878342E-01 
    1.0572495909250761E+00 
    8.0386339981056909E-01 
    6.9696027075353628E-01 
    8.7387454045521740E-01 
    7.5409789080495626E-01 
    9.2318964874403442E-01 
    8.1006791463906636E-01 
    8.1134485350511831E-01 
    8.2922130460955734E-01 
    6.9689562777991920E-01 
    8.2588350793710652E-01 
    7.9051774730634816E-01 
    6.9607534498551149E-01 
    7.8409083390387468E-01 
    7.8518770985583086E-01 
    8.2141823605453546E-01 
    6.9103494347580607E-01 
    7.4598511630493292E-01 
    8.1014817857802657E-01 
    9.0723577397214494E-01 
    7.5976872610347923E-01 
    7.2164058394960662E-01 
    1.0818918234115400E+00 
    7.6317977056268016E-01 
    9.7154659176847979E-01 
    1.3807585283777593E+00 
    1.1035756009002493E+00 
    9.7127385183844084E-01 
    1.1441608059168147E+00 
    7.8506050945650152E-01 
    7.8361260784023634E-01 
    7.2191224586013336E-01 
    7.3884342568360306E-01 
    7.4304326877852822E-01 
    6.8607707888904879E-01 
    1.1522031755867501E+00 
    6.8994867432533746E-01 
    8.8973764051208926E-01 
    1.1151246955839040E+00 
    9.0646816590934798E-01 
    7.6000390383983385E-01 
    1.0423774784096873E+00 
    7.2150146326384823E-01 
    7.2409265937394518E-01 
    7.2905318614587655E-01 
    1.3434830652006819E+00 
    9.9852108013105145E-01 
    1.1323306795004024E+00 
    1.1412044529829872E+00 
    9.2659456384108929E-01 
    1.0856869361389547E+00 
    7.2973217545405034E-01 
    6.5206077078661173E-01 
    1.5316750565748223E+00 
    6.7887396354561980E-01 
    7.0591005975756349E-01 
    7.0652178625761730E-01 
    9.7497002951838796E-01 
    1.1103908911042866E+00 
    6.5303975794219782E-01 
    1.2033373708921118E+00 
    1.2369503798975325E+00 
    9.2977108955684229E-01 
    8.1162458716146368E-01 
    1.1830276767063552E+00 
    9.3683283521290495E-01 
    7.2892535932490210E-01 
    1.1298820752483263E+00 
    6.9140534304107670E-01 
    6.9145687571455550E-01 
    9.6807909007243242E-01 
    8.3966087774256259E-01 
    6.5691178119667815E-01 
    7.9162322804330365E-01 
    6.6823375062748291E-01 
    1.1662004020802930E+00 
    6.7957110190953995E-01 
    7.5744671390457852E-01 
    1.1065014806155284E+00 
    8.0808383640692605E-01 
    9.3513159414722946E-01 
    6.7862790720455257E-01 
    8.7928325784108419E-01 
    9.1266925805715371E-01 
    7.2932323937439625E-01 
    8.3756808653923187E-01 
    1.1191924062641236E+00 
    6.7051758989856469E-01 
    8.2972816082396228E-01 
    7.0012868110975446E-01 
    7.4055165402396406E-01 
    8.6014861243026908E-01 
    6.9213805837661835E-01 
    8.5533548012465632E-01 
    1.1454644772485649E+00 
    1.1695545769486795E+00 
    6.6840345012832481E-01 
    1.3931124273838189E+00 
    8.8170903660312860E-01 
    7.6228512302461782E-01 
    1.2175057346195923E+00 
    9.4478949509146348E-01 
    9.9165907870135916E-01 
    7.3677488982661998E-01 
    7.3886278847254871E-01 
    1.0327053177190890E+00 
    9.4412407078935723E-01 
    6.6133631770610635E-01 
    7.4689572717998287E-01 
    1.2587287676916834E+00 
    9.2019970780265503E-01 
    1.0938773186033233E+00 
    9.7095161106250483E-01 
    1.1226344166838913E+00 
    1.0322010102197929E+00 
    6.6089949741295684E-01 
    7.0848449763431331E-01 
    7.8759666276725460E-01 
    1.1722482113406294E+00 
    1.0926974979833817E+00 
    7.6734706260757590E-01 
    7.4316296762002121E-01 
    7.6795915385990976E-01 
    7.5579906730351909E-01 
    1.0594420712645780E+00 
    6.9475311354114444E-01 
    9.8769409488873927E-01 
    1.3140575930786378E+00 
    7.3466808257993355E-01 
    1.2659216384064846E+00 
    8.6940219311881117E-01 
    1.2871160284232832E+00 
    1.1105456054058487E+00 
    1.4416994463113875E+00 
    7.4026833637847633E-01 
    1.0862250390265633E+00 
    9.1483806071342266E-01 
    6.8598275262625519E-01 
    1.1394308560763082E+00 
    8.9556858510755422E-01 
    1.1565432427312299E+00 
    6.8898290695955144E-01 
    1.0941639733542226E+00 
    8.4668990389840371E-01 
    9.5180221837112078E-01 
    6.6519914059928387E-01 
    6.9242762977832584E-01 
    6.8115068084603292E-01 
    1.2084534218973224E+00 
    7.4397253442283828E-01 
    1.3022214486914689E+00 
    1.2340146034885970E+00 
    7.5145472379315514E-01 
    8.6247730138752865E-01 
    7.8518242974745334E-01 
    6.7564809942723236E-01 
    8.6123213905209228E-01 
    1.1204537439738766E+00 
    7.6360532057114017E-01 
    6.8920167577108860E-01 
    1.3376178612152803E+00 
    1.0597996396739013E+00 
    6.5356575109769732E-01 
    6.5422887476598579E-01 
    7.0692116630946555E-01 
    7.1983019087780420E-01 
    6.8382451239009534E-01 
    6.6852530112067554E-01 
    7.7391066843546830E-01 
    7.3443501528350508E-01 
    6.4893539905347419E-01 
    6.4960126539015695E-01 
    6.4273692662905646E-01 
    6.2997801394874331E-01 
    6.3004443022520484E-01 
    6.3571391303945735E-01 
    6.3422886427580849E-01 
    6.3609968370299164E-01 
    6.4543843926053368E-01 
    6.2615222316851471E-01 
    6.4433459588400754E-01 
    6.2848018890570023E-01 
    6.3913800292607370E-01 
    6.3304718249005110E-01 
    6.3431607436216664E-01 
    6.3378859386414299E-01 
    6.2794694563949649E-01 
    6.5837777237644024E-01 
    6.4755882940029696E-01 
    6.5787607510321533E-01 
    6.4365404290078809E-01 
    6.3916380784497084E-01 
    6.3092761982768464E-01 
    6.2644338940114996E-01 
    6.6209616937581661E-01 
    6.4239343691299600E-01 
    6.2589779766950726E-01 
    6.3396514171132967E-01 
    6.4774656655354501E-01 
    6.4716292836283984E-01 
    6.2330402765049198E-01 
    6.2603557266710241E-01 
    6.4230529363554323E-01 
    6.5140166117106624E-01 
    6.4761651210298676E-01 
    6.3623153115463715E-01 
    6.3075947998511439E-01 
    6.6261065202993719E-01 
    6.5915279330233467E-01 
    6.4852401086852918E-01 
    6.7137877336364249E-01 
    6.3068740886351238E-01 
    6.3339473664920631E-01 
    6.3231222155000755E-01 
    6.5599090345747280E-01 
    6.3345052826889714E-01 
    6.5126832449151417E-01 
    6.4122367573077865E-01 
    6.4110447921131819E-01 
    6.4250543699502582E-01 
    6.3822114650921269E-01 
    6.5629527416055777E-01 
    6.5764619164450233E-01 
    6.3970401334318661E-01 
    6.2940167263926294E-01 
    6.3781640871492529E-01 
    6.3734353080714612E-01 
    6.2575177191554843E-01 
    6.4625795957614551E-01 
    6.2635561161686304E-01 
    6.5700706821828159E-01 
    6.2791663825433053E-01 
    6.4269493340517236E-01 
    6.3195640610414083E-01 
    6.2302434894700365E-01 
    6.2271205600301405E-01 
    6.2376862209757977E-01 
    6.2708778266951437E-01 
    6.3751050072944504E-01 
    6.2654572497670014E-01 
    6.3036453722149521E-01 
    6.3277140874869275E-01 
    6.6791637683092686E-01 
    6.3952139978439959E-01 
    6.2735599340554271E-01 
    6.5756749741352061E-01 
    6.3463682369325325E-01 
    6.3380136416597532E-01 
    6.4664757106467818E-01 
    6.6630390584541965E-01 
    6.4432546833292004E-01 
    6.4426369987390919E-01 
    6.3958750336500114E-01 
    6.4225111054890349E-01 
    6.5321879817729445E-01 
    6.5380333577721450E-01 
    6.5187009279653929E-01 
    6.5475507459966709E-01 
    6.4212181950536917E-01 
    6.4953430515960187E-01 
    6.4883679696369656E-01 
    6.4338504580681177E-01 
    6.4513999382228893E-01 
    6.6376296513919197E-01 
    6.5361419603442961E-01 
    6.5727306424550036E-01 
    6.6499076868056539E-01 
    6.3472690271469812E-01 
    6.3235576722422537E-01 
    6.4543318859432042E-01 
    6.5804959108916494E-01 
    6.6693289314954274E-01 
    6.5788287357155106E-01 
    6.2327365524186329E-01 
    6.3115075632411055E-01 
    6.4277101094080535E-01 
    6.3665896312275316E-01 
    6.3093880105727107E-01 
    6.5389016535314226E-01 
    6.4512945872551031E-01 
    6.2716890421539395E-01 
    6.5019978471997808E-01 
    6.3008206135033118E-01 
    6.3221293716517879E-01 
    6.3120685123316134E-01 
    6.4365352807484599E-01 
    6.5564666687092055E-01 
    6.6153175644567952E-01 
    6.4769752771575251E-01 
    6.6138172028254860E-01 
    6.2893352149790416E-01 
    6.2894994498754053E-01 
    6.6086558177751076E-01 
    6.5321971433619141E-01 
    6.2293370566124018E-01 
    6.2327448726074364E-01 
    6.6249250847532404E-01 
    6.4073396325608001E-01 
    6.5277182725396277E-01 
    6.4546791205758880E-01 
    6.3478076761466107E-01 
    6.4497438363803006E-01 
    6.4625204842737149E-01 
    6.4179096473795361E-01 
    6.3924717627877792E-01 
    6.3911590488876058E-01 
    6.2793010149057316E-01 
    6.6034349796131708E-01 
    6.7153057617502909E-01 
    6.2811763406987675E-01 
    6.2826029144405948E-01 
    6.2713331340211620E-01 
    6.2758483220560901E-01 
    6.2422480842850525E-01 
    6.5222194684014811E-01 
    6.3614995393142937E-01 
    6.2525007742767647E-01 
    6.4490681461480304E-01 
    6.4920013917248720E-01 
    6.3822430338731850E-01 
    6.3719694724955278E-01 
    6.3525411040140534E-01 
    6.4018558669543402E-01 
    6.5720448617506344E-01 
    6.2821753890955490E-01 
    6.2774832872986364E-01 
    6.3065615938103514E-01 
    6.3933683650637108E-01 
    6.5587740415446083E-01 
    6.3143935866612788E-01 
    6.5893347691017157E-01 
    6.2479694249903439E-01 
    6.3881540957102900E-01 
    6.2245211566395331E-01 
    6.2271291396095574E-01 
    6.2564024610115931E-01 
    6.6014733882695997E-01 
    6.4577470891345790E-01 
    6.3721842826113073E-01 
    6.4165282515705746E-01 
    6.4946889763042759E-01 
    6.2396937981465717E-01 
    6.3600525093441607E-01 
    6.4321708902884756E-01 
    6.6239138491411542E-01 
    6.5202886817914729E-01 
    6.5438296155343323E-01 
    6.6159735611760895E-01 
    6.6387098047914095E-01 
    6.4151657735158463E-01 
    6.3261249367362127E-01 
    6.4976202412549200E-01 
    6.4991525858276200E-01 
    6.3883551752048906E-01 
    6.2445442048602917E-01 
    6.4969014492970245E-01 
    6.5362946244870435E-01 
    6.5605921740635353E-01 
    6.5283172451341798E-01 
    6.2356834949760065E-01 
    6.5158477862400954E-01 
    6.5029818080745516E-01 
    6.2478536375110205E-01 
    6.3178580323149347E-01 
    6.4463722304937554E-01 
    6.5151042670471171E-01 
    6.4969467414584792E-01 
    6.4618885682197302E-01 
    6.4755599448806234E-01 
    6.5482980149422809E-01 
    6.4793792824158314E-01 
    6.4939612907457733E-01 
    6.4159897712006053E-01 
    6.4542269525524953E-01 
    6.2601990543859709E-01 
    6.6397342655864555E-01 
    6.6034491488087710E-01 
    6.6447227909090500E-01 
    6.3500776355218025E-01 
    6.3309017066182682E-01 
    6.3284279012599576E-01 
    6.5028564988281801E-01 
    6.4658594808577285E-01 
    6.4952180284311312E-01 
    6.3625083984606434E-01 
    6.2493946933957700E-01 
    6.2789242945424095E-01 
    6.5652099779472783E-01 
    6.2768089173722452E-01 
    6.3982850980471517E-01 
    6.3581212187094938E-01 
    6.5424016995808887E-01 
    6.4557170438038636E-01 
    6.4165310150565058E-01 
    6.6036751329528676E-01 
    6.5593218387986352E-01 
    6.3680130613351082E-01 
    6.3512930943637358E-01 
    6.3089940827290825E-01 
    6.3814540275230758E-01 
    6.5047458153477344E-01 
    6.2565793733181596E-01 
    6.5346114021354862E-01 
    6.5849265188106942E-01 
    6.3658646304042066E-01 
    6.3546846562356007E-01 
    6.2776512174462273E-01 
    6.2468206442576635E-01 
    6.5756740742496200E-01 
    6.3570520105860728E-01 
    6.4885128520076707E-01 
    6.3781181143038723E-01 
    6.4512674050650221E-01 
    6.2822543030437983E-01 
    6.4215522637374778E-01 
    6.6152525745442936E-01 
    6.3490986011231199E-01 
    6.4218182393056078E-01 
    6.2959520671678670E-01 
    6.3936986285701514E-01 
    6.6023606299968052E-01 
    6.3515060937307521E-01 
    6.4880745080665658E-01 
    6.3367458586755354E-01 
    6.2538282376001098E-01 
    6.4634461102972984E-01 
    6.4582229963674698E-01 
    6.4440240658307091E-01 
    6.3331707910449331E-01 
    6.3325023530932900E-01 
    6.2650069218775872E-01 
    6.4409738250031279E-01 
    6.4777332955445854E-01 
    6.4202173863783984E-01 
    6.2976080958639991E-01 
    6.3202377647971841E-01 