# vtk DataFile Version 2.0
Pressure Field Data 
ASCII 
DATASET UNSTRUCTURED_GRID 

POINTS 2213 double 

    0.0000000000000000E+00     0.0000000000000000E+00     0.0000000000000000E+00 
    5.0000000000000000E-01     0.0000000000000000E+00     0.0000000000000000E+00 
    1.0000000000000000E+00     0.0000000000000000E+00     0.0000000000000000E+00 
    1.0000000000000000E+00     5.0000000000000000E-01     0.0000000000000000E+00 
    1.0000000000000000E+00     1.0000000000000000E+00     0.0000000000000000E+00 
    5.0000000000000000E-01     1.0000000000000000E+00     0.0000000000000000E+00 
    0.0000000000000000E+00     1.0000000000000000E+00     0.0000000000000000E+00 
    0.0000000000000000E+00     5.0000000000000000E-01     0.0000000000000000E+00 
    1.5624999999971041E-02     0.0000000000000000E+00     0.0000000000000000E+00 
    3.1249999999936742E-02     0.0000000000000000E+00     0.0000000000000000E+00 
    4.6874999999913257E-02     0.0000000000000000E+00     0.0000000000000000E+00 
    6.2499999999889783E-02     0.0000000000000000E+00     0.0000000000000000E+00 
    7.8124999999844805E-02     0.0000000000000000E+00     0.0000000000000000E+00 
    9.3749999999799827E-02     0.0000000000000000E+00     0.0000000000000000E+00 
    1.0937499999975490E-01     0.0000000000000000E+00     0.0000000000000000E+00 
    1.2499999999970990E-01     0.0000000000000000E+00     0.0000000000000000E+00 
    1.4062499999966460E-01     0.0000000000000000E+00     0.0000000000000000E+00 
    1.5624999999961930E-01     0.0000000000000000E+00     0.0000000000000000E+00 
    1.7187499999957390E-01     0.0000000000000000E+00     0.0000000000000000E+00 
    1.8749999999952860E-01     0.0000000000000000E+00     0.0000000000000000E+00 
    2.0312499999948330E-01     0.0000000000000000E+00     0.0000000000000000E+00 
    2.1874999999943801E-01     0.0000000000000000E+00     0.0000000000000000E+00 
    2.3437499999939271E-01     0.0000000000000000E+00     0.0000000000000000E+00 
    2.4999999999934730E-01     0.0000000000000000E+00     0.0000000000000000E+00 
    2.6562499999938810E-01     0.0000000000000000E+00     0.0000000000000000E+00 
    2.8124999999942890E-01     0.0000000000000000E+00     0.0000000000000000E+00 
    2.9687499999946970E-01     0.0000000000000000E+00     0.0000000000000000E+00 
    3.1249999999951050E-01     0.0000000000000000E+00     0.0000000000000000E+00 
    3.2812499999955130E-01     0.0000000000000000E+00     0.0000000000000000E+00 
    3.4374999999959210E-01     0.0000000000000000E+00     0.0000000000000000E+00 
    3.5937499999963290E-01     0.0000000000000000E+00     0.0000000000000000E+00 
    3.7499999999967371E-01     0.0000000000000000E+00     0.0000000000000000E+00 
    3.9062499999971451E-01     0.0000000000000000E+00     0.0000000000000000E+00 
    4.0624999999975520E-01     0.0000000000000000E+00     0.0000000000000000E+00 
    4.2187499999979600E-01     0.0000000000000000E+00     0.0000000000000000E+00 
    4.3749999999983680E-01     0.0000000000000000E+00     0.0000000000000000E+00 
    4.5312499999987760E-01     0.0000000000000000E+00     0.0000000000000000E+00 
    4.6874999999991840E-01     0.0000000000000000E+00     0.0000000000000000E+00 
    4.8437499999995920E-01     0.0000000000000000E+00     0.0000000000000000E+00 
    5.1562499999992384E-01     0.0000000000000000E+00     0.0000000000000000E+00 
    5.3124999999985478E-01     0.0000000000000000E+00     0.0000000000000000E+00 
    5.4687499999994527E-01     0.0000000000000000E+00     0.0000000000000000E+00 
    5.6249999999998668E-01     0.0000000000000000E+00     0.0000000000000000E+00 
    5.7812499999998068E-01     0.0000000000000000E+00     0.0000000000000000E+00 
    5.9374999999994749E-01     0.0000000000000000E+00     0.0000000000000000E+00 
    6.0937499999997913E-01     0.0000000000000000E+00     0.0000000000000000E+00 
    6.2500000000000000E-01     0.0000000000000000E+00     0.0000000000000000E+00 
    6.4062499999998945E-01     0.0000000000000000E+00     0.0000000000000000E+00 
    6.5624999999996603E-01     0.0000000000000000E+00     0.0000000000000000E+00 
    6.7187499999995337E-01     0.0000000000000000E+00     0.0000000000000000E+00 
    6.8749999999998734E-01     0.0000000000000000E+00     0.0000000000000000E+00 
    7.0312499999998124E-01     0.0000000000000000E+00     0.0000000000000000E+00 
    7.1874999999997025E-01     0.0000000000000000E+00     0.0000000000000000E+00 
    7.3437499999999034E-01     0.0000000000000000E+00     0.0000000000000000E+00 
    7.5000000000000000E-01     0.0000000000000000E+00     0.0000000000000000E+00 
    7.6562499999996902E-01     0.0000000000000000E+00     0.0000000000000000E+00 
    7.8124999999993228E-01     0.0000000000000000E+00     0.0000000000000000E+00 
    7.9687499999989997E-01     0.0000000000000000E+00     0.0000000000000000E+00 
    8.1249999999996247E-01     0.0000000000000000E+00     0.0000000000000000E+00 
    8.2812499999999578E-01     0.0000000000000000E+00     0.0000000000000000E+00 
    8.4374999999999556E-01     0.0000000000000000E+00     0.0000000000000000E+00 
    8.5937500000000111E-01     0.0000000000000000E+00     0.0000000000000000E+00 
    8.7499999999997691E-01     0.0000000000000000E+00     0.0000000000000000E+00 
    8.9062500000000921E-01     0.0000000000000000E+00     0.0000000000000000E+00 
    9.0625000000004452E-01     0.0000000000000000E+00     0.0000000000000000E+00 
    9.2187500000005529E-01     0.0000000000000000E+00     0.0000000000000000E+00 
    9.3750000000012723E-01     0.0000000000000000E+00     0.0000000000000000E+00 
    9.5312500000011835E-01     0.0000000000000000E+00     0.0000000000000000E+00 
    9.6875000000005151E-01     0.0000000000000000E+00     0.0000000000000000E+00 
    9.8437500000003086E-01     0.0000000000000000E+00     0.0000000000000000E+00 
    1.0000000000000000E+00     1.5624999999971041E-02     0.0000000000000000E+00 
    1.0000000000000000E+00     3.1249999999936742E-02     0.0000000000000000E+00 
    1.0000000000000000E+00     4.6874999999913257E-02     0.0000000000000000E+00 
    1.0000000000000000E+00     6.2499999999889783E-02     0.0000000000000000E+00 
    1.0000000000000000E+00     7.8124999999844805E-02     0.0000000000000000E+00 
    1.0000000000000000E+00     9.3749999999799827E-02     0.0000000000000000E+00 
    1.0000000000000000E+00     1.0937499999975490E-01     0.0000000000000000E+00 
    1.0000000000000000E+00     1.2499999999970990E-01     0.0000000000000000E+00 
    1.0000000000000000E+00     1.4062499999966460E-01     0.0000000000000000E+00 
    1.0000000000000000E+00     1.5624999999961930E-01     0.0000000000000000E+00 
    1.0000000000000000E+00     1.7187499999957390E-01     0.0000000000000000E+00 
    1.0000000000000000E+00     1.8749999999952860E-01     0.0000000000000000E+00 
    1.0000000000000000E+00     2.0312499999948330E-01     0.0000000000000000E+00 
    1.0000000000000000E+00     2.1874999999943801E-01     0.0000000000000000E+00 
    1.0000000000000000E+00     2.3437499999939271E-01     0.0000000000000000E+00 
    1.0000000000000000E+00     2.4999999999934730E-01     0.0000000000000000E+00 
    1.0000000000000000E+00     2.6562499999938810E-01     0.0000000000000000E+00 
    1.0000000000000000E+00     2.8124999999942890E-01     0.0000000000000000E+00 
    1.0000000000000000E+00     2.9687499999946970E-01     0.0000000000000000E+00 
    1.0000000000000000E+00     3.1249999999951050E-01     0.0000000000000000E+00 
    1.0000000000000000E+00     3.2812499999955130E-01     0.0000000000000000E+00 
    1.0000000000000000E+00     3.4374999999959210E-01     0.0000000000000000E+00 
    1.0000000000000000E+00     3.5937499999963290E-01     0.0000000000000000E+00 
    1.0000000000000000E+00     3.7499999999967371E-01     0.0000000000000000E+00 
    1.0000000000000000E+00     3.9062499999971451E-01     0.0000000000000000E+00 
    1.0000000000000000E+00     4.0624999999975520E-01     0.0000000000000000E+00 
    1.0000000000000000E+00     4.2187499999979600E-01     0.0000000000000000E+00 
    1.0000000000000000E+00     4.3749999999983680E-01     0.0000000000000000E+00 
    1.0000000000000000E+00     4.5312499999987760E-01     0.0000000000000000E+00 
    1.0000000000000000E+00     4.6874999999991840E-01     0.0000000000000000E+00 
    1.0000000000000000E+00     4.8437499999995920E-01     0.0000000000000000E+00 
    1.0000000000000000E+00     5.1562499999992384E-01     0.0000000000000000E+00 
    1.0000000000000000E+00     5.3124999999985478E-01     0.0000000000000000E+00 
    1.0000000000000000E+00     5.4687499999994527E-01     0.0000000000000000E+00 
    1.0000000000000000E+00     5.6249999999998668E-01     0.0000000000000000E+00 
    1.0000000000000000E+00     5.7812499999998068E-01     0.0000000000000000E+00 
    1.0000000000000000E+00     5.9374999999994749E-01     0.0000000000000000E+00 
    1.0000000000000000E+00     6.0937499999997913E-01     0.0000000000000000E+00 
    1.0000000000000000E+00     6.2500000000000000E-01     0.0000000000000000E+00 
    1.0000000000000000E+00     6.4062499999998945E-01     0.0000000000000000E+00 
    1.0000000000000000E+00     6.5624999999996603E-01     0.0000000000000000E+00 
    1.0000000000000000E+00     6.7187499999995337E-01     0.0000000000000000E+00 
    1.0000000000000000E+00     6.8749999999998734E-01     0.0000000000000000E+00 
    1.0000000000000000E+00     7.0312499999998124E-01     0.0000000000000000E+00 
    1.0000000000000000E+00     7.1874999999997025E-01     0.0000000000000000E+00 
    1.0000000000000000E+00     7.3437499999999034E-01     0.0000000000000000E+00 
    1.0000000000000000E+00     7.5000000000000000E-01     0.0000000000000000E+00 
    1.0000000000000000E+00     7.6562499999996902E-01     0.0000000000000000E+00 
    1.0000000000000000E+00     7.8124999999993228E-01     0.0000000000000000E+00 
    1.0000000000000000E+00     7.9687499999989997E-01     0.0000000000000000E+00 
[...]
CELL_DATA 2084 
SCALARS Pressure double 1 
LOOKUP_TABLE default 

    7.1865979726596751E-01 
    7.6402209191078074E-01 
    1.1274147989817371E+00 
    7.6557187060295673E-01 
    9.9630441924783264E-01 
    9.2013209179623801E-01 
    6.8986970177843709E-01 
    8.9076776722824724E-01 
    9.0877093596246217E-01 
    1.0038752510972608E+00 
    1.1196432293896221E+00 
    6.9963496120271729E-01 
    8.5311413530768143E-01 
    7.9838680524023786E-01 
    7.1059804574034102E-01 
    7.7724638408964963E-01 
    1.0612556838505542E+00 
    8.3554659617367966E-01 
    1.1617438524519541E+00 
    7.2547417885704057E-01 
    7.2738341356765257E-01 
    9.7039984281269986E-01 
    7.7255176285186089E-01 
    8.4527743842433078E-01 
    7.2106819285978818E-01 
    8.6620788162172169E-01 
    7.6036471577806575E-01 
    6.7465855807268982E-01 
    8.7493900000908054E-01 
    8.1377607527340179E-01 
    6.7434120228279182E-01 
    8.9386992731073323E-01 
    6.6417417022893577E-01 
    7.2670631698225130E-01 
    7.0142936421305779E-01 
    9.8467273502332753E-01 
    8.2359962373512796E-01 
    8.1813243569259864E-01 
    9.6520122248847773E-01 
    8.9235518679586001E-01 
    6.9016144761349862E-01 
    1.0130697283513044E+00 
    7.5313013178925658E-01 
    9.3406294080663466E-01 
    9.1777965083528235E-01 
    6.8174200755283465E-01 
    1.0091879714172256E+00 
    6.8083974558556604E-01 
    6.8104924228096264E-01 
    8.6827872758432523E-01 
    8.6045292278224716E-01 
    6.8659579559639106E-01 
    7.1060156905606875E-01 
    8.3838392015238694E-01 
    8.4457060637623349E-01 
    7.0053893086225882E-01 
    6.6318508177177771E-01 
    9.3895096927895083E-01 
    9.6007613962873739E-01 
    8.5000492538830597E-01 
    8.5476028547232596E-01 
    7.5865502029782916E-01 
    7.1377067001717365E-01 
    7.8951216741921659E-01 
    1.0073795660677574E+00 
    8.4410662878212050E-01 
    9.0507169636479412E-01 
    6.9589922177671482E-01 
    6.7062226818341086E-01 
    6.6929645110515434E-01 
    7.4621746026131464E-01 
    1.1985565535475857E+00 
    8.6559984372107712E-01 
    1.0961507191876865E+00 
    9.5221211259446614E-01 
    1.0907509971334848E+00 
    8.5504666349334368E-01 
    9.9466859669427043E-01 
    7.0945992602016283E-01 
    1.0224675645476204E+00 
    7.7116672631778171E-01 
    8.9460186949089948E-01 
    9.3462286699567809E-01 
    6.6650711470451240E-01 
    9.1254198454776758E-01 
    7.6706947144599802E-01 
    8.2373862884615690E-01 
    9.2023410285646778E-01 
    9.5904738006021450E-01 
    9.4161954459176400E-01 
    9.0518597815957991E-01 
    9.0145408532986793E-01 
    7.3547156121458190E-01 
    9.3493002752871690E-01 
    8.3420205343707798E-01 
    6.7348273162950401E-01 
    8.0385492891817600E-01 
    8.7532443505591107E-01 
    9.8082212934302171E-01 
    8.1222905720488603E-01 
    1.0022056928345000E+00 
    9.2933670302569205E-01 
    9.5986347244167980E-01 
    9.6833262111976393E-01 
    8.3387165594701518E-01 
    9.3212437309618679E-01 
    8.8062813660796713E-01 
    9.8368823763559332E-01 
    7.3496713957900073E-01 
    1.2352509773527278E+00 
    7.7881071527793577E-01 
    8.7107232626659392E-01 
    9.3423100846682472E-01 
    1.0294308541793040E+00 
    1.1098429746791738E+00 
    7.9381094657877449E-01 
    9.3482353576680355E-01 
    9.3070625495531822E-01 
    8.1450110116116980E-01 
    6.9794512465487890E-01 
    8.4111617189106691E-01 
    9.5726479375804840E-01 
    7.0014670118124311E-01 
    1.0714211907824165E+00 
    8.8540753657263649E-01 
    9.6196871951952001E-01 
    8.5062369355524314E-01 
    6.9841470927628846E-01 
    8.2006792389179783E-01 
    7.6831969158278191E-01 
    1.1039957092726351E+00 
    1.1215914299368228E+00 
    6.7766545890624574E-01 
    1.0057735459291381E+00 
    9.8095614391685171E-01 
    8.5274993011686817E-01 
    9.5024573453361472E-01 
    6.9702351992764144E-01 
    9.7923870862129381E-01 
    1.0804926566212816E+00 
    9.0843791984450772E-01 
    1.1408685025743011E+00 
    1.0946711235581816E+00 
    8.7982341920020857E-01 
    7.9112001044689972E-01 
    8.6324034471055877E-01 
    9.3282790618108868E-01 
    9.7546228404428481E-01 
    8.3498205625688970E-01 
    9.0797370651092146E-01 
    9.2219326626475706E-01 
    1.0816228563752621E+00 
    1.1824836488942223E+00 
    8.2525731362161991E-01 
    8.3202641819777490E-01 
    1.1613928501058048E+00 
    7.7127536340282898E-01 
    9.3024315381950595E-01 
    8.1921032049814202E-01 
    1.0714266643457664E+00 
    1.3208094498652296E+00 
    1.2565686353144703E+00 
    1.1874643442180697E+00 
    1.2113546085117217E+00 
    1.1519676542663093E+00 
    1.1720659129463635E+00 
    9.3031974793610162E-01 
    1.2281290642387672E+00 
    9.0971803678412355E-01 
    1.1632990397589063E+00 
    9.0888518419051600E-01 
    1.0606125617279951E+00 
    1.0900338795341609E+00 
    9.8538531889517134E-01 
    1.0490721727177399E+00 
    8.0518474038541277E-01 
    1.0539783809211640E+00 
    8.9145437772231517E-01 
    9.0431300234518119E-01 
    9.0309250285573084E-01 
    9.5426224357004985E-01 
    7.8251026248335465E-01 
    1.0625425028610584E+00 
    9.5815616303057061E-01 
    9.5396719069328240E-01 
    6.6045523897433334E-01 
    9.9630803109518751E-01 
    1.0982396383857498E+00 
    7.9229540009935850E-01 
    1.0329977006181990E+00 
    1.1190367058526625E+00 
    1.1496329108049652E+00 
    9.5579926408895877E-01 
    8.4215407179376767E-01 
    7.9234464674153127E-01 
    7.9759461081040939E-01 
    1.0114022320892813E+00 
    9.4444262272702817E-01 
    8.3770257784689972E-01 
    1.0160540820277453E+00 
    8.9709289636821932E-01 
    8.0373368977481707E-01 
    9.5746773724933465E-01 
    7.1783160685312641E-01 
    8.0689560219776824E-01 
    1.1239214733580707E+00 
    1.0080588087779663E+00 
    8.0449828044759941E-01 
    1.0460510823028026E+00 
    1.0338044255509844E+00 
    8.3762782194567997E-01 
    8.8000308153705209E-01 
    8.8283355505411198E-01 
    9.9280253383403871E-01 
    9.8705267715701772E-01 
    1.0882566828958549E+00 
    8.7283574120470686E-01 
    9.8371784682401342E-01 
    1.0091703183056278E+00 
    8.3313717334474635E-01 
    8.5439105282064520E-01 
    6.5731698993883991E-01 
    8.3602466072178094E-01 
    1.1369627080311302E+00 
    9.4312820760683391E-01 
    9.8396522691231769E-01 
    8.9535537232955908E-01 
    9.8073652273505652E-01 
    8.0910421004824806E-01 
    7.9647864375424093E-01 
    7.4450387889567216E-01 
    8.0945481893181492E-01 
    7.5247454440998862E-01 
    8.5698626777549425E-01 
    9.6242540413916844E-01 
    7.7865315046475214E-01 
    1.0368366969806611E+00 
    1.0428829452899808E+00 
    8.4780135124250455E-01 
    7.6765044995155207E-01 
    9.6076849350442883E-01 
    8.2920350704868917E-01 
    7.0629026819634066E-01 
    8.0749101731242545E-01 
    6.9626979499172359E-01 
    7.4214042119712209E-01 
    8.2596712855219567E-01 
    9.3783213530239340E-01 
    1.0672316476170358E+00 
    7.1945758534715032E-01 
    8.0836415358263813E-01 
    7.7272170520163008E-01 
    8.0652373111841824E-01 
    1.1973556209407066E+00 
    7.2747233090404317E-01 
    8.9199388460451179E-01 
    7.5834209378849526E-01 
    8.5239104472931082E-01 
    7.8265461582579321E-01 
    8.5728677371728579E-01 
    7.3179595348430893E-01 
    8.5969707182869226E-01 
    7.8135824918565711E-01 
    8.6946713098608730E-01 
    7.9258203784640036E-01 
    7.7898417862478764E-01 
    7.1635584481524284E-01 
    7.4846338105378207E-01 
    1.0372660384568306E+00 
    6.7711798663320488E-01 
    7.0292113470531026E-01 
    8.1569690526069316E-01 
    7.5520389959623113E-01 
    1.2741319883889553E+00 
    7.9363774850207247E-01 
    9.8674909089771845E-01 
    7.8182872535568404E-01 
    6.9370988274746637E-01 
    8.3181927150694501E-01 
    7.5039716031732173E-01 
    8.7468938639550908E-01 
    7.9511817737869406E-01 
    7.9766752755604153E-01 
    8.0437390245953189E-01 
    6.9606001893759295E-01 
    7.9607289454393593E-01 
    7.7617164451775433E-01 
    6.9326039162649389E-01 
    7.7655978438096518E-01 
    7.7686681406855629E-01 
    8.0104169226361011E-01 
    6.8909065079587128E-01 
    7.3453344560620459E-01 
    7.8241649454751716E-01 
    8.5864121504637725E-01 
    7.5591628103176245E-01 
    7.1885270822762559E-01 
    1.0077576520805334E+00 
    7.5595362716889847E-01 
    9.1530638031578604E-01 
    1.2744220999143527E+00 
    1.0260957815527871E+00 
    9.1543205018825913E-01 
    1.0613409415687252E+00 
    7.7613028839218623E-01 
    7.7625831992291883E-01 
    7.1762810075755712E-01 
    7.3519217940210735E-01 
    7.3665782735629226E-01 
    6.8498480148861440E-01 
    1.0682832961538988E+00 
    6.9069287236778854E-01 
    8.4911434737714131E-01 
    1.0364167892717413E+00 
    8.5857994498976564E-01 
    7.5339630118588929E-01 
    9.7392063008860608E-01 
    7.1816212512976041E-01 
    7.1899009305560402E-01 
    7.2510702142314654E-01 
    1.2392633702418654E+00 
    9.3817438365152972E-01 
    1.0510431721207678E+00 
    1.0588234346167742E+00 
    8.7543891457813938E-01 
    1.0108256324563367E+00 
    7.2795881030080856E-01 
    6.5170138952352730E-01 
    1.4220879707286243E+00 
    6.7741799583752527E-01 
    7.0326768797821104E-01 
    7.0255910192509541E-01 
    9.1792687391176275E-01 
    1.0319603254912426E+00 
    6.5240000433688705E-01 
    1.1128082020835095E+00 
    1.1424461363999339E+00 
    8.7804492508186793E-01 
    7.9616226996274897E-01 
    1.0950075413350280E+00 
    8.8416935065900049E-01 
    7.2618634000697002E-01 
    1.0489592849159373E+00 
    6.8940001977637833E-01 
    6.8845282416242382E-01 
    9.1180088544150240E-01 
    8.1361515309456633E-01 
    6.5640025575380889E-01 
    7.7955313342300359E-01 
    6.6674940856290177E-01 
    1.0803054206600593E+00 
    6.7807492927652779E-01 
    7.5279371373331216E-01 
    1.0288396471940073E+00 
    7.8136094217193952E-01 
    8.8278335979069744E-01 
    6.7643124281977873E-01 
    8.3476950052287768E-01 
    8.6634372760501188E-01 
    7.2655665401151270E-01 
    8.1572679585790275E-01 
    1.0396426364974218E+00 
    6.6940391288766088E-01 
    8.0930096632801451E-01 
    6.9981573454368973E-01 
    7.3807192593761306E-01 
    8.1936849494245090E-01 
    6.9263209690443939E-01 
    8.2675600682892536E-01 
    1.0624773550474855E+00 
    1.0832981063694007E+00 
    6.6683809198030963E-01 
    1.2862168444965667E+00 
    8.3823821231508233E-01 
    7.5519884941794113E-01 
    1.1252376838064206E+00 
    8.9084774473635231E-01 
    9.3160561321614477E-01 
    7.3513404470969479E-01 
    7.3301344901813692E-01 
    9.6671610034532307E-01 
    8.9263514005951294E-01 
    6.6060320610869483E-01 
    7.4448357473440785E-01 
    1.1618249814687365E+00 
    8.6994390925911591E-01 
    1.0178632444825286E+00 
    9.1470153173500157E-01 
    1.0427544666562629E+00 
    9.6619388233538916E-01 
    6.5978757097272989E-01 
    7.0576606293716027E-01 
    7.6323628149263734E-01 
    1.0856638620023462E+00 
    1.0172113830250182E+00 
    7.5169482039443680E-01 
    7.3687065144769159E-01 
    7.5627989610964697E-01 
    7.5197860626184310E-01 
    9.8908895285037235E-01 
    6.9523444310772553E-01 
    9.2798977175110986E-01 
    1.2118923377609379E+00 
    7.3099810028548418E-01 
    1.1683098128862783E+00 
    8.3235210501721446E-01 
    1.1873403794939346E+00 
    1.0324384731718363E+00 
    1.3334400259430566E+00 
    7.2959726070796316E-01 
    1.0117425781969371E+00 
    8.6763470963621048E-01 
    6.8553211694344685E-01 
    1.0571074964635583E+00 
    8.5217115768318352E-01 
    1.0719832613608766E+00 
    6.8834444015015406E-01 
    1.0185064460902189E+00 
    8.0978996249559632E-01 
    8.9837210306915027E-01 
    6.6446586517913309E-01 
    6.9400089510576823E-01 
    6.8014126330853386E-01 
    1.1172381457953771E+00 
    7.3228132878901675E-01 
    1.2011317914135693E+00 
    1.1398685885878101E+00 
    7.4876589371727698E-01 
    8.3129638798729466E-01 
    7.6709769144404227E-01 
    6.7365857999978429E-01 
    8.2169335108061181E-01 
    1.0409269799263521E+00 
    7.5653671652459853E-01 
    6.8636717354196375E-01 
    1.2337251005845853E+00 
    9.8948475571033367E-01 
    6.5313402472514270E-01 
    6.5350671755345147E-01 
    7.0425140407685238E-01 
    7.1660016629243040E-01 
    6.8137755759764029E-01 
    6.6752411950568968E-01 
    7.5603370867228770E-01 
    7.2700971313940543E-01 
    6.4866740843828374E-01 
    6.4912917608126919E-01 
    6.4248177247436122E-01 
    6.2981696681054788E-01 
    6.2999089855446411E-01 
    6.3578334648508761E-01 
    6.3413806375248793E-01 
    6.3599760850078746E-01 
    6.4512365215111667E-01 
    6.2600482754624998E-01 
    6.4409728349842776E-01 
    6.2843726015687551E-01 
    6.3904542972535328E-01 
    6.3295964131193949E-01 
    6.3420011353115724E-01 
    6.3389472243850520E-01 
    6.2784578027007742E-01 
    6.5810429400179238E-01 
    6.4730253010581484E-01 
    6.5824614140230031E-01 
    6.4349567770054728E-01 
    6.3918690853753735E-01 
    6.3099287054174868E-01 
    6.2639311780306828E-01 
    6.6256921522402967E-01 
    6.4247079519792838E-01 
    6.2582782811189497E-01 
    6.3380127838300304E-01 
    6.4736047356779369E-01 
    6.4694718804226303E-01 
    6.2323738969034892E-01 
    6.2589770915935627E-01 
    6.4234255982300503E-01 
    6.5115081133108288E-01 
    6.4750703983193625E-01 
    6.3606264217353259E-01 
    6.3067788356052612E-01 
    6.6243750755312958E-01 
    6.5955574175475629E-01 
    6.4812361669478313E-01 
    6.7209694639489193E-01 
    6.3060826489487021E-01 
    6.3323314494295657E-01 
    6.3215143431154663E-01 
    6.5572477559900011E-01 
    6.3329349203335450E-01 
    6.5106931194307249E-01 
    6.4099629635966204E-01 
    6.4100108750659290E-01 
    6.4262307553185249E-01 
    6.3803112476625423E-01 
    6.5632254159341263E-01 
    6.5792190794573646E-01 
    6.3949688049881059E-01 
    6.2932407159273340E-01 
    6.3770919322982311E-01 
    6.3725818964576109E-01 
    6.2559024969566035E-01 
    6.4592582610285165E-01 
    6.2619324280388022E-01 
    6.5714369079225377E-01 
    6.2777614092346001E-01 
    6.4255225882208955E-01 
    6.3180613031619592E-01 
    6.2295852715075561E-01 
    6.2255875321044674E-01 
    6.2363556028186151E-01 
    6.2715677515910784E-01 
    6.3740818368251984E-01 
    6.2654419905537773E-01 
    6.3036645999271845E-01 
    6.3290121763661900E-01 
    6.6901669666130159E-01 
    6.3933771672193296E-01 
    6.2723812367305609E-01 
    6.5782350979589022E-01 
    6.3454664610159062E-01 
    6.3372599113993122E-01 
    6.4645739047827555E-01 
    6.6697339695283187E-01 
    6.4418252055552772E-01 
    6.4410241798435275E-01 
    6.3938232393424677E-01 
    6.4210884085803210E-01 
    6.5333084682466425E-01 
    6.5408583222802941E-01 
    6.5181410743392942E-01 
    6.5505629969875012E-01 
    6.4204478718543390E-01 
    6.4909118639971741E-01 
    6.4859304195609302E-01 
    6.4324177182778586E-01 
    6.4497492273703816E-01 
    6.6445651183497345E-01 
    6.5381408866437962E-01 
    6.5772949520780222E-01 
    6.6574982262222160E-01 
    6.3456933306232699E-01 
    6.3228277775717312E-01 
    6.4536970119908088E-01 
    6.5810326974695454E-01 
    6.6786462911508870E-01 
    6.5832906343953779E-01 
    6.2312954678550525E-01 
    6.3099024277265292E-01 
    6.4251847532505735E-01 
    6.3648215449510681E-01 
    6.3088359159368412E-01 
    6.5392635815269717E-01 
    6.4494656571534781E-01 
    6.2700749495275387E-01 
    6.5007649000913770E-01 
    6.2993843396510718E-01 
    6.3205557493885922E-01 
    6.3104815550528592E-01 
    6.4338165001519065E-01 
    6.5557841201278855E-01 
    6.6157125544621664E-01 
    6.4733254103045967E-01 
    6.6198145388826724E-01 
    6.2877338038609476E-01 
    6.2887160307452050E-01 
    6.6102595420396493E-01 
    6.5342107934955862E-01 
    6.2278379554241348E-01 
    6.2321091118523164E-01 
    6.6206821997686272E-01 
    6.4060633352573548E-01 
    6.5280302701383064E-01 
    6.4543856294750312E-01 
    6.3461500094363221E-01 
    6.4488315630542481E-01 
    6.4608393463375868E-01 
    6.4158953593865697E-01 
    6.3913426117658545E-01 
    6.3900099061251980E-01 
    6.2804200484505690E-01 
    6.6086076160302565E-01 
    6.7295809217047198E-01 
    6.2821739866129500E-01 
    6.2837556436205744E-01 
    6.2716757762261377E-01 
    6.2767920876315497E-01 
    6.2410895900880892E-01 
    6.5218076629184152E-01 
    6.3599122552994736E-01 
    6.2517840611803333E-01 
    6.4473155253539993E-01 
    6.4922297613967350E-01 
    6.3824480496558500E-01 
    6.3701654214791203E-01 
    6.3508499566972498E-01 
    6.3997432187483483E-01 
    6.5702700478142051E-01 
    6.2833672297500365E-01 
    6.2781863505521263E-01 
    6.3059263064670079E-01 
    6.3925458215533426E-01 
    6.5602741969194611E-01 
    6.3153682799494293E-01 
    6.5882813817272889E-01 
    6.2477830962303693E-01 
    6.3890649116001819E-01 
    6.2229870283549749E-01 
    6.2264783668274271E-01 
    6.2558134318819214E-01 
    6.6016396664860844E-01 
    6.4562882441487313E-01 
    6.3714285210047295E-01 
    6.4155984265344757E-01 
    6.4955206355806283E-01 
    6.2392137682643323E-01 
    6.3591010859940966E-01 
    6.4309829642893790E-01 
    6.6297706644510634E-01 
    6.5151148490758792E-01 
    6.5397650585182998E-01 
    6.6191505174588516E-01 
    6.6410135473381504E-01 
    6.4134167591623215E-01 
    6.3274223219358128E-01 
    6.4991059442987287E-01 
    6.5012649792778365E-01 
    6.3889121156899809E-01 
    6.2441968324655894E-01 
    6.4994564040118530E-01 
    6.5396764857413214E-01 
    6.5645040765544205E-01 
    6.5317983649346778E-01 
    6.2351081710948675E-01 
    6.5187375997635633E-01 
    6.5052008835955100E-01 
    6.2471432132828386E-01 
    6.3180844663686120E-01 
    6.4442386168903798E-01 
    6.5161603369495602E-01 
    6.4971581262818967E-01 
    6.4599489745382976E-01 
    6.4738829558809496E-01 
    6.5424457412952985E-01 
    6.4789031973092492E-01 
    6.4916169673718693E-01 
    6.4147317573820728E-01 
    6.4528287468591561E-01 
    6.2598192036027400E-01 
    6.6398951043529220E-01 
    6.6055694030928502E-01 
    6.6514124330745805E-01 
    6.3484274321484169E-01 
    6.3302876741353309E-01 
    6.3280835340496688E-01 
    6.5014865355923701E-01 
    6.4648479889542276E-01 
    6.4931709993495190E-01 
    6.3626337414530043E-01 
    6.2478957389165390E-01 
    6.2774468692341290E-01 
    6.5632708756809388E-01 
    6.2755056421390099E-01 
    6.3971643847316528E-01 
    6.3594386559797134E-01 
    6.5410806821325851E-01 
    6.4558234700326500E-01 
    6.4150462908563699E-01 
    6.6012593107241491E-01 
    6.5559775776985874E-01 
    6.3670034343455650E-01 
    6.3504062362866531E-01 
    6.3074593007192514E-01 
    6.3804370047810899E-01 
    6.5009098702368795E-01 
    6.2567829240095907E-01 
    6.5314932098202061E-01 
    6.5814149365994468E-01 
    6.3649227863454982E-01 
    6.3537342682766318E-01 
    6.2774767829989231E-01 
    6.2458535697085993E-01 
    6.5694054294624349E-01 
    6.3565257795543673E-01 
    6.4899828558197792E-01 
    6.3765225087073829E-01 
    6.4482514057627349E-01 
    6.2814932126298928E-01 
    6.4209984651475327E-01 
    6.6131957638729599E-01 
    6.3498217311308480E-01 
    6.4232963735296644E-01 
    6.2944553125649350E-01 
    6.3930148862915082E-01 
    6.5959920504173331E-01 
    6.3518920249160238E-01 
    6.4907553818710939E-01 
    6.3358999533732596E-01 
    6.2531029688579109E-01 
    6.4600257825998864E-01 
    6.4563067727324652E-01 
    6.4412117525096668E-01 
    6.3323061590670515E-01 
    6.3310313322807921E-01 
    6.2642680102751103E-01 
    6.4398859639226191E-01 
    6.4743294136495710E-01 
    6.4199165971079875E-01 
    6.2972847045975899E-01 
    6.3194014325352887E-01 