# vtk DataFile Version 2.0
Pressure Field Data 
ASCII 
DATASET UNSTRUCTURED_GRID 

POINTS 2213 double 

    0.0000000000000000E+00     0.0000000000000000E+00     0.0000000000000000E+00 
    5.0000000000000000E-01     0.0000000000000000E+00     0.0000000000000000E+00 
    1.0000000000000000E+00     0.0000000000000000E+00     0.0000000000000000E+00 
    1.0000000000000000E+00     5.0000000000000000E-01     0.0000000000000000E+00 
    1.0000000000000000E+00     1.0000000000000000E+00     0.0000000000000000E+00 
    5.0000000000000000E-01     1.0000000000000000E+00     0.0000000000000000E+00 
    0.0000000000000000E+00     1.0000000000000000E+00     0.0000000000000000E+00 
    0.0000000000000000E+00     5.0000000000000000E-01     0.0000000000000000E+00 
    1.5624999999971041E-02     0.0000000000000000E+00     0.0000000000000000E+00 
    3.1249999999936742E-02     0.0000000000000000E+00     0.0000000000000000E+00 
    4.6874999999913257E-02     0.0000000000000000E+00     0.0000000000000000E+00 
    6.2499999999889783E-02     0.0000000000000000E+00     0.0000000000000000E+00 
    7.8124999999844805E-02     0.0000000000000000E+00     0.0000000000000000E+00 
    9.3749999999799827E-02     0.0000000000000000E+00     0.0000000000000000E+00 
    1.0937499999975490E-01     0.0000000000000000E+00     0.0000000000000000E+00 
    1.2499999999970990E-01     0.0000000000000000E+00     0.0000000000000000E+00 
    1.4062499999966460E-01     0.0000000000000000E+00     0.0000000000000000E+00 
    1.5624999999961930E-01     0.0000000000000000E+00     0.0000000000000000E+00 
    1.7187499999957390E-01     0.0000000000000000E+00     0.0000000000000000E+00 
    1.8749999999952860E-01     0.0000000000000000E+00     0.0000000000000000E+00 
    2.0312499999948330E-01     0.0000000000000000E+00     0.0000000000000000E+00 
    2.1874999999943801E-01     0.0000000000000000E+00     0.0000000000000000E+00 
    2.3437499999939271E-01     0.0000000000000000E+00     0.0000000000000000E+00 
    2.4999999999934730E-01     0.0000000000000000E+00     0.0000000000000000E+00 
    2.6562499999938810E-01     0.0000000000000000E+00     0.0000000000000000E+00 
    2.8124999999942890E-01     0.0000000000000000E+00     0.0000000000000000E+00 
    2.9687499999946970E-01     0.0000000000000000E+00     0.0000000000000000E+00 
    3.1249999999951050E-01     0.0000000000000000E+00     0.0000000000000000E+00 
    3.2812499999955130E-01     0.0000000000000000E+00     0.0000000000000000E+00 
    3.4374999999959210E-01     0.0000000000000000E+00     0.0000000000000000E+00 
    3.5937499999963290E-01     0.0000000000000000E+00     0.0000000000000000E+00 
    3.7499999999967371E-01     0.0000000000000000E+00     0.0000000000000000E+00 
    3.9062499999971451E-01     0.0000000000000000E+00     0.0000000000000000E+00 
    4.0624999999975520E-01     0.0000000000000000E+00     0.0000000000000000E+00 
    4.2187499999979600E-01     0.0000000000000000E+00     0.0000000000000000E+00 
    4.3749999999983680E-01     0.0000000000000000E+00     0.0000000000000000E+00 
    4.5312499999987760E-01     0.0000000000000000E+00     0.0000000000000000E+00 
    4.6874999999991840E-01     0.0000000000000000E+00     0.0000000000000000E+00 
    4.8437499999995920E-01     0.0000000000000000E+00     0.0000000000000000E+00 
    5.1562499999992384E-01     0.0000000000000000E+00     0.0000000000000000E+00 
    5.3124999999985478E-01     0.0000000000000000E+00     0.0000000000000000E+00 
    5.4687499999994527E-01     0.0000000000000000E+00     0.0000000000000000E+00 
    5.6249999999998668E-01     0.0000000000000000E+00     0.0000000000000000E+00 
    5.7812499999998068E-01     0.0000000000000000E+00     0.0000000000000000E+00 
    5.9374999999994749E-01     0.0000000000000000E+00     0.0000000000000000E+00 
    6.0937499999997913E-01     0.0000000000000000E+00     0.0000000000000000E+00 
    6.2500000000000000E-01     0.0000000000000000E+00     0.0000000000000000E+00 
    6.4062499999998945E-01     0.0000000000000000E+00     0.0000000000000000E+00 
    6.5624999999996603E-01     0.0000000000000000E+00     0.0000000000000000E+00 
    6.7187499999995337E-01     0.0000000000000000E+00     0.0000000000000000E+00 
    6.8749999999998734E-01     0.0000000000000000E+00     0.0000000000000000E+00 
    7.0312499999998124E-01     0.0000000000000000E+00     0.0000000000000000E+00 
    7.1874999999997025E-01     0.0000000000000000E+00     0.0000000000000000E+00 
    7.3437499999999034E-01     0.0000000000000000E+00     0.0000000000000000E+00 
    7.5000000000000000E-01     0.0000000000000000E+00     0.0000000000000000E+00 
    7.6562499999996902E-01     0.0000000000000000E+00     0.0000000000000000E+00 
    7.8124999999993228E-01     0.0000000000000000E+00     0.0000000000000000E+00 
    7.9687499999989997E-01     0.0000000000000000E+00     0.0000000000000000E+00 
    8.1249999999996247E-01     0.0000000000000000E+00     0.0000000000000000E+00 
    8.2812499999999578E-01     0.0000000000000000E+00     0.0000000000000000E+00 
    8.4374999999999556E-01     0.0000000000000000E+00     0.0000000000000000E+00 
    8.5937500000000111E-01     0.0000000000000000E+00     0.0000000000000000E+00 
    8.7499999999997691E-01     0.0000000000000000E+00     0.0000000000000000E+00 
    8.9062500000000921E-01     0.0000000000000000E+00     0.0000000000000000E+00 
    9.0625000000004452E-01     0.0000000000000000E+00     0.0000000000000000E+00 
    9.2187500000005529E-01     0.0000000000000000E+00     0.0000000000000000E+00 
    9.3750000000012723E-01     0.0000000000000000E+00     0.0000000000000000E+00 
    9.5312500000011835E-01     0.0000000000000000E+00     0.0000000000000000E+00 
    9.6875000000005151E-01     0.0000000000000000E+00     0.0000000000000000E+00 
    9.8437500000003086E-01     0.0000000000000000E+00     0.0000000000000000E+00 
    1.0000000000000000E+00     1.5624999999971041E-02     0.0000000000000000E+00 
    1.0000000000000000E+00     3.1249999999936742E-02     0.0000000000000000E+00 
    1.0000000000000000E+00     4.6874999999913257E-02     0.0000000000000000E+00 
    1.0000000000000000E+00     6.2499999999889783E-02     0.0000000000000000E+00 
    1.0000000000000000E+00     7.8124999999844805E-02     0.0000000000000000E+00 
    1.0000000000000000E+00     9.3749999999799827E-02     0.0000000000000000E+00 
    1.0000000000000000E+00     1.0937499999975490E-01     0.0000000000000000E+00 
    1.0000000000000000E+00     1.2499999999970990E-01     0.0000000000000000E+00 
    1.0000000000000000E+00     1.4062499999966460E-01     0.0000000000000000E+00 
    1.0000000000000000E+00     1.5624999999961930E-01     0.0000000000000000E+00 
    1.0000000000000000E+00     1.7187499999957390E-01     0.0000000000000000E+00 
    1.0000000000000000E+00     1.8749999999952860E-01     0.0000000000000000E+00 
    1.0000000000000000E+00     2.0312499999948330E-01     0.0000000000000000E+00 
    1.0000000000000000E+00     2.1874999999943801E-01     0.0000000000000000E+00 
    1.0000000000000000E+00     2.3437499999939271E-01     0.0000000000000000E+00 
    1.0000000000000000E+00     2.4999999999934730E-01     0.0000000000000000E+00 
    1.0000000000000000E+00     2.6562499999938810E-01     0.0000000000000000E+00 
    1.0000000000000000E+00     2.8124999999942890E-01     0.0000000000000000E+00 
    1.0000000000000000E+00     2.9687499999946970E-01     0.0000000000000000E+00 
    1.0000000000000000E+00     3.1249999999951050E-01     0.0000000000000000E+00 
    1.0000000000000000E+00     3.2812499999955130E-01     0.0000000000000000E+00 
    1.0000000000000000E+00     3.4374999999959210E-01     0.0000000000000000E+00 
    1.0000000000000000E+00     3.5937499999963290E-01     0.0000000000000000E+00 
    1.0000000000000000E+00     3.7499999999967371E-01     0.0000000000000000E+00 
    1.0000000000000000E+00     3.9062499999971451E-01     0.0000000000000000E+00 
    1.0000000000000000E+00     4.0624999999975520E-01     0.0000000000000000E+00 
    1.0000000000000000E+00     4.2187499999979600E-01     0.0000000000000000E+00 
    1.0000000000000000E+00     4.3749999999983680E-01     0.0000000000000000E+00 
    1.0000000000000000E+00     4.5312499999987760E-01     0.0000000000000000E+00 
    1.0000000000000000E+00     4.6874999999991840E-01     0.0000000000000000E+00 
    1.0000000000000000E+00     4.8437499999995920E-01     0.0000000000000000E+00 
    1.0000000000000000E+00     5.1562499999992384E-01     0.0000000000000000E+00 
    1.0000000000000000E+00     5.3124999999985478E-01     0.0000000000000000E+00 
    1.0000000000000000E+00     5.4687499999994527E-01     0.0000000000000000E+00 
    1.0000000000000000E+00     5.6249999999998668E-01     0.0000000000000000E+00 
    1.0000000000000000E+00     5.7812499999998068E-01     0.0000000000000000E+00 
    1.0000000000000000E+00     5.9374999999994749E-01     0.0000000000000000E+00 
    1.0000000000000000E+00     6.0937499999997913E-01     0.0000000000000000E+00 
    1.0000000000000000E+00     6.2500000000000000E-01     0.0000000000000000E+00 
    1.0000000000000000E+00     6.4062499999998945E-01     0.0000000000000000E+00 
    1.0000000000000000E+00     6.5624999999996603E-01     0.0000000000000000E+00 
    1.0000000000000000E+00     6.7187499999995337E-01     0.0000000000000000E+00 
    1.0000000000000000E+00     6.8749999999998734E-01     0.0000000000000000E+00 
    1.0000000000000000E+00     7.0312499999998124E-01     0.0000000000000000E+00 
    1.0000000000000000E+00     7.1874999999997025E-01     0.0000000000000000E+00 
    1.0000000000000000E+00     7.3437499999999034E-01     0.0000000000000000E+00 
    1.0000000000000000E+00     7.5000000000000000E-01     0.0000000000000000E+00 
    1.0000000000000000E+00     7.6562499999996902E-01     0.0000000000000000E+00 
    1.0000000000000000E+00     7.8124999999993228E-01     0.0000000000000000E+00 
    1.0000000000000000E+00     7.9687499999989997E-01     0.0000000000000000E+00 
[...]
CELL_DATA 2084 
SCALARS Pressure double 1 
LOOKUP_TABLE default 

    5.9642420478347458E-01 
    6.1770480460169064E-01 
    8.2103506733164855E-01 
    6.1857553564751155E-01 
    7.3533323661403938E-01 
    6.9221465733943988E-01 
    5.8741887047888885E-01 
    6.7687394348088736E-01 
    6.8634638997572395E-01 
    7.3986860763776374E-01 
    8.1536780201634818E-01 
    5.9102479879210057E-01 
    6.5957266197799003E-01 
    6.3097276072771569E-01 
    5.9576489483740180E-01 
    6.2193689788800122E-01 
    7.7550958877731746E-01 
    6.4897773980670159E-01 
    8.4694836122896688E-01 
    6.0017782043176515E-01 
    6.0012725949179080E-01 
    7.2088641724722868E-01 
    6.1984231260245837E-01 
    6.5540908816071441E-01 
    5.9915563220385903E-01 
    6.6427309701393089E-01 
    6.1435797939524617E-01 
    5.8068514317660436E-01 
    6.6896706497144220E-01 
    6.3912306441592637E-01 
    5.8089452039765832E-01 
    6.7946096573323522E-01 
    5.7696362124624845E-01 
    6.0057901293233773E-01 
    5.9122092865366138E-01 
    7.2912281040713434E-01 
    6.4314658180367368E-01 
    6.4040776906190977E-01 
    7.1762380250687829E-01 
    6.7902239928876873E-01 
    5.8734963043966315E-01 
    7.4480892944176258E-01 
    6.1152811112203453E-01 
    7.0080078828620973E-01 
    6.9102659152238832E-01 
    5.8343464496283926E-01 
    7.4310128082673244E-01 
    5.8406693900670681E-01 
    5.8364843066877448E-01 
    6.6674889819494376E-01 
    6.6180659339845616E-01 
    5.8632003503060925E-01 
    5.9645418136006756E-01 
    6.5052397258547023E-01 
    6.5343407931701036E-01 
    5.9252608668443851E-01 
    5.7625528953805338E-01 
    7.0322014158124135E-01 
    7.1554483416296288E-01 
    6.5778121055700423E-01 
    6.5948823692759651E-01 
    6.1440840961137988E-01 
    5.9689872610079708E-01 
    6.2747122489362817E-01 
    7.4229351759434103E-01 
    6.5461659841871311E-01 
    6.8592714096244611E-01 
    5.8967964997241940E-01 
    5.7919334888497942E-01 
    5.7852877934915914E-01 
    6.0891155434961497E-01 
    8.7664612491742133E-01 
    6.6407458182338674E-01 
    7.9881330885440704E-01 
    7.1097257952012016E-01 
    7.9495136162665891E-01 
    6.5888805342133849E-01 
    7.3476697062657081E-01 
    5.9575728014251050E-01 
    7.5135521518378590E-01 
    6.1878776086463294E-01 
    6.7988448053266926E-01 
    7.0176453902062752E-01 
    5.7758846341580705E-01 
    6.8907101206097321E-01 
    6.1706356001584117E-01 
    6.4351397932622789E-01 
    6.9269608274733763E-01 
    7.1356787277506095E-01 
    7.0415754147376142E-01 
    6.8497638799141425E-01 
    6.8390529612913364E-01 
    6.0430156201611418E-01 
    7.0187406843359534E-01 
    6.4923262661979397E-01 
    5.8019462481000827E-01 
    6.3357740491912085E-01 
    6.7051551779758412E-01 
    7.2594681398573468E-01 
    6.3849619488127651E-01 
    7.3932139542537401E-01 
    6.9854211351784201E-01 
    7.1542453698336572E-01 
    7.1977319042624366E-01 
    6.4917546339348786E-01 
    7.0034091522080466E-01 
    6.7239997209702662E-01 
    7.2853492313541268E-01 
    6.0576090434306384E-01 
    9.0824354944233965E-01 
    6.2187213028937127E-01 
    6.6732668835965003E-01 
    6.9992031894664652E-01 
    7.5557804399207318E-01 
    8.0828367033305926E-01 
    6.2874681097359142E-01 
    7.0123240704299072E-01 
    6.9850058640031665E-01 
    6.3976388542827478E-01 
    5.8865502768845390E-01 
    6.5213050914853388E-01 
    7.1393788583822160E-01 
    5.8940934181224325E-01 
    7.8199486536084561E-01 
    6.7419294829244147E-01 
    7.1531362382552588E-01 
    6.5651995889258186E-01 
    5.8882164168315665E-01 
    6.4270060894757175E-01 
    6.1775531492058011E-01 
    8.0407821383065603E-01 
    8.1668877561078113E-01 
    5.8184470308846903E-01 
    7.4146996002526289E-01 
    7.2717023564334382E-01 
    6.5861174131925593E-01 
    7.0971280645387858E-01 
    5.8829923551205432E-01 
    7.2609179389084100E-01 
    7.8805363348331592E-01 
    6.8711335246164984E-01 
    8.3081995382180374E-01 
    7.9766740141911163E-01 
    6.7296731056901171E-01 
    6.2838990658069860E-01 
    6.6477442397230335E-01 
    7.0069050929870424E-01 
    7.2306964407675489E-01 
    6.4955833173943922E-01 
    6.8754704690465351E-01 
    6.9358005445208371E-01 
    7.8867826529404650E-01 
    8.6334340352749295E-01 
    6.4551118453811263E-01 
    6.4957299842348293E-01 
    8.4665845943248330E-01 
    6.1876683823050482E-01 
    6.9885085637063959E-01 
    6.4349491728773744E-01 
    7.8206602811708847E-01 
    9.8819429532086822E-01 
    9.2756794590618075E-01 
    8.6746161436076719E-01 
    8.8737280605162794E-01 
    8.3936811363504016E-01 
    8.5499255266354668E-01 
    6.9925207032388892E-01 
    9.0197454351007422E-01 
    6.8854839979789317E-01 
    8.4802693355921177E-01 
    6.8818840993613828E-01 
    7.7479288817440806E-01 
    7.9461756454557408E-01 
    7.2965357759715410E-01 
    7.6742646309257179E-01 
    6.3439883030351973E-01 
    7.7063120635991944E-01 
    6.7819220932323621E-01 
    6.8573001065770278E-01 
    6.8458927649577728E-01 
    7.1128959143096593E-01 
    6.2487703371768455E-01 
    7.7631989933642509E-01 
    7.1448480986786633E-01 
    7.1196173646125294E-01 
    5.7491603968894522E-01 
    7.3501177390001149E-01 
    8.0015017129709665E-01 
    6.3054584113056167E-01 
    7.5701660078836308E-01 
    8.1479794516632265E-01 
    8.3752083161872315E-01 
    7.1310822544083552E-01 
    6.5301513669481193E-01 
    6.2813678626967229E-01 
    6.3327703909866262E-01 
    7.4458782237168430E-01 
    7.0534354247746400E-01 
    6.5062708401683844E-01 
    7.4671653427467610E-01 
    6.8037306021415767E-01 
    6.3625540267088354E-01 
    7.1378694271637788E-01 
    5.9954528891511338E-01 
    6.3742896727654319E-01 
    8.1825060987944287E-01 
    7.4176040839999269E-01 
    6.3426408178075433E-01 
    7.6567047528653343E-01 
    7.5825280972228581E-01 
    6.5119112244723776E-01 
    6.7251293980520355E-01 
    6.7462856674171356E-01 
    7.3372222504303430E-01 
    7.3031609785592433E-01 
    7.9337986925957948E-01 
    6.6863525919576761E-01 
    7.2878808712244814E-01 
    7.4347485773895072E-01 
    6.4999297985587312E-01 
    6.6017162823202014E-01 
    5.7370920610448994E-01 
    6.5060033481684498E-01 
    8.2796537604645926E-01 
    7.0469278189739670E-01 
    7.2756753622447978E-01 
    6.7965108515904316E-01 
    7.2683958327079634E-01 
    6.3724165028644686E-01 
    6.3114424873587893E-01 
    6.0878773152339372E-01 
    6.3688551459353393E-01 
    6.1110338744406845E-01 
    6.6183992636204703E-01 
    7.1634023386198109E-01 
    6.2181040384846320E-01 
    7.6006532819088768E-01 
    7.6383761055081656E-01 
    6.5733733814906425E-01 
    6.1954340773611405E-01 
    7.1434223163592969E-01 
    6.4769714535306022E-01 
    5.9246700807230734E-01 
    6.3755788777999911E-01 
    5.8711959513968137E-01 
    6.0732276267086260E-01 
    6.4655352266520594E-01 
    7.0278136057980922E-01 
    7.7898094973978660E-01 
    5.9916512905832431E-01 
    6.3660956797645840E-01 
    6.1987950394727864E-01 
    6.3691323293020474E-01 
    8.7560667950044258E-01 
    5.9954090085598155E-01 
    6.7742530287720482E-01 
    6.1280613508938286E-01 
    6.5834652100951951E-01 
    6.2405166757143449E-01 
    6.6177991740705056E-01 
    6.0342138327671402E-01 
    6.6223682919062721E-01 
    6.2500065316208042E-01 
    6.6590811227199620E-01 
    6.2877936820034097E-01 
    6.2207754238532065E-01 
    5.9791904772191729E-01 
    6.1042011694330378E-01 
    7.5972740387481563E-01 
    5.8143585122842756E-01 
    5.9260817870775540E-01 
    6.3998698602516213E-01 
    6.1322108568186429E-01 
    9.4371736590678690E-01 
    6.3131705328615251E-01 
    7.2967209058424010E-01 
    6.2544948303561121E-01 
    5.8955797286856626E-01 
    6.4918933704770443E-01 
    6.0922184308676863E-01 
    6.6962504225080333E-01 
    6.2987508526527858E-01 
    6.3067677380768172E-01 
    6.3560326696020686E-01 
    5.8781859210312137E-01 
    6.3151769170639604E-01 
    6.2124778752215370E-01 
    5.8880760789894127E-01 
    6.2107468828053547E-01 
    6.2189389776347959E-01 
    6.3365777866434692E-01 
    5.8702410072423938E-01 
    6.0451128376454299E-01 
    6.2595176688117726E-01 
    6.6257737954728735E-01 
    6.1258699813684536E-01 
    5.9884264395733311E-01 
    7.4187615733456802E-01 
    6.1433364797245782E-01 
    6.9068381665247924E-01 
    9.4394095661613620E-01 
    7.5305680547255371E-01 
    6.8967786279799748E-01 
    7.7510631296039822E-01 
    6.2180907443479949E-01 
    6.2092886107056100E-01 
    5.9866351681331520E-01 
    6.0507981867187599E-01 
    6.0716172454024842E-01 
    5.8465110459230252E-01 
    7.8010741217451440E-01 
    5.8551224203333807E-01 
    6.5569170030393986E-01 
    7.5979140073300033E-01 
    6.6150283383067021E-01 
    6.1295002759485528E-01 
    7.2282264051657186E-01 
    5.9870561957839807E-01 
    6.0012200635919488E-01 
    6.0101855470765275E-01 
    9.1182676253674966E-01 
    7.0188025898599415E-01 
    7.6898126913820730E-01 
    7.7344771675839674E-01 
    6.7101467068796372E-01 
    7.4428977870800417E-01 
    5.9988893226814710E-01 
    5.7118748059432611E-01 
    1.0873081191549492E+00 
    5.8229951846538275E-01 
    5.9284225915703670E-01 
    5.9343660075594640E-01 
    6.9218536260047969E-01 
    7.5679751275289320E-01 
    5.7143136853357090E-01 
    8.1029052458112394E-01 
    8.3206091485783307E-01 
    6.7184492274362506E-01 
    6.3040558217825127E-01 
    7.9805595236334492E-01 
    6.7540171121309001E-01 
    6.0175068034796708E-01 
    7.6720009268956157E-01 
    5.8725837632050959E-01 
    5.8760321334659626E-01 
    6.8910515147392304E-01 
    6.3893213779283164E-01 
    5.7322835509270653E-01 
    6.2381778171634472E-01 
    5.7800340302288566E-01 
    7.8798507957802821E-01 
    5.8260191742432188E-01 
    6.1210378435146273E-01 
    7.5462518342881701E-01 
    6.2519900071384504E-01 
    6.7475953747368267E-01 
    5.8244699969259617E-01 
    6.5095457214748709E-01 
    6.6438409436815105E-01 
    6.0080674594301631E-01 
    6.3924617706259612E-01 
    7.6141558656493402E-01 
    5.7895124706114698E-01 
    6.3615875850941384E-01 
    5.8889221347034326E-01 
    6.0622810691115925E-01 
    6.4309543156270166E-01 
    5.8674405905327121E-01 
    6.4460965676652926E-01 
    7.7631134966237492E-01 
    7.8972921062943457E-01 
    5.7820147822400236E-01 
    9.5499153680381410E-01 
    6.5131761194896254E-01 
    6.1304074888979754E-01 
    8.1943238414249708E-01 
    6.7852908702828507E-01 
    6.9966815405588734E-01 
    6.0331294898438725E-01 
    6.0536146342624619E-01 
    7.1773679039667937E-01 
    6.7779519039161651E-01 
    5.7516989934163254E-01 
    6.0819585049776004E-01 
    8.4686592761457291E-01 
    6.6743988929407028E-01 
    7.4800137643435782E-01 
    6.9041175026440782E-01 
    7.6376020265573552E-01 
    7.1750765121311721E-01 
    5.7497536184286280E-01 
    5.9377408868957793E-01 
    6.1740275717313342E-01 
    7.9132683948011429E-01 
    7.4811916817869606E-01 
    6.1188902584509042E-01 
    6.0709299980495157E-01 
    6.1299789972392471E-01 
    6.1033199610130173E-01 
    7.3066139486949566E-01 
    5.8737024203685828E-01 
    6.9786067671782093E-01 
    8.8779756310571678E-01 
    6.0355471085505330E-01 
    8.5200409391892429E-01 
    6.4821927291514603E-01 
    8.6719935708019502E-01 
    7.5674638125386118E-01 
    1.0004444269904622E+00 
    6.0240202446849045E-01 
    7.4406031455001376E-01 
    6.6609858561177260E-01 
    5.8413993491652194E-01 
    7.7282686577644832E-01 
    6.5815478084184398E-01 
    7.8253438555199739E-01 
    5.8572428819714972E-01 
    7.4887374862493628E-01 
    6.3824200766469130E-01 
    6.8193518684287791E-01 
    5.7656682855025387E-01 
    5.8631361198171494E-01 
    5.8241200945356075E-01 
    8.1363987267047500E-01 
    6.0362956300469883E-01 
    8.7868305279449832E-01 
    8.3012283196943615E-01 
    6.1001476017542566E-01 
    6.4685557206702515E-01 
    6.1835712053627123E-01 
    5.8118178119554653E-01 
    6.4347201208401394E-01 
    7.6261231953645492E-01 
    6.1437554455349097E-01 
    5.8666195231382523E-01 
    9.0687211809139479E-01 
    7.3082228367524205E-01 
    5.7187500382412992E-01 
    5.7200378576794120E-01 
    5.9320908324516652E-01 
    5.9806871348469559E-01 
    5.8443114935606455E-01 
    5.7809456877188292E-01 
    6.1395087308814333E-01 
    6.0107578958354058E-01 
    5.6980878942352930E-01 
    5.6984893618435717E-01 
    5.6652911389855531E-01 
    5.5935202735230316E-01 
    5.5977802816827293E-01 
    5.6161283803446305E-01 
    5.6240684898499516E-01 
    5.6247085283920839E-01 
    5.6786076322660850E-01 
    5.5658767851167223E-01 
    5.6711875225503250E-01 
    5.5875510865382494E-01 
    5.6490786922964420E-01 
    5.6174987606403493E-01 
    5.6156722353682187E-01 
    5.6036496209309272E-01 
    5.5766985723094176E-01 
    5.7358634663171915E-01 
    5.6858216904837644E-01 
    5.7288767294482834E-01 
    5.6731987224862201E-01 
    5.6420491995057998E-01 
    5.5906385502032718E-01 
    5.5759270047596288E-01 
    5.7470966650143951E-01 
    5.6568090914858471E-01 
    5.5723717672470741E-01 
    5.6180542571686531E-01 
    5.6896668337459344E-01 
    5.6898211706456137E-01 
    5.5511312053712636E-01 
    5.5656296540001726E-01 
    5.6580005542231793E-01 
    5.7077781282461726E-01 
    5.6887538455805575E-01 
    5.6300630888545922E-01 
    5.6042489877259005E-01 
    5.7521022921628784E-01 
    5.7332803756906037E-01 
    5.6931557818149015E-01 
    5.7835655081822190E-01 
    5.6036582067844376E-01 
    5.6145261875765484E-01 
    5.6082401421065819E-01 
    5.7263942209404961E-01 
    5.6141850478875577E-01 
    5.7063381572177552E-01 
    5.6575400137041121E-01 
    5.6590840526167452E-01 
    5.6560456972597528E-01 
    5.6418556230791694E-01 
    5.7246228983996561E-01 
    5.7269872671758604E-01 
    5.6497409082233108E-01 
    5.5961427717000822E-01 
    5.6434686212172125E-01 
    5.6397672547862554E-01 
    5.5616754834232396E-01 
    5.6824619243635488E-01 
    5.5661844283542983E-01 
    5.7267690716148401E-01 
    5.5786371977367588E-01 
    5.6683456364664986E-01 
    5.6048552435188947E-01 
    5.5491214895890717E-01 
    5.5387471627780449E-01 
    5.5498230128792481E-01 
    5.5652776295533557E-01 
    5.6415692961289488E-01 
    5.5617352051881508E-01 
    5.5861194218715904E-01 
    5.5968535760722793E-01 
    5.7700021039148264E-01 
    5.6468890455217902E-01 
    5.5739121495953992E-01 
    5.7283519806927019E-01 
    5.6261583628367851E-01 
    5.6105361102695894E-01 
    5.6870271216754276E-01 
    5.7645528659271938E-01 
    5.6755514703346122E-01 
    5.6759660386550137E-01 
    5.6490484062582313E-01 
    5.6663276641908100E-01 
    5.7098962576549517E-01 
    5.7106423992263899E-01 
    5.7027336913354820E-01 
    5.7136451949849498E-01 
    5.6625055216834708E-01 
    5.6979429947300653E-01 
    5.6973131691119971E-01 
    5.6714386079189449E-01 
    5.6798610451240072E-01 
    5.7531091337014317E-01 
    5.7106904492449406E-01 
    5.7250105930768846E-01 
    5.7579255687533903E-01 
    5.6211100484241050E-01 
    5.6125613095803650E-01 
    5.6774271029831991E-01 
    5.7298265082431299E-01 
    5.7664907159374723E-01 
    5.7282062908333831E-01 
    5.5446186940246889E-01 
    5.6012514965561344E-01 
    5.6653273070080390E-01 
    5.6332890393951640E-01 
    5.5925460963976947E-01 
    5.7112513229375894E-01 
    5.6730983652212286E-01 
    5.5722895124241001E-01 
    5.6957458473188094E-01 
    5.5929433396300499E-01 
    5.6072249086117043E-01 
    5.6014206329438898E-01 
    5.6698225208116260E-01 
    5.7199463648349869E-01 
    5.7448955860656381E-01 
    5.6890842919113083E-01 
    5.7428609527260710E-01 
    5.5858516602625974E-01 
    5.5815654555250038E-01 
    5.7433277911103786E-01 
    5.7069317514898754E-01 
    5.5408383058404265E-01 
    5.5520564865907773E-01 
    5.7507715934593784E-01 
    5.6586735977032321E-01 
    5.7089711581985658E-01 
    5.6763750494047016E-01 
    5.6225185940221378E-01 
    5.6763242132973846E-01 
    5.6846877579281385E-01 
    5.6584356396190527E-01 
    5.6507313168016571E-01 
    5.6502591354159259E-01 
    5.5668210815092600E-01 
    5.7383186813260434E-01 
    5.7844881983147500E-01 
    5.5678488995818165E-01 
    5.5681498312273248E-01 
    5.5638903417604668E-01 
    5.5660862478764239E-01 
    5.5528520160929418E-01 
    5.7076086007540927E-01 
    5.6285478193313954E-01 
    5.5661812598999572E-01 
    5.6792084708104051E-01 
    5.6926052228442969E-01 
    5.6319609602329590E-01 
    5.6361227517613477E-01 
    5.6254191443260038E-01 
    5.6520460651730298E-01 
    5.7303776562994913E-01 
    5.5679539262597955E-01 
    5.5664084411023929E-01 
    5.6022185456105855E-01 
    5.6494809690588443E-01 
    5.7196031025018190E-01 
    5.5912453132365147E-01 
    5.7368569702363403E-01 
    5.5614732455093541E-01 
    5.6365160010809179E-01 
    5.5365903738546340E-01 
    5.5463945398132486E-01 
    5.5712876338412198E-01 
    5.7410956534343083E-01 
    5.6752860021688323E-01 
    5.6385380756447712E-01 
    5.6611104013928926E-01 
    5.6925973516475203E-01 
    5.5596044074752471E-01 
    5.6335511008416517E-01 
    5.6695834845924353E-01 
    5.7477165477467140E-01 
    5.7090032723112849E-01 
    5.7172653444647248E-01 
    5.7457106620746312E-01 
    5.7540806730081184E-01 
    5.6558993812219238E-01 
    5.5962548419597713E-01 
    5.6928313811074216E-01 
    5.6925646548508047E-01 
    5.6383633133124778E-01 
    5.5616351227501593E-01 
    5.6906354350532640E-01 
    5.7090441569834716E-01 
    5.7194421785840199E-01 
    5.7047730841405864E-01 
    5.5560900347187736E-01 
    5.6987096245658320E-01 
    5.6927238225951415E-01 
    5.5624518277472512E-01 
    5.5998850437021264E-01 
    5.6717046185170528E-01 
    5.6994610073194507E-01 
    5.6915613530524212E-01 
    5.6852151414112884E-01 
    5.6901675098631610E-01 
    5.7209781992449560E-01 
    5.6839762139901795E-01 
    5.6993701755888360E-01 
    5.6625752915948602E-01 
    5.6801617061286980E-01 
    5.5603309328064177E-01 
    5.7567832008548914E-01 
    5.7391767072532118E-01 
    5.7557346555674260E-01 
    5.6234953526230069E-01 
    5.6156582064178773E-01 
    5.6028563689500532E-01 
    5.7009884899245844E-01 
    5.6783110782281720E-01 
    5.6992524648520337E-01 
    5.6267449099366040E-01 
    5.5563900360505947E-01 
    5.5785843940700608E-01 
    5.7246122484689710E-01 
    5.5766234776078105E-01 
    5.6534779849452510E-01 
    5.6152356261332037E-01 
    5.7176343041923816E-01 
    5.6755084615277940E-01 
    5.6554517310687435E-01 
    5.7435102433938778E-01 
    5.7268049178460556E-01 
    5.6379842377735956E-01 
    5.6286171525153517E-01 
    5.5988077604840503E-01 
    5.6446628155219225E-01 
    5.7007117466358326E-01 
    5.5613010947074337E-01 
    5.7168053777664407E-01 
    5.7369258390387223E-01 
    5.6364272088689582E-01 
    5.6308252385818847E-01 
    5.5800494694364133E-01 
    5.5550203056757252E-01 
    5.7322865573262971E-01 
    5.6202584322359672E-01 
    5.6860840039821092E-01 
    5.6369600724745794E-01 
    5.6769239303936814E-01 
    5.5889113604353025E-01 
    5.6615733826532499E-01 
    5.7458367744448446E-01 
    5.6146558461653329E-01 
    5.6512728631037912E-01 
    5.5902548042895428E-01 
    5.6487830897053271E-01 
    5.7429816256085142E-01 
    5.6184530161300894E-01 
    5.6857191574109922E-01 
    5.6206348899297509E-01 
    5.5670667944073104E-01 
    5.6830179547821258E-01 
    5.6836009510567786E-01 
    5.6731958896010404E-01 
    5.6188628531486617E-01 
    5.6120391230570832E-01 
    5.5761542020689581E-01 
    5.6730667024420345E-01 
    5.6887943337182001E-01 
    5.6596647644059794E-01 
    5.5839403230316631E-01 
    5.6115415851260964E-01 