# vtk DataFile Version 2.0
Pressure Field Data 
ASCII 
DATASET UNSTRUCTURED_GRID 

POINTS 2213 double 

    0.0000000000000000E+00     0.0000000000000000E+00     0.0000000000000000E+00 
    5.0000000000000000E-01     0.0000000000000000E+00     0.0000000000000000E+00 
    1.0000000000000000E+00     0.0000000000000000E+00     0.0000000000000000E+00 
    1.0000000000000000E+00     5.0000000000000000E-01     0.0000000000000000E+00 
    1.0000000000000000E+00     1.0000000000000000E+00     0.0000000000000000E+00 
    5.0000000000000000E-01     1.0000000000000000E+00     0.0000000000000000E+00 
    0.0000000000000000E+00     1.0000000000000000E+00     0.0000000000000000E+00 
    0.0000000000000000E+00     5.0000000000000000E-01     0.0000000000000000E+00 
    1.5624999999971041E-02     0.0000000000000000E+00     0.0000000000000000E+00 
    3.1249999999936742E-02     0.0000000000000000E+00     0.0000000000000000E+00 
    4.6874999999913257E-02     0.0000000000000000E+00     0.0000000000000000E+00 
    6.2499999999889783E-02     0.0000000000000000E+00     0.0000000000000000E+00 
    7.8124999999844805E-02     0.0000000000000000E+00     0.0000000000000000E+00 
    9.3749999999799827E-02     0.0000000000000000E+00     0.0000000000000000E+00 
    1.0937499999975490E-01     0.0000000000000000E+00     0.0000000000000000E+00 
    1.2499999999970990E-01     0.0000000000000000E+00     0.0000000000000000E+00 
    1.4062499999966460E-01     0.0000000000000000E+00     0.0000000000000000E+00 
    1.5624999999961930E-01     0.0000000000000000E+00     0.0000000000000000E+00 
    1.7187499999957390E-01     0.0000000000000000E+00     0.0000000000000000E+00 
    1.8749999999952860E-01     0.0000000000000000E+00     0.0000000000000000E+00 
    2.0312499999948330E-01     0.0000000000000000E+00     0.0000000000000000E+00 
    2.1874999999943801E-01     0.0000000000000000E+00     0.0000000000000000E+00 
    2.3437499999939271E-01     0.0000000000000000E+00     0.0000000000000000E+00 
    2.4999999999934730E-01     0.0000000000000000E+00     0.0000000000000000E+00 
    2.6562499999938810E-01     0.0000000000000000E+00     0.0000000000000000E+00 
    2.8124999999942890E-01     0.0000000000000000E+00     0.0000000000000000E+00 
    2.9687499999946970E-01     0.0000000000000000E+00     0.0000000000000000E+00 
    3.1249999999951050E-01     0.0000000000000000E+00     0.0000000000000000E+00 
    3.2812499999955130E-01     0.0000000000000000E+00     0.0000000000000000E+00 
    3.4374999999959210E-01     0.0000000000000000E+00     0.0000000000000000E+00 
    3.5937499999963290E-01     0.0000000000000000E+00     0.0000000000000000E+00 
    3.7499999999967371E-01     0.0000000000000000E+00     0.0000000000000000E+00 
    3.9062499999971451E-01     0.0000000000000000E+00     0.0000000000000000E+00 
    4.0624999999975520E-01     0.0000000000000000E+00     0.0000000000000000E+00 
    4.2187499999979600E-01     0.0000000000000000E+00     0.0000000000000000E+00 
    4.3749999999983680E-01     0.0000000000000000E+00     0.0000000000000000E+00 
    4.5312499999987760E-01     0.0000000000000000E+00     0.0000000000000000E+00 
    4.6874999999991840E-01     0.0000000000000000E+00     0.0000000000000000E+00 
    4.8437499999995920E-01     0.0000000000000000E+00     0.0000000000000000E+00 
    5.1562499999992384E-01     0.0000000000000000E+00     0.0000000000000000E+00 
    5.3124999999985478E-01     0.0000000000000000E+00     0.0000000000000000E+00 
    5.4687499999994527E-01     0.0000000000000000E+00     0.0000000000000000E+00 
    5.6249999999998668E-01     0.0000000000000000E+00     0.0000000000000000E+00 
    5.7812499999998068E-01     0.0000000000000000E+00     0.0000000000000000E+00 
    5.9374999999994749E-01     0.0000000000000000E+00     0.0000000000000000E+00 
    6.0937499999997913E-01     0.0000000000000000E+00     0.0000000000000000E+00 
    6.2500000000000000E-01     0.0000000000000000E+00     0.0000000000000000E+00 
    6.4062499999998945E-01     0.0000000000000000E+00     0.0000000000000000E+00 
    6.5624999999996603E-01     0.0000000000000000E+00     0.0000000000000000E+00 
    6.7187499999995337E-01     0.0000000000000000E+00     0.0000000000000000E+00 
    6.8749999999998734E-01     0.0000000000000000E+00     0.0000000000000000E+00 
    7.0312499999998124E-01     0.0000000000000000E+00     0.0000000000000000E+00 
    7.1874999999997025E-01     0.0000000000000000E+00     0.0000000000000000E+00 
    7.3437499999999034E-01     0.0000000000000000E+00     0.0000000000000000E+00 
    7.5000000000000000E-01     0.0000000000000000E+00     0.0000000000000000E+00 
    7.6562499999996902E-01     0.0000000000000000E+00     0.0000000000000000E+00 
    7.8124999999993228E-01     0.0000000000000000E+00     0.0000000000000000E+00 
    7.9687499999989997E-01     0.0000000000000000E+00     0.0000000000000000E+00 
    8.1249999999996247E-01     0.0000000000000000E+00     0.0000000000000000E+00 
    8.2812499999999578E-01     0.0000000000000000E+00     0.0000000000000000E+00 
    8.4374999999999556E-01     0.0000000000000000E+00     0.0000000000000000E+00 
    8.5937500000000111E-01     0.0000000000000000E+00     0.0000000000000000E+00 
    8.7499999999997691E-01     0.0000000000000000E+00     0.0000000000000000E+00 
    8.9062500000000921E-01     0.0000000000000000E+00     0.0000000000000000E+00 
    9.0625000000004452E-01     0.0000000000000000E+00     0.0000000000000000E+00 
    9.2187500000005529E-01     0.0000000000000000E+00     0.0000000000000000E+00 
    9.3750000000012723E-01     0.0000000000000000E+00     0.0000000000000000E+00 
    9.5312500000011835E-01     0.0000000000000000E+00     0.0000000000000000E+00 
    9.6875000000005151E-01     0.0000000000000000E+00     0.0000000000000000E+00 
    9.8437500000003086E-01     0.0000000000000000E+00     0.0000000000000000E+00 
    1.0000000000000000E+00     1.5624999999971041E-02     0.0000000000000000E+00 
    1.0000000000000000E+00     3.1249999999936742E-02     0.0000000000000000E+00 
    1.0000000000000000E+00     4.6874999999913257E-02     0.0000000000000000E+00 
    1.0000000000000000E+00     6.2499999999889783E-02     0.0000000000000000E+00 
    1.0000000000000000E+00     7.8124999999844805E-02     0.0000000000000000E+00 
    1.0000000000000000E+00     9.3749999999799827E-02     0.0000000000000000E+00 
    1.0000000000000000E+00     1.0937499999975490E-01     0.0000000000000000E+00 
    1.0000000000000000E+00     1.2499999999970990E-01     0.0000000000000000E+00 
    1.0000000000000000E+00     1.4062499999966460E-01     0.0000000000000000E+00 
    1.0000000000000000E+00     1.5624999999961930E-01     0.0000000000000000E+00 
    1.0000000000000000E+00     1.7187499999957390E-01     0.0000000000000000E+00 
    1.0000000000000000E+00     1.8749999999952860E-01     0.0000000000000000E+00 
    1.0000000000000000E+00     2.0312499999948330E-01     0.0000000000000000E+00 
    1.0000000000000000E+00     2.1874999999943801E-01     0.0000000000000000E+00 
    1.0000000000000000E+00     2.3437499999939271E-01     0.0000000000000000E+00 
    1.0000000000000000E+00     2.4999999999934730E-01     0.0000000000000000E+00 
    1.0000000000000000E+00     2.6562499999938810E-01     0.0000000000000000E+00 
    1.0000000000000000E+00     2.8124999999942890E-01     0.0000000000000000E+00 
    1.0000000000000000E+00     2.9687499999946970E-01     0.0000000000000000E+00 
    1.0000000000000000E+00     3.1249999999951050E-01     0.0000000000000000E+00 
    1.0000000000000000E+00     3.2812499999955130E-01     0.0000000000000000E+00 
    1.0000000000000000E+00     3.4374999999959210E-01     0.0000000000000000E+00 
    1.0000000000000000E+00     3.5937499999963290E-01     0.0000000000000000E+00 
    1.0000000000000000E+00     3.7499999999967371E-01     0.0000000000000000E+00 
    1.0000000000000000E+00     3.9062499999971451E-01     0.0000000000000000E+00 
    1.0000000000000000E+00     4.0624999999975520E-01     0.0000000000000000E+00 
    1.0000000000000000E+00     4.2187499999979600E-01     0.0000000000000000E+00 
    1.0000000000000000E+00     4.3749999999983680E-01     0.0000000000000000E+00 
    1.0000000000000000E+00     4.5312499999987760E-01     0.0000000000000000E+00 
    1.0000000000000000E+00     4.6874999999991840E-01     0.0000000000000000E+00 
    1.0000000000000000E+00     4.8437499999995920E-01     0.0000000000000000E+00 
    1.0000000000000000E+00     5.1562499999992384E-01     0.0000000000000000E+00 
    1.0000000000000000E+00     5.3124999999985478E-01     0.0000000000000000E+00 
    1.0000000000000000E+00     5.4687499999994527E-01     0.0000000000000000E+00 
    1.0000000000000000E+00     5.6249999999998668E-01     0.0000000000000000E+00 
    1.0000000000000000E+00     5.7812499999998068E-01     0.0000000000000000E+00 
    1.0000000000000000E+00     5.9374999999994749E-01     0.0000000000000000E+00 
    1.0000000000000000E+00     6.0937499999997913E-01     0.0000000000000000E+00 
    1.0000000000000000E+00     6.2500000000000000E-01     0.0000000000000000E+00 
    1.0000000000000000E+00     6.4062499999998945E-01     0.0000000000000000E+00 
    1.0000000000000000E+00     6.5624999999996603E-01     0.0000000000000000E+00 
    1.0000000000000000E+00     6.7187499999995337E-01     0.0000000000000000E+00 
    1.0000000000000000E+00     6.8749999999998734E-01     0.0000000000000000E+00 
    1.0000000000000000E+00     7.0312499999998124E-01     0.0000000000000000E+00 
    1.0000000000000000E+00     7.1874999999997025E-01     0.0000000000000000E+00 
    1.0000000000000000E+00     7.3437499999999034E-01     0.0000000000000000E+00 
    1.0000000000000000E+00     7.5000000000000000E-01     0.0000000000000000E+00 
    1.0000000000000000E+00     7.6562499999996902E-01     0.0000000000000000E+00 
    1.0000000000000000E+00     7.8124999999993228E-01     0.0000000000000000E+00 
    1.0000000000000000E+00     7.9687499999989997E-01     0.0000000000000000E+00 
[...]
CELL_DATA 2084 
SCALARS Pressure double 1 
LOOKUP_TABLE default 

    6.9194831686587310E-01 
    7.2288632696802679E-01 
    9.8879018226854054E-01 
    7.2416127653209583E-01 
    8.8572969306279525E-01 
    8.2966169005273227E-01 
    6.7729156377432986E-01 
    8.0881539723026408E-01 
    8.2154975657200802E-01 
    8.9151269645247100E-01 
    9.8239542234425981E-01 
    6.8532680900903142E-01 
    7.8326506547058128E-01 
    7.4482288186656165E-01 
    6.9053684411722527E-01 
    7.3187302286363487E-01 
    9.3575192689475162E-01 
    7.7022586053301911E-01 
    1.0176111779594326E+00 
    6.9713906704072603E-01 
    6.9703065189847413E-01 
    8.6727137685055522E-01 
    7.2883493326776860E-01 
    7.7755440042582291E-01 
    6.9569297130560048E-01 
    7.9161586051090982E-01 
    7.1847891185730817E-01 
    6.6832070531569987E-01 
    7.9763009490577641E-01 
    7.5519017634905061E-01 
    6.6694860937861722E-01 
    8.1195177187277401E-01 
    6.6200825902975025E-01 
    6.9761770422702540E-01 
    6.8471656251901347E-01 
    8.7754538392019199E-01 
    7.6183521208022298E-01 
    7.5821532812872816E-01 
    8.6262873104272220E-01 
    8.1120742426084091E-01 
    6.7721876528182079E-01 
    8.9797503083967667E-01 
    7.1443657083147483E-01 
    8.4080631461992972E-01 
    8.2798699495094596E-01 
    6.7123800169627579E-01 
    8.9562235590122019E-01 
    6.7475909527259104E-01 
    6.7134715732597672E-01 
    7.9427689545607805E-01 
    7.8747060776629563E-01 
    6.7899349264850140E-01 
    6.9473806451255504E-01 
    7.7208695890235324E-01 
    7.7656025419442043E-01 
    6.8791079498067820E-01 
    6.6072190051275004E-01 
    8.4351176076627865E-01 
    8.5967764987878748E-01 
    7.8169869954090931E-01 
    7.8420023545459994E-01 
    7.2098577107691986E-01 
    6.9217676128476535E-01 
    7.3830422892455794E-01 
    8.9467696887121384E-01 
    7.7733597388347919E-01 
    8.2035505450252844E-01 
    6.8096585937096576E-01 
    6.6593682215174943E-01 
    6.6325175273765991E-01 
    7.1052695461328719E-01 
    1.0496441303239992E+00 
    7.9112080773500226E-01 
    9.6333877335441653E-01 
    8.5353936489646909E-01 
    9.5869135450350951E-01 
    7.8371519656533695E-01 
    8.8519090805982170E-01 
    6.9398443278617317E-01 
    9.0602835952188854E-01 
    7.2705717983821128E-01 
    8.1251894064630092E-01 
    8.4124019615704015E-01 
    6.6311520208782970E-01 
    8.2448141518568785E-01 
    7.2290701978359895E-01 
    7.6185922104826931E-01 
    8.2978441248269430E-01 
    8.5781711351640821E-01 
    8.4519649418009402E-01 
    8.1909755456560962E-01 
    8.1776118078674720E-01 
    7.0313483919609621E-01 
    8.4151037268692874E-01 
    7.6968829963934893E-01 
    6.6596428532681806E-01 
    7.4806503089211029E-01 
    7.9938231211821997E-01 
    8.7387856916936979E-01 
    7.5433242037161996E-01 
    8.9082171576475433E-01 
    8.3701002214181552E-01 
    8.5947350783251897E-01 
    8.6577945923723321E-01 
    7.6962873913834196E-01 
    8.3930276224251610E-01 
    8.0174760417236079E-01 
    8.7708674315007218E-01 
    7.0862157770639622E-01 
    1.0826999103161938E+00 
    7.3115770311768469E-01 
    7.9494233423252847E-01 
    8.3979052060205039E-01 
    9.1125364542970388E-01 
    9.7417748550859740E-01 
    7.4138878085699222E-01 
    8.4072239140360183E-01 
    8.3740220329107518E-01 
    7.5623260166930184E-01 
    6.7957443164493592E-01 
    7.7398130065629245E-01 
    8.5747521619408107E-01 
    6.8072627098355432E-01 
    9.4333476675641936E-01 
    8.0502214263762506E-01 
    8.6000362892916160E-01 
    7.8068160524918873E-01 
    6.7981742152121971E-01 
    7.6049202938065963E-01 
    7.2414035853913683E-01 
    9.6926463779272432E-01 
    9.8370701432990881E-01 
    6.6864885678867980E-01 
    8.9346200592973379E-01 
    8.7509922443010568E-01 
    7.8297000216526802E-01 
    8.5258243595891137E-01 
    6.7901384057278447E-01 
    8.7383160503079105E-01 
    9.5058501478552282E-01 
    8.2170956504334647E-01 
    9.9969559965991295E-01 
    9.6181668200434689E-01 
    8.0259564116316051E-01 
    7.3978658554741328E-01 
    7.9050995516027178E-01 
    8.4008948769276115E-01 
    8.7001301986257595E-01 
    7.7014109845657075E-01 
    8.2237093336810085E-01 
    8.3115764244288737E-01 
    9.5129550439460830E-01 
    1.0353506593136326E+00 
    7.6447322407371909E-01 
    7.6931626806198838E-01 
    1.0172559964800132E+00 
    7.2534495361674500E-01 
    8.3813968752967150E-01 
    7.6049827522338742E-01 
    9.4348892248865246E-01 
    1.1643404901642118E+00 
    1.1026139881765655E+00 
    1.0398702074181043E+00 
    1.0609051981860924E+00 
    1.0093010073736968E+00 
    1.0262853397367444E+00 
    8.3834399635118528E-01 
    1.0762870673716616E+00 
    8.2354642118493271E-01 
    1.0187160090748497E+00 
    8.2291035235533783E-01 
    9.3474514373678597E-01 
    9.5845524518373004E-01 
    8.7817993425708074E-01 
    9.2585519450605946E-01 
    7.4894073475699108E-01 
    9.2973924679899755E-01 
    8.0955459297027499E-01 
    8.1949444982299191E-01 
    8.1813471544825889E-01 
    8.5448154530708376E-01 
    7.3385803081330703E-01 
    9.3660773908850059E-01 
    8.5838569880626769E-01 
    8.5537689946646223E-01 
    6.5735377299673159E-01 
    8.8546997084833223E-01 
    9.6482088562867463E-01 
    7.4170890883536733E-01 
    9.1316397568459617E-01 
    9.8162810092165897E-01 
    1.0071792925107725E+00 
    8.5673302382820637E-01 
    7.7476723153659977E-01 
    7.4067500486711058E-01 
    7.4561607041048983E-01 
    8.9768308275172770E-01 
    8.4715456532638655E-01 
    7.7161912642202479E-01 
    9.0031004787386915E-01 
    8.1326025614548381E-01 
    7.4996537309156563E-01 
    8.5788042700844813E-01 
    6.9886805113459471E-01 
    7.5195902987114649E-01 
    9.8553540619517266E-01 
    8.9417431382212731E-01 
    7.4844282255156558E-01 
    9.2368411187530663E-01 
    9.1451512507868149E-01 
    7.7251299392310546E-01 
    8.0231419510111079E-01 
    8.0467970331708405E-01 
    8.8381603136406972E-01 
    8.7951773944360845E-01 
    9.5690752677300128E-01 
    7.9699608921479026E-01 
    8.7707522951383610E-01 
    8.9593011089961050E-01 
    7.7009327459651888E-01 
    7.8486047763117017E-01 
    6.5596391716504343E-01 
    7.7089137762248883E-01 
    9.9650190306862663E-01 
    8.4622175993595938E-01 
    8.7613518320645090E-01 
    8.1205324018621317E-01 
    8.7452890511603520E-01 
    7.5198823824895134E-01 
    7.4395739644900272E-01 
    7.1265674577660798E-01 
    7.5194951596594550E-01 
    7.1546822299388801E-01 
    7.8659391467651885E-01 
    8.6138651055443749E-01 
    7.3066141681030650E-01 
    9.1673688644128659E-01 
    9.2158628099409601E-01 
    7.8012123564884861E-01 
    7.2564087459288895E-01 
    8.5902857941448485E-01 
    7.6740528178868161E-01 
    6.8618423543028007E-01 
    7.5237951336807851E-01 
    6.7739252717000664E-01 
    7.0821137404834700E-01 
    7.6474049268532351E-01 
    8.4348807233693235E-01 
    9.3982112636095261E-01 
    6.9561361094722451E-01 
    7.5128853473466795E-01 
    7.2759548303089439E-01 
    7.5183655483975698E-01 
    1.0485034390321479E+00 
    6.9646950324805834E-01 
    8.0970649920646920E-01 
    7.1650807136089112E-01 
    7.8259463381422001E-01 
    7.3325898675317569E-01 
    7.8686998701155297E-01 
    7.0175237690085701E-01 
    7.8804134137230752E-01 
    7.3458871627674227E-01 
    7.9392018799480379E-01 
    7.4014271921911123E-01 
    7.3066263417145094E-01 
    6.9384339032888764E-01 
    7.1337420179652233E-01 
    9.1647339646347514E-01 
    6.6912223643140467E-01 
    6.8560777836115638E-01 
    7.5641292831464246E-01 
    7.1664538792240162E-01 
    1.1192221764524635E+00 
    7.4298809330875504E-01 
    8.7848508266905290E-01 
    7.3480513028040317E-01 
    6.8372589841507669E-01 
    7.6922386748550919E-01 
    7.1145288816429053E-01 
    7.9835904670572433E-01 
    7.4169566961769318E-01 
    7.4443602192296510E-01 
    7.5034969367697857E-01 
    6.7825320930093236E-01 
    7.4342327608601855E-01 
    7.2889761694944699E-01 
    6.8270238460538679E-01 
    7.2870873404514835E-01 
    7.3181148803520146E-01 
    7.4768312091218503E-01 
    6.7665923439559095E-01 
    7.0332814717923342E-01 
    7.3528473561888286E-01 
    7.8778858601467860E-01 
    7.1600870677975892E-01 
    6.9535835766317877E-01 
    8.9416961799215822E-01 
    7.2077544066929622E-01 
    8.2725715831154090E-01 
    1.1194945330088577E+00 
    9.0822173816706675E-01 
    8.2631200764603985E-01 
    9.3517553436876966E-01 
    7.3051771578108782E-01 
    7.2851025688186299E-01 
    6.9791646482809966E-01 
    7.0462892385003995E-01 
    7.1011425296957376E-01 
    6.7323058787587586E-01 
    9.4127165409095626E-01 
    6.7501857698732970E-01 
    7.7975155813586050E-01 
    9.1663119144167904E-01 
    7.8640869927870372E-01 
    7.1889232365538347E-01 
    8.6928400100688963E-01 
    6.9485566115642539E-01 
    6.9944624898781194E-01 
    7.0059115211880041E-01 
    1.0865007104016511E+00 
    8.4262408306535297E-01 
    9.2779781790441518E-01 
    9.3319135928564256E-01 
    7.9922595251523909E-01 
    8.9701557373685903E-01 
    6.9681631280995260E-01 
    6.5120870630174132E-01 
    1.2641262850930024E+00 
    6.6920752152452612E-01 
    6.8577501907814264E-01 
    6.8904314740001460E-01 
    8.2923022383696821E-01 
    9.1279027340100594E-01 
    6.5121770958582159E-01 
    9.7642367889707082E-01 
    1.0010325149450712E+00 
    8.0051524650934003E-01 
    7.4248476751582748E-01 
    9.6240457179477124E-01 
    8.0556753851107477E-01 
    7.0002053894889316E-01 
    9.2558449406762688E-01 
    6.7704065436336036E-01 
    6.7965638730275846E-01 
    8.2497460800341160E-01 
    7.5487998194629857E-01 
    6.5464202049207243E-01 
    7.3329673303804821E-01 
    6.6396422584396020E-01 
    9.5061228155047950E-01 
    6.6969387569600813E-01 
    7.1563131334689722E-01 
    9.1013415449789992E-01 
    7.3399631121232811E-01 
    8.0452860058280462E-01 
    6.7120071824737226E-01 
    7.7100731149379953E-01 
    7.9167858265511992E-01 
    6.9951231637885536E-01 
    7.5663730711571076E-01 
    9.1850472724898968E-01 
    6.6388823779838346E-01 
    7.5206906273787311E-01 
    6.8001889780388425E-01 
    7.0706558276290887E-01 
    7.5990872240885765E-01 
    6.7662267796284359E-01 
    7.6420374923200118E-01 
    9.3673627481619937E-01 
    9.5255970218741892E-01 
    6.6409076140153367E-01 
    1.1307561955550807E+00 
    7.7215743005136928E-01 
    7.1668490842578836E-01 
    9.8694402748232557E-01 
    8.0969896763640148E-01 
    8.3917203822179620E-01 
    7.0291060536997430E-01 
    7.0792180920173242E-01 
    8.6340569562254821E-01 
    8.1015863499835683E-01 
    6.5784441464118071E-01 
    7.0974822828086603E-01 
    1.0174387370042115E+00 
    7.9456541837202799E-01 
    9.0190762590813400E-01 
    8.2686313402725620E-01 
    9.2145151704028194E-01 
    8.6304453895485189E-01 
    6.5842877393478538E-01 
    6.8722502665099827E-01 
    7.2257940127139197E-01 
    9.5444404337137090E-01 
    9.0206551893892617E-01 
    7.1434600454170816E-01 
    7.1018380292746264E-01 
    7.1626490515830210E-01 
    7.1376944640196305E-01 
    8.7999927313591331E-01 
    6.7756672704171750E-01 
    8.3664507245961495E-01 
    1.0613752723714047E+00 
    7.0231233577256336E-01 
    1.0230344567308547E+00 
    7.6822767534093028E-01 
    1.0395048607476769E+00 
    9.1279215494799870E-01 
    1.1767257886485241E+00 
    7.0025639759609981E-01 
    8.9700917179998119E-01 
    7.9344197898858904E-01 
    6.7297729752848701E-01 
    9.3243483701988683E-01 
    7.8232200016631270E-01 
    9.4413001667762764E-01 
    6.7500671991981465E-01 
    9.0304254827440389E-01 
    7.5305389868915495E-01 
    8.1529379265857982E-01 
    6.6005720913228427E-01 
    6.7619822127090090E-01 
    6.7042862916089663E-01 
    9.8032183225402270E-01 
    7.0203028754837704E-01 
    1.0517268510338507E+00 
    9.9886288050583993E-01 
    7.1278152043804310E-01 
    7.6738535543186193E-01 
    7.2404454356918124E-01 
    6.6922144964525987E-01 
    7.6083346520927986E-01 
    9.2006849467826690E-01 
    7.2088881869313615E-01 
    6.7832791183127272E-01 
    1.0813323556146457E+00 
    8.8026720508406242E-01 
    6.5244499694629832E-01 
    6.5238706631830967E-01 
    6.8634317537301870E-01 
    6.9387272246349141E-01 
    6.7498884134205128E-01 
    6.6250922541532453E-01 
    7.1755141253502008E-01 
    6.9829745768693208E-01 
    6.4845246349261509E-01 
    6.4785476126273411E-01 
    6.4159236021708732E-01 
    6.2937083498711366E-01 
    6.2964854974482931E-01 
    6.3602005693401298E-01 
    6.3376701612859188E-01 
    6.3581455395077169E-01 
    6.4406839560757845E-01 
    6.2562845163699710E-01 
    6.4372669670359461E-01 
    6.2811803650360420E-01 
    6.3865596835108296E-01 
    6.3258755421423507E-01 
    6.3393655265598214E-01 
    6.3422457888331341E-01 
    6.2759694170668068E-01 
    6.5542550462890059E-01 
    6.4685825328653890E-01 
    6.5523337601423648E-01 
    6.4318756703700974E-01 
    6.3889649515087610E-01 
    6.3106266443735992E-01 
    6.2606957999450452E-01 
    6.5808864042148563E-01 
    6.4261911088661983E-01 
    6.2548033577602036E-01 
    6.3327270438677130E-01 
    6.4614851919384175E-01 
    6.4668874167461188E-01 
    6.2290358837972615E-01 
    6.2554375197737488E-01 
    6.4209735899397080E-01 
    6.5047955635504229E-01 
    6.4706993129561485E-01 
    6.3554358750397166E-01 
    6.3030785030780279E-01 
    6.5832638223895712E-01 
    6.5628426636941883E-01 
    6.4685990747660460E-01 
    6.6402361864467807E-01 
    6.3024043136664865E-01 
    6.3272945697766847E-01 
    6.3166429010433500E-01 
    6.5379328069156251E-01 
    6.3282257344130366E-01 
    6.5030234513117824E-01 
    6.4020717098667979E-01 
    6.4060363736859072E-01 
    6.4309364215447828E-01 
    6.3735790487041077E-01 
    6.5404057893543233E-01 
    6.5528153080565865E-01 
    6.3876192454386593E-01 
    6.2895920017477203E-01 
    6.3735165792874338E-01 
    6.3687567234994358E-01 
    6.2519350610612912E-01 
    6.4482930850891729E-01 
    6.2579115491077020E-01 
    6.5456194915439392E-01 
    6.2740649085847022E-01 
    6.4222354486562538E-01 
    6.3137713133348949E-01 
    6.2262659262331865E-01 
    6.2217921868814952E-01 
    6.2329861888559024E-01 
    6.2726994637744726E-01 
    6.3704488772891954E-01 
    6.2655760970779173E-01 
    6.3039504068593022E-01 
    6.3335837363671332E-01 
    6.6181956394487673E-01 
    6.3886134714544696E-01 
    6.2693820077911733E-01 
    6.5498457796387632E-01 
    6.3417585993756709E-01 
    6.3358480939527873E-01 
    6.4626943305253359E-01 
    6.6080141477817200E-01 
    6.4387632714658305E-01 
    6.4379539666187879E-01 
    6.3866804594423643E-01 
    6.4178399084259130E-01 
    6.5176594430612356E-01 
    6.5232082528671631E-01 
    6.5103587631625492E-01 
    6.5324604973956657E-01 
    6.4155946363687322E-01 
    6.4779584011995472E-01 
    6.4839545064801296E-01 
    6.4290876279245446E-01 
    6.4470571413722710E-01 
    6.5922872057099635E-01 
    6.5211410714914864E-01 
    6.5492481351640985E-01 
    6.6002768840516757E-01 
    6.3410526870680339E-01 
    6.3191588125480391E-01 
    6.4477990520957340E-01 
    6.5552884000632872E-01 
    6.6119577876141589E-01 
    6.5528839764853619E-01 
    6.2276820187310233E-01 
    6.3052468083352098E-01 
    6.4166330303600794E-01 
    6.3587547817571288E-01 
    6.3077505068495388E-01 
    6.5260529525049205E-01 
    6.4505095260111778E-01 
    6.2659908525951435E-01 
    6.4961961618809694E-01 
    6.2954595743143138E-01 
    6.3158941326358720E-01 
    6.3058840284244777E-01 
    6.4245395168816777E-01 
    6.5377804068703682E-01 
    6.5787711901651025E-01 
    6.4614910718411778E-01 
    6.5769917443311132E-01 
    6.2834562148212225E-01 
    6.2869336723909619E-01 
    6.5723949804141579E-01 
    6.5216560403893620E-01 
    6.2241074208074465E-01 
    6.2288031736897220E-01 
    6.5860135861162883E-01 
    6.4026674166655273E-01 
    6.5141671691703040E-01 
    6.4479468938695228E-01 
    6.3408311674615014E-01 
    6.4441404394455881E-01 
    6.4592586576222055E-01 
    6.4120122857795525E-01 
    6.3877864696060660E-01 
    6.3864959449420688E-01 
    6.2840450659999814E-01 
    6.5704770980565952E-01 
    6.6397943774876256E-01 
    6.2851992464009165E-01 
    6.2873985181265812E-01 
    6.2727307764011464E-01 
    6.2794688695655598E-01 
    6.2381727941476584E-01 
    6.5098508526461596E-01 
    6.3554307958148082E-01 
    6.2483046570124379E-01 
    6.4443714105213878E-01 
    6.4842346578748433E-01 
    6.3846143171760150E-01 
    6.3640641851224511E-01 
    6.3452381989916795E-01 
    6.3925750111112523E-01 
    6.5464918245414516E-01 
    6.2873199586493733E-01 
    6.2802598533911547E-01 
    6.3023764951156069E-01 
    6.3884593948230051E-01 
    6.5405386361992068E-01 
    6.3182369655965553E-01 
    6.5587644622257280E-01 
    6.2452559507390493E-01 
    6.3931157487035828E-01 
    6.2191651128884584E-01 
    6.2231877245168410E-01 
    6.2524838326203913E-01 
    6.5673063131962039E-01 
    6.4583226457513732E-01 
    6.3675280226574871E-01 
    6.4112484988496987E-01 
    6.4875494162783831E-01 
    6.2360976098343668E-01 
    6.3554205151128607E-01 
    6.4271179144952306E-01 
    6.5830672712780591E-01 
    6.5013521130336893E-01 
    6.5227598020045108E-01 
    6.5774878425299821E-01 
    6.5941254172708008E-01 
    6.4118585102858539E-01 
    6.3324442129191827E-01 
    6.4910760861615513E-01 
    6.4933243477790936E-01 
    6.3885860704708297E-01 
    6.2413097390651429E-01 
    6.4927438897610468E-01 
    6.5226412072097051E-01 
    6.5413011218311246E-01 
    6.5175095729989430E-01 
    6.2318671738903453E-01 
    6.5092604955068112E-01 
    6.4999712259529718E-01 
    6.2436861271814803E-01 
    6.3165282487989183E-01 
    6.4434147853459300E-01 
    6.5089535102188611E-01 
    6.4946641340472822E-01 
    6.4571309890751771E-01 
    6.4722345050628005E-01 
    6.5255063540012626E-01 
    6.4796851992466231E-01 
    6.4891053563763657E-01 
    6.4111678322770782E-01 
    6.4503913861365947E-01 
    6.2590520085160928E-01 
    6.5927034361928882E-01 
    6.5710897398538393E-01 
    6.5973227866339701E-01 
    6.3432612300940594E-01 
    6.3266519552338274E-01 
    6.3276487734697595E-01 
    6.4945076375768251E-01 
    6.4669893938692613E-01 
    6.4895855324346896E-01 
    6.3599939030344377E-01 
    6.2441227987010328E-01 
    6.2735571649442057E-01 
    6.5428488531385798E-01 
    6.2721277077682769E-01 
    6.3935334648436970E-01 
    6.3645791677508112E-01 
    6.5251431285982875E-01 
    6.4503340986047808E-01 
    6.4154560070720856E-01 
    6.5678783152634956E-01 
    6.5376890991609427E-01 
    6.3633699628429363E-01 
    6.3466927711596499E-01 
    6.3031131724005662E-01 
    6.3767635032504588E-01 
    6.4893104155398107E-01 
    6.2555486271118554E-01 
    6.5203590202520967E-01 
    6.5550690362259800E-01 
    6.3612241853660245E-01 
    6.3500544584385343E-01 
    6.2748694223065615E-01 
    6.2434781498573633E-01 
    6.5481754249465418E-01 
    6.3559722193291757E-01 
    6.4886988974027360E-01 
    6.3723451057160085E-01 
    6.4382132152917748E-01 
    6.2778812481888691E-01 
    6.4158316720480812E-01 
    6.5785207880360064E-01 
    6.3509795634331156E-01 
    6.4308872136983275E-01 
    6.2903643397639675E-01 
    6.3887375157270654E-01 
    6.5703981968169101E-01 
    6.3506885606392482E-01 
    6.4868838734730805E-01 
    6.3321874395293842E-01 
    6.2496058413677358E-01 
    6.4488133009182169E-01 
    6.4533414217816099E-01 
    6.4319522840424048E-01 
    6.3285920046358990E-01 
    6.3269030970683804E-01 
    6.2607214161237967E-01 
    6.4358015966852644E-01 
    6.4641980760905549E-01 
    6.4148215962996069E-01 
    6.2967565384005131E-01 
    6.3156904291848948E-01 