# vtk DataFile Version 2.0
Pressure Field Data 
ASCII 
DATASET UNSTRUCTURED_GRID 

POINTS 2213 double 

    0.0000000000000000E+00     0.0000000000000000E+00     0.0000000000000000E+00 
    5.0000000000000000E-01     0.0000000000000000E+00     0.0000000000000000E+00 
    1.0000000000000000E+00     0.0000000000000000E+00     0.0000000000000000E+00 
    1.0000000000000000E+00     5.0000000000000000E-01     0.0000000000000000E+00 
    1.0000000000000000E+00     1.0000000000000000E+00     0.0000000000000000E+00 
    5.0000000000000000E-01     1.0000000000000000E+00     0.0000000000000000E+00 
    0.0000000000000000E+00     1.0000000000000000E+00     0.0000000000000000E+00 
    0.0000000000000000E+00     5.0000000000000000E-01     0.0000000000000000E+00 
    1.5624999999971041E-02     0.0000000000000000E+00     0.0000000000000000E+00 
    3.1249999999936742E-02     0.0000000000000000E+00     0.0000000000000000E+00 
    4.6874999999913257E-02     0.0000000000000000E+00     0.0000000000000000E+00 
    6.2499999999889783E-02     0.0000000000000000E+00     0.0000000000000000E+00 
    7.8124999999844805E-02     0.0000000000000000E+00     0.0000000000000000E+00 
    9.3749999999799827E-02     0.0000000000000000E+00     0.0000000000000000E+00 
    1.0937499999975490E-01     0.0000000000000000E+00     0.0000000000000000E+00 
    1.2499999999970990E-01     0.0000000000000000E+00     0.0000000000000000E+00 
    1.4062499999966460E-01     0.0000000000000000E+00     0.0000000000000000E+00 
    1.5624999999961930E-01     0.0000000000000000E+00     0.0000000000000000E+00 
    1.7187499999957390E-01     0.0000000000000000E+00     0.0000000000000000E+00 
    1.8749999999952860E-01     0.0000000000000000E+00     0.0000000000000000E+00 
    2.0312499999948330E-01     0.0000000000000000E+00     0.0000000000000000E+00 
    2.1874999999943801E-01     0.0000000000000000E+00     0.0000000000000000E+00 
    2.3437499999939271E-01     0.0000000000000000E+00     0.0000000000000000E+00 
    2.4999999999934730E-01     0.0000000000000000E+00     0.0000000000000000E+00 
    2.6562499999938810E-01     0.0000000000000000E+00     0.0000000000000000E+00 
    2.8124999999942890E-01     0.0000000000000000E+00     0.0000000000000000E+00 
    2.9687499999946970E-01     0.0000000000000000E+00     0.0000000000000000E+00 
    3.1249999999951050E-01     0.0000000000000000E+00     0.0000000000000000E+00 
    3.2812499999955130E-01     0.0000000000000000E+00     0.0000000000000000E+00 
    3.4374999999959210E-01     0.0000000000000000E+00     0.0000000000000000E+00 
    3.5937499999963290E-01     0.0000000000000000E+00     0.0000000000000000E+00 
    3.7499999999967371E-01     0.0000000000000000E+00     0.0000000000000000E+00 
    3.9062499999971451E-01     0.0000000000000000E+00     0.0000000000000000E+00 
    4.0624999999975520E-01     0.0000000000000000E+00     0.0000000000000000E+00 
    4.2187499999979600E-01     0.0000000000000000E+00     0.0000000000000000E+00 
    4.3749999999983680E-01     0.0000000000000000E+00     0.0000000000000000E+00 
    4.5312499999987760E-01     0.0000000000000000E+00     0.0000000000000000E+00 
    4.6874999999991840E-01     0.0000000000000000E+00     0.0000000000000000E+00 
    4.8437499999995920E-01     0.0000000000000000E+00     0.0000000000000000E+00 
    5.1562499999992384E-01     0.0000000000000000E+00     0.0000000000000000E+00 
    5.3124999999985478E-01     0.0000000000000000E+00     0.0000000000000000E+00 
    5.4687499999994527E-01     0.0000000000000000E+00     0.0000000000000000E+00 
    5.6249999999998668E-01     0.0000000000000000E+00     0.0000000000000000E+00 
    5.7812499999998068E-01     0.0000000000000000E+00     0.0000000000000000E+00 
    5.9374999999994749E-01     0.0000000000000000E+00     0.0000000000000000E+00 
    6.0937499999997913E-01     0.0000000000000000E+00     0.0000000000000000E+00 
    6.2500000000000000E-01     0.0000000000000000E+00     0.0000000000000000E+00 
    6.4062499999998945E-01     0.0000000000000000E+00     0.0000000000000000E+00 
    6.5624999999996603E-01     0.0000000000000000E+00     0.0000000000000000E+00 
    6.7187499999995337E-01     0.0000000000000000E+00     0.0000000000000000E+00 
    6.8749999999998734E-01     0.0000000000000000E+00     0.0000000000000000E+00 
    7.0312499999998124E-01     0.0000000000000000E+00     0.0000000000000000E+00 
    7.1874999999997025E-01     0.0000000000000000E+00     0.0000000000000000E+00 
    7.3437499999999034E-01     0.0000000000000000E+00     0.0000000000000000E+00 
    7.5000000000000000E-01     0.0000000000000000E+00     0.0000000000000000E+00 
    7.6562499999996902E-01     0.0000000000000000E+00     0.0000000000000000E+00 
    7.8124999999993228E-01     0.0000000000000000E+00     0.0000000000000000E+00 
    7.9687499999989997E-01     0.0000000000000000E+00     0.0000000000000000E+00 
    8.1249999999996247E-01     0.0000000000000000E+00     0.0000000000000000E+00 
    8.2812499999999578E-01     0.0000000000000000E+00     0.0000000000000000E+00 
    8.4374999999999556E-01     0.0000000000000000E+00     0.0000000000000000E+00 
    8.5937500000000111E-01     0.0000000000000000E+00     0.0000000000000000E+00 
    8.7499999999997691E-01     0.0000000000000000E+00     0.0000000000000000E+00 
    8.9062500000000921E-01     0.0000000000000000E+00     0.0000000000000000E+00 
    9.0625000000004452E-01     0.0000000000000000E+00     0.0000000000000000E+00 
    9.2187500000005529E-01     0.0000000000000000E+00     0.0000000000000000E+00 
    9.3750000000012723E-01     0.0000000000000000E+00     0.0000000000000000E+00 
    9.5312500000011835E-01     0.0000000000000000E+00     0.0000000000000000E+00 
    9.6875000000005151E-01     0.0000000000000000E+00     0.0000000000000000E+00 
    9.8437500000003086E-01     0.0000000000000000E+00     0.0000000000000000E+00 
    1.0000000000000000E+00     1.5624999999971041E-02     0.0000000000000000E+00 
    1.0000000000000000E+00     3.1249999999936742E-02     0.0000000000000000E+00 
    1.0000000000000000E+00     4.6874999999913257E-02     0.0000000000000000E+00 
    1.0000000000000000E+00     6.2499999999889783E-02     0.0000000000000000E+00 
    1.0000000000000000E+00     7.8124999999844805E-02     0.0000000000000000E+00 
    1.0000000000000000E+00     9.3749999999799827E-02     0.0000000000000000E+00 
    1.0000000000000000E+00     1.0937499999975490E-01     0.0000000000000000E+00 
    1.0000000000000000E+00     1.2499999999970990E-01     0.0000000000000000E+00 
    1.0000000000000000E+00     1.4062499999966460E-01     0.0000000000000000E+00 
    1.0000000000000000E+00     1.5624999999961930E-01     0.0000000000000000E+00 
    1.0000000000000000E+00     1.7187499999957390E-01     0.0000000000000000E+00 
    1.0000000000000000E+00     1.8749999999952860E-01     0.0000000000000000E+00 
    1.0000000000000000E+00     2.0312499999948330E-01     0.0000000000000000E+00 
    1.0000000000000000E+00     2.1874999999943801E-01     0.0000000000000000E+00 
    1.0000000000000000E+00     2.3437499999939271E-01     0.0000000000000000E+00 
    1.0000000000000000E+00     2.4999999999934730E-01     0.0000000000000000E+00 
    1.0000000000000000E+00     2.6562499999938810E-01     0.0000000000000000E+00 
    1.0000000000000000E+00     2.8124999999942890E-01     0.0000000000000000E+00 
    1.0000000000000000E+00     2.9687499999946970E-01     0.0000000000000000E+00 
    1.0000000000000000E+00     3.1249999999951050E-01     0.0000000000000000E+00 
    1.0000000000000000E+00     3.2812499999955130E-01     0.0000000000000000E+00 
    1.0000000000000000E+00     3.4374999999959210E-01     0.0000000000000000E+00 
    1.0000000000000000E+00     3.5937499999963290E-01     0.0000000000000000E+00 
    1.0000000000000000E+00     3.7499999999967371E-01     0.0000000000000000E+00 
    1.0000000000000000E+00     3.9062499999971451E-01     0.0000000000000000E+00 
    1.0000000000000000E+00     4.0624999999975520E-01     0.0000000000000000E+00 
    1.0000000000000000E+00     4.2187499999979600E-01     0.0000000000000000E+00 
    1.0000000000000000E+00     4.3749999999983680E-01     0.0000000000000000E+00 
    1.0000000000000000E+00     4.5312499999987760E-01     0.0000000000000000E+00 
    1.0000000000000000E+00     4.6874999999991840E-01     0.0000000000000000E+00 
    1.0000000000000000E+00     4.8437499999995920E-01     0.0000000000000000E+00 
    1.0000000000000000E+00     5.1562499999992384E-01     0.0000000000000000E+00 
    1.0000000000000000E+00     5.3124999999985478E-01     0.0000000000000000E+00 
    1.0000000000000000E+00     5.4687499999994527E-01     0.0000000000000000E+00 
    1.0000000000000000E+00     5.6249999999998668E-01     0.0000000000000000E+00 
    1.0000000000000000E+00     5.7812499999998068E-01     0.0000000000000000E+00 
    1.0000000000000000E+00     5.9374999999994749E-01     0.0000000000000000E+00 
    1.0000000000000000E+00     6.0937499999997913E-01     0.0000000000000000E+00 
    1.0000000000000000E+00     6.2500000000000000E-01     0.0000000000000000E+00 
    1.0000000000000000E+00     6.4062499999998945E-01     0.0000000000000000E+00 
    1.0000000000000000E+00     6.5624999999996603E-01     0.0000000000000000E+00 
    1.0000000000000000E+00     6.7187499999995337E-01     0.0000000000000000E+00 
    1.0000000000000000E+00     6.8749999999998734E-01     0.0000000000000000E+00 
    1.0000000000000000E+00     7.0312499999998124E-01     0.0000000000000000E+00 
    1.0000000000000000E+00     7.1874999999997025E-01     0.0000000000000000E+00 
    1.0000000000000000E+00     7.3437499999999034E-01     0.0000000000000000E+00 
    1.0000000000000000E+00     7.5000000000000000E-01     0.0000000000000000E+00 
    1.0000000000000000E+00     7.6562499999996902E-01     0.0000000000000000E+00 
    1.0000000000000000E+00     7.8124999999993228E-01     0.0000000000000000E+00 
    1.0000000000000000E+00     7.9687499999989997E-01     0.0000000000000000E+00 
[...]
CELL_DATA 2084 
SCALARS Pressure double 1 
LOOKUP_TABLE default 

    7.1938630549010973E-01 
    7.8339421803052545E-01 
    1.5630026610612446E+00 
    7.8587090532067594E-01 
    1.1923568618513465E+00 
    1.0245928732479048E+00 
    6.9235795009455947E-01 
    9.6943946599331809E-01 
    1.0039651702511208E+00 
    1.2104993184091128E+00 
    1.5364120706894404E+00 
    7.0311660219348271E-01 
    9.1539548409631044E-01 
    8.1591845532315521E-01 
    7.1416725914937595E-01 
    7.8818515026652902E-01 
    1.3587652330532278E+00 
    8.7383898320309472E-01 
    1.6840903428117984E+00 
    7.2797642078136604E-01 
    7.3135465009400635E-01 
    1.1326476440687050E+00 
    7.8234611726218439E-01 
    9.0134882801834226E-01 
    7.2385909100804346E-01 
    9.2494659867769391E-01 
    7.7181786193718604E-01 
    6.7631837461396738E-01 
    9.4298000121274494E-01 
    8.4194228501528678E-01 
    6.7587998625052104E-01 
    9.7748390586751388E-01 
    6.6584572852576029E-01 
    7.3074999635122284E-01 
    7.0425551449118429E-01 
    1.1677030228103114E+00 
    8.5548811267127767E-01 
    8.4576139348150670E-01 
    1.1226666733855690E+00 
    9.7679824131967541E-01 
    6.9268088312936527E-01 
    1.2304378769235007E+00 
    7.5857574667696259E-01 
    1.0555826833006523E+00 
    1.0205548340360153E+00 
    6.8321782027985478E-01 
    1.2235853602867597E+00 
    6.8367302012376441E-01 
    6.8298523794544341E-01 
    9.3382126990989689E-01 
    9.1928021366059243E-01 
    6.8974227917995168E-01 
    7.1594717121145057E-01 
    8.8001702756365519E-01 
    8.8823365906662965E-01 
    7.0517903635425727E-01 
    6.6458064834550157E-01 
    1.0682504402538038E+00 
    1.1150663119650064E+00 
    9.0379416735623452E-01 
    9.0844730875043844E-01 
    7.6655734949740328E-01 
    7.1781042274620754E-01 
    8.0564382268544588E-01 
    1.2188905946467490E+00 
    8.9257983481667180E-01 
    1.0030924129010328E+00 
    6.9873793197816580E-01 
    6.7225054847917276E-01 
    6.7039978502312214E-01 
    7.5108920648816990E-01 
    1.8259631636509870E+00 
    9.2513367959741655E-01 
    1.4616049271158964E+00 
    1.0979082650905398E+00 
    1.4469324117630629E+00 
    9.0823070882795076E-01 
    1.1877253433531290E+00 
    7.1450544608013156E-01 
    1.2565514807138474E+00 
    7.8001373646221217E-01 
    9.7907648400358860E-01 
    1.0635697193177276E+00 
    6.6801457635610606E-01 
    1.0163384339644335E+00 
    7.7452144251627908E-01 
    8.5830441453406636E-01 
    1.0282907129348926E+00 
    1.1058569623379333E+00 
    1.0706584486894026E+00 
    1.0009935189372980E+00 
    9.9495316619068153E-01 
    7.4375607885158090E-01 
    1.0633546480345712E+00 
    8.7445467742900296E-01 
    6.7474265605045369E-01 
    8.2560060369289900E-01 
    9.4759292397976158E-01 
    1.1544830293051955E+00 
    8.3991398688365926E-01 
    1.2072389360236324E+00 
    1.0517192275971621E+00 
    1.1148773846114781E+00 
    1.1285732058128595E+00 
    8.7427467000421866E-01 
    1.0585793791533149E+00 
    9.5706134503327644E-01 
    1.1634114977039298E+00 
    7.4188971198711329E-01 
    1.9862077348221197E+00 
    7.8999437390437055E-01 
    9.3884001737291389E-01 
    1.0539092465403295E+00 
    1.2745425837885920E+00 
    1.5069196929346271E+00 
    8.0997009730220471E-01 
    1.0612030317695642E+00 
    1.0501655063584494E+00 
    8.4386825499594442E-01 
    6.9933429633983624E-01 
    8.8662235704157843E-01 
    1.1091749152344896E+00 
    7.0154867852433311E-01 
    1.3896986767046497E+00 
    9.6045444954928993E-01 
    1.1129426357853112E+00 
    8.9928321512157972E-01 
    6.9995010957062176E-01 
    8.5334140099298439E-01 
    7.7628113519620534E-01 
    1.4882090140879494E+00 
    1.5460214643765606E+00 
    6.7905554368006571E-01 
    1.2165200968343919E+00 
    1.1591482820396564E+00 
    9.0557265529136177E-01 
    1.0896585502253366E+00 
    6.9808638043351612E-01 
    1.1542323504105994E+00 
    1.4159967259015631E+00 
    1.0096781755271695E+00 
    1.6114910977248591E+00 
    1.4593573439672249E+00 
    9.5710841111975131E-01 
    8.0826209440241203E-01 
    9.3275842416314070E-01 
    1.0580805231814363E+00 
    1.1435137955997769E+00 
    8.7551319359563218E-01 
    1.0098899501012200E+00 
    1.0309065437298426E+00 
    1.4190502054907521E+00 
    1.7661466216301640E+00 
    8.6287010119516405E-01 
    8.8094299235923978E-01 
    1.6844552857034336E+00 
    7.7964280423512600E-01 
    1.0486681462752296E+00 
    8.6202928679952928E-01 
    1.3892433451702360E+00 
    2.3455213888469610E+00 
    2.0697793278017147E+00 
    1.7796501978540782E+00 
    1.8788971590234700E+00 
    1.6474491777106606E+00 
    1.7247157091801339E+00 
    1.0518421680499770E+00 
    1.9435522124071170E+00 
    1.0145181291341845E+00 
    1.6928495293311161E+00 
    1.0139782368726926E+00 
    1.3580673680109376E+00 
    1.4425340576082781E+00 
    1.1699941711645088E+00 
    1.3261374991263042E+00 
    8.2905272560973120E-01 
    1.3397711672230150E+00 
    9.7789919299757433E-01 
    1.0055038285882343E+00 
    1.0011261902369313E+00 
    1.0980582591467254E+00 
    8.0375341491268681E-01 
    1.3637852495189224E+00 
    1.1103588688130546E+00 
    1.0991725153201446E+00 
    6.6117428516764298E-01 
    1.1909080729076171E+00 
    1.4695112788589104E+00 
    8.2234478628567331E-01 
    1.2814028745071853E+00 
    1.5369814412732521E+00 
    1.6421677788540461E+00 
    1.1042836158290927E+00 
    8.9122092497361294E-01 
    8.0758760445344646E-01 
    8.3074401452999735E-01 
    1.2275406661785777E+00 
    1.0736883843778053E+00 
    8.8252939401899311E-01 
    1.2386055411076931E+00 
    9.8312117406104693E-01 
    8.3973847688974645E-01 
    1.1056769626121583E+00 
    7.2396256449971697E-01 
    8.4171930463522027E-01 
    1.5527586343941360E+00 
    1.2177251030900247E+00 
    8.2948931022126071E-01 
    1.3183002951858012E+00 
    1.2863339996100065E+00 
    8.8096063716000172E-01 
    9.5343169358965696E-01 
    9.6401312019556018E-01 
    1.1837677296012790E+00 
    1.1696367905421765E+00 
    1.4387923099178437E+00 
    9.3958169290807647E-01 
    1.1662266171814812E+00 
    1.2252968976600274E+00 
    8.8121452074809248E-01 
    9.1288854054043767E-01 
    6.5842011312663429E-01 
    8.8512410984184586E-01 
    1.5979055012508541E+00 
    1.0715289542158373E+00 
    1.1601783559523462E+00 
    9.8133217822365570E-01 
    1.1585292088528596E+00 
    8.4139062382440066E-01 
    8.1660743287674054E-01 
    7.5105819781483629E-01 
    8.3857150200070474E-01 
    7.5847080300358172E-01 
    9.2186046604225591E-01 
    1.1145463817144612E+00 
    7.9072333129440797E-01 
    1.2944290065497197E+00 
    1.3082610921230264E+00 
    9.0744767042395902E-01 
    7.8841386704981498E-01 
    1.1080042426704984E+00 
    8.7092490764612684E-01 
    7.0802938938285132E-01 
    8.4077583876269224E-01 
    6.9490620975042805E-01 
    7.4653294080678001E-01 
    8.7281454786344548E-01 
    1.0626774815259088E+00 
    1.3760559588515144E+00 
    7.2388419020269390E-01 
    8.3862193995936951E-01 
    7.8220886242009402E-01 
    8.3699277019038676E-01 
    1.8246018028034616E+00 
    7.2858944848628759E-01 
    9.7080629141255992E-01 
    7.6622770952345287E-01 
    9.0462811679683319E-01 
    7.9918622000225648E-01 
    9.1955242085940680E-01 
    7.4109385813302786E-01 
    9.1797601009872065E-01 
    7.9941464553742603E-01 
    9.3039319790853858E-01 
    8.0973759670986345E-01 
    7.9241835465116406E-01 
    7.1991962271732235E-01 
    7.5391400632348315E-01 
    1.2930180088063530E+00 
    6.7857656821242363E-01 
    7.0616846907703956E-01 
    8.4469670392327700E-01 
    7.6658845163547418E-01 
    2.1794892723113617E+00 
    8.2333103658789264E-01 
    1.1697808419200797E+00 
    8.0291656818253687E-01 
    6.9767489984937847E-01 
    8.7715027451331284E-01 
    7.5512521422481282E-01 
    9.4310236614807652E-01 
    8.1313478582111787E-01 
    8.1477817936018826E-01 
    8.3144688361547103E-01 
    6.9644332141038856E-01 
    8.2455825690943663E-01 
    7.9148289735705735E-01 
    6.9668360257607642E-01 
    7.8652959400038136E-01 
    7.8780063867996186E-01 
    8.2460608287591630E-01 
    6.9154402685379879E-01 
    7.4471942569049399E-01 
    8.0600948297911812E-01 
    9.2340631638426218E-01 
    7.6163596808923895E-01 
    7.2286727080671287E-01 
    1.2189729895996955E+00 
    7.6522056516981440E-01 
    1.0178103837790908E+00 
    2.1417772993065927E+00 
    1.2651557569434251E+00 
    1.0149975625810084E+00 
    1.3590845480549423E+00 
    7.8781721028976537E-01 
    7.8609822486393666E-01 
    7.2292857284492618E-01 
    7.4022863868828492E-01 
    7.4463078552675599E-01 
    6.8646841507757128E-01 
    1.3785648730219313E+00 
    6.9007582289995262E-01 
    8.9562267650551186E-01 
    1.2909474702903037E+00 
    9.2063743320443969E-01 
    7.6187025871235192E-01 
    1.1428203857462118E+00 
    7.2251663645718478E-01 
    7.2530474409995038E-01 
    7.3008630739908686E-01 
    1.9979922817053439E+00 
    1.0603208151709291E+00 
    1.3310792692503075E+00 
    1.3517799642676980E+00 
    9.5387073186961169E-01 
    1.2287623990398366E+00 
    7.3013995306133872E-01 
    6.5206629253425030E-01 
    2.5442110810136440E+00 
    6.7915905751990624E-01 
    7.0662147081302318E-01 
    7.0741835537479092E-01 
    1.0236920215977572E+00 
    1.2807901315524921E+00 
    6.5318720726175961E-01 
    1.5162592936411787E+00 
    1.6171697049331184E+00 
    9.5673053826369436E-01 
    8.1476916267530108E-01 
    1.4588818406141979E+00 
    9.6774225834313188E-01 
    7.3034698339837512E-01 
    1.3251069148610235E+00 
    6.9187462528545596E-01 
    6.9210841250548427E-01 
    1.0129180137098568E+00 
    8.4134925659184745E-01 
    6.5696095457500059E-01 
    7.9431639993272662E-01 
    6.6853774475089378E-01 
    1.4141674309918850E+00 
    6.7986640515252150E-01 
    7.5925740670709851E-01 
    1.2717634675832339E+00 
    8.0581552748847440E-01 
    9.6632532994328801E-01 
    6.7909112591842435E-01 
    8.8685398800413806E-01 
    9.2568822135930895E-01 
    7.3024014129056936E-01 
    8.4176603868508826E-01 
    1.3005185110292248E+00 
    6.7070111290217294E-01 
    8.3272828414629729E-01 
    6.9999068071699466E-01 
    7.4222649808850216E-01 
    8.6165401108862250E-01 
    6.9233829827338844E-01 
    8.5907498872113297E-01 
    1.3618273994650416E+00 
    1.4235403784984881E+00 
    6.6873273128482136E-01 
    2.2149866576717265E+00 
    8.8643806116493706E-01 
    7.6373029881405308E-01 
    1.5565760188470374E+00 
    9.7987473247968360E-01 
    1.0520287439654377E+00 
    7.3770270971957796E-01 
    7.4030137185694167E-01 
    1.1214477529749309E+00 
    9.7235764198761709E-01 
    6.6142365551731275E-01 
    7.4872282244742916E-01 
    1.6870863732900823E+00 
    9.4118240669000519E-01 
    1.2442003840959668E+00 
    1.0169991084554857E+00 
    1.3083931249320735E+00 
    1.1208296923481396E+00 
    6.6113930451436009E-01 
    7.0930147658770193E-01 
    7.8137589302588761E-01 
    1.4305538385739573E+00 
    1.2424991569329764E+00 
    7.6606867711575399E-01 
    7.4473109276513316E-01 
    7.6853315387429033E-01 
    7.5711127685038315E-01 
    1.1730331249879062E+00 
    6.9468776073635119E-01 
    1.0458572923214975E+00 
    1.8862219304530679E+00 
    7.3599702093731834E-01 
    1.7110500454776714E+00 
    8.7112353662722652E-01 
    1.7848320201785324E+00 
    1.2804880568268593E+00 
    2.3829113259873478E+00 
    7.3772185749138852E-01 
    1.2274748739551746E+00 
    9.3102214287296359E-01 
    6.8615031084991307E-01 
    1.3480852913801942E+00 
    9.0392949182055082E-01 
    1.3898155163916890E+00 
    6.8931291248574811E-01 
    1.2453767742596837E+00 
    8.4597500866834463E-01 
    9.8656902823353310E-01 
    6.6535110757818050E-01 
    6.9249477767403156E-01 
    6.8133693379508620E-01 
    1.5307146458022423E+00 
    7.4201149954592949E-01 
    1.8393186173980232E+00 
    1.6077845979210796E+00 
    7.5341861563786916E-01 
    8.6632218332396793E-01 
    7.8488080320179554E-01 
    6.7606476301986562E-01 
    8.6161268244532052E-01 
    1.3032443478493936E+00 
    7.6561923892908423E-01 
    6.8981334979521192E-01 
    1.9819164626289880E+00 
    1.1733909634098196E+00 
    6.5358545343566865E-01 
    6.5439486883130937E-01 
    7.0767385271032512E-01 
    7.2084690776198024E-01 
    6.8434633263279987E-01 
    6.6869715220422099E-01 
    7.7032627546489540E-01 
    7.3329696289791024E-01 
    6.4892519518329972E-01 
    6.4972183798110561E-01 
    6.4282397402110691E-01 
    6.3002678075459850E-01 
    6.3012758917329392E-01 
    6.3570974605426533E-01 
    6.3430470708081976E-01 
    6.3613640735586252E-01 
    6.4553499063982300E-01 
    6.2619795593848615E-01 
    6.4439616393637655E-01 
    6.2856205200650572E-01 
    6.3919556847851300E-01 
    6.3312550723479266E-01 
    6.3435885331467468E-01 
    6.3378447646550573E-01 
    6.2798761737527797E-01 
    6.5841757468479611E-01 
    6.4760713268596215E-01 
    6.5777911418342794E-01 
    6.4365120826870026E-01 
    6.3921696850147414E-01 
    6.3097692734518362E-01 
    6.2652257999470040E-01 
    6.6197317240019993E-01 
    6.4242174048131617E-01 
    6.2597098285875141E-01 
    6.3402195358800406E-01 
    6.4785246294713683E-01 
    6.4714768455955995E-01 
    6.2337082056261650E-01 
    6.2608093569351431E-01 
    6.4234401535321517E-01 
    6.5141057255035406E-01 
    6.4764176524250661E-01 
    6.3629214225255515E-01 
    6.3083926802479184E-01 
    6.6264456504118618E-01 
    6.5900717699538536E-01 
    6.4862679696331438E-01 
    6.7119422242545690E-01 
    6.3076763758648735E-01 
    6.3345034169202996E-01 
    6.3236533502850212E-01 
    6.5601989570897357E-01 
    6.3350572681463568E-01 
    6.5128330414816960E-01 
    6.4130359071470466E-01 
    6.4114889955777865E-01 
    6.4251928699549343E-01 
    6.3829143433725244E-01 
    6.5628472440363994E-01 
    6.5752623070345562E-01 
    6.3977968722757983E-01 
    6.2948046515820766E-01 
    6.3787015436829031E-01 
    6.3741055170589089E-01 
    6.2579725938731778E-01 
    6.4635411776407714E-01 
    6.2640131332289239E-01 
    6.5697110239282575E-01 
    6.2796338869307200E-01 
    6.4270588524304439E-01 
    6.3200847190898179E-01 
    6.2309052025414102E-01 
    6.2275679439459064E-01 
    6.2381278105344384E-01 
    6.2713423035766680E-01 
    6.3756915957948923E-01 
    6.2656573069840171E-01 
    6.3038141753478549E-01 
    6.3277219257270934E-01 
    6.6769733505990236E-01 
    6.3958157531938786E-01 
    6.2739956705543154E-01 
    6.5750222119041513E-01 
    6.3471191407944472E-01 
    6.3383355249134510E-01 
    6.4664227666692142E-01 
    6.6616303353640460E-01 
    6.4434116678501763E-01 
    6.4426274615470946E-01 
    6.3966178505359983E-01 
    6.4226175891079906E-01 
    6.5319964272326825E-01 
    6.5373727153992667E-01 
    6.5183466854782912E-01 
    6.5464301509970801E-01 
    6.4217079494319718E-01 
    6.4964324498487325E-01 
    6.4882937560470844E-01 
    6.4339855589025263E-01 
    6.4514280839973037E-01 
    6.6357940330003795E-01 
    6.5357254103007845E-01 
    6.5713993073492605E-01 
    6.6478840803076489E-01 
    6.3478326538807639E-01 
    6.3243743411695119E-01 
    6.4546999592362553E-01 
    6.5796735214113822E-01 
    6.6674953068794940E-01 
    6.5776223938371159E-01 
    6.2331823739293524E-01 
    6.3120151600717045E-01 
    6.4285436018427866E-01 
    6.3672363053345549E-01 
    6.3096847203924922E-01 
    6.5382645310910137E-01 
    6.4516503631137834E-01 
    6.2721499354634225E-01 
    6.5019031017148876E-01 
    6.3013110921096083E-01 
    6.3226598296297976E-01 
    6.3125802666293540E-01 
    6.4374194562633313E-01 
    6.5559952336630090E-01 
    6.6144779598990133E-01 
    6.4779223486557402E-01 
    6.6121312709494984E-01 
    6.2898113939043088E-01 
    6.2898544020132574E-01 
    6.6081870141480226E-01 
    6.5312910563118598E-01 
    6.2297840267513527E-01 
    6.2334273869722090E-01 
    6.6251270602682599E-01 
    6.4076021797286842E-01 
    6.5277085843322491E-01 
    6.4550369207649794E-01 
    6.3483965692506028E-01 
    6.4500966464471232E-01 
    6.4625885163703445E-01 
    6.4184973110688570E-01 
    6.3929090990193338E-01 
    6.3915834965970153E-01 
    6.2795044757700158E-01 
    6.6018235105854972E-01 
    6.7130639777801937E-01 
    6.2812078502511370E-01 
    6.2826471439833464E-01 
    6.2714552653302702E-01 
    6.2761710808986182E-01 
    6.2426718202035880E-01 
    6.5223357837956153E-01 
    6.3620631022902197E-01 
    6.2532099847577083E-01 
    6.4489678552335528E-01 
    6.4921398915692763E-01 
    6.3822428641578555E-01 
    6.3726287686639560E-01 
    6.3531450016880286E-01 
    6.4026044972993634E-01 
    6.5722737133288489E-01 
    6.2822768591051004E-01 
    6.2775363238497639E-01 
    6.3073880316548525E-01 
    6.3939658022300361E-01 
    6.5578548765812650E-01 
    6.3147117528917029E-01 
    6.5894766923281933E-01 
    6.2487445037219913E-01 
    6.3884618359493628E-01 
    6.2249692117134059E-01 
    6.2277831284704666E-01 
    6.2571631091114555E-01 
    6.6013539686104505E-01 
    6.4579427079803964E-01 
    6.3728786433284990E-01 
    6.4169915417814227E-01 
    6.4946972961509852E-01 
    6.2404452501699659E-01 
    6.3607379368517381E-01 
    6.4324795799760437E-01 
    6.6223815358174520E-01 
    6.5213992213255323E-01 
    6.5443470581661289E-01 
    6.6151380902312951E-01 
    6.6375080625374383E-01 
    6.4156520990527877E-01 
    6.3262000969254217E-01 
    6.4974524314191062E-01 
    6.4987912764240829E-01 
    6.3887843708889380E-01 
    6.2453123071138794E-01 
    6.4963808410937496E-01 
    6.5354433197943607E-01 
    6.5593365569520368E-01 
    6.5273749437213924E-01 
    6.2363978103227424E-01 
    6.5149277739430944E-01 
    6.5021846534444161E-01 
    6.2485544865923348E-01 
    6.3185250323927467E-01 
    6.4468605402633761E-01 
    6.5144392713404498E-01 
    6.4965282627362020E-01 
    6.4617591913151651E-01 
    6.4756766737825444E-01 
    6.5493927731303114E-01 
    6.4791996858930312E-01 
    6.4939565931045584E-01 
    6.4162688730518025E-01 
    6.4544257655412451E-01 
    6.2604726369068719E-01 
    6.6396378066695905E-01 
    6.6023163663018869E-01 
    6.6427811825926697E-01 
    6.3506667035930242E-01 
    6.3317205842031210E-01 
    6.3286545013931750E-01 
    6.5030507805053772E-01 
    6.4658830343801077E-01 
    6.4953069733748825E-01 
    6.3631402927427749E-01 
    6.2498473848925062E-01 
    6.2793949274466154E-01 
    6.5649984752364876E-01 
    6.2772635002195654E-01 
    6.3987161709540963E-01 
    6.3580229446098013E-01 
    6.5425738770191433E-01 
    6.4560227103051104E-01 
    6.4169118729453045E-01 
    6.6041115226769842E-01 
    6.5596877897347827E-01 
    6.3686357844789765E-01 
    6.3520333102064652E-01 
    6.3095022068119766E-01 
    6.3820188277486156E-01 
    6.5054937285190839E-01 
    6.2572593399462006E-01 
    6.5348295503291809E-01 
    6.5854764722483861E-01 
    6.3665289379581358E-01 
    6.3553868025453142E-01 
    6.2784447889809358E-01 
    6.2472138040535996E-01 
    6.5766994262162914E-01 
    6.3572806296695095E-01 
    6.4878895526556424E-01 
    6.3786577490932395E-01 
    6.4521694162517973E-01 
    6.2830231073964093E-01 
    6.4220583412959353E-01 
    6.6149360469186902E-01 
    6.3495247942232680E-01 
    6.4214775119192002E-01 
    6.2964412122708058E-01 
    6.3943148320961340E-01 
    6.6032560849499711E-01 
    6.3520560325501096E-01 
    6.4874846044028267E-01 
    6.3375269148377256E-01 
    6.2545395351581734E-01 
    6.4644551567096398E-01 
    6.4580887547312482E-01 
    6.4448664746733253E-01 
    6.3339515931376211E-01 
    6.3330277080787445E-01 
    6.2657419487799060E-01 
    6.4413072772959767E-01 
    6.4785530328968921E-01 
    6.4207197995641807E-01 
    6.2978536551033126E-01 
    6.3210342408046172E-01 