# vtk DataFile Version 2.0
Pressure Field Data 
ASCII 
DATASET UNSTRUCTURED_GRID 

POINTS 16641 double 

    0.0000000000000000E+00     0.0000000000000000E+00     0.0000000000000000E+00 
    1.0000000000000000E+00     0.0000000000000000E+00     0.0000000000000000E+00 
    1.0000000000000000E+00     1.0000000000000000E+00     0.0000000000000000E+00 
    0.0000000000000000E+00     1.0000000000000000E+00     0.0000000000000000E+00 
    7.8124999999849972E-03     0.0000000000000000E+00     0.0000000000000000E+00 
    1.5624999999970159E-02     0.0000000000000000E+00     0.0000000000000000E+00 
    2.3437499999955320E-02     0.0000000000000000E+00     0.0000000000000000E+00 
    3.1249999999940471E-02     0.0000000000000000E+00     0.0000000000000000E+00 
    3.9062499999922923E-02     0.0000000000000000E+00     0.0000000000000000E+00 
    4.6874999999905347E-02     0.0000000000000000E+00     0.0000000000000000E+00 
    5.4687499999887798E-02     0.0000000000000000E+00     0.0000000000000000E+00 
    6.2499999999870243E-02     0.0000000000000000E+00     0.0000000000000000E+00 
    7.0312499999858100E-02     0.0000000000000000E+00     0.0000000000000000E+00 
    7.8124999999845957E-02     0.0000000000000000E+00     0.0000000000000000E+00 
    8.5937499999833813E-02     0.0000000000000000E+00     0.0000000000000000E+00 
    9.3749999999821670E-02     0.0000000000000000E+00     0.0000000000000000E+00 
    1.0156249999980950E-01     0.0000000000000000E+00     0.0000000000000000E+00 
    1.0937499999979740E-01     0.0000000000000000E+00     0.0000000000000000E+00 
    1.1718749999978530E-01     0.0000000000000000E+00     0.0000000000000000E+00 
    1.2499999999977310E-01     0.0000000000000000E+00     0.0000000000000000E+00 
    1.3281249999975051E-01     0.0000000000000000E+00     0.0000000000000000E+00 
    1.4062499999972780E-01     0.0000000000000000E+00     0.0000000000000000E+00 
    1.4843749999970521E-01     0.0000000000000000E+00     0.0000000000000000E+00 
    1.5624999999968250E-01     0.0000000000000000E+00     0.0000000000000000E+00 
    1.6406249999965991E-01     0.0000000000000000E+00     0.0000000000000000E+00 
    1.7187499999963721E-01     0.0000000000000000E+00     0.0000000000000000E+00 
    1.7968749999961461E-01     0.0000000000000000E+00     0.0000000000000000E+00 
    1.8749999999959191E-01     0.0000000000000000E+00     0.0000000000000000E+00 
    1.9531249999956929E-01     0.0000000000000000E+00     0.0000000000000000E+00 
    2.0312499999954661E-01     0.0000000000000000E+00     0.0000000000000000E+00 
    2.1093749999952399E-01     0.0000000000000000E+00     0.0000000000000000E+00 
    2.1874999999950129E-01     0.0000000000000000E+00     0.0000000000000000E+00 
    2.2656249999947869E-01     0.0000000000000000E+00     0.0000000000000000E+00 
    2.3437499999945610E-01     0.0000000000000000E+00     0.0000000000000000E+00 
    2.4218749999943340E-01     0.0000000000000000E+00     0.0000000000000000E+00 
    2.4999999999941080E-01     0.0000000000000000E+00     0.0000000000000000E+00 
    2.5781249999938799E-01     0.0000000000000000E+00     0.0000000000000000E+00 
    2.6562499999936517E-01     0.0000000000000000E+00     0.0000000000000000E+00 
    2.7343749999934241E-01     0.0000000000000000E+00     0.0000000000000000E+00 
    2.8124999999931960E-01     0.0000000000000000E+00     0.0000000000000000E+00 
    2.8906249999929678E-01     0.0000000000000000E+00     0.0000000000000000E+00 
    2.9687499999927403E-01     0.0000000000000000E+00     0.0000000000000000E+00 
    3.0468749999925121E-01     0.0000000000000000E+00     0.0000000000000000E+00 
    3.1249999999922839E-01     0.0000000000000000E+00     0.0000000000000000E+00 
    3.2031249999920558E-01     0.0000000000000000E+00     0.0000000000000000E+00 
    3.2812499999918282E-01     0.0000000000000000E+00     0.0000000000000000E+00 
    3.3593749999916001E-01     0.0000000000000000E+00     0.0000000000000000E+00 
    3.4374999999913719E-01     0.0000000000000000E+00     0.0000000000000000E+00 
    3.5156249999911438E-01     0.0000000000000000E+00     0.0000000000000000E+00 
    3.5937499999909162E-01     0.0000000000000000E+00     0.0000000000000000E+00 
    3.6718749999906880E-01     0.0000000000000000E+00     0.0000000000000000E+00 
    3.7499999999904599E-01     0.0000000000000000E+00     0.0000000000000000E+00 
    3.8281249999902389E-01     0.0000000000000000E+00     0.0000000000000000E+00 
    3.9062499999900180E-01     0.0000000000000000E+00     0.0000000000000000E+00 
    3.9843749999897971E-01     0.0000000000000000E+00     0.0000000000000000E+00 
    4.0624999999895761E-01     0.0000000000000000E+00     0.0000000000000000E+00 
    4.1406249999893541E-01     0.0000000000000000E+00     0.0000000000000000E+00 
    4.2187499999891331E-01     0.0000000000000000E+00     0.0000000000000000E+00 
    4.2968749999889122E-01     0.0000000000000000E+00     0.0000000000000000E+00 
    4.3749999999886913E-01     0.0000000000000000E+00     0.0000000000000000E+00 
    4.4531249999884698E-01     0.0000000000000000E+00     0.0000000000000000E+00 
    4.5312499999882488E-01     0.0000000000000000E+00     0.0000000000000000E+00 
    4.6093749999880268E-01     0.0000000000000000E+00     0.0000000000000000E+00 
    4.6874999999878059E-01     0.0000000000000000E+00     0.0000000000000000E+00 
    4.7656249999875860E-01     0.0000000000000000E+00     0.0000000000000000E+00 
    4.8437499999873651E-01     0.0000000000000000E+00     0.0000000000000000E+00 
    4.9218749999871442E-01     0.0000000000000000E+00     0.0000000000000000E+00 
    4.9999999999869221E-01     0.0000000000000000E+00     0.0000000000000000E+00 
    5.0781249999871214E-01     0.0000000000000000E+00     0.0000000000000000E+00 
    5.1562499999873201E-01     0.0000000000000000E+00     0.0000000000000000E+00 
    5.2343749999875200E-01     0.0000000000000000E+00     0.0000000000000000E+00 
    5.3124999999877187E-01     0.0000000000000000E+00     0.0000000000000000E+00 
    5.3906249999879174E-01     0.0000000000000000E+00     0.0000000000000000E+00 
    5.4687499999881162E-01     0.0000000000000000E+00     0.0000000000000000E+00 
    5.5468749999883160E-01     0.0000000000000000E+00     0.0000000000000000E+00 
    5.6249999999885147E-01     0.0000000000000000E+00     0.0000000000000000E+00 
    5.7031249999887135E-01     0.0000000000000000E+00     0.0000000000000000E+00 
    5.7812499999889122E-01     0.0000000000000000E+00     0.0000000000000000E+00 
    5.8593749999891120E-01     0.0000000000000000E+00     0.0000000000000000E+00 
    5.9374999999893108E-01     0.0000000000000000E+00     0.0000000000000000E+00 
    6.0156249999895095E-01     0.0000000000000000E+00     0.0000000000000000E+00 
    6.0937499999897082E-01     0.0000000000000000E+00     0.0000000000000000E+00 
    6.1718749999899081E-01     0.0000000000000000E+00     0.0000000000000000E+00 
    6.2499999999901068E-01     0.0000000000000000E+00     0.0000000000000000E+00 
    6.3281249999903122E-01     0.0000000000000000E+00     0.0000000000000000E+00 
    6.4062499999905187E-01     0.0000000000000000E+00     0.0000000000000000E+00 
    6.4843749999907252E-01     0.0000000000000000E+00     0.0000000000000000E+00 
    6.5624999999909306E-01     0.0000000000000000E+00     0.0000000000000000E+00 
    6.6406249999911371E-01     0.0000000000000000E+00     0.0000000000000000E+00 
    6.7187499999913436E-01     0.0000000000000000E+00     0.0000000000000000E+00 
    6.7968749999915490E-01     0.0000000000000000E+00     0.0000000000000000E+00 
    6.8749999999917555E-01     0.0000000000000000E+00     0.0000000000000000E+00 
    6.9531249999919620E-01     0.0000000000000000E+00     0.0000000000000000E+00 
    7.0312499999921674E-01     0.0000000000000000E+00     0.0000000000000000E+00 
    7.1093749999923728E-01     0.0000000000000000E+00     0.0000000000000000E+00 
    7.1874999999925793E-01     0.0000000000000000E+00     0.0000000000000000E+00 
    7.2656249999927858E-01     0.0000000000000000E+00     0.0000000000000000E+00 
    7.3437499999929923E-01     0.0000000000000000E+00     0.0000000000000000E+00 
    7.4218749999931988E-01     0.0000000000000000E+00     0.0000000000000000E+00 
    7.4999999999934042E-01     0.0000000000000000E+00     0.0000000000000000E+00 
    7.5781249999936096E-01     0.0000000000000000E+00     0.0000000000000000E+00 
    7.6562499999938161E-01     0.0000000000000000E+00     0.0000000000000000E+00 
    7.7343749999940226E-01     0.0000000000000000E+00     0.0000000000000000E+00 
    7.8124999999942280E-01     0.0000000000000000E+00     0.0000000000000000E+00 
    7.8906249999944345E-01     0.0000000000000000E+00     0.0000000000000000E+00 
    7.9687499999946410E-01     0.0000000000000000E+00     0.0000000000000000E+00 
    8.0468749999948463E-01     0.0000000000000000E+00     0.0000000000000000E+00 
    8.1249999999950528E-01     0.0000000000000000E+00     0.0000000000000000E+00 
    8.2031249999952593E-01     0.0000000000000000E+00     0.0000000000000000E+00 
    8.2812499999954647E-01     0.0000000000000000E+00     0.0000000000000000E+00 
    8.3593749999956701E-01     0.0000000000000000E+00     0.0000000000000000E+00 
    8.4374999999958766E-01     0.0000000000000000E+00     0.0000000000000000E+00 
    8.5156249999960831E-01     0.0000000000000000E+00     0.0000000000000000E+00 
    8.5937499999962896E-01     0.0000000000000000E+00     0.0000000000000000E+00 
    8.6718749999964961E-01     0.0000000000000000E+00     0.0000000000000000E+00 
    8.7499999999967015E-01     0.0000000000000000E+00     0.0000000000000000E+00 
    8.8281249999969069E-01     0.0000000000000000E+00     0.0000000000000000E+00 
    8.9062499999971134E-01     0.0000000000000000E+00     0.0000000000000000E+00 
    8.9843749999973199E-01     0.0000000000000000E+00     0.0000000000000000E+00 
[...]
CELL_DATA 16384 
SCALARS Pressure double 1 
LOOKUP_TABLE default 

    9.9606770950391621E-01 
    9.8833039943650070E-01 
    9.8833284569435376E-01 
    9.9606624971087854E-01 
    9.8059009507332551E-01 
    9.7284359106291229E-01 
    9.7285352239298883E-01 
    9.8059632494366578E-01 
    9.8060402920568390E-01 
    9.7286578548968172E-01 
    9.7288023935515477E-01 
    9.8061314750943118E-01 
    9.9606478994631609E-01 
    9.8833598306737214E-01 
    9.8833980692856493E-01 
    9.9606333017278770E-01 
    9.6508766088675768E-01 
    9.5731916460907307E-01 
    9.5733654011198599E-01 
    9.6510128526453842E-01 
    9.4953511750856223E-01 
    9.4173273437964244E-01 
    9.4175793316991352E-01 
    9.4955634630562402E-01 
    9.4958273163305429E-01 
    9.4178931315337877E-01 
    9.4182649745769687E-01 
    9.4961392458461824E-01 
    9.6511814772749538E-01 
    9.5735809533425653E-01 
    9.5738353422731737E-01 
    9.6513802422003470E-01 
    9.6516065260897776E-01 
    9.5741251597448462E-01 
    9.5744464602417245E-01 
    9.6518572937038383E-01 
    9.4964951397786346E-01 
    9.4186901719774929E-01 
    9.4191629389653730E-01 
    9.4968901308723042E-01 
    9.4973185879414712E-01 
    9.4196763727244126E-01 
    9.4202225942004492E-01 
    9.4977742296571088E-01 
    9.6521291262377029E-01 
    9.5747947677176748E-01 
    9.5751651704107787E-01 
    9.6524183066721148E-01 
    9.9606187032345328E-01 
    9.8834427413213266E-01 
    9.8834932119288543E-01 
    9.9606041032443005E-01 
    9.8062357513481158E-01 
    9.7289670318543919E-01 
    9.7291496097782659E-01 
    9.8063517697001568E-01 
    9.8064779642781463E-01 
    9.7293476772329834E-01 
    9.7295585756436553E-01 
    9.8066126285781852E-01 
    9.9605895011186640E-01 
    9.8835487230661934E-01 
    9.8836084427013593E-01 
    9.9605748964691898E-01 
    9.3390945506227419E-01 
    9.2606295361098478E-01 
    9.2609632395524266E-01 
    9.3393872070155304E-01 
    9.1819113269023744E-01 
    9.1029210515840719E-01 
    9.1033332615498597E-01 
    9.1822854117906316E-01 
    9.1827579559389338E-01 
    9.1038596531560567E-01 
    9.1044993472044711E-01 
    9.1833265144558185E-01 
    9.3397526479183846E-01 
    9.2613817877002746E-01 
    9.2618818409689618E-01 
    9.3401871299468908E-01 
    9.0236416612416259E-01 
    8.9440576115499337E-01 
    8.9445292959218015E-01 
    9.0240874622670963E-01 
    8.8641546013502248E-01 
    8.7839195194846598E-01 
    8.7844007876809516E-01 
    8.8646400935008329E-01 
    8.8653053182378971E-01 
    8.7850908434087194E-01 
    8.7860102050515465E-01 
    8.8661618346473414E-01 
    9.0246658771378407E-01 
    8.9451553105139925E-01 
    8.9459412263079874E-01 
    9.0253785503607187E-01 
    9.0262225334517965E-01 
    8.9468869466525169E-01 
    8.9479844610023562E-01 
    9.0271889239879188E-01 
    8.8672146400873864E-01 
    8.7871726190797106E-01 
    8.7885792744011237E-01 
    8.8684585096495017E-01 
    8.8698743675348601E-01 
    8.7902120475059076E-01 
    8.7920280060214395E-01 
    8.8714270829383712E-01 
    9.0282619056098157E-01 
    8.9492159511768254E-01 
    8.9505530518863252E-01 
    9.0294186332316906E-01 
    9.3406855575563752E-01 
    9.2624581284348495E-01 
    9.2631031102774819E-01 
    9.3412412468817496E-01 
    9.1839859743235475E-01 
    9.1052479007735121E-01 
    9.1060964793511545E-01 
    9.1847280384022389E-01 
    9.1855410039870566E-01 
    9.1070313865992025E-01 
    9.1080341928113984E-01 
    9.1864099641724817E-01 
    9.3418458795774550E-01 
    9.2638068768779924E-01 
    9.2645573503238188E-01 
    9.3424896772782207E-01 
    9.3431618020731066E-01 
    9.2653408152882721E-01 
    9.2661427434706534E-01 
    9.3438509518462065E-01 
    9.1873175045740396E-01 
    9.1090826322128193E-01 
    9.1101522547047409E-01 
    9.1882448602238309E-01 
    9.1891733695929934E-01 
    9.1112185688498593E-01 
    9.1122592336238628E-01 
    9.1900859758882203E-01 
    9.3445460821192583E-01 
    9.2669488077297135E-01 
    9.2677459377229710E-01 
    9.3452371624143793E-01 
    9.0306303447759850E-01 
    8.9519581055869291E-01 
    8.9533877602265111E-01 
    9.0318647701110333E-01 
    8.8730665187458979E-01 
    8.7939590571383264E-01 
    8.7959204333611063E-01 
    8.8747330264943125E-01 
    8.8763662916596786E-01 
    8.7978267748336969E-01 
    8.7996069637444108E-01 
    8.8779139032993248E-01 
    9.0330894044047416E-01 
    8.9547981998378479E-01 
    8.9561503482391269E-01 
    9.0342748174982357E-01 
    9.0353972210458244E-01 
    8.9574135719295134E-01 
    8.9585673274970068E-01 
    9.0364399112861771E-01 
    8.8793367456478645E-01 
    8.8012118476187506E-01 
    8.8026147655734777E-01 
    8.8806105662396440E-01 
    8.8817246821516127E-01 
    8.8038076779809915E-01 
    8.8047957562661494E-01 
    8.8826792324324788E-01 
    9.0373936385323372E-01 
    8.9596010365256329E-01 
    8.9605128618801988E-01 
    9.0382562252961274E-01 
    9.3459158752350391E-01 
    9.2685232700769848E-01 
    9.2692728909403677E-01 
    9.3465761888612242E-01 
    9.1909685300322974E-01 
    9.1132558706779021E-01 
    9.1141952505916390E-01 
    9.1918107381646941E-01 
    9.1926067193434657E-01 
    9.1150698347058634E-01 
    9.1158778286698783E-01 
    9.1933552473740177E-01 
    9.3472147706625897E-01 
    9.2699903353252155E-01 
    9.2706748706510966E-01 
    9.3478312411183306E-01 
    9.9605602893001366E-01 
    9.8836715068803183E-01 
    9.8837370623334031E-01 
    9.9605456801510184E-01 
    9.8067539916319002E-01 
    9.7297795424725320E-01 
    9.7300078369448462E-01 
    9.8069003017068535E-01 
    9.8070499164228597E-01 
    9.7302408804036200E-01 
    9.7304764014624823E-01 
    9.8072013946091108E-01 
    9.9605310702433369E-01 
    9.8838043108850049E-01 
    9.8838725541454264E-01 
    9.9605164616335262E-01 
    9.6527209540908976E-01 
    9.5755524938470615E-01 
    9.5759515366570347E-01 
    9.6530331977700767E-01 
    9.4982503513166727E-01 
    9.4207930489873748E-01 
    9.4213789415175331E-01 
    9.4987401439541985E-01 
    9.4992370736903642E-01 
    9.4219717561335348E-01 
    9.4225638056169947E-01 
    9.4997352818603120E-01 
    9.6533513774074731E-01 
    9.5763573473504393E-01 
    9.5767655157467613E-01 
    9.6536722525874075E-01 
    9.6539932036236897E-01 
    9.5771724520840151E-01 
    9.5775756300675063E-01 
    9.6543124074166897E-01 
    9.5002299659183786E-01 
    9.4231487473764564E-01 
    9.4237220194633964E-01 
    9.5007177073753635E-01 
    9.5011967233796923E-01 
    9.4242811674660254E-01 
    9.4248260510160142E-01 
    9.5016670289532845E-01 
    9.6546289752447301E-01 
    9.5779737760030814E-01 
    9.5783669928089188E-01 
    9.6549430435193750E-01 
    9.9605018573714710E-01 
    9.8839412357989631E-01 
    9.8840099785059388E-01 
    9.9604872616595985E-01 
    9.8073535836582937E-01 
    9.7307125747800605E-01 
    9.7309481426787903E-01 
    9.8075056959347251E-01 
    9.8076573684657731E-01 
    9.7311825104842731E-01 
    9.7314158087179425E-01 
    9.8078087011970327E-01 
    9.9604726799996390E-01 
    9.8840786126215496E-01 
    9.8841471943080772E-01 
    9.9604581193007036E-01 
    9.9604435878996878E-01 
    9.8842160108885235E-01 
    9.8842855711218669E-01 
    9.9604290954102981E-01 
    9.8079602699930080E-01 
    9.7316489174881238E-01 
    9.7318834498677775E-01 
    9.8081131106327746E-01 
    9.8082686681401632E-01 
    9.7321216900869190E-01 
    9.7323664738988802E-01 
    9.8084287000111736E-01 
    9.9604146522693349E-01 
    9.8843565771024267E-01 
    9.8844298726962831E-01 
    9.9604002687972626E-01 
    9.6552558127786114E-01 
    9.5787568139047430E-01 
    9.5791461889973206E-01 
    9.6555695346407555E-01 
    9.5021305037959003E-01 
    9.4253589266116666E-01 
    9.4258843930198499E-01 
    9.5025908606092557E-01 
    9.5030535205638811E-01 
    9.4264091470457712E-01 
    9.4269414314333000E-01 
    9.5035254572776140E-01 
    9.6558874515249116E-01 
    9.5795394181689153E-01 
    9.5799420874517693E-01 
    9.6562136963914569E-01 
    9.6565531361366341E-01 
    9.5803611335913674E-01 
    9.5808052070112582E-01 
    9.6569110003903791E-01 
    9.5040153142639272E-01 
    9.4274900766962388E-01 
    9.4280640359485091E-01 
    9.5045349249175426E-01 
    9.5051053784680373E-01 
    9.4286808392804367E-01 
    9.4294386054300416E-01 
    9.5057710728244327E-01 
    9.6572916275369725E-01 
    9.5812849103897113E-01 
    9.5818085777430406E-01 
    9.6576944754330130E-01 
    9.9603859535670680E-01 
    9.8845063630706742E-01 
    9.8845869112025042E-01 
    9.9603717109565393E-01 
    9.8085951109505276E-01 
    9.7326209688770948E-01 
    9.7328882369953551E-01 
    9.8087696886469267E-01 
    9.8089537527967718E-01 
    9.7331703397477420E-01 
    9.7334668002737734E-01 
    9.8091479768163625E-01 
    9.9603575380707865E-01 
    9.8846722709306722E-01 
    9.8847632765276339E-01 
    9.9603434218761777E-01 
    9.3484282864559787E-01 
    9.2713296356309216E-01 
    9.2719617272553445E-01 
    9.3490116335266205E-01 
    9.1940598232237403E-01 
    9.1166229947724298E-01 
    9.1173145021987356E-01 
    9.1947287716845005E-01 
    9.1953756185183244E-01 
    9.1179671165723097E-01 
    9.1186020960210368E-01 
    9.1960201753637072E-01 
    9.3495898044547743E-01 
    9.2725823384593431E-01 
    9.2732070902492736E-01 
    9.3501732672311599E-01 
    9.0390318395048097E-01 
    8.9613080676822265E-01 
    8.9619974720693474E-01 
    9.0397302971994531E-01 
    8.8834821162929956E-01 
    8.8055922282406174E-01 
    8.8062142348587336E-01 
    8.8841462891492340E-01 
    8.8846877000663649E-01 
    8.8066798065891128E-01 
    8.8070057960338732E-01 
    8.8851239169978280E-01 
    9.0403666974403152E-01 
    8.9625963001122499E-01 
    8.9631235708804713E-01 
    9.0409616170782825E-01 
    9.0415419719663681E-01 
    8.9636019730950500E-01 
    8.9640578751147904E-01 
    9.0421422761313297E-01 
    8.8854733711693346E-01 
    8.8072066140931893E-01 
    8.8072938796939504E-01 
    8.8857550978277144E-01 
    8.8859887950276251E-01 
    8.8072776477346026E-01 
    8.8071705910153064E-01 
    8.8861949254044181E-01 
    9.0428048379719062E-01 
    8.9645204889611663E-01 
    8.9650182606141626E-01 
    9.0435744025336584E-01 
    9.3507715038627082E-01 
    9.2738569873474075E-01 
    9.2745621063610961E-01 
    9.3513821355363924E-01 
    9.1966912741936679E-01 
    9.1192493063368829E-01 
    9.1199511897930663E-01 
    9.1974335495042503E-01 
    9.1983241754717315E-01 
    9.1207684834583813E-01 
    9.1217821892670514E-01 
    9.1995094235915231E-01 
    9.3519471328380965E-01 
    9.2753794857445848E-01 
    9.2764880503064062E-01 
    9.3521621869569271E-01 
    9.3560171815413384E-01 
    9.2771165248848764E-01 
    9.2764935418933503E-01 
    9.3539623233543767E-01 
    9.1992706389278966E-01 
    9.1213943028864608E-01 
    9.1210476933511464E-01 
    9.1988559819420401E-01 
    9.1984052684314221E-01 
    9.1207160477768534E-01 
    9.1204132442786534E-01 
    9.1979996841620526E-01 
    9.3529548832842768E-01 
    9.2758420474607139E-01 
    9.2753165589612929E-01 
    9.3523234998559723E-01 
    9.0432644325675726E-01 
    8.9648627649645340E-01 
    8.9647352597498053E-01 
    9.0430117751422334E-01 
    8.8862201165692190E-01 
    8.8073807065430776E-01 
    8.8075389681657912E-01 
    8.8862342629755298E-01 
    8.8862346288614025E-01 
    8.8076565706383381E-01 
    8.8077390260391297E-01 
    8.8862203776659054E-01 
    9.0427848656873455E-01 
    8.9646189260994136E-01 
    8.9645072919600477E-01 
    9.0425774662909508E-01 
    9.0423887966548455E-01 
    8.9643983698878249E-01 
    8.9642911160960148E-01 
    9.0422170686252590E-01 
    8.8861918637149329E-01 
    8.8077897511518599E-01 
    8.8078119098015306E-01 
    8.8861499175904912E-01 
    8.8860953931716180E-01 
    8.8078086493598928E-01 
    8.8077827865383762E-01 
    8.8860289564360861E-01 
    9.0420590150149960E-01 
    8.9641843072019867E-01 
    8.9640765118076804E-01 
    9.0419108074373122E-01 
    9.3518690452888797E-01 
    9.2749024567527782E-01 
    9.2745692912260780E-01 
    9.3515159894506528E-01 
    9.1976558171506684E-01 
    9.1201461866963918E-01 
    9.1199128216884529E-01 
    9.1973665711219199E-01 
    9.1971194821423774E-01 
    9.1197069252726015E-01 
    9.1195213896897498E-01 
    9.1969025731909348E-01 
    9.3512272470017388E-01 
    9.2742925041919255E-01 
    9.2740538549510987E-01 
    9.3509803037056949E-01 
    9.9603293382259384E-01 
    9.8848618489103091E-01 
    9.8848274075289899E-01 
    9.9603686208983244E-01 
    9.8093533733920724E-01 
    9.7337735130235492E-01 
    9.7336147727608757E-01 
    9.8092522999077680E-01 
    9.8091587378349765E-01 
    9.7334572387298968E-01 
    9.7333049474374433E-01 
    9.8090710939824011E-01 
    9.9604078688174147E-01 
    9.8847991720234929E-01 
    9.8847748652620815E-01 
    9.9604470493874886E-01 
    9.6581051748204283E-01 
    9.5823550861440498E-01 
    9.5820843539442846E-01 
    9.6578948403597986E-01 
    9.5065820710345894E-01 
    9.4309722269265062E-01 
    9.4301993233896386E-01 
    9.5061876295420678E-01 
    9.5057345722438658E-01 
    9.4295064621331126E-01 
    9.4289676303993986E-01 
    9.5053226937171020E-01 
    9.6576689430864082E-01 
    9.5817706164019256E-01 
    9.5814647722124902E-01 
    9.6574464912179747E-01 
    9.6572402841600491E-01 
    9.5811889360620950E-01 
    9.5809475567498348E-01 
    9.6570552138857657E-01 
    9.5049723028183319E-01 
    9.4285477574499776E-01 
    9.4282113564399639E-01 
    9.5046777837038166E-01 
    9.5044273884364872E-01 
    9.4279326731487489E-01 
    9.4276929954039179E-01 
    9.5042090862930184E-01 
    9.6568907868742582E-01 
    9.5807370317724605E-01 
    9.5805507362573483E-01 
    9.6567435945976565E-01 
    9.9604861348660223E-01 
    9.8847542244993392E-01 
    9.8847374164919743E-01 
    9.9605251027282860E-01 
    9.8089904558264618E-01 
    9.7331630819909920E-01 
    9.7330344524803536E-01 
    9.8089178468888272E-01 
    9.8088532963848640E-01 
    9.7329191993404651E-01 
    9.7328155359134394E-01 
    9.8087958272373177E-01 
    9.9605639345083374E-01 
    9.8847243698070264E-01 
    9.8847146205859715E-01 
    9.9606026140253690E-01 
    9.9606411257295013E-01 
    9.8847073772389948E-01 
    9.8847016407415000E-01 
    9.9606794536977783E-01 
    9.8087437506041053E-01 
    9.7327205576333098E-01 
    9.7326308524956873E-01 
    9.8086949824274949E-01 
    9.8086472845525607E-01 
    9.7325429204554670E-01 
    9.7324534569487087E-01 
    9.8085983923258568E-01 
    9.9607175817171412E-01 
    9.8846963056901505E-01 
    9.8846902030925365E-01 
    9.9607554949062660E-01 
    9.6566089031985491E-01 
    9.5803812055251925E-01 
    9.5802209807017191E-01 
    9.6564815505281676E-01 
    9.5040118301076426E-01 
    9.4274777628700546E-01 
    9.4272745140583647E-01 
    9.5038254794403088E-01 
    9.5036404337848324E-01 
    9.4270712257849965E-01 
    9.4268545768350731E-01 
    9.5034475227799931E-01 
    9.6563564888075226E-01 
    9.5800629884280153E-01 
    9.5799010382683636E-01 
    9.6562292593042032E-01 
    9.6560965676657462E-01 
    9.5797310680071768E-01 
    9.5795538861715834E-01 
    9.6559567530463208E-01 
    9.5032391728475019E-01 
    9.4266080614494618E-01 
    9.4263124857873637E-01 
    9.5030148256078872E-01 
    9.5027982087996610E-01 
    9.4259674138579341E-01 
    9.4257438187889431E-01 
    9.5026757247700577E-01 
    9.6558086986916836E-01 
    9.5793790107028753E-01 
    9.5792211014444240E-01 
    9.6556447455744554E-01 
    9.9607931833414465E-01 
    9.8846820412645475E-01 
    9.8846701799358438E-01 
    9.9608306479296682E-01 
    9.8085459576110456E-01 
    9.7323594654279189E-01 
    9.7322579056665137E-01 
    9.8084871397588180E-01 
    9.8084176037848136E-01 
    9.7321441141194176E-01 
    9.7320079274037652E-01 
    9.8083299425841020E-01 
    9.9608679079503648E-01 
    9.8846521887670402E-01 
    9.8846243012683899E-01 
    9.9609050079309580E-01 
    9.3507591307282389E-01 
    9.2738394239720900E-01 
    9.2736378947286013E-01 
    9.3505505990726978E-01 
    9.1967057465585933E-01 
    9.1193498141976614E-01 
    9.1191873052781558E-01 
    9.1965209057224451E-01 
    9.1963419687974834E-01 
    9.1190312365208270E-01 
    9.1188826493119168E-01 
    9.1961654536737925E-01 
    9.3503419927770226E-01 
    9.2734391406505257E-01 
    9.2732327639048107E-01 
    9.3501177198697316E-01 
    9.0417689412726499E-01 
    8.9639663935879010E-01 
    8.9638531168500446E-01 
    9.0416309645973525E-01 
    8.8859510360755400E-01 
    8.8077364640683209E-01 
    8.8076708781427049E-01 
    8.8858618775257758E-01 
    8.8857616757517077E-01 
    8.8075860068944967E-01 
    8.8074802407936503E-01 
    8.8856507876143420E-01 
    9.0414963037335760E-01 
    8.9637368831280684E-01 
    8.9636197140485152E-01 
    9.0413675404761085E-01 
    9.0412525123059762E-01 
    8.9635065569738692E-01 
    8.9634065210890812E-01 
    9.0411673500602086E-01 
    8.8855300356176037E-01 
    8.8073498870013178E-01 
    8.8071887808466509E-01 
    8.8854011007801903E-01 
    8.8852669428152686E-01 
    8.8069888989172895E-01 
    8.8067439977451978E-01 
    8.8851320659360211E-01 
    9.0411392575906158E-01 
    8.9633332857843095E-01 
    8.9633022980812838E-01 
    9.0412037736087469E-01 
    9.3498518393092489E-01 
    9.2730063666964457E-01 
    9.2727451819487017E-01 
    9.3494850703580079E-01 
    9.1959928655717693E-01 
    9.1187492336639775E-01 
    9.1186513636575905E-01 
    9.1958384101255708E-01 
    9.1957517932989730E-01 
    9.1186325089709819E-01 
    9.1187692687815813E-01 
    9.1958757743850583E-01 
    9.3488401682159539E-01 
    9.2724476005792300E-01 
    9.2722494754255214E-01 
    9.3472694159443726E-01 
    9.3519749361338134E-01 
    9.2735288957309547E-01 
    9.2735333677628096E-01 
    9.3507708585644655E-01 
    9.1961539645201151E-01 
    9.1187762220513657E-01 
    9.1187937973252198E-01 
    9.1962218523267025E-01 
    9.1961932628611431E-01 
    9.1187865482251040E-01 
    9.1187641405281350E-01 
    9.1961435603222741E-01 
    9.3503922311578724E-01 
    9.2734081169103599E-01 
    9.2733098814142112E-01 
    9.3502445812965262E-01 
    9.0411692057762871E-01 
    8.9633044205307877E-01 
    8.9633280593067766E-01 
    9.0411719752492203E-01 
    8.8851996772669728E-01 
    8.8068854222889836E-01 
    8.8069966564401625E-01 
    8.8852640784435266E-01 
    8.8853191845352519E-01 
    8.8070853028442708E-01 
    8.8071536378191595E-01 
    8.8853612826213957E-01 
    9.0411764349756440E-01 
    8.9633533249799147E-01 
    8.9633711840461272E-01 
    9.0411735053408082E-01 
    9.0411618823703166E-01 
    8.9633781820877700E-01 
    8.9633728511954547E-01 
    9.0411410538409054E-01 
    8.8853883603171657E-01 
    8.8072017857917095E-01 
    8.8072296765385472E-01 
    8.8853994102021905E-01 
    8.8853939533827009E-01 
    8.8072375166615668E-01 
    8.8072256402791882E-01 
    8.8853717725815184E-01 
    9.0411100272976597E-01 
    8.9633542945877509E-01 
    8.9633218654085312E-01 