# vtk DataFile Version 2.0
Pressure Field Data 
ASCII 
DATASET UNSTRUCTURED_GRID 

POINTS 289 double 

    0.0000000000000000E+00     0.0000000000000000E+00     0.0000000000000000E+00 
    1.0000000000000000E+00     0.0000000000000000E+00     0.0000000000000000E+00 
    1.0000000000000000E+00     1.0000000000000000E+00     0.0000000000000000E+00 
    0.0000000000000000E+00     1.0000000000000000E+00     0.0000000000000000E+00 
    6.2499999999872928E-02     0.0000000000000000E+00     0.0000000000000000E+00 
    1.2499999999977310E-01     0.0000000000000000E+00     0.0000000000000000E+00 
    1.8749999999959341E-01     0.0000000000000000E+00     0.0000000000000000E+00 
    2.4999999999941089E-01     0.0000000000000000E+00     0.0000000000000000E+00 
    3.1249999999922851E-01     0.0000000000000000E+00     0.0000000000000000E+00 
    3.7499999999904610E-01     0.0000000000000000E+00     0.0000000000000000E+00 
    4.3749999999886358E-01     0.0000000000000000E+00     0.0000000000000000E+00 
    4.9999999999869210E-01     0.0000000000000000E+00     0.0000000000000000E+00 
    5.6249999999884603E-01     0.0000000000000000E+00     0.0000000000000000E+00 
    6.2499999999901090E-01     0.0000000000000000E+00     0.0000000000000000E+00 
    6.8749999999917577E-01     0.0000000000000000E+00     0.0000000000000000E+00 
    7.4999999999934064E-01     0.0000000000000000E+00     0.0000000000000000E+00 
    8.1249999999950551E-01     0.0000000000000000E+00     0.0000000000000000E+00 
    8.7499999999967026E-01     0.0000000000000000E+00     0.0000000000000000E+00 
    9.3749999999983513E-01     0.0000000000000000E+00     0.0000000000000000E+00 
    1.0000000000000000E+00     6.2499999999872928E-02     0.0000000000000000E+00 
    1.0000000000000000E+00     1.2499999999977310E-01     0.0000000000000000E+00 
    1.0000000000000000E+00     1.8749999999959341E-01     0.0000000000000000E+00 
    1.0000000000000000E+00     2.4999999999941089E-01     0.0000000000000000E+00 
    1.0000000000000000E+00     3.1249999999922851E-01     0.0000000000000000E+00 
    1.0000000000000000E+00     3.7499999999904610E-01     0.0000000000000000E+00 
    1.0000000000000000E+00     4.3749999999886358E-01     0.0000000000000000E+00 
    1.0000000000000000E+00     4.9999999999869210E-01     0.0000000000000000E+00 
    1.0000000000000000E+00     5.6249999999884603E-01     0.0000000000000000E+00 
    1.0000000000000000E+00     6.2499999999901090E-01     0.0000000000000000E+00 
    1.0000000000000000E+00     6.8749999999917577E-01     0.0000000000000000E+00 
    1.0000000000000000E+00     7.4999999999934064E-01     0.0000000000000000E+00 
    1.0000000000000000E+00     8.1249999999950551E-01     0.0000000000000000E+00 
    1.0000000000000000E+00     8.7499999999967026E-01     0.0000000000000000E+00 
    1.0000000000000000E+00     9.3749999999983513E-01     0.0000000000000000E+00 
    9.3749999999973976E-01     1.0000000000000000E+00     0.0000000000000000E+00 
    8.7499999999950118E-01     1.0000000000000000E+00     0.0000000000000000E+00 
    8.1249999999991318E-01     1.0000000000000000E+00     0.0000000000000000E+00 
    7.5000000000034706E-01     1.0000000000000000E+00     0.0000000000000000E+00 
    6.8750000000078049E-01     1.0000000000000000E+00     0.0000000000000000E+00 
    6.2500000000121403E-01     1.0000000000000000E+00     0.0000000000000000E+00 
    5.6250000000164757E-01     1.0000000000000000E+00     0.0000000000000000E+00 
    5.0000000000205946E-01     1.0000000000000000E+00     0.0000000000000000E+00 
    4.3750000000182099E-01     1.0000000000000000E+00     0.0000000000000000E+00 
    3.7500000000156092E-01     1.0000000000000000E+00     0.0000000000000000E+00 
    3.1250000000130068E-01     1.0000000000000000E+00     0.0000000000000000E+00 
    2.5000000000104050E-01     1.0000000000000000E+00     0.0000000000000000E+00 
    1.8750000000078040E-01     1.0000000000000000E+00     0.0000000000000000E+00 
    1.2500000000052031E-01     1.0000000000000000E+00     0.0000000000000000E+00 
    6.2500000000260125E-02     1.0000000000000000E+00     0.0000000000000000E+00 
    0.0000000000000000E+00     9.3749999999973976E-01     0.0000000000000000E+00 
    0.0000000000000000E+00     8.7499999999950118E-01     0.0000000000000000E+00 
    0.0000000000000000E+00     8.1249999999991318E-01     0.0000000000000000E+00 
    0.0000000000000000E+00     7.5000000000034706E-01     0.0000000000000000E+00 
    0.0000000000000000E+00     6.8750000000078049E-01     0.0000000000000000E+00 
    0.0000000000000000E+00     6.2500000000121403E-01     0.0000000000000000E+00 
    0.0000000000000000E+00     5.6250000000164757E-01     0.0000000000000000E+00 
    0.0000000000000000E+00     5.0000000000205946E-01     0.0000000000000000E+00 
    0.0000000000000000E+00     4.3750000000182099E-01     0.0000000000000000E+00 
    0.0000000000000000E+00     3.7500000000156092E-01     0.0000000000000000E+00 
    0.0000000000000000E+00     3.1250000000130068E-01     0.0000000000000000E+00 
    0.0000000000000000E+00     2.5000000000104050E-01     0.0000000000000000E+00 
    0.0000000000000000E+00     1.8750000000078040E-01     0.0000000000000000E+00 
    0.0000000000000000E+00     1.2500000000052031E-01     0.0000000000000000E+00 
    0.0000000000000000E+00     6.2500000000260125E-02     0.0000000000000000E+00 
    6.2499999999897131E-02     6.2500000000235922E-02     0.0000000000000000E+00 
    6.2499999999921327E-02     1.2500000000047351E-01     0.0000000000000000E+00 
    6.2499999999945530E-02     1.8750000000070621E-01     0.0000000000000000E+00 
    6.2499999999969733E-02     2.5000000000093858E-01     0.0000000000000000E+00 
    6.2499999999993928E-02     3.1250000000117117E-01     0.0000000000000000E+00 
    6.2500000000018124E-02     3.7500000000140382E-01     0.0000000000000000E+00 
    6.2500000000042327E-02     4.3750000000163619E-01     0.0000000000000000E+00 
    6.2500000000066530E-02     5.0000000000184897E-01     0.0000000000000000E+00 
    6.2500000000090733E-02     5.6250000000147260E-01     0.0000000000000000E+00 
    6.2500000000114922E-02     6.2500000000107636E-01     0.0000000000000000E+00 
    6.2500000000139125E-02     6.8750000000068034E-01     0.0000000000000000E+00 
    6.2500000000163328E-02     7.5000000000028411E-01     0.0000000000000000E+00 
    6.2500000000187531E-02     8.1249999999988787E-01     0.0000000000000000E+00 
    6.2500000000211720E-02     8.7499999999951172E-01     0.0000000000000000E+00 
    6.2500000000235922E-02     9.3749999999974565E-01     0.0000000000000000E+00 
    1.2499999999981980E-01     6.2500000000211733E-02     0.0000000000000000E+00 
    1.2499999999986650E-01     1.2500000000042691E-01     0.0000000000000000E+00 
    1.2499999999991319E-01     1.8750000000063199E-01     0.0000000000000000E+00 
    1.2499999999995989E-01     2.5000000000083678E-01     0.0000000000000000E+00 
    1.2500000000000661E-01     3.1250000000104172E-01     0.0000000000000000E+00 
    1.2500000000005329E-01     3.7500000000124661E-01     0.0000000000000000E+00 
    1.2500000000010000E-01     4.3750000000145117E-01     0.0000000000000000E+00 
    1.2500000000014669E-01     5.0000000000163858E-01     0.0000000000000000E+00 
    1.2500000000019340E-01     5.6250000000129741E-01     0.0000000000000000E+00 
    1.2500000000024011E-01     6.2500000000093847E-01     0.0000000000000000E+00 
    1.2500000000028680E-01     6.8750000000057998E-01     0.0000000000000000E+00 
    1.2500000000033351E-01     7.5000000000022127E-01     0.0000000000000000E+00 
    1.2500000000038020E-01     8.1249999999986211E-01     0.0000000000000000E+00 
    1.2500000000042691E-01     8.7499999999952238E-01     0.0000000000000000E+00 
    1.2500000000047359E-01     9.3749999999975164E-01     0.0000000000000000E+00 
    1.8749999999966760E-01     6.2500000000187531E-02     0.0000000000000000E+00 
    1.8749999999974179E-01     1.2500000000038020E-01     0.0000000000000000E+00 
    1.8749999999981601E-01     1.8750000000055780E-01     0.0000000000000000E+00 
    1.8749999999989009E-01     2.5000000000073502E-01     0.0000000000000000E+00 
    1.8749999999996431E-01     3.1250000000091221E-01     0.0000000000000000E+00 
    1.8750000000003850E-01     3.7500000000108941E-01     0.0000000000000000E+00 
    1.8750000000011269E-01     4.3750000000126649E-01     0.0000000000000000E+00 
    1.8750000000018691E-01     5.0000000000142808E-01     0.0000000000000000E+00 
    1.8750000000026110E-01     5.6250000000112244E-01     0.0000000000000000E+00 
    1.8750000000033529E-01     6.2500000000080080E-01     0.0000000000000000E+00 
    1.8750000000040951E-01     6.8750000000047962E-01     0.0000000000000000E+00 
    1.8750000000048361E-01     7.5000000000015843E-01     0.0000000000000000E+00 
    1.8750000000055780E-01     8.1249999999983680E-01     0.0000000000000000E+00 
    1.8750000000063199E-01     8.7499999999953304E-01     0.0000000000000000E+00 
    1.8750000000070621E-01     9.3749999999975764E-01     0.0000000000000000E+00 
    2.4999999999951281E-01     6.2500000000163314E-02     0.0000000000000000E+00 
    2.4999999999961461E-01     1.2500000000033351E-01     0.0000000000000000E+00 
    2.4999999999971650E-01     1.8750000000048361E-01     0.0000000000000000E+00 
    2.4999999999981831E-01     2.5000000000063310E-01     0.0000000000000000E+00 
    2.4999999999992020E-01     3.1250000000078260E-01     0.0000000000000000E+00 
    2.5000000000002198E-01     3.7500000000093209E-01     0.0000000000000000E+00 
    2.5000000000012390E-01     4.3750000000108180E-01     0.0000000000000000E+00 
    2.5000000000022571E-01     5.0000000000121769E-01     0.0000000000000000E+00 
    2.5000000000032763E-01     5.6250000000094724E-01     0.0000000000000000E+00 
    2.5000000000042938E-01     6.2500000000066314E-01     0.0000000000000000E+00 
    2.5000000000053119E-01     6.8750000000037925E-01     0.0000000000000000E+00 
[...]
CELL_DATA 256 
SCALARS Pressure double 1 
LOOKUP_TABLE default 

    8.0640804391012832E-01 
    7.5532438180668648E-01 
    7.2161082692082412E-01 
    6.9025899299674476E-01 
    6.5781781468043310E-01 
    6.2340547957432868E-01 
    5.8690989693912221E-01 
    5.4876899603373697E-01 
    5.0962546891597049E-01 
    4.7020983530075017E-01 
    4.3130211918443889E-01 
    3.9405878888586915E-01 
    3.6059200849897760E-01 
    3.3374159134848014E-01 
    3.1411391481480916E-01 
    3.0462413307018754E-01 
    7.9245628691100745E-01 
    7.5673486599954631E-01 
    7.2418311840602578E-01 
    6.9311754739395326E-01 
    6.6093565660326248E-01 
    6.2677372751886562E-01 
    5.9048498559546825E-01 
    5.5247504720214446E-01 
    5.1336451612132450E-01 
    4.7386705190657274E-01 
    4.3472706093311597E-01 
    3.9701881356165175E-01 
    3.6277959699964096E-01 
    3.3494557354502907E-01 
    3.1443691579805655E-01 
    3.0425418822053152E-01 
    7.8174405720639761E-01 
    7.5597170098033339E-01 
    7.2596209508044707E-01 
    6.9559438836422782E-01 
    6.6380118043249403E-01 
    6.2994865239943687E-01 
    5.9390438214894647E-01 
    5.5604438263964584E-01 
    5.1695608697354478E-01 
    4.7731613986037558E-01 
    4.3782456447764373E-01 
    3.9946775115104449E-01 
    3.6420851199466209E-01 
    3.3510754313658697E-01 
    3.1361581837342428E-01 
    3.0287873826793144E-01 
    7.7327910232675567E-01 
    7.5408343937687972E-01 
    7.2698564335397486E-01 
    6.9767334908786849E-01 
    6.6641795980137331E-01 
    6.3293986324167706E-01 
    5.9717517958384791E-01 
    5.5948448472687495E-01 
    5.2041658901091414E-01 
    4.8059475242866584E-01 
    4.4065812886120254E-01 
    4.0148913137139719E-01 
    3.6496107810499268E-01 
    3.3427277501603730E-01 
    3.1157246918853038E-01 
    3.0026738985356249E-01 
    7.6640652651604368E-01 
    7.5165159936179982E-01 
    7.2738427762846902E-01 
    6.9936507556290850E-01 
    6.6879131870678876E-01 
    6.3575985826481818E-01 
    6.0031238854912483E-01 
    5.6281153557848695E-01 
    5.2376904244303801E-01 
    4.8374431539626522E-01 
    4.4329576696315082E-01 
    4.0317666950582293E-01 
    3.6513525494877530E-01 
    3.3249486584758559E-01 
    3.0821168678554661E-01 
    2.9615018882610855E-01 
    7.6075052730323989E-01 
    7.4902951008668905E-01 
    7.2731317633636106E-01 
    7.0070703905861387E-01 
    6.7093373361663577E-01 
    6.3842149294633344E-01 
    6.0333503549471201E-01 
    5.6604879314244405E-01 
    5.2704243215250191E-01 
    4.8680938191977785E-01 
    4.4580750988823775E-01 
    4.0463217400936535E-01 
    3.6484677713102809E-01 
    3.2984029356016781E-01 
    3.0343391886464727E-01 
    2.9023354264740459E-01 
    7.5606808515454338E-01 
    7.4644174289464826E-01 
    7.2693141338607481E-01 
    7.0176231640525388E-01 
    6.7287047571395664E-01 
    6.4094090447368601E-01 
    6.0625978392622448E-01 
    5.6922000330038902E-01 
    5.3027027711731456E-01 
    4.8983707746988181E-01 
    4.4826729834382306E-01 
    4.0596508656462993E-01 
    3.6423170465701787E-01 
    3.2640478894247493E-01 
    2.9715920128438639E-01 
    2.8220707546031493E-01 
    7.5218761981818882E-01 
    7.4402608567770256E-01 
    7.2638138609065794E-01 
    7.0260481401376185E-01 
    6.7463787053689039E-01 
    6.4333887285552460E-01 
    6.0910417740535172E-01 
    5.7234541537614447E-01 
    5.3348173609970162E-01 
    4.9287458508581078E-01 
    4.5075120045565337E-01 
    4.0729528336466625E-01 
    3.6345129711636864E-01 
    3.2232877900606527E-01 
    2.8935357946670698E-01 
    2.7175376615779639E-01 
    7.4898480367425802E-01 
    7.4186272564949640E-01 
    7.2577942251038208E-01 
    7.0330970520053426E-01 
    6.7627692764649472E-01 
    6.4563999702515262E-01 
    6.1188492420473184E-01 
    5.7544112515248369E-01 
    5.3670088504284774E-01 
    4.9596374771034157E-01 
    4.5333471327130537E-01 
    4.0875076284335154E-01 
    3.6269806852919084E-01 
    3.1781464964550182E-01 
    2.8003377022846493E-01 
    2.5851793768689907E-01 
    7.4636879376897081E-01 
    7.3999766646852039E-01 
    7.2521691565008262E-01 
    7.0394834476885104E-01 
    6.7783351329298858E-01 
    6.4787282536282031E-01 
    6.1462160045808500E-01 
    5.7852256638144672E-01 
    5.3994671247092019E-01 
    4.9913955461303616E-01 
    4.5608675048949493E-01 
    4.1046277051123281E-01 
    3.6219370169955795E-01 
    3.1313987796818210E-01 
    2.6927727676584756E-01 
    2.4202272878172326E-01 
    7.4427407707870430E-01 
    7.3845978170082205E-01 
    7.2476868960740359E-01 
    7.0458928240659469E-01 
    6.7935733599508441E-01 
    6.5007203967907101E-01 
    6.1733848285961490E-01 
    5.8160927867026579E-01 
    5.4323966309828342E-01 
    5.0243203023188931E-01 
    4.5906653078957144E-01 
    4.1255894606286025E-01 
    3.6218830607516450E-01 
    3.0868539732033523E-01 
    2.5728848316836994E-01 
    2.2163267876726520E-01 
    7.4265782153470028E-01 
    7.3727487079561460E-01 
    7.2450377018097001E-01 
    7.0530271052182003E-01 
    6.8090440854704948E-01 
    6.5227937632030686E-01 
    6.2006956949635428E-01 
    5.8472804576392845E-01 
    5.4659925304667434E-01 
    5.0585923207655648E-01 
    4.6230808226887021E-01 
    4.1514306515655708E-01 
    3.6294581131802434E-01 
    3.0495529688345963E-01 
    2.4448445493902130E-01 
    1.9648333832025644E-01 
    7.4149458318196793E-01 
    7.3647409405655495E-01 
    7.2449091238321972E-01 
    7.0615972287429474E-01 
    6.8252977011174598E-01 
    6.5453476920102238E-01 
    6.2284752492482653E-01 
    5.8790190971677236E-01 
    5.5002421718880823E-01 
    5.0938475798289262E-01 
    4.6575251614232155E-01 
    4.1819054281756296E-01 
    3.6460862452325010E-01 
    3.0245835252840464E-01 
    2.3151937267641176E-01 
    1.6526898949146010E-01 
    7.4065860244067938E-01 
    7.3600426033466437E-01 
    7.2473817706614396E-01 
    7.0718556828607304E-01 
    6.8423847110810110E-01 
    6.5679617230549603E-01 
    6.2558580038784228E-01 
    5.9103261307971378E-01 
    5.5340467048972186E-01 
    5.1287628573938149E-01 
    4.6922979964642975E-01 
    4.2147089837443286E-01 
    3.6704208259904797E-01 
    3.0150410825790597E-01 
    2.1921366349431287E-01 
    1.2560324010447174E-01 
    7.4007118268297201E-01 
    7.3574406793191038E-01 
    7.2513228593087720E-01 
    7.0829639751160567E-01 
    6.8597775737226407E-01 
    6.5903512077044424E-01 
    6.2825488554170095E-01 
    5.9410032472359875E-01 
    5.5678056972307088E-01 
    5.1646469226952707E-01 
    4.7295799220246099E-01 
    4.2526482501078894E-01 
    3.7069734474776489E-01 
    3.0329236235592916E-01 
    2.0989738207001307E-01 
    7.3081055172588644E-02 
    7.3988840960665414E-01 
    7.3591043310529114E-01 
    7.2589519497619059E-01 
    7.0970145465354317E-01 
    6.8796180927062356E-01 
    6.6150128269725050E-01 
    6.3112731964068336E-01 
    5.9734843590202413E-01 
    5.6036782566464827E-01 
    5.2034764895169849E-01 
    4.7712375585325822E-01 
    4.2975005772180308E-01 
    3.7567259565902894E-01 
    3.0879325646861105E-01 
    2.1030613861580569E-01 
    0.0000000000000000E+00 

SCALARS Saturarion double 1 
LOOKUP_TABLE default 

    1.0000000000000011E+00 
    9.7009412450844013E-01 
    9.1722156834836810E-01 
    8.5112982198652309E-01 
    7.9502287649940417E-01 
    7.4718506058865153E-01 
    7.0723383632933035E-01 
    6.7356382884121213E-01 
    6.4420224260876069E-01 
    6.1742794724015437E-01 
    5.9173241372335206E-01 
    5.6584684745154501E-01 
    5.3855224178960470E-01 
    4.9985037441708985E-01 
    3.2315481148413638E-01 
    2.9011339840548569E-03 
    9.8808012240058685E-01 
    9.5972860546795280E-01 
    9.0437857640749997E-01 
    8.4234701769426168E-01 
    7.8955784584712019E-01 
    7.4382821644894426E-01 
    7.0467307695570691E-01 
    6.7114500184696468E-01 
    6.4194231467095542E-01 
    6.1558584998358223E-01 
    5.9070786169173639E-01 
    5.6589357590046874E-01 
    5.3965207640156376E-01 
    5.0255449297480770E-01 
    3.4877490089600088E-01 
    9.3321905463462935E-03 
    9.6934393755855475E-01 
    9.4149325938109618E-01 
    8.8643405758319227E-01 
    8.2743066623072281E-01 
    7.7870135510012994E-01 
    7.3657976792927848E-01 
    6.9929215626572361E-01 
    6.6619867305786551E-01 
    6.3706990370284999E-01 
    6.1118856386039910E-01 
    5.8752688577138878E-01 
    5.6443202640483103E-01 
    5.4003296834410963E-01 
    5.0597735725687243E-01 
    3.7434881164070188E-01 
    2.3281388790729732E-02 
    9.3648903116118676E-01 
    9.1367849241381305E-01 
    8.6481465844346073E-01 
    8.1021710566248739E-01 
    7.6335959207648041E-01 
    7.2442887302850345E-01 
    6.9016739239719371E-01 
    6.5931787986686397E-01 
    6.3153201249311464E-01 
    6.0671247260893191E-01 
    5.8407368457981923E-01 
    5.6240482224544330E-01 
    5.3989474016769712E-01 
    5.0967364832772533E-01 
    3.9705811454857876E-01 
    5.0535268167494062E-02 
    8.9833009146543297E-01 
    8.7898694249224485E-01 
    8.3638453050135098E-01 
    7.8775042462423217E-01 
    7.4419242497955473E-01 
    7.0770980312502429E-01 
    6.7654058648789572E-01 
    6.4889109422155300E-01 
    6.2392354153317442E-01 
    6.0124320404892850E-01 
    5.8037452294874237E-01 
    5.6034717042660342E-01 
    5.3957120395554403E-01 
    5.1246776715875475E-01 
    4.1633623092623306E-01 
    8.2360580243036774E-02 
    8.5798417257784876E-01 
    8.4221006718126135E-01 
    8.0602207829148542E-01 
    7.6330092573529207E-01 
    7.2368924537219825E-01 
    6.8940949744526570E-01 
    6.6000808994697402E-01 
    6.3488570069022565E-01 
    6.1286526727285506E-01 
    5.9295069184357196E-01 
    5.7455644263363959E-01 
    5.5707868214456457E-01 
    5.3891361784749592E-01 
    5.1524537668072823E-01 
    4.3089397045797634E-01 
    1.1774236427480035E-01 
    8.1570200671380266E-01 
    8.0421597513464305E-01 
    7.7487939289732710E-01 
    7.3781454330345075E-01 
    7.0214310450677253E-01 
    6.7046157138052143E-01 
    6.4312711752928542E-01 
    6.1953762090815556E-01 
    5.9934789523920984E-01 
    5.8181970320057363E-01 
    5.6621807992458806E-01 
    5.5170772513976463E-01 
    5.3694465955274318E-01 
    5.1721180006392231E-01 
    4.4405537279580487E-01 
    1.5594143113962736E-01 
    7.7154426500413942E-01 
    7.6465538264002708E-01 
    7.4262250413799802E-01 
    7.1137832592855832E-01 
    6.7927945751883090E-01 
    6.5017331521287547E-01 
    6.2468325762699317E-01 
    6.0275393203725181E-01 
    5.8403588042208854E-01 
    5.6841862188958692E-01 
    5.5540526440428584E-01 
    5.4415218540355081E-01 
    5.3312914409978163E-01 
    5.1823340916636407E-01 
    4.5674371569767258E-01 
    1.9427301098166305E-01 
    7.2570470052752911E-01 
    7.2297930887901318E-01 
    7.0760723991329844E-01 
    6.8243858684772540E-01 
    6.5469057171936862E-01 
    6.2838134739121076E-01 
    6.0482751063942664E-01 
    5.8400781604582785E-01 
    5.6618060725904251E-01 
    5.5184600460821853E-01 
    5.4124074735828442E-01 
    5.3361980053173574E-01 
    5.2704837707073704E-01 
    5.1765685081310764E-01 
    4.6798362204521377E-01 
    2.2825559289898481E-01 
    6.7815249315263959E-01 
    6.7910257998484180E-01 
    6.6966084293379724E-01 
    6.5017809267706428E-01 
    6.2718759201739849E-01 
    6.0435273233954823E-01 
    5.8292549201805766E-01 
    5.6360809269665302E-01 
    5.4696079831199451E-01 
    5.3382515853916834E-01 
    5.2454620113880090E-01 
    5.1945519190295986E-01 
    5.1767341980234372E-01 
    5.1456734414138383E-01 
    4.7751261320618965E-01 
    2.5953107887351051E-01 
    6.2891877964660403E-01 
    6.3301884823000598E-01 
    6.2891861126591209E-01 
    6.1480945577791180E-01 
    5.9667381515982543E-01 
    5.7785448113239635E-01 
    5.5968093073522240E-01 
    5.4260649574780107E-01 
    5.2764409306393878E-01 
    5.1556990233833300E-01 
    5.0675693338890282E-01 
    5.0234153150272920E-01 
    5.0404670499803561E-01 
    5.0825080583796411E-01 
    4.8507140186934633E-01 
    2.8992603096020142E-01 
    5.7945218286468181E-01 
    5.8579415090874531E-01 
    5.8662595957995800E-01 
    5.7786238561946912E-01 
    5.6397129130785495E-01 
    5.4841083693720405E-01 
    5.3358784571598183E-01 
    5.2017884486815369E-01 
    5.0717329590876614E-01 
    4.9502008529177183E-01 
    4.8519514886259141E-01 
    4.8042559173660587E-01 
    4.8489940707166623E-01 
    4.9691536675121956E-01 
    4.8894597858678474E-01 
    3.1923223245836607E-01 
    5.3022522359543789E-01 
    5.3915742760934082E-01 
    5.4334622210789518E-01 
    5.3870893713684109E-01 
    5.2775735597677853E-01 
    5.1385496055907831E-01 
    5.0043312893783365E-01 
    4.8773758209251356E-01 
    4.7360904177419616E-01 
    4.5394865609284762E-01 
    4.3019331212781192E-01 
    4.1729256978930229E-01 
    4.2818513829833338E-01 
    4.6501614492612264E-01 
    4.8210349536128233E-01 
    3.4610967737656190E-01 
    4.0764322381185603E-01 
    4.4225106186655871E-01 
    4.6388461229822447E-01 
    4.6704974441243213E-01 
    4.5710905061889273E-01 
    4.3164946910287671E-01 
    3.8467416023021089E-01 
    3.1658054817673592E-01 
    2.5462030362432114E-01 
    1.7037178106934078E-01 
    1.1612071473281674E-01 
    1.0568775037912700E-01 
    1.7303189919976131E-01 
    3.4508565099656302E-01 
    4.4698594268299813E-01 
    3.6336965003554594E-01 
    4.0296991420394453E-02 
    1.1567181349831218E-01 
    1.4632416179435187E-01 
    1.6019135578929294E-01 
    1.3632087090531472E-01 
    8.2745832676220418E-02 
    2.4422336678863930E-02 
    3.4464660113521679E-03 
    1.0711533915506992E-03 
    5.1223167966961460E-05 
    1.1059254999253730E-05 
    5.0872053989748795E-06 
    4.3534246484218881E-03 
    9.0950555057997234E-02 
    3.5025849605738824E-01 
    3.6842853385940183E-01 
    1.0005671139088691E-06 
    6.8581304590772539E-05 
    1.0035261431511653E-05 
    3.4241997431276836E-06 
    2.2568959509754631E-05 
    1.5797330444711956E-05 
    3.6156578829046137E-06 
    1.0816824063233447E-06 
    1.0046808876133845E-06 
    1.0000984672587938E-06 
    1.0000121478075355E-06 
    1.0000041594764627E-06 
    2.1004073750334773E-06 
    3.4244232797345877E-03 
    2.0605739783076368E-01 
    3.2997333515099347E-01 
