# vtk DataFile Version 2.0
Pressure Field Data 
ASCII 
DATASET UNSTRUCTURED_GRID 

POINTS 289 double 

    0.0000000000000000E+00     0.0000000000000000E+00     0.0000000000000000E+00 
    1.0000000000000000E+00     0.0000000000000000E+00     0.0000000000000000E+00 
    1.0000000000000000E+00     1.0000000000000000E+00     0.0000000000000000E+00 
    0.0000000000000000E+00     1.0000000000000000E+00     0.0000000000000000E+00 
    6.2499999999872928E-02     0.0000000000000000E+00     0.0000000000000000E+00 
    1.2499999999977310E-01     0.0000000000000000E+00     0.0000000000000000E+00 
    1.8749999999959341E-01     0.0000000000000000E+00     0.0000000000000000E+00 
    2.4999999999941089E-01     0.0000000000000000E+00     0.0000000000000000E+00 
    3.1249999999922851E-01     0.0000000000000000E+00     0.0000000000000000E+00 
    3.7499999999904610E-01     0.0000000000000000E+00     0.0000000000000000E+00 
    4.3749999999886358E-01     0.0000000000000000E+00     0.0000000000000000E+00 
    4.9999999999869210E-01     0.0000000000000000E+00     0.0000000000000000E+00 
    5.6249999999884603E-01     0.0000000000000000E+00     0.0000000000000000E+00 
    6.2499999999901090E-01     0.0000000000000000E+00     0.0000000000000000E+00 
    6.8749999999917577E-01     0.0000000000000000E+00     0.0000000000000000E+00 
    7.4999999999934064E-01     0.0000000000000000E+00     0.0000000000000000E+00 
    8.1249999999950551E-01     0.0000000000000000E+00     0.0000000000000000E+00 
    8.7499999999967026E-01     0.0000000000000000E+00     0.0000000000000000E+00 
    9.3749999999983513E-01     0.0000000000000000E+00     0.0000000000000000E+00 
    1.0000000000000000E+00     6.2499999999872928E-02     0.0000000000000000E+00 
    1.0000000000000000E+00     1.2499999999977310E-01     0.0000000000000000E+00 
    1.0000000000000000E+00     1.8749999999959341E-01     0.0000000000000000E+00 
    1.0000000000000000E+00     2.4999999999941089E-01     0.0000000000000000E+00 
    1.0000000000000000E+00     3.1249999999922851E-01     0.0000000000000000E+00 
    1.0000000000000000E+00     3.7499999999904610E-01     0.0000000000000000E+00 
    1.0000000000000000E+00     4.3749999999886358E-01     0.0000000000000000E+00 
    1.0000000000000000E+00     4.9999999999869210E-01     0.0000000000000000E+00 
    1.0000000000000000E+00     5.6249999999884603E-01     0.0000000000000000E+00 
    1.0000000000000000E+00     6.2499999999901090E-01     0.0000000000000000E+00 
    1.0000000000000000E+00     6.8749999999917577E-01     0.0000000000000000E+00 
    1.0000000000000000E+00     7.4999999999934064E-01     0.0000000000000000E+00 
    1.0000000000000000E+00     8.1249999999950551E-01     0.0000000000000000E+00 
    1.0000000000000000E+00     8.7499999999967026E-01     0.0000000000000000E+00 
    1.0000000000000000E+00     9.3749999999983513E-01     0.0000000000000000E+00 
    9.3749999999973976E-01     1.0000000000000000E+00     0.0000000000000000E+00 
    8.7499999999950118E-01     1.0000000000000000E+00     0.0000000000000000E+00 
    8.1249999999991318E-01     1.0000000000000000E+00     0.0000000000000000E+00 
    7.5000000000034706E-01     1.0000000000000000E+00     0.0000000000000000E+00 
    6.8750000000078049E-01     1.0000000000000000E+00     0.0000000000000000E+00 
    6.2500000000121403E-01     1.0000000000000000E+00     0.0000000000000000E+00 
    5.6250000000164757E-01     1.0000000000000000E+00     0.0000000000000000E+00 
    5.0000000000205946E-01     1.0000000000000000E+00     0.0000000000000000E+00 
    4.3750000000182099E-01     1.0000000000000000E+00     0.0000000000000000E+00 
    3.7500000000156092E-01     1.0000000000000000E+00     0.0000000000000000E+00 
    3.1250000000130068E-01     1.0000000000000000E+00     0.0000000000000000E+00 
    2.5000000000104050E-01     1.0000000000000000E+00     0.0000000000000000E+00 
    1.8750000000078040E-01     1.0000000000000000E+00     0.0000000000000000E+00 
    1.2500000000052031E-01     1.0000000000000000E+00     0.0000000000000000E+00 
    6.2500000000260125E-02     1.0000000000000000E+00     0.0000000000000000E+00 
    0.0000000000000000E+00     9.3749999999973976E-01     0.0000000000000000E+00 
    0.0000000000000000E+00     8.7499999999950118E-01     0.0000000000000000E+00 
    0.0000000000000000E+00     8.1249999999991318E-01     0.0000000000000000E+00 
    0.0000000000000000E+00     7.5000000000034706E-01     0.0000000000000000E+00 
    0.0000000000000000E+00     6.8750000000078049E-01     0.0000000000000000E+00 
    0.0000000000000000E+00     6.2500000000121403E-01     0.0000000000000000E+00 
    0.0000000000000000E+00     5.6250000000164757E-01     0.0000000000000000E+00 
    0.0000000000000000E+00     5.0000000000205946E-01     0.0000000000000000E+00 
    0.0000000000000000E+00     4.3750000000182099E-01     0.0000000000000000E+00 
    0.0000000000000000E+00     3.7500000000156092E-01     0.0000000000000000E+00 
    0.0000000000000000E+00     3.1250000000130068E-01     0.0000000000000000E+00 
    0.0000000000000000E+00     2.5000000000104050E-01     0.0000000000000000E+00 
    0.0000000000000000E+00     1.8750000000078040E-01     0.0000000000000000E+00 
    0.0000000000000000E+00     1.2500000000052031E-01     0.0000000000000000E+00 
    0.0000000000000000E+00     6.2500000000260125E-02     0.0000000000000000E+00 
    6.2499999999897131E-02     6.2500000000235922E-02     0.0000000000000000E+00 
    6.2499999999921327E-02     1.2500000000047351E-01     0.0000000000000000E+00 
    6.2499999999945530E-02     1.8750000000070621E-01     0.0000000000000000E+00 
    6.2499999999969733E-02     2.5000000000093858E-01     0.0000000000000000E+00 
    6.2499999999993928E-02     3.1250000000117117E-01     0.0000000000000000E+00 
    6.2500000000018124E-02     3.7500000000140382E-01     0.0000000000000000E+00 
    6.2500000000042327E-02     4.3750000000163619E-01     0.0000000000000000E+00 
    6.2500000000066530E-02     5.0000000000184897E-01     0.0000000000000000E+00 
    6.2500000000090733E-02     5.6250000000147260E-01     0.0000000000000000E+00 
    6.2500000000114922E-02     6.2500000000107636E-01     0.0000000000000000E+00 
    6.2500000000139125E-02     6.8750000000068034E-01     0.0000000000000000E+00 
    6.2500000000163328E-02     7.5000000000028411E-01     0.0000000000000000E+00 
    6.2500000000187531E-02     8.1249999999988787E-01     0.0000000000000000E+00 
    6.2500000000211720E-02     8.7499999999951172E-01     0.0000000000000000E+00 
    6.2500000000235922E-02     9.3749999999974565E-01     0.0000000000000000E+00 
    1.2499999999981980E-01     6.2500000000211733E-02     0.0000000000000000E+00 
    1.2499999999986650E-01     1.2500000000042691E-01     0.0000000000000000E+00 
    1.2499999999991319E-01     1.8750000000063199E-01     0.0000000000000000E+00 
    1.2499999999995989E-01     2.5000000000083678E-01     0.0000000000000000E+00 
    1.2500000000000661E-01     3.1250000000104172E-01     0.0000000000000000E+00 
    1.2500000000005329E-01     3.7500000000124661E-01     0.0000000000000000E+00 
    1.2500000000010000E-01     4.3750000000145117E-01     0.0000000000000000E+00 
    1.2500000000014669E-01     5.0000000000163858E-01     0.0000000000000000E+00 
    1.2500000000019340E-01     5.6250000000129741E-01     0.0000000000000000E+00 
    1.2500000000024011E-01     6.2500000000093847E-01     0.0000000000000000E+00 
    1.2500000000028680E-01     6.8750000000057998E-01     0.0000000000000000E+00 
    1.2500000000033351E-01     7.5000000000022127E-01     0.0000000000000000E+00 
    1.2500000000038020E-01     8.1249999999986211E-01     0.0000000000000000E+00 
    1.2500000000042691E-01     8.7499999999952238E-01     0.0000000000000000E+00 
    1.2500000000047359E-01     9.3749999999975164E-01     0.0000000000000000E+00 
    1.8749999999966760E-01     6.2500000000187531E-02     0.0000000000000000E+00 
    1.8749999999974179E-01     1.2500000000038020E-01     0.0000000000000000E+00 
    1.8749999999981601E-01     1.8750000000055780E-01     0.0000000000000000E+00 
    1.8749999999989009E-01     2.5000000000073502E-01     0.0000000000000000E+00 
    1.8749999999996431E-01     3.1250000000091221E-01     0.0000000000000000E+00 
    1.8750000000003850E-01     3.7500000000108941E-01     0.0000000000000000E+00 
    1.8750000000011269E-01     4.3750000000126649E-01     0.0000000000000000E+00 
    1.8750000000018691E-01     5.0000000000142808E-01     0.0000000000000000E+00 
    1.8750000000026110E-01     5.6250000000112244E-01     0.0000000000000000E+00 
    1.8750000000033529E-01     6.2500000000080080E-01     0.0000000000000000E+00 
    1.8750000000040951E-01     6.8750000000047962E-01     0.0000000000000000E+00 
    1.8750000000048361E-01     7.5000000000015843E-01     0.0000000000000000E+00 
    1.8750000000055780E-01     8.1249999999983680E-01     0.0000000000000000E+00 
    1.8750000000063199E-01     8.7499999999953304E-01     0.0000000000000000E+00 
    1.8750000000070621E-01     9.3749999999975764E-01     0.0000000000000000E+00 
    2.4999999999951281E-01     6.2500000000163314E-02     0.0000000000000000E+00 
    2.4999999999961461E-01     1.2500000000033351E-01     0.0000000000000000E+00 
    2.4999999999971650E-01     1.8750000000048361E-01     0.0000000000000000E+00 
    2.4999999999981831E-01     2.5000000000063310E-01     0.0000000000000000E+00 
    2.4999999999992020E-01     3.1250000000078260E-01     0.0000000000000000E+00 
    2.5000000000002198E-01     3.7500000000093209E-01     0.0000000000000000E+00 
    2.5000000000012390E-01     4.3750000000108180E-01     0.0000000000000000E+00 
    2.5000000000022571E-01     5.0000000000121769E-01     0.0000000000000000E+00 
    2.5000000000032763E-01     5.6250000000094724E-01     0.0000000000000000E+00 
    2.5000000000042938E-01     6.2500000000066314E-01     0.0000000000000000E+00 
    2.5000000000053119E-01     6.8750000000037925E-01     0.0000000000000000E+00 
[...]
CELL_DATA 256 
SCALARS Pressure double 1 
LOOKUP_TABLE default 

    7.1456016357503993E-01 
    6.6443945417629646E-01 
    6.3223241200518943E-01 
    6.0288503157550755E-01 
    5.7290321841134950E-01 
    5.4136614536146299E-01 
    5.0809804210773057E-01 
    4.7342930857354948E-01 
    4.3788791613431149E-01 
    4.0209738816695911E-01 
    3.6675920869421225E-01 
    3.3293956891084336E-01 
    3.0251354525111779E-01 
    2.7818057523244277E-01 
    2.6221733759316385E-01 
    2.5428716059310141E-01 
    7.0058549036748019E-01 
    6.6574715351621894E-01 
    6.3465598435069903E-01 
    6.0555608697740482E-01 
    5.7579210489681154E-01 
    5.4446208347566705E-01 
    5.1136545074441631E-01 
    4.7680707723414567E-01 
    4.4129483852053819E-01 
    4.0543366015460325E-01 
    3.6988840836466758E-01 
    3.3565177702973342E-01 
    3.0452966596114162E-01 
    2.7925804071819571E-01 
    2.6239001717963739E-01 
    2.5385792559323545E-01 
    6.8986816880662116E-01 
    6.6491404133944787E-01 
    6.3631860224284964E-01 
    6.0787988119593606E-01 
    5.7846602363289856E-01 
    5.4740022193962334E-01 
    5.1450687692895303E-01 
    4.8007262861855593E-01 
    4.4457796876995515E-01 
    4.0859281132014008E-01 
    3.7273735131272334E-01 
    3.3792420406994750E-01 
    3.0589427526968327E-01 
    2.7945451939013133E-01 
    2.6153612233183221E-01 
    2.5245073472357898E-01 
    6.8144679331153779E-01 
    6.6299697353018516E-01 
    6.3726186408689256E-01 
    6.0983679077184161E-01 
    5.8092210349276430E-01 
    5.5018704055214873E-01 
    5.1753052697790336E-01 
    4.8323563788050444E-01 
    4.4775339459949581E-01 
    4.1160700005425610E-01 
    3.7535927170399436E-01 
    3.3982837202492799E-01 
    3.0667847137778892E-01 
    2.7880256117255436E-01 
    2.5960304413618573E-01 
    2.4991580000598135E-01 
    6.7467395333339086E-01 
    6.6058562189970138E-01 
    6.3761974175839020E-01 
    6.1143765565701202E-01 
    5.8316083792333728E-01 
    5.5282861572779640E-01 
    5.2044711118803144E-01 
    4.8631026807573330E-01 
    4.5084203801152273E-01 
    4.1451217993002260E-01 
    3.7781167932815723E-01 
    3.4144374112531267E-01 
    3.0696579118903317E-01 
    2.7734543704771264E-01 
    2.5653798433883745E-01 
    2.4609956088143678E-01 
    6.6915334417498906E-01 
    6.5802597112141115E-01 
    6.3754487058249276E-01 
    6.1271817204343826E-01 
    5.8519060933979283E-01 
    5.5533068473947556E-01 
    5.2326729056963128E-01 
    4.8931287590254147E-01 
    4.5386830230077974E-01 
    4.1734814688284261E-01 
    3.8015625667351066E-01 
    3.4285768847373949E-01 
    3.0685424804171763E-01 
    2.7514241847539722E-01 
    2.5228581299165925E-01 
    2.4081583020042349E-01 
    6.6462519186970881E-01 
    6.5552991998660926E-01 
    6.3718787404325061E-01 
    6.1373577505848820E-01 
    5.8703323594015067E-01 
    5.5770469238581866E-01 
    5.2600037374075359E-01 
    4.9225850105583718E-01 
    4.5685819271829481E-01 
    4.2015640587081893E-01 
    3.8245949660368672E-01 
    3.4416635344938196E-01 
    3.0646001735892558E-01 
    2.7227793715999349E-01 
    2.4679979991550335E-01 
    2.3385286231571228E-01 
    6.6090646357872995E-01 
    6.5322329643722621E-01 
    6.3668180571124500E-01 
    6.1455879200978447E-01 
    5.8872230094896560E-01 
    5.5996869212336753E-01 
    5.2865877444633980E-01 
    4.9515999682737089E-01 
    4.5983257145144574E-01 
    4.2297570639468052E-01 
    3.8478823802210732E-01 
    3.4547535137364838E-01 
    3.0592206625358936E-01 
    2.6887156289010250E-01 
    2.4005388662226856E-01 
    2.2496318768269005E-01 
    6.5786396966975547E-01 
    6.5117633540734654E-01 
    6.3613495063700776E-01 
    6.1525717710953032E-01 
    5.9029576262377981E-01 
    5.6214480191708038E-01 
    5.3125636571103152E-01 
    4.9802913687466083E-01 
    4.6280831152970175E-01 
    4.2583753687368675E-01 
    3.8720488619124577E-01 
    3.4689548995452257E-01 
    3.0540553155978256E-01 
    2.6509043127799053E-01 
    2.3205045622704462E-01 
    2.1383621805788255E-01 
    6.5540037007257690E-01 
    6.4942698642139485E-01 
    6.3563142035963316E-01 
    6.1589643470144839E-01 
    5.9179499696076232E-01 
    5.6425843398812914E-01 
    5.3381032000566109E-01 
    5.0087872283573687E-01 
    4.6579879987059203E-01 
    4.2876556323670917E-01 
    3.8976179979450315E-01 
    3.4853659259357034E-01 
    3.0510081923981835E-01 
    2.6116479043687996E-01 
    2.2283983734689120E-01 
    2.0005498627302265E-01 
    6.5344373727573468E-01 
    6.4799566181808477E-01 
    6.3523719635718923E-01 
    6.1653698234958620E-01 
    5.9326330709894903E-01 
    5.6633957693799575E-01 
    5.3634084680139860E-01 
    5.0372397419921944E-01 
    4.6881851353503262E-01 
    4.3177980544747457E-01 
    3.9250267179337583E-01 
    3.5050282685462736E-01 
    3.0522213469880932E-01 
    2.5740811101364497E-01 
    2.1256930662672258E-01 
    1.8307420508530420E-01 
    6.5193863976291833E-01 
    6.4689334965745204E-01 
    6.3500639249073176E-01 
    6.1723614359491252E-01 
    5.9474806856294260E-01 
    5.6842399011102329E-01 
    5.3887412889546926E-01 
    5.0658419905109708E-01 
    4.7188446182802685E-01 
    4.3489950649860626E-01 
    3.9546222053418090E-01 
    3.5288600691109834E-01 
    3.0600097420323885E-01 
    2.5423218595716396E-01 
    2.0153712922475620E-01 
    1.6212989627243257E-01 
    6.5085083190470605E-01 
    6.4613467615692932E-01 
    6.3499060334347368E-01 
    6.1805272493308516E-01 
    5.9630078816363108E-01 
    5.7055293617466618E-01 
    5.4144117469747044E-01 
    5.0948268988637258E-01 
    4.7501473074018852E-01 
    4.3813885651250645E-01 
    3.9866118269548578E-01 
    3.5575106119347788E-01 
    3.0766000368352170E-01 
    2.5218076635120912E-01 
    1.9037345874312506E-01 
    1.3611696322174532E-01 
    6.5014097620754741E-01 
    6.4572780521123596E-01 
    6.3523460121220077E-01 
    6.1904133326909894E-01 
    5.9797026679270604E-01 
    5.7276307042558461E-01 
    5.4406676587283143E-01 
    5.1242787737036621E-01 
    4.7819029109439498E-01 
    4.4145259392159547E-01 
    4.0203646270853000E-01 
    3.5904084325099755E-01 
    3.1027717932407811E-01 
    2.5179127335428236E-01 
    1.8020939182182180E-01 
    1.0335175296351322E-01 
    6.4964327936942601E-01 
    6.4554751629223928E-01 
    6.3566846436123303E-01 
    6.2015667513387673E-01 
    5.9970539468147555E-01 
    5.7500299145392908E-01 
    5.4670162604632111E-01 
    5.1537047098918498E-01 
    4.8135278440067236E-01 
    4.4477810142791657E-01 
    4.0551058248627575E-01 
    3.6264064133207080E-01 
    3.1374838075023126E-01 
    2.5338635150542688E-01 
    1.7269584010305558E-01 
    6.0670936848452151E-02 
    6.4946480443121013E-01 
    6.4570355730897422E-01 
    6.3639480537095139E-01 
    6.2148475211134457E-01 
    6.0157161303800688E-01 
    5.7732920830910672E-01 
    5.4941018988027113E-01 
    5.1839002939031631E-01 
    4.8462460813130764E-01 
    4.4827659060804836E-01 
    4.0924679316450874E-01 
    3.6668405117817437E-01 
    3.1828294586737083E-01 
    2.5793703468041479E-01 
    1.7215652963075656E-01 
    0.0000000000000000E+00 

SCALARS Saturarion double 1 
LOOKUP_TABLE default 

    1.0000000000000004E+00 
    9.7528771451528495E-01 
    9.3043444142290110E-01 
    8.7157720948414663E-01 
    8.2204112023207898E-01 
    7.7863137209421684E-01 
    7.4120889762358821E-01 
    7.0901726612302229E-01 
    6.8082429973504466E-01 
    6.5539620631768669E-01 
    6.3141090898161700E-01 
    6.0740707666008653E-01 
    5.8130666483761706E-01 
    5.5018820079939024E-01 
    4.8624760854271176E-01 
    1.7024307616277509E-01 
    9.9057325543170238E-01 
    9.6716304282400378E-01 
    9.2018983497211182E-01 
    8.6423864045502352E-01 
    8.1665223944905962E-01 
    7.7501821421185291E-01 
    7.3865752775216098E-01 
    7.0694330910027436E-01 
    6.7904394840366133E-01 
    6.5391133228091869E-01 
    6.3049402203959592E-01 
    6.0741865212263335E-01 
    5.8245884457732700E-01 
    5.5230680634289220E-01 
    4.9179352217477701E-01 
    2.0359063919110093E-01 
    9.7570439177611035E-01 
    9.5236608123725497E-01 
    9.0530951333315224E-01 
    8.5134488003278619E-01 
    8.0609230518845021E-01 
    7.6741849388524574E-01 
    7.3330771271386286E-01 
    7.0269457548401748E-01 
    6.7521802387297236E-01 
    6.5037301282806625E-01 
    6.2757632438971844E-01 
    6.0570703592999053E-01 
    5.8268035848368971E-01 
    5.5476617989887267E-01 
    4.9934298872148442E-01 
    2.3538364847222473E-01 
    9.4973388186924290E-01 
    9.3015846759443965E-01 
    8.8723362925985316E-01 
    8.3748006127707131E-01 
    7.9316787271094569E-01 
    7.5612743325616172E-01 
    7.2412325286118062E-01 
    6.9557133907245150E-01 
    6.6960444741319702E-01 
    6.4598651149806297E-01 
    6.2418513986116519E-01 
    6.0345861390047562E-01 
    5.8218057587292471E-01 
    5.5683047765616800E-01 
    5.0683620622643033E-01 
    2.6633281453163649E-01 
    9.1818747068685047E-01 
    9.0111046672654693E-01 
    8.6308203250302473E-01 
    8.1837656760490884E-01 
    7.7655300554896256E-01 
    7.4086818282922229E-01 
    7.1066681960795763E-01 
    6.8432606712623822E-01 
    6.6075828308048146E-01 
    6.3938680638877210E-01 
    6.1971861450159094E-01 
    6.0090889566285965E-01 
    5.8144051435028965E-01 
    5.5834809297771759E-01 
    5.1394721020135148E-01 
    2.9088828019152208E-01 
    8.8340256261085470E-01 
    8.6927828681215014E-01 
    8.3637135844696686E-01 
    7.9625552512490427E-01 
    7.5787386094267195E-01 
    7.2412108640048423E-01 
    6.9498072109518905E-01 
    6.7008419945361930E-01 
    6.4859043198636168E-01 
    6.2969917577768153E-01 
    6.1273061192311951E-01 
    5.9685635212485644E-01 
    5.8021937776553034E-01 
    5.5951690802888421E-01 
    5.2011499936031580E-01 
    3.1244526539808204E-01 
    8.4608363515869212E-01 
    8.3549523466285747E-01 
    8.0811471932216539E-01 
    7.7271624130468064E-01 
    7.3799670684842755E-01 
    7.0671072784967104E-01 
    6.7926700294376463E-01 
    6.5529167139602329E-01 
    6.3483458347760491E-01 
    6.1760740532338021E-01 
    6.0312819487850688E-01 
    5.9043306636064796E-01 
    5.7761985960355300E-01 
    5.6044061426970126E-01 
    5.2572011899612137E-01 
    3.3330018749149626E-01 
    8.0605716640057945E-01 
    7.9944590183561048E-01 
    7.7833034876256124E-01 
    7.4813014719704474E-01 
    7.1674294312960785E-01 
    6.8780585451899368E-01 
    6.6199357419417515E-01 
    6.3947405373152766E-01 
    6.2011123044522365E-01 
    6.0403282260750735E-01 
    5.9124768506438052E-01 
    5.8144198366369837E-01 
    5.7278917221827697E-01 
    5.6050547072225998E-01 
    5.3121297080906993E-01 
    3.5422727435438012E-01 
    7.6356054051474187E-01 
    7.6074849591476668E-01 
    7.4564526644487639E-01 
    7.2095028911768400E-01 
    6.9347971878674430E-01 
    6.6703354400684334E-01 
    6.4311589778877976E-01 
    6.2189961384705994E-01 
    6.0346449936351587E-01 
    5.8812430486492728E-01 
    5.7660054123067983E-01 
    5.6934698186710997E-01 
    5.6511126026435676E-01 
    5.5876179367357925E-01 
    5.3594728734402686E-01 
    3.7399529420412475E-01 
    7.1862409157858875E-01 
    7.1930233264765697E-01 
    7.0972285091611875E-01 
    6.9019190595980195E-01 
    6.6692131959831125E-01 
    6.4353409818161722E-01 
    6.2164021227031907E-01 
    6.0210063995734187E-01 
    5.8494413347009766E-01 
    5.7041591785434287E-01 
    5.5944525204460993E-01 
    5.5365343442891857E-01 
    5.5351607001377223E-01 
    5.5422797974273685E-01 
    5.3954113433012740E-01 
    3.9313669849464861E-01 
    6.7090595660688623E-01 
    6.7476785986649002E-01 
    6.7026936072434939E-01 
    6.5552995776848266E-01 
    6.3651624356502101E-01 
    6.1678089531198654E-01 
    5.9791675418349732E-01 
    5.8027145022292270E-01 
    5.6453924294578528E-01 
    5.5126514895164513E-01 
    5.4120949240128535E-01 
    5.3582184484907314E-01 
    5.3758730454622827E-01 
    5.4541191856902205E-01 
    5.4085908861008503E-01 
    4.1232939661986129E-01 
    6.1949959259167375E-01 
    6.2625495720897384E-01 
    6.2685136241345063E-01 
    6.1705772544227511E-01 
    6.0224798407617597E-01 
    5.8609757460017686E-01 
    5.7022022796071803E-01 
    5.5532072773542673E-01 
    5.4189579653766629E-01 
    5.3061906949826687E-01 
    5.2197372415476118E-01 
    5.1720899662021180E-01 
    5.1897364129348555E-01 
    5.3096193457729368E-01 
    5.3676628518265102E-01 
    4.3064237546363698E-01 
    5.6759338383404645E-01 
    5.7590802612631875E-01 
    5.8041822099128726E-01 
    5.7548421705050468E-01 
    5.6509331244527450E-01 
    5.5219494615033549E-01 
    5.3919615770560991E-01 
    5.2671113329288177E-01 
    5.1494290048385627E-01 
    5.0413816831793024E-01 
    4.9640977451828544E-01 
    4.9371556269454869E-01 
    4.9723766666204966E-01 
    5.1111402854693255E-01 
    5.2903360522089760E-01 
    4.4645621377800648E-01 
    5.0061970840885750E-01 
    5.1542442803487143E-01 
    5.2453306353666196E-01 
    5.2544367753719545E-01 
    5.1752329723689816E-01 
    5.0627300088035054E-01 
    4.9292591188090584E-01 
    4.8032022831887655E-01 
    4.6194760195651624E-01 
    4.3599882645307003E-01 
    4.1592407168914536E-01 
    4.0669484501304393E-01 
    4.2081023490842007E-01 
    4.6558754285921533E-01 
    5.1122636051460368E-01 
    4.5755344477366783E-01 
    2.1858360801824706E-01 
    3.0331989574203255E-01 
    3.5362486188109310E-01 
    3.6297829824070854E-01 
    3.4485131733627544E-01 
    2.9510174941512646E-01 
    2.6328232256390371E-01 
    2.1032656982635317E-01 
    1.7047115702259347E-01 
    1.1230292344400200E-01 
    6.3296083054226765E-02 
    6.6792094245903072E-02 
    1.0774391274711226E-01 
    2.5598211727597242E-01 
    4.4814802543127275E-01 
    4.5965939457044297E-01 
    7.8591347347424369E-06 
    3.9824581996537618E-03 
    1.0096314208301517E-02 
    9.5478525589095895E-03 
    9.0993677726958402E-03 
    9.5442627440812001E-04 
    7.8934944947350329E-04 
    2.4385816350470646E-05 
    4.1688862391732758E-05 
    1.2677484720789818E-05 
    6.0459389750795335E-06 
    7.4827511105420364E-06 
    1.0861330399427594E-04 
    6.6065594718255113E-02 
    2.7472730459810696E-01 
    4.1057217913722133E-01 
