# vtk DataFile Version 2.0
Pressure Field Data 
ASCII 
DATASET UNSTRUCTURED_GRID 

POINTS 289 double 

    0.0000000000000000E+00     0.0000000000000000E+00     0.0000000000000000E+00 
    1.0000000000000000E+00     0.0000000000000000E+00     0.0000000000000000E+00 
    1.0000000000000000E+00     1.0000000000000000E+00     0.0000000000000000E+00 
    0.0000000000000000E+00     1.0000000000000000E+00     0.0000000000000000E+00 
    6.2499999999872928E-02     0.0000000000000000E+00     0.0000000000000000E+00 
    1.2499999999977310E-01     0.0000000000000000E+00     0.0000000000000000E+00 
    1.8749999999959341E-01     0.0000000000000000E+00     0.0000000000000000E+00 
    2.4999999999941089E-01     0.0000000000000000E+00     0.0000000000000000E+00 
    3.1249999999922851E-01     0.0000000000000000E+00     0.0000000000000000E+00 
    3.7499999999904610E-01     0.0000000000000000E+00     0.0000000000000000E+00 
    4.3749999999886358E-01     0.0000000000000000E+00     0.0000000000000000E+00 
    4.9999999999869210E-01     0.0000000000000000E+00     0.0000000000000000E+00 
    5.6249999999884603E-01     0.0000000000000000E+00     0.0000000000000000E+00 
    6.2499999999901090E-01     0.0000000000000000E+00     0.0000000000000000E+00 
    6.8749999999917577E-01     0.0000000000000000E+00     0.0000000000000000E+00 
    7.4999999999934064E-01     0.0000000000000000E+00     0.0000000000000000E+00 
    8.1249999999950551E-01     0.0000000000000000E+00     0.0000000000000000E+00 
    8.7499999999967026E-01     0.0000000000000000E+00     0.0000000000000000E+00 
    9.3749999999983513E-01     0.0000000000000000E+00     0.0000000000000000E+00 
    1.0000000000000000E+00     6.2499999999872928E-02     0.0000000000000000E+00 
    1.0000000000000000E+00     1.2499999999977310E-01     0.0000000000000000E+00 
    1.0000000000000000E+00     1.8749999999959341E-01     0.0000000000000000E+00 
    1.0000000000000000E+00     2.4999999999941089E-01     0.0000000000000000E+00 
    1.0000000000000000E+00     3.1249999999922851E-01     0.0000000000000000E+00 
    1.0000000000000000E+00     3.7499999999904610E-01     0.0000000000000000E+00 
    1.0000000000000000E+00     4.3749999999886358E-01     0.0000000000000000E+00 
    1.0000000000000000E+00     4.9999999999869210E-01     0.0000000000000000E+00 
    1.0000000000000000E+00     5.6249999999884603E-01     0.0000000000000000E+00 
    1.0000000000000000E+00     6.2499999999901090E-01     0.0000000000000000E+00 
    1.0000000000000000E+00     6.8749999999917577E-01     0.0000000000000000E+00 
    1.0000000000000000E+00     7.4999999999934064E-01     0.0000000000000000E+00 
    1.0000000000000000E+00     8.1249999999950551E-01     0.0000000000000000E+00 
    1.0000000000000000E+00     8.7499999999967026E-01     0.0000000000000000E+00 
    1.0000000000000000E+00     9.3749999999983513E-01     0.0000000000000000E+00 
    9.3749999999973976E-01     1.0000000000000000E+00     0.0000000000000000E+00 
    8.7499999999950118E-01     1.0000000000000000E+00     0.0000000000000000E+00 
    8.1249999999991318E-01     1.0000000000000000E+00     0.0000000000000000E+00 
    7.5000000000034706E-01     1.0000000000000000E+00     0.0000000000000000E+00 
    6.8750000000078049E-01     1.0000000000000000E+00     0.0000000000000000E+00 
    6.2500000000121403E-01     1.0000000000000000E+00     0.0000000000000000E+00 
    5.6250000000164757E-01     1.0000000000000000E+00     0.0000000000000000E+00 
    5.0000000000205946E-01     1.0000000000000000E+00     0.0000000000000000E+00 
    4.3750000000182099E-01     1.0000000000000000E+00     0.0000000000000000E+00 
    3.7500000000156092E-01     1.0000000000000000E+00     0.0000000000000000E+00 
    3.1250000000130068E-01     1.0000000000000000E+00     0.0000000000000000E+00 
    2.5000000000104050E-01     1.0000000000000000E+00     0.0000000000000000E+00 
    1.8750000000078040E-01     1.0000000000000000E+00     0.0000000000000000E+00 
    1.2500000000052031E-01     1.0000000000000000E+00     0.0000000000000000E+00 
    6.2500000000260125E-02     1.0000000000000000E+00     0.0000000000000000E+00 
    0.0000000000000000E+00     9.3749999999973976E-01     0.0000000000000000E+00 
    0.0000000000000000E+00     8.7499999999950118E-01     0.0000000000000000E+00 
    0.0000000000000000E+00     8.1249999999991318E-01     0.0000000000000000E+00 
    0.0000000000000000E+00     7.5000000000034706E-01     0.0000000000000000E+00 
    0.0000000000000000E+00     6.8750000000078049E-01     0.0000000000000000E+00 
    0.0000000000000000E+00     6.2500000000121403E-01     0.0000000000000000E+00 
    0.0000000000000000E+00     5.6250000000164757E-01     0.0000000000000000E+00 
    0.0000000000000000E+00     5.0000000000205946E-01     0.0000000000000000E+00 
    0.0000000000000000E+00     4.3750000000182099E-01     0.0000000000000000E+00 
    0.0000000000000000E+00     3.7500000000156092E-01     0.0000000000000000E+00 
    0.0000000000000000E+00     3.1250000000130068E-01     0.0000000000000000E+00 
    0.0000000000000000E+00     2.5000000000104050E-01     0.0000000000000000E+00 
    0.0000000000000000E+00     1.8750000000078040E-01     0.0000000000000000E+00 
    0.0000000000000000E+00     1.2500000000052031E-01     0.0000000000000000E+00 
    0.0000000000000000E+00     6.2500000000260125E-02     0.0000000000000000E+00 
    6.2499999999897131E-02     6.2500000000235922E-02     0.0000000000000000E+00 
    6.2499999999921327E-02     1.2500000000047351E-01     0.0000000000000000E+00 
    6.2499999999945530E-02     1.8750000000070621E-01     0.0000000000000000E+00 
    6.2499999999969733E-02     2.5000000000093858E-01     0.0000000000000000E+00 
    6.2499999999993928E-02     3.1250000000117117E-01     0.0000000000000000E+00 
    6.2500000000018124E-02     3.7500000000140382E-01     0.0000000000000000E+00 
    6.2500000000042327E-02     4.3750000000163619E-01     0.0000000000000000E+00 
    6.2500000000066530E-02     5.0000000000184897E-01     0.0000000000000000E+00 
    6.2500000000090733E-02     5.6250000000147260E-01     0.0000000000000000E+00 
    6.2500000000114922E-02     6.2500000000107636E-01     0.0000000000000000E+00 
    6.2500000000139125E-02     6.8750000000068034E-01     0.0000000000000000E+00 
    6.2500000000163328E-02     7.5000000000028411E-01     0.0000000000000000E+00 
    6.2500000000187531E-02     8.1249999999988787E-01     0.0000000000000000E+00 
    6.2500000000211720E-02     8.7499999999951172E-01     0.0000000000000000E+00 
    6.2500000000235922E-02     9.3749999999974565E-01     0.0000000000000000E+00 
    1.2499999999981980E-01     6.2500000000211733E-02     0.0000000000000000E+00 
    1.2499999999986650E-01     1.2500000000042691E-01     0.0000000000000000E+00 
    1.2499999999991319E-01     1.8750000000063199E-01     0.0000000000000000E+00 
    1.2499999999995989E-01     2.5000000000083678E-01     0.0000000000000000E+00 
    1.2500000000000661E-01     3.1250000000104172E-01     0.0000000000000000E+00 
    1.2500000000005329E-01     3.7500000000124661E-01     0.0000000000000000E+00 
    1.2500000000010000E-01     4.3750000000145117E-01     0.0000000000000000E+00 
    1.2500000000014669E-01     5.0000000000163858E-01     0.0000000000000000E+00 
    1.2500000000019340E-01     5.6250000000129741E-01     0.0000000000000000E+00 
    1.2500000000024011E-01     6.2500000000093847E-01     0.0000000000000000E+00 
    1.2500000000028680E-01     6.8750000000057998E-01     0.0000000000000000E+00 
    1.2500000000033351E-01     7.5000000000022127E-01     0.0000000000000000E+00 
    1.2500000000038020E-01     8.1249999999986211E-01     0.0000000000000000E+00 
    1.2500000000042691E-01     8.7499999999952238E-01     0.0000000000000000E+00 
    1.2500000000047359E-01     9.3749999999975164E-01     0.0000000000000000E+00 
    1.8749999999966760E-01     6.2500000000187531E-02     0.0000000000000000E+00 
    1.8749999999974179E-01     1.2500000000038020E-01     0.0000000000000000E+00 
    1.8749999999981601E-01     1.8750000000055780E-01     0.0000000000000000E+00 
    1.8749999999989009E-01     2.5000000000073502E-01     0.0000000000000000E+00 
    1.8749999999996431E-01     3.1250000000091221E-01     0.0000000000000000E+00 
    1.8750000000003850E-01     3.7500000000108941E-01     0.0000000000000000E+00 
    1.8750000000011269E-01     4.3750000000126649E-01     0.0000000000000000E+00 
    1.8750000000018691E-01     5.0000000000142808E-01     0.0000000000000000E+00 
    1.8750000000026110E-01     5.6250000000112244E-01     0.0000000000000000E+00 
    1.8750000000033529E-01     6.2500000000080080E-01     0.0000000000000000E+00 
    1.8750000000040951E-01     6.8750000000047962E-01     0.0000000000000000E+00 
    1.8750000000048361E-01     7.5000000000015843E-01     0.0000000000000000E+00 
    1.8750000000055780E-01     8.1249999999983680E-01     0.0000000000000000E+00 
    1.8750000000063199E-01     8.7499999999953304E-01     0.0000000000000000E+00 
    1.8750000000070621E-01     9.3749999999975764E-01     0.0000000000000000E+00 
    2.4999999999951281E-01     6.2500000000163314E-02     0.0000000000000000E+00 
    2.4999999999961461E-01     1.2500000000033351E-01     0.0000000000000000E+00 
    2.4999999999971650E-01     1.8750000000048361E-01     0.0000000000000000E+00 
    2.4999999999981831E-01     2.5000000000063310E-01     0.0000000000000000E+00 
    2.4999999999992020E-01     3.1250000000078260E-01     0.0000000000000000E+00 
    2.5000000000002198E-01     3.7500000000093209E-01     0.0000000000000000E+00 
    2.5000000000012390E-01     4.3750000000108180E-01     0.0000000000000000E+00 
    2.5000000000022571E-01     5.0000000000121769E-01     0.0000000000000000E+00 
    2.5000000000032763E-01     5.6250000000094724E-01     0.0000000000000000E+00 
    2.5000000000042938E-01     6.2500000000066314E-01     0.0000000000000000E+00 
    2.5000000000053119E-01     6.8750000000037925E-01     0.0000000000000000E+00 
[...]
CELL_DATA 256 
SCALARS Pressure double 1 
LOOKUP_TABLE default 

    7.6595696494766663E-01 
    7.1527634108560390E-01 
    6.8219036026566782E-01 
    6.5167348698883487E-01 
    6.2026089738548240E-01 
    5.8705831785761187E-01 
    5.5192602550552849E-01 
    5.1524932110687161E-01 
    4.7761472395525867E-01 
    4.3970582249414775E-01 
    4.0227859486519135E-01 
    3.6646477104126884E-01 
    3.3427457443352099E-01 
    3.0859151354109776E-01 
    2.9107956042620514E-01 
    2.8247874480562324E-01 
    7.5199671661880685E-01 
    7.1664461255972767E-01 
    6.8470149070149600E-01 
    6.5445459530299244E-01 
    6.2328292622580017E-01 
    5.9031137958803981E-01 
    5.5537096503641004E-01 
    5.1881769473057837E-01 
    4.8121594558421960E-01 
    4.4323040624027621E-01 
    4.0558048878350333E-01 
    3.6932074552833405E-01 
    3.3638742163496288E-01 
    3.0972541430658884E-01 
    2.9131538555406788E-01 
    2.8207298874492231E-01 
    7.4128473043301013E-01 
    7.1585387585747318E-01 
    6.8643350311626816E-01 
    6.5686907856359478E-01 
    6.2606881161170225E-01 
    5.9338611687195908E-01 
    5.5867252179586668E-01 
    5.2225960226760337E-01 
    4.8467968049944060E-01 
    4.4655982608992445E-01 
    4.0857470994554884E-01 
    3.7169618119324804E-01 
    3.3779041780643770E-01 
    3.0989335217047537E-01 
    2.9045045450858520E-01 
    2.8063897800182869E-01 
    7.3284225297208638E-01 
    7.1395648593622207E-01 
    6.8742591003121145E-01 
    6.5889908164298705E-01 
    6.2861931966650586E-01 
    5.9629102539106926E-01 
    5.6183849570952360E-01 
    5.2558351068938691E-01 
    4.8802205645853497E-01 
    4.4972905874900543E-01 
    4.1132007582662755E-01 
    3.7366937077211854E-01 
    3.3856027245357589E-01 
    3.0913073100184268E-01 
    2.8840429256779243E-01 
    2.7796125564630941E-01 
    7.2601699321853208E-01 
    7.1153752032734330E-01 
    6.8781084823437300E-01 
    6.6055517421608689E-01 
    6.3093733729639101E-01 
    5.9903565233779477E-01 
    5.6488206299927646E-01 
    5.2880489963837629E-01 
    4.9126538721572921E-01 
    4.5277711134691284E-01 
    4.1387978876564063E-01 
    3.7532764430389071E-01 
    3.3878830362961471E-01 
    3.0748422049526369E-01 
    2.8510266935810696E-01 
    2.7383603942933321E-01 
    7.2042389831164921E-01 
    7.0894683506075828E-01 
    6.8774224116383598E-01 
    6.6187386412445093E-01 
    6.3303316792284026E-01 
    6.0162925227963915E-01 
    5.6781825932769592E-01 
    5.3194426282996365E-01 
    4.9443746123270893E-01 
    4.5574702544956230E-01 
    4.1632016118817577E-01 
    3.7676603752083970E-01 
    3.3858193663213815E-01 
    3.0501865493263608E-01 
    2.8048198810767699E-01 
    2.6805661546381521E-01 
    7.1581284837231307E-01 
    7.0640346728273218E-01 
    6.8737541791450585E-01 
    6.6291583627345874E-01 
    6.3493052341059519E-01 
    6.0408538088292152E-01 
    5.7065984811286485E-01 
    5.3502155711319965E-01 
    4.9756951815679545E-01 
    4.5868453517890134E-01 
    4.1871191139806985E-01 
    3.7808748913688955E-01 
    3.3806831334804105E-01 
    3.0182892994045596E-01 
    2.7449349058967526E-01 
    2.6038859988570634E-01 
    7.1200727555878351E-01 
    7.0404007625563247E-01 
    6.8684891224170441E-01 
    6.6375284819902258E-01 
    6.3666459010992582E-01 
    6.0642315423615278E-01 
    5.7342122999820555E-01 
    5.3805344828075075E-01 
    5.0068792305844356E-01 
    4.6163419394217031E-01 
    4.2112719944051363E-01 
    3.7940465951249258E-01 
    3.3739861565457041E-01 
    2.9804961598948704E-01 
    2.6711406873836069E-01 
    2.5055942013834909E-01 
    7.0887913378596257E-01 
    7.0193277372192087E-01 
    6.8627586761819437E-01 
    6.6445802303162815E-01 
    6.3827507218059010E-01 
    6.0866574022668896E-01 
    5.7611698954803514E-01 
    5.4105353384527155E-01 
    5.0381405845388050E-01 
    4.6463404078075493E-01 
    4.2363576447595547E-01 
    3.8083692001224340E-01 
    3.3675192328728754E-01 
    2.9386736081148218E-01 
    2.5835265172691435E-01 
    2.3822920987860663E-01 
    7.0633485452513800E-01 
    7.0012431047487367E-01 
    6.8574474901534732E-01 
    6.6510027852287257E-01 
    6.3980591046343438E-01 
    6.1084010775028186E-01 
    5.7876454821750034E-01 
    5.4403507996850553E-01 
    5.0696471115725983E-01 
    4.6771451493061889E-01 
    4.2629900107344626E-01 
    3.8250489784726799E-01 
    3.3633471350737382E-01 
    2.8953880734972937E-01 
    2.4827232132609564E-01 
    2.2293880941705568E-01 
    7.0430576239968179E-01 
    6.9863979929191034E-01 
    6.8532652254081383E-01 
    6.6574460157445403E-01 
    6.4130417008895191E-01 
    6.1297876773799820E-01 
    5.8138462081493980E-01 
    5.4701403303532969E-01 
    5.1015864364025354E-01 
    4.7090304209295974E-01 
    4.2917016677316372E-01 
    3.8452516279660032E-01 
    3.3638017357553157E-01 
    2.8541464969096914E-01 
    2.3704969244987725E-01 
    2.0408883586623713E-01 
    7.0274237424544039E-01 
    6.9749779349537133E-01 
    6.8508331662598121E-01 
    6.6645571745925691E-01 
    6.4282286020242285E-01 
    6.1512098338219834E-01 
    5.8400483245610391E-01 
    5.5001200856094234E-01 
    5.1341843837690226E-01 
    4.7422411524546154E-01 
    4.3228740761490497E-01 
    3.8699567362901982E-01 
    3.3713651241888354E-01 
    2.8195602048573476E-01 
    2.2504390779875780E-01 
    1.8086244996931949E-01 
    7.0161832896588827E-01 
    6.9672506626262987E-01 
    6.8507884425242094E-01 
    6.6730169990580268E-01 
    6.4441830694444913E-01 
    6.1730957854650981E-01 
    5.8665447091183665E-01 
    5.5304930296477672E-01 
    5.1676288074531140E-01 
    4.7768857821412447E-01 
    4.3565505048108000E-01 
    3.8995832412144976E-01 
    3.3881266222105422E-01 
    2.7973614840471611E-01 
    2.1294989394692579E-01 
    1.5207243806592100E-01 
    7.0085528309519574E-01 
    6.9630388320079362E-01 
    6.8534483042809224E-01 
    6.6832799350580885E-01 
    6.4612684249124397E-01 
    6.1956151059971809E-01 
    5.8931662829366993E-01 
    5.5605941902093081E-01 
    5.2007976751046425E-01 
    4.8116865552982641E-01 
    4.3911286699130087E-01 
    3.9322087021011670E-01 
    3.4134102357627655E-01 
    2.7915536444273359E-01 
    2.0174301056086999E-01 
    1.1565444152965058E-01 
    7.0030604454263645E-01 
    6.9607878238522425E-01 
    6.8575683231676487E-01 
    6.6944361932428820E-01 
    6.4787684351962871E-01 
    6.2182118652993856E-01 
    5.9195642212232746E-01 
    5.5900424085509304E-01 
    5.2331013057900100E-01 
    4.8464845924198741E-01 
    4.4275631102197277E-01 
    3.9694749679787866E-01 
    3.4492091120735768E-01 
    2.8086987215015535E-01 
    1.9325385145747048E-01 
    6.7680577109058768E-02 
    7.0012065842498750E-01 
    6.9623219687545956E-01 
    6.8649578290076485E-01 
    6.7081083693370802E-01 
    6.4981292004994085E-01 
    6.2423694109099381E-01 
    5.9476064248366156E-01 
    5.6211716154377811E-01 
    5.2670678642319280E-01 
    4.8834785278068943E-01 
    4.4676654539233096E-01 
    4.0128571431118842E-01 
    3.4971566990825664E-01 
    2.8597346626738201E-01 
    1.9317424006943373E-01 
    0.0000000000000000E+00 

SCALARS Saturarion double 1 
LOOKUP_TABLE default 

    1.0000000000000009E+00 
    9.7230126200549050E-01 
    9.2273929438646229E-01 
    8.5970259921723990E-01 
    8.0633720058690861E-01 
    7.6023266560925318E-01 
    7.2120924273296161E-01 
    6.8807527278105984E-01 
    6.5919667780126145E-01 
    6.3304231424403046E-01 
    6.0811877595716368E-01 
    5.8297209679243667E-01 
    5.5592235042685012E-01 
    5.2353200203474060E-01 
    4.2137511417002149E-01 
    4.7215610312758387E-02 
    9.8915632284189547E-01 
    9.6289911060566735E-01 
    9.1101301162364678E-01 
    8.5147269445210572E-01 
    8.0084909947125948E-01 
    7.5677244280297473E-01 
    7.1869532602460784E-01 
    6.8584646246293179E-01 
    6.5715357787061335E-01 
    6.3132851287869252E-01 
    6.0710975896225583E-01 
    5.8300817962286777E-01 
    5.5708188217036314E-01 
    5.2582859329336307E-01 
    4.3027520145116827E-01 
    7.2654980727261120E-02 
    9.7209173422550954E-01 
    9.4612735126280689E-01 
    8.9436046419442716E-01 
    8.3734012482395159E-01 
    7.9004481849089425E-01 
    7.4938887932876419E-01 
    7.1341144181356098E-01 
    6.8128290947232728E-01 
    6.5274512958409037E-01 
    6.2722088295245670E-01 
    6.0392151222841373E-01 
    5.8138369379029631E-01 
    5.5745034465913612E-01 
    5.2840041637046820E-01 
    4.4383304075256585E-01 
    1.0735735358645900E-01 
    9.4221202820959049E-01 
    9.2069629230312278E-01 
    8.7427376107227395E-01 
    8.2157558618232396E-01 
    7.7565124765394111E-01 
    7.3749563394111495E-01 
    7.0421164511451639E-01 
    6.7429881757902255E-01 
    6.4718064642161055E-01 
    6.2276073563766987E-01 
    6.0042992831080444E-01 
    5.7920513575319632E-01 
    5.5718620212166858E-01 
    5.3087930736706923E-01 
    4.5584524378313895E-01 
    1.4927981189477793E-01 
    9.0677230070336357E-01 
    8.8835166558348255E-01 
    8.4762391077904375E-01 
    8.0047404619315665E-01 
    7.5747489239614740E-01 
    7.2126747729623097E-01 
    6.9051621903328797E-01 
    6.6341883868643581E-01 
    6.3900977597489494E-01 
    6.1683194509472994E-01 
    5.9643136824863274E-01 
    5.7692774159770532E-01 
    5.5667031501377173E-01 
    5.3276687491735930E-01 
    4.6667677381892142E-01 
    1.8278330526899067E-01 
    8.6870255003654617E-01 
    8.5359677528504752E-01 
    8.1869793421881909E-01 
    7.7691666386347757E-01 
    7.3769994142888085E-01 
    7.0356421887773024E-01 
    6.7420795725318783E-01 
    6.4915461998585766E-01 
    6.2739208018040493E-01 
    6.0796979914376303E-01 
    5.9020327321307198E-01 
    5.7339721774902996E-01 
    5.5578365092065207E-01 
    5.3423698248216078E-01 
    4.7632453453285406E-01 
    2.1248956691953458E-01 
    8.2841160052577500E-01 
    8.1726980800726090E-01 
    7.8866632067757980E-01 
    7.5219557087710753E-01 
    7.1684087657764606E-01 
    6.8522421159739622E-01 
    6.5772959155367650E-01 
    6.3391306077537912E-01 
    6.1364270703694657E-01 
    5.9635574895927346E-01 
    5.8134475278087439E-01 
    5.6764519144158676E-01 
    5.5362758201138496E-01 
    5.3558322863794294E-01 
    4.8526878876386376E-01 
    2.4150115782476850E-01 
    7.8586130132856946E-01 
    7.7907098912438455E-01 
    7.5736836489111714E-01 
    7.2649788749495714E-01 
    6.9461372791304021E-01 
    6.6545970763719919E-01 
    6.3972021007543212E-01 
    6.1747552109858173E-01 
    5.9847337989416793E-01 
    5.8271697866405781E-01 
    5.6994654183464755E-01 
    5.5946261471676439E-01 
    5.4944975580373656E-01 
    5.3606780894972139E-01 
    4.9392117089909071E-01 
    2.7037284009954132E-01 
    7.4130228535195852E-01 
    7.3853380810722746E-01 
    7.2325001220950236E-01 
    6.9823193939474459E-01 
    6.7050656333247405E-01 
    6.4403002813818433E-01 
    6.2025326065496167E-01 
    5.9922667663184059E-01 
    5.8106343268275173E-01 
    5.6621535050153460E-01 
    5.5528370409678429E-01 
    5.4809863609496645E-01 
    5.4273078550374432E-01 
    5.3480760654798865E-01 
    5.0144788093263326E-01 
    2.9690075774325514E-01 
    6.9470904805426381E-01 
    6.9554838495112681E-01 
    6.8604091167302361E-01 
    6.6649134113990371E-01 
    6.4328774912610542E-01 
    6.2012989814655906E-01 
    5.9847555384563045E-01 
    5.7902917838917156E-01 
    5.6200156156396575E-01 
    5.4803041710502576E-01 
    5.3803778324504226E-01 
    5.3296442781923947E-01 
    5.3231333455575458E-01 
    5.3109785315152835E-01 
    5.0756425437325126E-01 
    3.2208910429040905E-01 
    6.4586659432689086E-01 
    6.4989093426168132E-01 
    6.4562530377691540E-01 
    6.3119999081809752E-01 
    6.1263936646675732E-01 
    5.9341247271133779E-01 
    5.7490014508921883E-01 
    5.5744863969216740E-01 
    5.4204042030143551E-01 
    5.2941119710220419E-01 
    5.2024116920664021E-01 
    5.1565670369895955E-01 
    5.1758218302334569E-01 
    5.2363589032942082E-01 
    5.1151378180460816E-01 
    3.4699120694045710E-01 
    5.9504471068546949E-01 
    6.0160892132752009E-01 
    6.0239355527602101E-01 
    5.9327323383380748E-01 
    5.7921167712163113E-01 
    5.6348371391270480E-01 
    5.4790953209104487E-01 
    5.3366285235164446E-01 
    5.2100287046325422E-01 
    5.0989343106387386E-01 
    5.0102722059361504E-01 
    4.9636088870739725E-01 
    4.9900982166640107E-01 
    5.1078625645331865E-01 
    5.1076837716290646E-01 
    3.7149253860581344E-01 
    5.4586667255519994E-01 
    5.5408142350802114E-01 
    5.5841752721091698E-01 
    5.5366425301837863E-01 
    5.4332201788015178E-01 
    5.3003263003989898E-01 
    5.1679459525012417E-01 
    5.0419041789218955E-01 
    4.9114867929928596E-01 
    4.7977847850206967E-01 
    4.7029117193556974E-01 
    4.6457238009505991E-01 
    4.6925518170072933E-01 
    4.8858625848227344E-01 
    5.0532253420756335E-01 
    3.9310358076789587E-01 
    4.5477159475973256E-01 
    4.7656527596554321E-01 
    4.9188709692601434E-01 
    4.9451041267501927E-01 
    4.8669254809039036E-01 
    4.7240962594298175E-01 
    4.5223548117394913E-01 
    4.2131871218875000E-01 
    3.6630397644734858E-01 
    2.8258670060430185E-01 
    2.5012371073587114E-01 
    2.6325965682785141E-01 
    3.2040831446812823E-01 
    4.1102286439381208E-01 
    4.7656343404757689E-01 
    4.0725725255893563E-01 
    1.0553881861172214E-01 
    1.8430250991302166E-01 
    2.2548960439089180E-01 
    2.3912110791422234E-01 
    2.2687289347602843E-01 
    1.8133728005499450E-01 
    1.2696834051482092E-01 
    5.2811005226451907E-02 
    2.0539081030695631E-02 
    4.2632617858601330E-03 
    6.1282908365684378E-04 
    6.6434334336142010E-04 
    2.6798984236469758E-02 
    1.5805288214453433E-01 
    3.9283358527459927E-01 
    4.1090122658639422E-01 
    1.0009446668197810E-06 
    1.3065457512391986E-04 
    2.1169754907114703E-04 
    4.9001232758835881E-05 
    3.0323678222436224E-04 
    2.3754781728172442E-05 
    1.4387767718984857E-05 
    4.7223740368193444E-06 
    2.1678314079680722E-06 
    1.1732691959752915E-06 
    1.0019791057403182E-06 
    1.0035700799287583E-06 
    5.5999540609511364E-05 
    1.2913839025156588E-02 
    2.2907468711157003E-01 
    3.6534284730124633E-01 
