# vtk DataFile Version 2.0
Pressure Field Data 
ASCII 
DATASET UNSTRUCTURED_GRID 

POINTS 289 double 

    0.0000000000000000E+00     0.0000000000000000E+00     0.0000000000000000E+00 
    1.0000000000000000E+00     0.0000000000000000E+00     0.0000000000000000E+00 
    1.0000000000000000E+00     1.0000000000000000E+00     0.0000000000000000E+00 
    0.0000000000000000E+00     1.0000000000000000E+00     0.0000000000000000E+00 
    6.2499999999872928E-02     0.0000000000000000E+00     0.0000000000000000E+00 
    1.2499999999977310E-01     0.0000000000000000E+00     0.0000000000000000E+00 
    1.8749999999959341E-01     0.0000000000000000E+00     0.0000000000000000E+00 
    2.4999999999941089E-01     0.0000000000000000E+00     0.0000000000000000E+00 
    3.1249999999922851E-01     0.0000000000000000E+00     0.0000000000000000E+00 
    3.7499999999904610E-01     0.0000000000000000E+00     0.0000000000000000E+00 
    4.3749999999886358E-01     0.0000000000000000E+00     0.0000000000000000E+00 
    4.9999999999869210E-01     0.0000000000000000E+00     0.0000000000000000E+00 
    5.6249999999884603E-01     0.0000000000000000E+00     0.0000000000000000E+00 
    6.2499999999901090E-01     0.0000000000000000E+00     0.0000000000000000E+00 
    6.8749999999917577E-01     0.0000000000000000E+00     0.0000000000000000E+00 
    7.4999999999934064E-01     0.0000000000000000E+00     0.0000000000000000E+00 
    8.1249999999950551E-01     0.0000000000000000E+00     0.0000000000000000E+00 
    8.7499999999967026E-01     0.0000000000000000E+00     0.0000000000000000E+00 
    9.3749999999983513E-01     0.0000000000000000E+00     0.0000000000000000E+00 
    1.0000000000000000E+00     6.2499999999872928E-02     0.0000000000000000E+00 
    1.0000000000000000E+00     1.2499999999977310E-01     0.0000000000000000E+00 
    1.0000000000000000E+00     1.8749999999959341E-01     0.0000000000000000E+00 
    1.0000000000000000E+00     2.4999999999941089E-01     0.0000000000000000E+00 
    1.0000000000000000E+00     3.1249999999922851E-01     0.0000000000000000E+00 
    1.0000000000000000E+00     3.7499999999904610E-01     0.0000000000000000E+00 
    1.0000000000000000E+00     4.3749999999886358E-01     0.0000000000000000E+00 
    1.0000000000000000E+00     4.9999999999869210E-01     0.0000000000000000E+00 
    1.0000000000000000E+00     5.6249999999884603E-01     0.0000000000000000E+00 
    1.0000000000000000E+00     6.2499999999901090E-01     0.0000000000000000E+00 
    1.0000000000000000E+00     6.8749999999917577E-01     0.0000000000000000E+00 
    1.0000000000000000E+00     7.4999999999934064E-01     0.0000000000000000E+00 
    1.0000000000000000E+00     8.1249999999950551E-01     0.0000000000000000E+00 
    1.0000000000000000E+00     8.7499999999967026E-01     0.0000000000000000E+00 
    1.0000000000000000E+00     9.3749999999983513E-01     0.0000000000000000E+00 
    9.3749999999973976E-01     1.0000000000000000E+00     0.0000000000000000E+00 
    8.7499999999950118E-01     1.0000000000000000E+00     0.0000000000000000E+00 
    8.1249999999991318E-01     1.0000000000000000E+00     0.0000000000000000E+00 
    7.5000000000034706E-01     1.0000000000000000E+00     0.0000000000000000E+00 
    6.8750000000078049E-01     1.0000000000000000E+00     0.0000000000000000E+00 
    6.2500000000121403E-01     1.0000000000000000E+00     0.0000000000000000E+00 
    5.6250000000164757E-01     1.0000000000000000E+00     0.0000000000000000E+00 
    5.0000000000205946E-01     1.0000000000000000E+00     0.0000000000000000E+00 
    4.3750000000182099E-01     1.0000000000000000E+00     0.0000000000000000E+00 
    3.7500000000156092E-01     1.0000000000000000E+00     0.0000000000000000E+00 
    3.1250000000130068E-01     1.0000000000000000E+00     0.0000000000000000E+00 
    2.5000000000104050E-01     1.0000000000000000E+00     0.0000000000000000E+00 
    1.8750000000078040E-01     1.0000000000000000E+00     0.0000000000000000E+00 
    1.2500000000052031E-01     1.0000000000000000E+00     0.0000000000000000E+00 
    6.2500000000260125E-02     1.0000000000000000E+00     0.0000000000000000E+00 
    0.0000000000000000E+00     9.3749999999973976E-01     0.0000000000000000E+00 
    0.0000000000000000E+00     8.7499999999950118E-01     0.0000000000000000E+00 
    0.0000000000000000E+00     8.1249999999991318E-01     0.0000000000000000E+00 
    0.0000000000000000E+00     7.5000000000034706E-01     0.0000000000000000E+00 
    0.0000000000000000E+00     6.8750000000078049E-01     0.0000000000000000E+00 
    0.0000000000000000E+00     6.2500000000121403E-01     0.0000000000000000E+00 
    0.0000000000000000E+00     5.6250000000164757E-01     0.0000000000000000E+00 
    0.0000000000000000E+00     5.0000000000205946E-01     0.0000000000000000E+00 
    0.0000000000000000E+00     4.3750000000182099E-01     0.0000000000000000E+00 
    0.0000000000000000E+00     3.7500000000156092E-01     0.0000000000000000E+00 
    0.0000000000000000E+00     3.1250000000130068E-01     0.0000000000000000E+00 
    0.0000000000000000E+00     2.5000000000104050E-01     0.0000000000000000E+00 
    0.0000000000000000E+00     1.8750000000078040E-01     0.0000000000000000E+00 
    0.0000000000000000E+00     1.2500000000052031E-01     0.0000000000000000E+00 
    0.0000000000000000E+00     6.2500000000260125E-02     0.0000000000000000E+00 
    6.2499999999897131E-02     6.2500000000235922E-02     0.0000000000000000E+00 
    6.2499999999921327E-02     1.2500000000047351E-01     0.0000000000000000E+00 
    6.2499999999945530E-02     1.8750000000070621E-01     0.0000000000000000E+00 
    6.2499999999969733E-02     2.5000000000093858E-01     0.0000000000000000E+00 
    6.2499999999993928E-02     3.1250000000117117E-01     0.0000000000000000E+00 
    6.2500000000018124E-02     3.7500000000140382E-01     0.0000000000000000E+00 
    6.2500000000042327E-02     4.3750000000163619E-01     0.0000000000000000E+00 
    6.2500000000066530E-02     5.0000000000184897E-01     0.0000000000000000E+00 
    6.2500000000090733E-02     5.6250000000147260E-01     0.0000000000000000E+00 
    6.2500000000114922E-02     6.2500000000107636E-01     0.0000000000000000E+00 
    6.2500000000139125E-02     6.8750000000068034E-01     0.0000000000000000E+00 
    6.2500000000163328E-02     7.5000000000028411E-01     0.0000000000000000E+00 
    6.2500000000187531E-02     8.1249999999988787E-01     0.0000000000000000E+00 
    6.2500000000211720E-02     8.7499999999951172E-01     0.0000000000000000E+00 
    6.2500000000235922E-02     9.3749999999974565E-01     0.0000000000000000E+00 
    1.2499999999981980E-01     6.2500000000211733E-02     0.0000000000000000E+00 
    1.2499999999986650E-01     1.2500000000042691E-01     0.0000000000000000E+00 
    1.2499999999991319E-01     1.8750000000063199E-01     0.0000000000000000E+00 
    1.2499999999995989E-01     2.5000000000083678E-01     0.0000000000000000E+00 
    1.2500000000000661E-01     3.1250000000104172E-01     0.0000000000000000E+00 
    1.2500000000005329E-01     3.7500000000124661E-01     0.0000000000000000E+00 
    1.2500000000010000E-01     4.3750000000145117E-01     0.0000000000000000E+00 
    1.2500000000014669E-01     5.0000000000163858E-01     0.0000000000000000E+00 
    1.2500000000019340E-01     5.6250000000129741E-01     0.0000000000000000E+00 
    1.2500000000024011E-01     6.2500000000093847E-01     0.0000000000000000E+00 
    1.2500000000028680E-01     6.8750000000057998E-01     0.0000000000000000E+00 
    1.2500000000033351E-01     7.5000000000022127E-01     0.0000000000000000E+00 
    1.2500000000038020E-01     8.1249999999986211E-01     0.0000000000000000E+00 
    1.2500000000042691E-01     8.7499999999952238E-01     0.0000000000000000E+00 
    1.2500000000047359E-01     9.3749999999975164E-01     0.0000000000000000E+00 
    1.8749999999966760E-01     6.2500000000187531E-02     0.0000000000000000E+00 
    1.8749999999974179E-01     1.2500000000038020E-01     0.0000000000000000E+00 
    1.8749999999981601E-01     1.8750000000055780E-01     0.0000000000000000E+00 
    1.8749999999989009E-01     2.5000000000073502E-01     0.0000000000000000E+00 
    1.8749999999996431E-01     3.1250000000091221E-01     0.0000000000000000E+00 
    1.8750000000003850E-01     3.7500000000108941E-01     0.0000000000000000E+00 
    1.8750000000011269E-01     4.3750000000126649E-01     0.0000000000000000E+00 
    1.8750000000018691E-01     5.0000000000142808E-01     0.0000000000000000E+00 
    1.8750000000026110E-01     5.6250000000112244E-01     0.0000000000000000E+00 
    1.8750000000033529E-01     6.2500000000080080E-01     0.0000000000000000E+00 
    1.8750000000040951E-01     6.8750000000047962E-01     0.0000000000000000E+00 
    1.8750000000048361E-01     7.5000000000015843E-01     0.0000000000000000E+00 
    1.8750000000055780E-01     8.1249999999983680E-01     0.0000000000000000E+00 
    1.8750000000063199E-01     8.7499999999953304E-01     0.0000000000000000E+00 
    1.8750000000070621E-01     9.3749999999975764E-01     0.0000000000000000E+00 
    2.4999999999951281E-01     6.2500000000163314E-02     0.0000000000000000E+00 
    2.4999999999961461E-01     1.2500000000033351E-01     0.0000000000000000E+00 
    2.4999999999971650E-01     1.8750000000048361E-01     0.0000000000000000E+00 
    2.4999999999981831E-01     2.5000000000063310E-01     0.0000000000000000E+00 
    2.4999999999992020E-01     3.1250000000078260E-01     0.0000000000000000E+00 
    2.5000000000002198E-01     3.7500000000093209E-01     0.0000000000000000E+00 
    2.5000000000012390E-01     4.3750000000108180E-01     0.0000000000000000E+00 
    2.5000000000022571E-01     5.0000000000121769E-01     0.0000000000000000E+00 
    2.5000000000032763E-01     5.6250000000094724E-01     0.0000000000000000E+00 
    2.5000000000042938E-01     6.2500000000066314E-01     0.0000000000000000E+00 
    2.5000000000053119E-01     6.8750000000037925E-01     0.0000000000000000E+00 
[...]
CELL_DATA 256 
SCALARS Pressure double 1 
LOOKUP_TABLE default 

    1.2198664477305572E+00 
    1.1511755620549007E+00 
    1.0918988786683783E+00 
    1.0168902477095507E+00 
    9.2525430899314187E-01 
    8.4721483326301117E-01 
    7.7350467841199044E-01 
    7.0251222935113922E-01 
    6.3406330754559481E-01 
    5.6844298653390712E-01 
    5.0614654428249317E-01 
    4.4825025736257890E-01 
    3.9716394876230315E-01 
    3.5661116203897880E-01 
    3.3037967433388549E-01 
    3.1963191588721845E-01 
    1.2053918591517483E+00 
    1.1535582563847258E+00 
    1.0963114700359307E+00 
    1.0228834766993642E+00 
    9.3248205626049185E-01 
    8.5439314707795955E-01 
    7.8052077791010765E-01 
    7.0932456204521488E-01 
    6.4059656112394214E-01 
    5.7459695795383359E-01 
    5.1177076428789670E-01 
    4.5307843137993487E-01 
    4.0081456775159435E-01 
    3.5872638522046807E-01 
    3.3092207424230768E-01 
    3.1920934811063412E-01 
    1.1920285092754141E+00 
    1.1521071499164424E+00 
    1.0981516784882457E+00 
    1.0263982561612872E+00 
    9.3846599119640550E-01 
    8.6108715626592436E-01 
    7.8731396484816007E-01 
    7.1601830369151542E-01 
    6.4703029448020577E-01 
    5.8058703061484773E-01 
    5.1708648263222690E-01 
    4.5737416780475171E-01 
    4.0363951272526871E-01 
    3.5971031859760755E-01 
    3.3016473884453162E-01 
    3.1764088918252475E-01 
    1.1783583894881620E+00 
    1.1475615471590479E+00 
    1.0973290254287287E+00 
    1.0275754663598191E+00 
    9.4339528045691845E-01 
    8.6726123569366997E-01 
    7.9386116899308945E-01 
    7.2258795220247329E-01 
    6.5337721873160426E-01 
    5.8645442402670023E-01 
    5.2216716270686725E-01 
    4.6123711860448113E-01 
    4.0573803899664879E-01 
    3.5960560881238873E-01 
    3.2802800745334032E-01 
    3.1470599698327939E-01 
    1.1650242663252575E+00 
    1.1409521149252400E+00 
    1.0941557548707126E+00 
    1.0268312152965231E+00 
    9.4748415891193438E-01 
    8.7293128699368061E-01 
    8.0015454227856186E-01 
    7.2903267521266923E-01 
    6.5965198679089199E-01 
    5.9224055317896940E-01 
    5.2708808184397637E-01 
    4.6477495924636780E-01 
    4.0722394866055311E-01 
    3.5846757940245449E-01 
    3.2442789966887597E-01 
    3.1017593820404077E-01 
    1.1527091751047946E+00 
    1.1329495791139594E+00 
    1.0888922596080004E+00 
    1.0248718685726947E+00 
    9.5087746444098220E-01 
    8.7814341077344782E-01 
    8.0620314494149659E-01 
    7.3535771273158457E-01 
    6.6586988482923715E-01 
    5.9798646006535561E-01 
    5.3192542061532999E-01 
    4.6810407111086644E-01 
    4.0823088750686037E-01 
    3.5637433612808372E-01 
    3.1928014876751870E-01 
    3.0379049393525825E-01 
    1.1403363565468296E+00 
    1.1231777669530505E+00 
    1.0819122613590249E+00 
    1.0225349971373319E+00 
    9.5363697793735758E-01 
    8.8295641887761989E-01 
    8.1202630673727283E-01 
    7.4157445526971921E-01 
    6.7205092264335997E-01 
    6.0373189589712306E-01 
    5.3675743351899696E-01 
    4.7134910841694161E-01 
    4.0891777092321729E-01 
    3.5344087047743572E-01 
    3.1251127769808473E-01 
    2.9525236167491614E-01 
    1.1270638962938770E+00 
    1.1122891751914512E+00 
    1.0749037814535825E+00 
    1.0205209903798078E+00 
    9.5589820310755202E-01 
    8.8744251198684576E-01 
    8.1765736822269819E-01 
    7.4770019135472843E-01 
    6.7821362925054851E-01 
    6.0951463847920107E-01 
    5.4165859960642959E-01 
    4.7464165522119678E-01 
    4.0947144605145530E-01 
    3.4983141472995011E-01 
    3.0406781179039205E-01 
    2.8419581210808437E-01 
    1.1155036490561168E+00 
    1.1027206276757922E+00 
    1.0691261442229749E+00 
    1.0189223983793121E+00 
    9.5790824136657027E-01 
    8.9169290075125462E-01 
    8.2313761123605089E-01 
    7.5375691887630225E-01 
    6.8437922472436441E-01 
    6.1536921351848684E-01 
    5.4669993617828094E-01 
    4.7811619607858130E-01 
    4.1010931208733370E-01 
    3.4578047841231835E-01 
    2.9394327614069266E-01 
    2.7016590388314871E-01 
    1.1066828682343670E+00 
    1.0950721052650898E+00 
    1.0643674765261351E+00 
    1.0176849656922606E+00 
    9.5986673420159396E-01 
    8.9580922766167759E-01 
    8.2851839710124353E-01 
    7.5977131863775738E-01 
    6.9056738447284616E-01 
    6.2132558926429227E-01 
    5.5194328598046927E-01 
    4.8190447126182490E-01 
    4.1107693442469034E-01 
    3.4161313538290039E-01 
    2.8221470754765238E-01 
    2.5256985522058473E-01 
    1.0997949498022608E+00 
    1.0889689620989444E+00 
    1.0606270522849317E+00 
    1.0169420954419459E+00 
    9.6193155477297076E-01 
    8.9989412717373740E-01 
    8.3385482195610394E-01 
    7.6577358254538508E-01 
    6.9679860730562049E-01 
    6.2740807634630047E-01 
    5.5744029015165597E-01 
    4.8612748461825861E-01 
    4.1264134749008619E-01 
    3.3777085107286803E-01 
    2.6911549483649694E-01 
    2.3062695083202583E-01 
    1.0945968169702038E+00 
    1.0843291735492337E+00 
    1.0579372109039658E+00 
    1.0168011903749974E+00 
    9.6423872147327916E-01 
    9.0404653542117275E-01 
    8.3920612248077864E-01 
    7.7179594391387496E-01 
    7.0309098652462010E-01 
    6.3363441535073983E-01 
    5.6322696070850153E-01 
    4.9088522196178097E-01 
    4.1507260038380411E-01 
    3.3482685995906686E-01 
    2.5514906991084141E-01 
    2.0327925872427888E-01 
    1.0908802641015078E+00 
    1.0810651620457410E+00 
    1.0563151311227057E+00 
    1.0173495092872571E+00 
    9.6690312191501260E-01 
    9.0835982793416215E-01 
    8.4463141107082074E-01 
    7.7787196155018956E-01 
    7.0946227991176436E-01 
    6.4001527042893480E-01 
    5.6932278584282980E-01 
    4.9624508821622765E-01 
    4.1861490214436053E-01 
    3.3348689367530154E-01 
    2.4128779806385878E-01 
    1.6907127206125927E-01 
    1.0884582418451676E+00 
    1.0790889049617676E+00 
    1.0557680532345963E+00 
    1.0186595075334559E+00 
    9.7002497256424747E-01 
    9.1292123034320394E-01 
    8.5018979915079440E-01 
    7.8403559046640814E-01 
    7.1592820973948934E-01 
    6.4655444746712232E-01 
    5.7572853465982421E-01 
    5.0223190563835718E-01 
    4.2344269747743596E-01 
    3.3453879169072220E-01 
    2.2929998084816605E-01 
    1.2595972388922574E-01 
    1.0871542015241780E+00 
    1.0783149134729297E+00 
    1.0562976101257084E+00 
    1.0207928803300197E+00 
    9.7369176476972119E-01 
    9.1781116758151227E-01 
    8.5593886256024621E-01 
    7.9032084745872599E-01 
    7.2250339741856562E-01 
    6.5325011195743776E-01 
    5.8242799517819110E-01 
    5.0882296421647177E-01 
    4.2960922057654510E-01 
    3.3869938667122429E-01 
    2.2230378215604607E-01 
    7.1025694061378222E-02 
    1.0867920134440132E+00 
    1.0786615138465667E+00 
    1.0579038375246572E+00 
    1.0238050202866142E+00 
    9.7798123397105585E-01 
    9.2310396202787315E-01 
    8.6193393751466629E-01 
    7.9676118656223838E-01 
    7.2920161577648268E-01 
    6.6009609232062039E-01 
    5.8939142260017874E-01 
    5.1595234459211203E-01 
    4.3700863040896532E-01 
    3.4624504190366240E-01 
    2.2569502495705868E-01 
    0.0000000000000000E+00 

SCALARS Saturarion double 1 
LOOKUP_TABLE default 

    9.9993652427286894E-01 
    8.5760926389106151E-01 
    6.8323471793170876E-01 
    3.6265266302112298E-01 
    8.2209969481093076E-03 
    1.0000008691997526E-06 
    1.0000000000002714E-06 
    9.9999999999999995E-07 
    9.9999999999999995E-07 
    9.9999999999999995E-07 
    9.9999999999999995E-07 
    9.9999999999999995E-07 
    9.9999999999999995E-07 
    9.9999999999999995E-07 
    9.9999999999999995E-07 
    9.9999999999999995E-07 
    9.1476630298564021E-01 
    8.0327713211838780E-01 
    6.5185221848307240E-01 
    3.3013803417396681E-01 
    5.2977857859057686E-03 
    1.1110030377721190E-06 
    1.0000000088564841E-06 
    1.0000000000000014E-06 
    9.9999999999999995E-07 
    9.9999999999999995E-07 
    9.9999999999999995E-07 
    9.9999999999999995E-07 
    9.9999999999999995E-07 
    9.9999999999999995E-07 
    9.9999999999999995E-07 
    9.9999999999999995E-07 
    7.6947209482457846E-01 
    7.0972271431832035E-01 
    5.9900513755600537E-01 
    2.8200906703534817E-01 
    1.8777321302440877E-03 
    1.0510840170326920E-06 
    1.0000000091470797E-06 
    9.9999999999999995E-07 
    9.9999999999999995E-07 
    9.9999999999999995E-07 
    9.9999999999999995E-07 
    9.9999999999999995E-07 
    9.9999999999999995E-07 
    9.9999999999999995E-07 
    9.9999999999999995E-07 
    9.9999999999999995E-07 
    6.5135128779659834E-01 
    6.2156095224652785E-01 
    5.4330403887737078E-01 
    2.1800627423675645E-01 
    3.5747278773917555E-04 
    1.0063918844922759E-06 
    1.0000000016476353E-06 
    9.9999999999999974E-07 
    9.9999999999999995E-07 
    9.9999999999999995E-07 
    9.9999999999999995E-07 
    9.9999999999999995E-07 
    9.9999999999999995E-07 
    9.9999999999999995E-07 
    9.9999999999999995E-07 
    9.9999999999999995E-07 
    5.8394586322418873E-01 
    5.6173214890582246E-01 
    4.7278992955574517E-01 
    1.1855727340588196E-01 
    1.0914822782826097E-04 
    1.0039869180117405E-06 
    1.0000000000000002E-06 
    9.9999999999999995E-07 
    9.9999999999999995E-07 
    9.9999999999999995E-07 
    9.9999999999999995E-07 
    9.9999999999999995E-07 
    9.9999999999999995E-07 
    9.9999999999999995E-07 
    9.9999999999999995E-07 
    9.9999999999999995E-07 
    5.3400278372261978E-01 
    5.0208154265131388E-01 
    3.4161609434475443E-01 
    2.0367082246023047E-02 
    1.4840958223662838E-05 
    1.0000139426219065E-06 
    1.0000000000000002E-06 
    9.9999999999999995E-07 
    9.9999999999999995E-07 
    9.9999999999999995E-07 
    9.9999999999999995E-07 
    9.9999999999999995E-07 
    9.9999999999999995E-07 
    9.9999999999999995E-07 
    9.9999999999999995E-07 
    9.9999999999999995E-07 
    4.4440697775028348E-01 
    3.7184711621749877E-01 
    1.1193505018422374E-01 
    3.8136759525390023E-04 
    1.0059563561444632E-06 
    1.0000000005224226E-06 
    1.0000000000000002E-06 
    9.9999999999999995E-07 
    9.9999999999999995E-07 
    9.9999999999999995E-07 
    9.9999999999999995E-07 
    9.9999999999999995E-07 
    9.9999999999999995E-07 
    9.9999999999999995E-07 
    9.9999999999999995E-07 
    9.9999999999999995E-07 
    1.2153915581816631E-01 
    4.2747999632687605E-02 
    6.7523198245579401E-04 
    1.1223347422888667E-06 
    1.0000000029641587E-06 
    1.0000000000000002E-06 
    9.9999999999999995E-07 
    9.9999999999999995E-07 
    9.9999999999999995E-07 
    9.9999999999999995E-07 
    9.9999999999999995E-07 
    9.9999999999999995E-07 
    9.9999999999999995E-07 
    9.9999999999999995E-07 
    9.9999999999999995E-07 
    9.9999999999999995E-07 
    1.0687673535429067E-06 
    5.8768535404334979E-05 
    1.0536198176863457E-06 
    1.0000000178518048E-06 
    1.0000000000000010E-06 
    9.9999999999999995E-07 
    9.9999999999999995E-07 
    9.9999999999999995E-07 
    9.9999999999999995E-07 
    9.9999999999999995E-07 
    9.9999999999999995E-07 
    9.9999999999999995E-07 
    9.9999999999999995E-07 
    9.9999999999999995E-07 
    9.9999999999999995E-07 
    9.9999999999999995E-07 
    1.0000000638701234E-06 
    1.0001085450564191E-06 
    1.0000000019070076E-06 
    1.0000000000000021E-06 
    9.9999999999999995E-07 
    9.9999999999999995E-07 
    9.9999999999999995E-07 
    9.9999999999999995E-07 
    9.9999999999999995E-07 
    9.9999999999999995E-07 
    9.9999999999999995E-07 
    9.9999999999999995E-07 
    9.9999999999999995E-07 
    9.9999999999999995E-07 
    9.9999999999999995E-07 
    9.9999999999999995E-07 
    9.9999999999999995E-07 
    1.0000000000061058E-06 
    9.9999999999999995E-07 
    9.9999999999999995E-07 
    9.9999999999999995E-07 
    9.9999999999999995E-07 
    9.9999999999999995E-07 
    9.9999999999999995E-07 
    9.9999999999999995E-07 
    9.9999999999999995E-07 
    9.9999999999999995E-07 
    9.9999999999999995E-07 
    9.9999999999999995E-07 
    9.9999999999999995E-07 
    9.9999999999999995E-07 
    9.9999999999999995E-07 
    9.9999999999999995E-07 
    9.9999999999999995E-07 
    9.9999999999999995E-07 
    9.9999999999999995E-07 
    9.9999999999999995E-07 
    9.9999999999999995E-07 
    9.9999999999999995E-07 
    9.9999999999999995E-07 
    9.9999999999999995E-07 
    9.9999999999999995E-07 
    9.9999999999999995E-07 
    9.9999999999999995E-07 
    9.9999999999999995E-07 
    9.9999999999999995E-07 
    9.9999999999999995E-07 
    9.9999999999999995E-07 
    9.9999999999999995E-07 
    9.9999999999999995E-07 
    9.9999999999999995E-07 
    9.9999999999999995E-07 
    9.9999999999999995E-07 
    9.9999999999999995E-07 
    9.9999999999999995E-07 
    9.9999999999999995E-07 
    9.9999999999999995E-07 
    9.9999999999999995E-07 
    9.9999999999999995E-07 
    9.9999999999999995E-07 
    9.9999999999999995E-07 
    9.9999999999999995E-07 
    9.9999999999999995E-07 
    9.9999999999999995E-07 
    9.9999999999999995E-07 
    9.9999999999999995E-07 
    9.9999999999999995E-07 
    9.9999999999999995E-07 
    9.9999999999999995E-07 
    9.9999999999999995E-07 
    9.9999999999999995E-07 
    9.9999999999999995E-07 
    9.9999999999999995E-07 
    9.9999999999999995E-07 
    9.9999999999999995E-07 
    9.9999999999999995E-07 
    9.9999999999999995E-07 
    9.9999999999999995E-07 
    9.9999999999999995E-07 
    9.9999999999999995E-07 
    9.9999999999999995E-07 
    9.9999999999999995E-07 
    9.9999999999999995E-07 
    9.9999999999999995E-07 
    9.9999999999999995E-07 
    9.9999999999999995E-07 
    9.9999999999999995E-07 
    9.9999999999999995E-07 
    9.9999999999999995E-07 
    9.9999999999999995E-07 
    9.9999999999999995E-07 
    9.9999999999999995E-07 
    9.9999999999999995E-07 
    9.9999999999999995E-07 
    9.9999999999999995E-07 
    9.9999999999999995E-07 
    9.9999999999999995E-07 
    9.9999999999999995E-07 
    9.9999999999999995E-07 
    9.9999999999999995E-07 
    9.9999999999999995E-07 
    9.9999999999999995E-07 
    9.9999999999999995E-07 
    9.9999999999999995E-07 
    9.9999999999999995E-07 
    9.9999999999999995E-07 
    9.9999999999999995E-07 
    9.9999999999999995E-07 
    9.9999999999999995E-07 
    9.9999999999999995E-07 
    9.9999999999999995E-07 
    1.0000000653453960E-06 
