# vtk DataFile Version 2.0
Pressure Field Data 
ASCII 
DATASET UNSTRUCTURED_GRID 

POINTS 289 double 

    0.0000000000000000E+00     0.0000000000000000E+00     0.0000000000000000E+00 
    1.0000000000000000E+00     0.0000000000000000E+00     0.0000000000000000E+00 
    1.0000000000000000E+00     1.0000000000000000E+00     0.0000000000000000E+00 
    0.0000000000000000E+00     1.0000000000000000E+00     0.0000000000000000E+00 
    6.2499999999872928E-02     0.0000000000000000E+00     0.0000000000000000E+00 
    1.2499999999977310E-01     0.0000000000000000E+00     0.0000000000000000E+00 
    1.8749999999959341E-01     0.0000000000000000E+00     0.0000000000000000E+00 
    2.4999999999941089E-01     0.0000000000000000E+00     0.0000000000000000E+00 
    3.1249999999922851E-01     0.0000000000000000E+00     0.0000000000000000E+00 
    3.7499999999904610E-01     0.0000000000000000E+00     0.0000000000000000E+00 
    4.3749999999886358E-01     0.0000000000000000E+00     0.0000000000000000E+00 
    4.9999999999869210E-01     0.0000000000000000E+00     0.0000000000000000E+00 
    5.6249999999884603E-01     0.0000000000000000E+00     0.0000000000000000E+00 
    6.2499999999901090E-01     0.0000000000000000E+00     0.0000000000000000E+00 
    6.8749999999917577E-01     0.0000000000000000E+00     0.0000000000000000E+00 
    7.4999999999934064E-01     0.0000000000000000E+00     0.0000000000000000E+00 
    8.1249999999950551E-01     0.0000000000000000E+00     0.0000000000000000E+00 
    8.7499999999967026E-01     0.0000000000000000E+00     0.0000000000000000E+00 
    9.3749999999983513E-01     0.0000000000000000E+00     0.0000000000000000E+00 
    1.0000000000000000E+00     6.2499999999872928E-02     0.0000000000000000E+00 
    1.0000000000000000E+00     1.2499999999977310E-01     0.0000000000000000E+00 
    1.0000000000000000E+00     1.8749999999959341E-01     0.0000000000000000E+00 
    1.0000000000000000E+00     2.4999999999941089E-01     0.0000000000000000E+00 
    1.0000000000000000E+00     3.1249999999922851E-01     0.0000000000000000E+00 
    1.0000000000000000E+00     3.7499999999904610E-01     0.0000000000000000E+00 
    1.0000000000000000E+00     4.3749999999886358E-01     0.0000000000000000E+00 
    1.0000000000000000E+00     4.9999999999869210E-01     0.0000000000000000E+00 
    1.0000000000000000E+00     5.6249999999884603E-01     0.0000000000000000E+00 
    1.0000000000000000E+00     6.2499999999901090E-01     0.0000000000000000E+00 
    1.0000000000000000E+00     6.8749999999917577E-01     0.0000000000000000E+00 
    1.0000000000000000E+00     7.4999999999934064E-01     0.0000000000000000E+00 
    1.0000000000000000E+00     8.1249999999950551E-01     0.0000000000000000E+00 
    1.0000000000000000E+00     8.7499999999967026E-01     0.0000000000000000E+00 
    1.0000000000000000E+00     9.3749999999983513E-01     0.0000000000000000E+00 
    9.3749999999973976E-01     1.0000000000000000E+00     0.0000000000000000E+00 
    8.7499999999950118E-01     1.0000000000000000E+00     0.0000000000000000E+00 
    8.1249999999991318E-01     1.0000000000000000E+00     0.0000000000000000E+00 
    7.5000000000034706E-01     1.0000000000000000E+00     0.0000000000000000E+00 
    6.8750000000078049E-01     1.0000000000000000E+00     0.0000000000000000E+00 
    6.2500000000121403E-01     1.0000000000000000E+00     0.0000000000000000E+00 
    5.6250000000164757E-01     1.0000000000000000E+00     0.0000000000000000E+00 
    5.0000000000205946E-01     1.0000000000000000E+00     0.0000000000000000E+00 
    4.3750000000182099E-01     1.0000000000000000E+00     0.0000000000000000E+00 
    3.7500000000156092E-01     1.0000000000000000E+00     0.0000000000000000E+00 
    3.1250000000130068E-01     1.0000000000000000E+00     0.0000000000000000E+00 
    2.5000000000104050E-01     1.0000000000000000E+00     0.0000000000000000E+00 
    1.8750000000078040E-01     1.0000000000000000E+00     0.0000000000000000E+00 
    1.2500000000052031E-01     1.0000000000000000E+00     0.0000000000000000E+00 
    6.2500000000260125E-02     1.0000000000000000E+00     0.0000000000000000E+00 
    0.0000000000000000E+00     9.3749999999973976E-01     0.0000000000000000E+00 
    0.0000000000000000E+00     8.7499999999950118E-01     0.0000000000000000E+00 
    0.0000000000000000E+00     8.1249999999991318E-01     0.0000000000000000E+00 
    0.0000000000000000E+00     7.5000000000034706E-01     0.0000000000000000E+00 
    0.0000000000000000E+00     6.8750000000078049E-01     0.0000000000000000E+00 
    0.0000000000000000E+00     6.2500000000121403E-01     0.0000000000000000E+00 
    0.0000000000000000E+00     5.6250000000164757E-01     0.0000000000000000E+00 
    0.0000000000000000E+00     5.0000000000205946E-01     0.0000000000000000E+00 
    0.0000000000000000E+00     4.3750000000182099E-01     0.0000000000000000E+00 
    0.0000000000000000E+00     3.7500000000156092E-01     0.0000000000000000E+00 
    0.0000000000000000E+00     3.1250000000130068E-01     0.0000000000000000E+00 
    0.0000000000000000E+00     2.5000000000104050E-01     0.0000000000000000E+00 
    0.0000000000000000E+00     1.8750000000078040E-01     0.0000000000000000E+00 
    0.0000000000000000E+00     1.2500000000052031E-01     0.0000000000000000E+00 
    0.0000000000000000E+00     6.2500000000260125E-02     0.0000000000000000E+00 
    6.2499999999897131E-02     6.2500000000235922E-02     0.0000000000000000E+00 
    6.2499999999921327E-02     1.2500000000047351E-01     0.0000000000000000E+00 
    6.2499999999945530E-02     1.8750000000070621E-01     0.0000000000000000E+00 
    6.2499999999969733E-02     2.5000000000093858E-01     0.0000000000000000E+00 
    6.2499999999993928E-02     3.1250000000117117E-01     0.0000000000000000E+00 
    6.2500000000018124E-02     3.7500000000140382E-01     0.0000000000000000E+00 
    6.2500000000042327E-02     4.3750000000163619E-01     0.0000000000000000E+00 
    6.2500000000066530E-02     5.0000000000184897E-01     0.0000000000000000E+00 
    6.2500000000090733E-02     5.6250000000147260E-01     0.0000000000000000E+00 
    6.2500000000114922E-02     6.2500000000107636E-01     0.0000000000000000E+00 
    6.2500000000139125E-02     6.8750000000068034E-01     0.0000000000000000E+00 
    6.2500000000163328E-02     7.5000000000028411E-01     0.0000000000000000E+00 
    6.2500000000187531E-02     8.1249999999988787E-01     0.0000000000000000E+00 
    6.2500000000211720E-02     8.7499999999951172E-01     0.0000000000000000E+00 
    6.2500000000235922E-02     9.3749999999974565E-01     0.0000000000000000E+00 
    1.2499999999981980E-01     6.2500000000211733E-02     0.0000000000000000E+00 
    1.2499999999986650E-01     1.2500000000042691E-01     0.0000000000000000E+00 
    1.2499999999991319E-01     1.8750000000063199E-01     0.0000000000000000E+00 
    1.2499999999995989E-01     2.5000000000083678E-01     0.0000000000000000E+00 
    1.2500000000000661E-01     3.1250000000104172E-01     0.0000000000000000E+00 
    1.2500000000005329E-01     3.7500000000124661E-01     0.0000000000000000E+00 
    1.2500000000010000E-01     4.3750000000145117E-01     0.0000000000000000E+00 
    1.2500000000014669E-01     5.0000000000163858E-01     0.0000000000000000E+00 
    1.2500000000019340E-01     5.6250000000129741E-01     0.0000000000000000E+00 
    1.2500000000024011E-01     6.2500000000093847E-01     0.0000000000000000E+00 
    1.2500000000028680E-01     6.8750000000057998E-01     0.0000000000000000E+00 
    1.2500000000033351E-01     7.5000000000022127E-01     0.0000000000000000E+00 
    1.2500000000038020E-01     8.1249999999986211E-01     0.0000000000000000E+00 
    1.2500000000042691E-01     8.7499999999952238E-01     0.0000000000000000E+00 
    1.2500000000047359E-01     9.3749999999975164E-01     0.0000000000000000E+00 
    1.8749999999966760E-01     6.2500000000187531E-02     0.0000000000000000E+00 
    1.8749999999974179E-01     1.2500000000038020E-01     0.0000000000000000E+00 
    1.8749999999981601E-01     1.8750000000055780E-01     0.0000000000000000E+00 
    1.8749999999989009E-01     2.5000000000073502E-01     0.0000000000000000E+00 
    1.8749999999996431E-01     3.1250000000091221E-01     0.0000000000000000E+00 
    1.8750000000003850E-01     3.7500000000108941E-01     0.0000000000000000E+00 
    1.8750000000011269E-01     4.3750000000126649E-01     0.0000000000000000E+00 
    1.8750000000018691E-01     5.0000000000142808E-01     0.0000000000000000E+00 
    1.8750000000026110E-01     5.6250000000112244E-01     0.0000000000000000E+00 
    1.8750000000033529E-01     6.2500000000080080E-01     0.0000000000000000E+00 
    1.8750000000040951E-01     6.8750000000047962E-01     0.0000000000000000E+00 
    1.8750000000048361E-01     7.5000000000015843E-01     0.0000000000000000E+00 
    1.8750000000055780E-01     8.1249999999983680E-01     0.0000000000000000E+00 
    1.8750000000063199E-01     8.7499999999953304E-01     0.0000000000000000E+00 
    1.8750000000070621E-01     9.3749999999975764E-01     0.0000000000000000E+00 
    2.4999999999951281E-01     6.2500000000163314E-02     0.0000000000000000E+00 
    2.4999999999961461E-01     1.2500000000033351E-01     0.0000000000000000E+00 
    2.4999999999971650E-01     1.8750000000048361E-01     0.0000000000000000E+00 
    2.4999999999981831E-01     2.5000000000063310E-01     0.0000000000000000E+00 
    2.4999999999992020E-01     3.1250000000078260E-01     0.0000000000000000E+00 
    2.5000000000002198E-01     3.7500000000093209E-01     0.0000000000000000E+00 
    2.5000000000012390E-01     4.3750000000108180E-01     0.0000000000000000E+00 
    2.5000000000022571E-01     5.0000000000121769E-01     0.0000000000000000E+00 
    2.5000000000032763E-01     5.6250000000094724E-01     0.0000000000000000E+00 
    2.5000000000042938E-01     6.2500000000066314E-01     0.0000000000000000E+00 
    2.5000000000053119E-01     6.8750000000037925E-01     0.0000000000000000E+00 
[...]
CELL_DATA 256 
SCALARS Pressure double 1 
LOOKUP_TABLE default 

    9.4070383599034058E-01 
    8.8749490563999966E-01 
    8.5054924074177407E-01 
    8.1495188909246352E-01 
    7.7732867555438812E-01 
    7.3695029923760258E-01 
    6.9392316079027094E-01 
    6.4887602244746545E-01 
    6.0255771174129169E-01 
    5.5570753627646974E-01 
    5.0883671397132602E-01 
    4.6125595321590174E-01 
    4.0836186151902287E-01 
    3.6172493195881233E-01 
    3.3462190609989945E-01 
    3.2360857579539587E-01 
    9.2678573550658983E-01 
    8.8911608015925736E-01 
    8.5341828477930237E-01 
    8.1818223811624402E-01 
    7.8091260886788505E-01 
    7.4087135984317964E-01 
    6.9810554002213587E-01 
    6.5321799092219468E-01 
    6.0695384731733992E-01 
    5.6005713398943191E-01 
    5.1307212189885809E-01 
    4.6542487869446997E-01 
    4.1214101427020777E-01 
    3.6397229223454963E-01 
    3.3516793030242054E-01 
    3.2316832082581282E-01 
    9.1604039002790627E-01 
    8.8847557796041521E-01 
    8.5540979021708285E-01 
    8.2093833161398733E-01 
    7.8414965488916999E-01 
    7.4451637202603149E-01 
    7.0206250418426885E-01 
    6.5735907228982238E-01 
    6.1113481405894210E-01 
    5.6411529319566867E-01 
    5.1684979154447286E-01 
    4.6883178441199880E-01 
    4.1479216194657292E-01 
    3.6489661589459338E-01 
    3.3434583617798425E-01 
    3.2153982688835814E-01 
    9.0740130022178667E-01 
    8.8659656699977329E-01 
    8.5655358247372770E-01 
    8.2321703294805970E-01 
    7.8705346511133945E-01 
    7.4789282215435748E-01 
    7.0579786538324918E-01 
    6.6131111024199818E-01 
    6.1512676861464544E-01 
    5.6792847299664651E-01 
    5.2023914123291415E-01 
    4.7157520454145457E-01 
    4.1643831932161196E-01 
    3.6455025529267371E-01 
    3.3206093403426706E-01 
    3.1849506355744950E-01 
    9.0021357604853536E-01 
    8.8404254267073257E-01 
    8.5697223159213942E-01 
    8.2503634778809598E-01 
    7.8964737869061574E-01 
    7.5102686363325200E-01 
    7.0933316537413971E-01 
    6.6509545934463465E-01 
    6.1896050673784653E-01 
    5.7154879280809989E-01 
    5.2332144102966172E-01 
    4.7376519195383182E-01 
    4.1720055667121031E-01 
    3.6299591981148910E-01 
    3.2822198393439300E-01 
    3.1379993991157695E-01 
    8.9416226826950518E-01 
    8.8119727549155957E-01 
    8.5683585839315524E-01 
    8.2644631370617916E-01 
    7.9196485300617081E-01 
    7.5395511897102241E-01 
    7.1270246590704223E-01 
    6.6874022854937176E-01 
    6.2266686781740466E-01 
    5.7502540418323278E-01 
    5.2617634977779981E-01 
    4.7550648010270608E-01 
    4.1719120325086800E-01 
    3.6030980886048414E-01 
    3.2274333021802859E-01 
    3.0719183938633349E-01 
    8.8904509957998989E-01 
    8.7832062012104595E-01 
    8.5632728547636183E-01 
    8.2752373172985150E-01 
    7.9404613668898527E-01 
    7.5671542010044279E-01 
    7.1594103126107811E-01 
    6.7227834234351169E-01 
    6.2628294926466399E-01 
    5.7840863602341497E-01 
    5.2888438350617328E-01 
    4.7688616228986996E-01 
    4.1651464841318098E-01 
    3.5659948723593632E-01 
    3.1555566377577088E-01 
    2.9837480284990281E-01 
    8.8471966289964188E-01 
    8.7557972556125752E-01 
    8.5560936352913997E-01 
    8.2835474449665369E-01 
    7.9593898071404168E-01 
    7.5934444309620874E-01 
    7.1908491168021738E-01 
    6.7574707211266560E-01 
    6.2984976940527271E-01 
    5.8175409617432905E-01 
    5.3153068501520395E-01 
    4.7797046455263081E-01 
    4.1528589665204746E-01 
    3.5204215991157300E-01 
    3.0661641082143576E-01 
    2.8698834753696040E-01 
    8.8108202025979576E-01 
    8.7307819522184549E-01 
    8.5481852762910038E-01 
    8.2903009670931282E-01 
    7.9769620729844271E-01 
    7.6187887703265533E-01 
    7.2216740610329899E-01 
    6.7918531283201200E-01 
    6.3341283869475684E-01 
    5.8511468145180312E-01 
    5.3418937647774867E-01 
    4.7879103126955908E-01 
    4.1365670171038887E-01 
    3.4693640439909201E-01 
    2.9593789788797992E-01 
    2.7258708753599736E-01 
    8.7806436603130222E-01 
    8.7088862747541729E-01 
    8.5407105020300178E-01 
    8.2964135926876470E-01 
    7.9937888903219068E-01 
    7.6436148108809920E-01 
    7.2522319639335764E-01 
    6.8262833293683334E-01 
    6.3700801962030851E-01 
    5.8851350020842985E-01 
    5.3680790210213603E-01 
    4.7935943904401612E-01 
    4.1198315189299539E-01 
    3.4177491023330431E-01 
    2.8362737329555804E-01 
    2.5459185392998779E-01 
    8.7563704613957583E-01 
    8.6907961537759260E-01 
    8.5347523229898870E-01 
    8.3028152972875147E-01 
    8.0105691997195738E-01 
    7.6684378583679835E-01 
    7.2827804024108811E-01 
    6.8608454990747247E-01 
    6.4061886578296579E-01 
    5.9181743998690839E-01 
    5.3911327510275187E-01 
    4.7980704659712287E-01 
    4.1090192694223260E-01 
    3.3711522440051783E-01 
    2.6995287033611087E-01 
    2.3223838476889203E-01 
    8.7376558515217151E-01 
    8.6769790313556217E-01 
    8.5311717543113641E-01 
    8.3102956989603483E-01 
    8.0278822474779743E-01 
    7.6934373974014458E-01 
    7.3126484211098186E-01 
    6.8937061543238876E-01 
    6.4400913752620415E-01 
    5.9484064747399557E-01 
    5.4126607385635372E-01 
    4.8097050765824673E-01 
    4.1112532669735458E-01 
    3.3338497636880582E-01 
    2.5543496530570792E-01 
    2.0448592585223518E-01 
    8.7222522052359652E-01 
    8.6662536254642053E-01 
    8.5295299650686485E-01 
    8.3182903702531397E-01 
    8.0443313742708034E-01 
    7.7166561192424732E-01 
    7.3402746103371297E-01 
    6.9238818821365766E-01 
    6.4720740231924145E-01 
    5.9800711737461909E-01 
    5.4410857265344925E-01 
    4.8346802756298785E-01 
    4.1290121202613689E-01 
    3.3120187336240975E-01 
    2.4105037137759885E-01 
    1.6989519810741105E-01 
    8.7092819691840240E-01 
    8.6567619125673778E-01 
    8.5280938905932724E-01 
    8.3257404793692957E-01 
    8.0595175475639003E-01 
    7.7383995483231327E-01 
    7.3678560358592093E-01 
    6.9557396006353145E-01 
    6.5070662545748559E-01 
    6.0175035356145956E-01 
    5.4788442801929715E-01 
    4.8713285482557356E-01 
    4.1617094710001223E-01 
    3.3143931634991070E-01 
    2.2858041512846644E-01 
    1.2643981790929285E-01 
    8.7017953094820732E-01 
    8.6522102476920604E-01 
    8.5304847045109966E-01 
    8.3363307143776577E-01 
    8.0777315403895178E-01 
    7.7632800344700215E-01 
    7.3989741690125166E-01 
    6.9917059793915493E-01 
    6.5462868130384322E-01 
    6.0596144683447017E-01 
    5.5233071170731729E-01 
    4.9181304169615686E-01 
    4.2103070101502954E-01 
    3.3487392446411790E-01 
    2.2116369698517666E-01 
    7.1219769252960308E-02 
    8.6997789422372818E-01 
    8.6542219461017944E-01 
    8.5394337483718730E-01 
    8.3527475759771730E-01 
    8.1009657971781679E-01 
    7.7924193818755338E-01 
    7.4334082739493013E-01 
    7.0306523031958645E-01 
    6.5889706938137704E-01 
    6.1060711873635798E-01 
    5.5739539632624835E-01 
    4.9742608010268030E-01 
    4.2740649811751524E-01 
    3.4182991599621015E-01 
    2.2421800072650178E-01 
    0.0000000000000000E+00 

SCALARS Saturarion double 1 
LOOKUP_TABLE default 

    1.0000000000000371E+00 
    9.5870639927848278E-01 
    8.9075922513522776E-01 
    8.0869836071081380E-01 
    7.4062575143005971E-01 
    6.8732672293319941E-01 
    6.4484610751805449E-01 
    6.0864740307049503E-01 
    5.7579797753155204E-01 
    5.4489880761576237E-01 
    5.1237520240568379E-01 
    4.5548745245364486E-01 
    2.1411927569587763E-01 
    1.1385101483510459E-04 
    1.0000000001228009E-06 
    9.9999999999999995E-07 
    9.8217889905602662E-01 
    9.4320262094876162E-01 
    8.7221233516763064E-01 
    7.9854800208564980E-01 
    7.3571234429420529E-01 
    6.8369184938074135E-01 
    6.4111119646372783E-01 
    6.0510731441568710E-01 
    5.7306933109037550E-01 
    5.4299838907393072E-01 
    5.1119451230808277E-01 
    4.5582386505073652E-01 
    2.2461407987375942E-01 
    2.5899581812571478E-04 
    1.0000318024174279E-06 
    1.0000000000010895E-06 
    9.5404788614066338E-01 
    9.1747421175217891E-01 
    8.4783644361399157E-01 
    7.8114585544022086E-01 
    7.2511129656344542E-01 
    6.7581070322995218E-01 
    6.3370357870277827E-01 
    5.9821218242062779E-01 
    5.6754177639329062E-01 
    5.3900626037121280E-01 
    5.0872012103519615E-01 
    4.5625642603747441E-01 
    2.3606528889979925E-01 
    5.3149515203333047E-04 
    1.0003011347146034E-06 
    1.0000000000134142E-06 
    9.0548767756358273E-01 
    8.7742421066205478E-01 
    8.1752408661475573E-01 
    7.5695462020146886E-01 
    7.0715186650069295E-01 
    6.6389092076646605E-01 
    6.2537936581182418E-01 
    5.9199806391835030E-01 
    5.6260407051534478E-01 
    5.3542346422574938E-01 
    5.0692654687056971E-01 
    4.5746921013590819E-01 
    2.5315227675979307E-01 
    1.2779670576338910E-03 
    1.0049687620880172E-06 
    1.0000000003033536E-06 
    8.5528814777935425E-01 
    8.3170594548564225E-01 
    7.8155683559224731E-01 
    7.2928821750285600E-01 
    6.8502032126650780E-01 
    6.4736012957219524E-01 
    6.1416025333372393E-01 
    5.8423736489455713E-01 
    5.5691359382909900E-01 
    5.3108926855828620E-01 
    5.0396819883154298E-01 
    4.5808133082868935E-01 
    2.7138717225182607E-01 
    2.5580608866061492E-03 
    1.0103681867346811E-06 
    1.0000000003213717E-06 
    8.0493626672883833E-01 
    7.8660648967029345E-01 
    7.4624365995090147E-01 
    7.0147609549352830E-01 
    6.6172783487548392E-01 
    6.2819948771505840E-01 
    5.9902592584614234E-01 
    5.7261264491507824E-01 
    5.4796990290110792E-01 
    5.2431967582599881E-01 
    4.9862927456535078E-01 
    4.5568601887659871E-01 
    2.7997451485795682E-01 
    3.4957950407647899E-03 
    1.0019535475852289E-06 
    1.0000000002623743E-06 
    7.5497394636261705E-01 
    7.4240605498792245E-01 
    7.1107920770227406E-01 
    6.7286405581962616E-01 
    6.3767091897092842E-01 
    6.0773006904870164E-01 
    5.8204644036253905E-01 
    5.5871369801889492E-01 
    5.3672389926552844E-01 
    5.1531045238663420E-01 
    4.9171342757128095E-01 
    4.5013805147127944E-01 
    2.7449735509566708E-01 
    3.2645693450162922E-03 
    1.0481879695016788E-06 
    1.0000000022202618E-06 
    7.0505332651501318E-01 
    6.9801054440157928E-01 
    6.7539058297236376E-01 
    6.4401579157473809E-01 
    6.1303350891976516E-01 
    5.8578740125256856E-01 
    5.6238566336222962E-01 
    5.4232080555168682E-01 
    5.2376251172795207E-01 
    5.0474634501887905E-01 
    4.8284796201933916E-01 
    4.4167955962190586E-01 
    2.5204038607147672E-01 
    1.7871624337552341E-03 
    1.0406752766702747E-06 
    1.0000000045915792E-06 
    6.5524649707261373E-01 
    6.5283667018040448E-01 
    6.3791880083506736E-01 
    6.1380889401881134E-01 
    5.8766133033098367E-01 
    5.6284278175371105E-01 
    5.4151476786408959E-01 
    5.2389351642625326E-01 
    5.0818393991682309E-01 
    4.9176716962473460E-01 
    4.7064060373706568E-01 
    4.2406949463787069E-01 
    2.0329241724952749E-01 
    5.9553380707890358E-04 
    1.0129217316147380E-06 
    1.0000000020964685E-06 
    6.0663818734355446E-01 
    6.0795554931866613E-01 
    5.9974804550413130E-01 
    5.8205287285902563E-01 
    5.6094003043460072E-01 
    5.3974138318467979E-01 
    5.2073285173570227E-01 
    5.0431632876038501E-01 
    4.8922045676507120E-01 
    4.7192166109800943E-01 
    4.4513117764266935E-01 
    3.6779059730501462E-01 
    9.5951440084485376E-02 
    1.8214308281281415E-04 
    1.0089541245278729E-06 
    1.0000000000000059E-06 
    5.6211666869193166E-01 
    5.6592496979636087E-01 
    5.6265897374115026E-01 
    5.4951615108422047E-01 
    5.3314775673643622E-01 
    5.1650187843119744E-01 
    4.9886048083919737E-01 
    4.7948241509272643E-01 
    4.5901053604732245E-01 
    4.2842625403571472E-01 
    3.5504048550044881E-01 
    1.6710124274685528E-01 
    4.0426591758584230E-03 
    1.3961668846781424E-06 
    1.0000000729684702E-06 
    1.0000000000000040E-06 
    5.1550240180443208E-01 
    5.2251397719632564E-01 
    5.2237067197919385E-01 
    5.1310566111816247E-01 
    4.9967153487126004E-01 
    4.8138363734717193E-01 
    4.5149187058338713E-01 
    4.0163840858196997E-01 
    3.0684570450761672E-01 
    1.8450116985632423E-01 
    6.6517896660405779E-02 
    1.7699650246125907E-03 
    1.6550012101332544E-06 
    1.0000003599123270E-06 
    1.0000000000000959E-06 
    9.9999999999999995E-07 
    3.8984430936732040E-01 
    4.2524464558527980E-01 
    4.4262074908751631E-01 
    4.3347839360940016E-01 
    3.9915085894457797E-01 
    3.1286494552552541E-01 
    1.8130323917924668E-01 
    6.3328086584129820E-02 
    9.7356749845266266E-03 
    3.7684473450831163E-04 
    8.6120229602136927E-05 
    1.0462240962324483E-06 
    1.0000000659572712E-06 
    1.0000000000001384E-06 
    9.9999999999999995E-07 
    9.9999999999999995E-07 
    3.3656641258249791E-02 
    1.0422483034206395E-01 
    1.3007475786426922E-01 
    1.0322731362677323E-01 
    5.6676932173693441E-02 
    1.0730859606715413E-02 
    1.4756868108808165E-04 
    2.8550074610012134E-05 
    2.1447554544632040E-06 
    1.0080205746041429E-06 
    1.0005464306564263E-06 
    1.0000000054077649E-06 
    1.0000000000000150E-06 
    9.9999999999999995E-07 
    9.9999999999999995E-07 
    9.9999999999999995E-07 
    1.0005375480675581E-06 
    6.4621979514761432E-05 
    2.2257432474171747E-06 
    2.4514921555506330E-05 
    2.2030941551080603E-05 
    2.9905817457320558E-06 
    1.0004010117100359E-06 
    1.0000418226301754E-06 
    1.0000001187321147E-06 
    1.0000000001811678E-06 
    1.0000000000000008E-06 
    1.0000000000000006E-06 
    9.9999999999999995E-07 
    9.9999999999999995E-07 
    9.9999999999999995E-07 
    9.9999999999999995E-07 
    1.0000000000718953E-06 
    1.0001510496157768E-06 
    1.0000003262347754E-06 
    1.0000248655572279E-06 
    1.0000262282338177E-06 
    1.0000001803690965E-06 
    1.0000000000123838E-06 
    9.9999999999999995E-07 
    9.9999999999999995E-07 
    9.9999999999999995E-07 
    9.9999999999999995E-07 
    9.9999999999999995E-07 
    9.9999999999999995E-07 
    9.9999999999999995E-07 
    9.9999999999999995E-07 
    1.0000004402372074E-06 
