# vtk DataFile Version 2.0
Pressure Field Data 
ASCII 
DATASET UNSTRUCTURED_GRID 

POINTS 289 double 

    0.0000000000000000E+00     0.0000000000000000E+00     0.0000000000000000E+00 
    1.0000000000000000E+00     0.0000000000000000E+00     0.0000000000000000E+00 
    1.0000000000000000E+00     1.0000000000000000E+00     0.0000000000000000E+00 
    0.0000000000000000E+00     1.0000000000000000E+00     0.0000000000000000E+00 
    6.2499999999872928E-02     0.0000000000000000E+00     0.0000000000000000E+00 
    1.2499999999977310E-01     0.0000000000000000E+00     0.0000000000000000E+00 
    1.8749999999959341E-01     0.0000000000000000E+00     0.0000000000000000E+00 
    2.4999999999941089E-01     0.0000000000000000E+00     0.0000000000000000E+00 
    3.1249999999922851E-01     0.0000000000000000E+00     0.0000000000000000E+00 
    3.7499999999904610E-01     0.0000000000000000E+00     0.0000000000000000E+00 
    4.3749999999886358E-01     0.0000000000000000E+00     0.0000000000000000E+00 
    4.9999999999869210E-01     0.0000000000000000E+00     0.0000000000000000E+00 
    5.6249999999884603E-01     0.0000000000000000E+00     0.0000000000000000E+00 
    6.2499999999901090E-01     0.0000000000000000E+00     0.0000000000000000E+00 
    6.8749999999917577E-01     0.0000000000000000E+00     0.0000000000000000E+00 
    7.4999999999934064E-01     0.0000000000000000E+00     0.0000000000000000E+00 
    8.1249999999950551E-01     0.0000000000000000E+00     0.0000000000000000E+00 
    8.7499999999967026E-01     0.0000000000000000E+00     0.0000000000000000E+00 
    9.3749999999983513E-01     0.0000000000000000E+00     0.0000000000000000E+00 
    1.0000000000000000E+00     6.2499999999872928E-02     0.0000000000000000E+00 
    1.0000000000000000E+00     1.2499999999977310E-01     0.0000000000000000E+00 
    1.0000000000000000E+00     1.8749999999959341E-01     0.0000000000000000E+00 
    1.0000000000000000E+00     2.4999999999941089E-01     0.0000000000000000E+00 
    1.0000000000000000E+00     3.1249999999922851E-01     0.0000000000000000E+00 
    1.0000000000000000E+00     3.7499999999904610E-01     0.0000000000000000E+00 
    1.0000000000000000E+00     4.3749999999886358E-01     0.0000000000000000E+00 
    1.0000000000000000E+00     4.9999999999869210E-01     0.0000000000000000E+00 
    1.0000000000000000E+00     5.6249999999884603E-01     0.0000000000000000E+00 
    1.0000000000000000E+00     6.2499999999901090E-01     0.0000000000000000E+00 
    1.0000000000000000E+00     6.8749999999917577E-01     0.0000000000000000E+00 
    1.0000000000000000E+00     7.4999999999934064E-01     0.0000000000000000E+00 
    1.0000000000000000E+00     8.1249999999950551E-01     0.0000000000000000E+00 
    1.0000000000000000E+00     8.7499999999967026E-01     0.0000000000000000E+00 
    1.0000000000000000E+00     9.3749999999983513E-01     0.0000000000000000E+00 
    9.3749999999973976E-01     1.0000000000000000E+00     0.0000000000000000E+00 
    8.7499999999950118E-01     1.0000000000000000E+00     0.0000000000000000E+00 
    8.1249999999991318E-01     1.0000000000000000E+00     0.0000000000000000E+00 
    7.5000000000034706E-01     1.0000000000000000E+00     0.0000000000000000E+00 
    6.8750000000078049E-01     1.0000000000000000E+00     0.0000000000000000E+00 
    6.2500000000121403E-01     1.0000000000000000E+00     0.0000000000000000E+00 
    5.6250000000164757E-01     1.0000000000000000E+00     0.0000000000000000E+00 
    5.0000000000205946E-01     1.0000000000000000E+00     0.0000000000000000E+00 
    4.3750000000182099E-01     1.0000000000000000E+00     0.0000000000000000E+00 
    3.7500000000156092E-01     1.0000000000000000E+00     0.0000000000000000E+00 
    3.1250000000130068E-01     1.0000000000000000E+00     0.0000000000000000E+00 
    2.5000000000104050E-01     1.0000000000000000E+00     0.0000000000000000E+00 
    1.8750000000078040E-01     1.0000000000000000E+00     0.0000000000000000E+00 
    1.2500000000052031E-01     1.0000000000000000E+00     0.0000000000000000E+00 
    6.2500000000260125E-02     1.0000000000000000E+00     0.0000000000000000E+00 
    0.0000000000000000E+00     9.3749999999973976E-01     0.0000000000000000E+00 
    0.0000000000000000E+00     8.7499999999950118E-01     0.0000000000000000E+00 
    0.0000000000000000E+00     8.1249999999991318E-01     0.0000000000000000E+00 
    0.0000000000000000E+00     7.5000000000034706E-01     0.0000000000000000E+00 
    0.0000000000000000E+00     6.8750000000078049E-01     0.0000000000000000E+00 
    0.0000000000000000E+00     6.2500000000121403E-01     0.0000000000000000E+00 
    0.0000000000000000E+00     5.6250000000164757E-01     0.0000000000000000E+00 
    0.0000000000000000E+00     5.0000000000205946E-01     0.0000000000000000E+00 
    0.0000000000000000E+00     4.3750000000182099E-01     0.0000000000000000E+00 
    0.0000000000000000E+00     3.7500000000156092E-01     0.0000000000000000E+00 
    0.0000000000000000E+00     3.1250000000130068E-01     0.0000000000000000E+00 
    0.0000000000000000E+00     2.5000000000104050E-01     0.0000000000000000E+00 
    0.0000000000000000E+00     1.8750000000078040E-01     0.0000000000000000E+00 
    0.0000000000000000E+00     1.2500000000052031E-01     0.0000000000000000E+00 
    0.0000000000000000E+00     6.2500000000260125E-02     0.0000000000000000E+00 
    6.2499999999897131E-02     6.2500000000235922E-02     0.0000000000000000E+00 
    6.2499999999921327E-02     1.2500000000047351E-01     0.0000000000000000E+00 
    6.2499999999945530E-02     1.8750000000070621E-01     0.0000000000000000E+00 
    6.2499999999969733E-02     2.5000000000093858E-01     0.0000000000000000E+00 
    6.2499999999993928E-02     3.1250000000117117E-01     0.0000000000000000E+00 
    6.2500000000018124E-02     3.7500000000140382E-01     0.0000000000000000E+00 
    6.2500000000042327E-02     4.3750000000163619E-01     0.0000000000000000E+00 
    6.2500000000066530E-02     5.0000000000184897E-01     0.0000000000000000E+00 
    6.2500000000090733E-02     5.6250000000147260E-01     0.0000000000000000E+00 
    6.2500000000114922E-02     6.2500000000107636E-01     0.0000000000000000E+00 
    6.2500000000139125E-02     6.8750000000068034E-01     0.0000000000000000E+00 
    6.2500000000163328E-02     7.5000000000028411E-01     0.0000000000000000E+00 
    6.2500000000187531E-02     8.1249999999988787E-01     0.0000000000000000E+00 
    6.2500000000211720E-02     8.7499999999951172E-01     0.0000000000000000E+00 
    6.2500000000235922E-02     9.3749999999974565E-01     0.0000000000000000E+00 
    1.2499999999981980E-01     6.2500000000211733E-02     0.0000000000000000E+00 
    1.2499999999986650E-01     1.2500000000042691E-01     0.0000000000000000E+00 
    1.2499999999991319E-01     1.8750000000063199E-01     0.0000000000000000E+00 
    1.2499999999995989E-01     2.5000000000083678E-01     0.0000000000000000E+00 
    1.2500000000000661E-01     3.1250000000104172E-01     0.0000000000000000E+00 
    1.2500000000005329E-01     3.7500000000124661E-01     0.0000000000000000E+00 
    1.2500000000010000E-01     4.3750000000145117E-01     0.0000000000000000E+00 
    1.2500000000014669E-01     5.0000000000163858E-01     0.0000000000000000E+00 
    1.2500000000019340E-01     5.6250000000129741E-01     0.0000000000000000E+00 
    1.2500000000024011E-01     6.2500000000093847E-01     0.0000000000000000E+00 
    1.2500000000028680E-01     6.8750000000057998E-01     0.0000000000000000E+00 
    1.2500000000033351E-01     7.5000000000022127E-01     0.0000000000000000E+00 
    1.2500000000038020E-01     8.1249999999986211E-01     0.0000000000000000E+00 
    1.2500000000042691E-01     8.7499999999952238E-01     0.0000000000000000E+00 
    1.2500000000047359E-01     9.3749999999975164E-01     0.0000000000000000E+00 
    1.8749999999966760E-01     6.2500000000187531E-02     0.0000000000000000E+00 
    1.8749999999974179E-01     1.2500000000038020E-01     0.0000000000000000E+00 
    1.8749999999981601E-01     1.8750000000055780E-01     0.0000000000000000E+00 
    1.8749999999989009E-01     2.5000000000073502E-01     0.0000000000000000E+00 
    1.8749999999996431E-01     3.1250000000091221E-01     0.0000000000000000E+00 
    1.8750000000003850E-01     3.7500000000108941E-01     0.0000000000000000E+00 
    1.8750000000011269E-01     4.3750000000126649E-01     0.0000000000000000E+00 
    1.8750000000018691E-01     5.0000000000142808E-01     0.0000000000000000E+00 
    1.8750000000026110E-01     5.6250000000112244E-01     0.0000000000000000E+00 
    1.8750000000033529E-01     6.2500000000080080E-01     0.0000000000000000E+00 
    1.8750000000040951E-01     6.8750000000047962E-01     0.0000000000000000E+00 
    1.8750000000048361E-01     7.5000000000015843E-01     0.0000000000000000E+00 
    1.8750000000055780E-01     8.1249999999983680E-01     0.0000000000000000E+00 
    1.8750000000063199E-01     8.7499999999953304E-01     0.0000000000000000E+00 
    1.8750000000070621E-01     9.3749999999975764E-01     0.0000000000000000E+00 
    2.4999999999951281E-01     6.2500000000163314E-02     0.0000000000000000E+00 
    2.4999999999961461E-01     1.2500000000033351E-01     0.0000000000000000E+00 
    2.4999999999971650E-01     1.8750000000048361E-01     0.0000000000000000E+00 
    2.4999999999981831E-01     2.5000000000063310E-01     0.0000000000000000E+00 
    2.4999999999992020E-01     3.1250000000078260E-01     0.0000000000000000E+00 
    2.5000000000002198E-01     3.7500000000093209E-01     0.0000000000000000E+00 
    2.5000000000012390E-01     4.3750000000108180E-01     0.0000000000000000E+00 
    2.5000000000022571E-01     5.0000000000121769E-01     0.0000000000000000E+00 
    2.5000000000032763E-01     5.6250000000094724E-01     0.0000000000000000E+00 
    2.5000000000042938E-01     6.2500000000066314E-01     0.0000000000000000E+00 
    2.5000000000053119E-01     6.8750000000037925E-01     0.0000000000000000E+00 
[...]
CELL_DATA 256 
SCALARS Pressure double 1 
LOOKUP_TABLE default 

    8.9281958616900781E-01 
    8.4055325719000962E-01 
    8.0502348404305546E-01 
    7.7127034436862618E-01 
    7.3587879364532893E-01 
    6.9802300155390595E-01 
    6.5770089579851043E-01 
    6.1551065846700326E-01 
    5.7224212733566993E-01 
    5.2873656127539781E-01 
    4.8582199068649412E-01 
    4.4459579431657481E-01 
    4.0637544195068070E-01 
    3.6964043182003603E-01 
    3.4138464582924399E-01 
    3.3004218848439493E-01 
    8.7888952416537236E-01 
    8.4208401312825010E-01 
    8.0776702431181024E-01 
    7.7434436856882949E-01 
    7.3926624468344926E-01 
    7.0171481936931657E-01 
    6.6163496057586113E-01 
    6.1958793374496413E-01 
    5.7634716105399575E-01 
    5.3274650208730401E-01 
    4.8958735793587144E-01 
    4.4791103245359154E-01 
    4.0909053667495454E-01 
    3.7164775589838506E-01 
    3.4201375926255284E-01 
    3.2960557602323504E-01 
    8.6816719982012780E-01 
    8.4139496493378174E-01 
    8.0967276549783407E-01 
    7.7698779477978408E-01 
    7.4234960744417555E-01 
    7.0516698053056182E-01 
    6.6537552164579594E-01 
    6.2349535564248915E-01 
    5.8026992830202695E-01 
    5.3650419491929213E-01 
    4.9296342560734019E-01 
    4.5061609007726627E-01 
    4.1086513794011348E-01 
    3.7247675879805420E-01 
    3.4132767220930199E-01 
    3.2797393990629803E-01 
    8.5961897124445841E-01 
    8.3952172481237552E-01 
    8.1077410824883434E-01 
    7.7919129508385943E-01 
    7.4513965459968989E-01 
    7.0838927776728078E-01 
    6.6892683919120943E-01 
    6.2724073517615531E-01 
    5.8403184755734350E-01 
    5.4005505027387946E-01 
    4.9602112137587911E-01 
    4.5280297853749929E-01 
    4.1180466888208178E-01 
    3.7218973032135821E-01 
    3.3925184938699177E-01 
    3.2491033914157286E-01 
    8.5258750172193287E-01 
    8.3703554747294329E-01 
    8.1119689819518548E-01 
    7.8096828713909028E-01 
    7.4765114917295528E-01 
    7.1140237940298123E-01 
    6.7230815932093979E-01 
    6.3084292302041545E-01 
    5.8766003668930322E-01 
    5.4344776980138609E-01 
    4.9883845066161348E-01 
    4.5457820006573840E-01 
    4.1203127114925786E-01 
    3.7083873764579439E-01 
    3.3568089851880761E-01 
    3.2015796523194801E-01 
    8.4672833560388916E-01 
    8.3430412812823818E-01 
    8.1110298021117222E-01 
    7.8236191423886248E-01 
    7.4990647850929848E-01 
    7.1423194541875645E-01 
    6.7554938389104935E-01 
    6.3433045120259091E-01 
    5.9118489737344915E-01 
    5.4673017458325790E-01 
    5.0149291002553253E-01 
    4.5605540776815523E-01 
    4.1167311124695061E-01 
    3.6846339282460322E-01 
    3.3048115344992340E-01 
    3.1341789076821652E-01 
    8.4182014003504924E-01 
    8.3157042334367193E-01 
    8.1066422885487788E-01 
    7.8344295144233567E-01 
    7.5193759516458691E-01 
    7.1690489044422878E-01 
    6.7867932914067874E-01 
    6.3773545997818404E-01 
    5.9464326534949175E-01 
    5.4995152206522857E-01 
    5.0406494883410846E-01 
    4.5735577333682620E-01 
    4.1087394859345200E-01 
    3.6512401650186543E-01 
    3.2352640379882114E-01 
    3.0435480329627423E-01 
    8.3770718909157560E-01 
    8.2898815117535196E-01 
    8.1003438948813333E-01 
    7.8429205207234665E-01 
    7.5378609994023515E-01 
    7.1944909044670469E-01 
    6.8172612057803894E-01 
    6.4108960647194335E-01 
    5.9807262573926467E-01 
    5.5316505757573942E-01 
    5.0663835760698539E-01 
    4.5861338868675028E-01 
    4.0981036819019268E-01 
    3.6093165984849812E-01 
    3.1472644186761661E-01 
    2.9257669169332606E-01 
    8.3427592718379806E-01 
    8.2664943575502947E-01 
    8.0933974615861681E-01 
    7.8499267878753121E-01 
    7.5549908215145978E-01 
    7.2189334336011934E-01 
    6.8471338906583978E-01 
    6.4442180602248011E-01 
    6.0151194267890840E-01 
    5.5642452538250009E-01 
    5.0929980419052245E-01 
    4.5997295168620217E-01 
    4.0869560683384026E-01 
    3.5605991870673787E-01 
    3.0403656931079909E-01 
    2.7761841249239294E-01 
    8.3144548713353461E-01 
    8.2461172580532416E-01 
    8.0868288660478405E-01 
    7.8562746462753397E-01 
    7.5713090736289002E-01 
    7.2426991795366236E-01 
    6.8766704498363751E-01 
    6.4776140653290348E-01 
    6.0499732176940491E-01 
    5.5977942387289892E-01 
    5.1212923653132014E-01 
    4.6158008450431942E-01 
    4.0777248118749326E-01 
    3.5076351858050070E-01 
    2.9149895484761412E-01 
    2.5890142988390524E-01 
    8.2916680319338187E-01 
    8.2292154168342557E-01 
    8.0815522083484859E-01 
    7.8628046668767781E-01 
    7.5874334555613543E-01 
    7.2662030372951325E-01 
    6.9061787094732374E-01 
    6.5113601547764000E-01 
    6.0855449220925073E-01 
    5.6326132011579100E-01 
    5.1518401771151634E-01 
    4.6355609250169771E-01 
    4.0729164091080478E-01 
    3.4540754660297751E-01 
    2.7733416093275715E-01 
    2.3569825811771053E-01 
    8.2741781875160225E-01 
    8.2162858491834656E-01 
    8.0784439428289634E-01 
    7.8703640202709224E-01 
    7.6040514368834344E-01 
    7.2899121276015355E-01 
    6.9359294765199297E-01 
    6.5454702008231436E-01 
    6.1214673051838175E-01 
    5.6679422642826860E-01 
    5.1837447892323407E-01 
    4.6585591864184644E-01 
    4.0734431014458833E-01 
    3.4032553536055704E-01 
    2.6192043428739176E-01 
    2.0698713614049033E-01 
    8.2611598018247356E-01 
    8.2072374513751389E-01 
    8.0779346895760662E-01 
    7.8794750468849628E-01 
    7.6215094532395922E-01 
    7.3136872989269663E-01 
    6.9646094197338615E-01 
    6.5780750280396960E-01 
    6.1559756972460811E-01 
    5.7021761515570579E-01 
    5.2154631944655305E-01 
    4.6828806350985497E-01 
    4.0763629041300209E-01 
    3.3521077788654624E-01 
    2.4524615781174627E-01 
    1.7099787978913791E-01 
    8.2497831165574897E-01 
    8.1996057303709580E-01 
    8.0781951383705297E-01 
    7.8885548706700637E-01 
    7.6383578408195785E-01 
    7.3363851600876462E-01 
    6.9913310875264023E-01 
    6.6085902088613846E-01 
    6.1900631564724573E-01 
    5.7380156066703070E-01 
    5.2509299616428151E-01 
    4.7144352069289724E-01 
    4.0941207470031271E-01 
    3.3265059356320875E-01 
    2.3056138626863984E-01 
    1.2627574537731986E-01 
    8.2423550520012501E-01 
    8.1952489513604276E-01 
    8.0808281463429421E-01 
    7.8989894054546184E-01 
    7.6560061354314368E-01 
    7.3600833744499006E-01 
    7.0197350226789346E-01 
    6.6411883874987532E-01 
    6.2269504931537190E-01 
    5.7780240161229923E-01 
    5.2925596139935682E-01 
    4.7561196333150063E-01 
    4.1326520080152468E-01 
    3.3461687733892598E-01 
    2.2252254872040877E-01 
    7.1052210010545805E-02 
    8.2404404429429479E-01 
    8.1972017817444198E-01 
    8.0892588970501556E-01 
    7.9143232651032192E-01 
    7.6778138399537799E-01 
    7.3875849007347805E-01 
    7.0519842846321057E-01 
    6.6773964441811406E-01 
    6.2667616551676397E-01 
    5.8212126584132584E-01 
    5.3388615310227716E-01 
    4.8060587329312493E-01 
    4.1877646175875860E-01 
    3.4062757201369265E-01 
    2.2525958900330542E-01 
    0.0000000000000000E+00 

SCALARS Saturarion double 1 
LOOKUP_TABLE default 

    1.0000000000000067E+00 
    9.6367694689755057E-01 
    9.0192978226598364E-01 
    8.2691004567765947E-01 
    7.6351048033412272E-01 
    7.1191351072229414E-01 
    6.7023597441644989E-01 
    6.3528648420121858E-01 
    6.0419633483786750E-01 
    5.7528860246682856E-01 
    5.4757148765110142E-01 
    5.1923306930019852E-01 
    4.7343773192336619E-01 
    2.7631225592603609E-01 
    1.2222921933061537E-03 
    1.0000000093862175E-06 
    9.8482160429322974E-01 
    9.5044144550779841E-01 
    8.8582523200943586E-01 
    8.1706715077204106E-01 
    7.5835718036553157E-01 
    7.0860887048901633E-01 
    6.6715342195343530E-01 
    6.3214830167749936E-01 
    6.0149047445136650E-01 
    5.7335649705704084E-01 
    5.4652435480326633E-01 
    5.1905089775066460E-01 
    4.7493809040665003E-01 
    2.9791994201596300E-01 
    3.3464944875908520E-03 
    1.0142367833484394E-06 
    9.6096528940050829E-01 
    9.2796085021728558E-01 
    8.6421491875069922E-01 
    8.0046611276564550E-01 
    7.4765315183535386E-01 
    7.0132402764767021E-01 
    6.6081478349441880E-01 
    6.2586309222904046E-01 
    5.9580718889956052E-01 
    5.6900719011287559E-01 
    5.4379105159679342E-01 
    5.1788243883463292E-01 
    4.7760293259026532E-01 
    3.2225891255924238E-01 
    8.4393289637881355E-03 
    1.1244573963662528E-06 
    9.1922475109398016E-01 
    8.9324374153071517E-01 
    8.3784121494989217E-01 
    7.7910510288754431E-01 
    7.3037900160796831E-01 
    6.8907444993110101E-01 
    6.5207571315204171E-01 
    6.1929618844044299E-01 
    5.9047801800889754E-01 
    5.6482396494488585E-01 
    5.4084467999268360E-01 
    5.1664435200391090E-01 
    4.8001996773077671E-01 
    3.4859169232577575E-01 
    2.1408708714135753E-02 
    2.4632057804716896E-06 
    8.7393381243535662E-01 
    8.5209985977295510E-01 
    8.0475705773258022E-01 
    7.5334148376701859E-01 
    7.0911844562130111E-01 
    6.7193993188524959E-01 
    6.3954736140083290E-01 
    6.1052466006544182E-01 
    5.8425745016454722E-01 
    5.6026453405847143E-01 
    5.3778524699796915E-01 
    5.1545465365596388E-01 
    4.8244278188577316E-01 
    3.7082311617880998E-01 
    4.0324939364349346E-02 
    4.8653988077341299E-06 
    8.2756767769789785E-01 
    8.1017700982771179E-01 
    7.7116631499888255E-01 
    7.2684905959401458E-01 
    6.8680534401859006E-01 
    6.5266098954901719E-01 
    6.2344574031616984E-01 
    5.9791448968062610E-01 
    5.7465659926122836E-01 
    5.5299513109023213E-01 
    5.3252760854584424E-01 
    5.1230948452529879E-01 
    4.8390041782065590E-01 
    3.8805137591460187E-01 
    6.5615913999723260E-02 
    1.0397375316376523E-05 
    7.8046455732981412E-01 
    7.6824925461660332E-01 
    7.3750008717738591E-01 
    6.9944107229029551E-01 
    6.6357952793444819E-01 
    6.3253598892667706E-01 
    6.0615575334401472E-01 
    5.8308150701391837E-01 
    5.6240566122113944E-01 
    5.4333204189510820E-01 
    5.2548384180076169E-01 
    5.0766506120274302E-01 
    4.8367082326630684E-01 
    4.0329876318192193E-01 
    9.3692943825432543E-02 
    1.0364576752565687E-05 
    7.3259529232453002E-01 
    7.2556446268208086E-01 
    7.0300978936788072E-01 
    6.7131388262326286E-01 
    6.3945075357167447E-01 
    6.1119586481344645E-01 
    5.8676432496050202E-01 
    5.6590838645236696E-01 
    5.4790012033108637E-01 
    5.3171466212538976E-01 
    5.1636240975503622E-01 
    5.0133406365172339E-01 
    4.8156272895421004E-01 
    4.1636294433622162E-01 
    1.2566293929638947E-01 
    2.0915439512313580E-05 
    6.8398059501275277E-01 
    6.8141681171991153E-01 
    6.6610593977682242E-01 
    6.4120396609583763E-01 
    6.1420814600411455E-01 
    5.8864380747931344E-01 
    5.6577649466462276E-01 
    5.4636351696544305E-01 
    5.3063919407639459E-01 
    5.1731231651084342E-01 
    5.0515444432551027E-01 
    4.9314507003882468E-01 
    4.7780659347784293E-01 
    4.2556447964815092E-01 
    1.6065030503042013E-01 
    9.6890135667968331E-05 
    6.3492063222642847E-01 
    6.3610303420738445E-01 
    6.2719090260110066E-01 
    6.0865709033980653E-01 
    5.8689899307567406E-01 
    5.6485385551324974E-01 
    5.4402625928617487E-01 
    5.2632995413689854E-01 
    5.1229710026323805E-01 
    5.0054559993462122E-01 
    4.9024890436119173E-01 
    4.8138192796009560E-01 
    4.7054026694727041E-01 
    4.3054407226666069E-01 
    1.9846331884682844E-01 
    3.6795936728245305E-04 
    5.8709829684274195E-01 
    5.9106341321078881E-01 
    5.8766904568292000E-01 
    5.7479042314985773E-01 
    5.5773754100103212E-01 
    5.4006254281579447E-01 
    5.2292091599205726E-01 
    5.0636104506711455E-01 
    4.9139574459763141E-01 
    4.7850811901526336E-01 
    4.6842035449797048E-01 
    4.6113515411836525E-01 
    4.5553394874518333E-01 
    4.2911507956135875E-01 
    2.4365376504142022E-01 
    1.5748343523392296E-03 
    5.4271183920070609E-01 
    5.4862752422080630E-01 
    5.4904247107951465E-01 
    5.3995624400216102E-01 
    5.2635405100912058E-01 
    5.1255899681271133E-01 
    4.9711324554080005E-01 
    4.7736158174321475E-01 
    4.5358126003665805E-01 
    4.2429310949253973E-01 
    3.9501653577105211E-01 
    3.8646710922302380E-01 
    4.0163740575318635E-01 
    4.0484505766436146E-01 
    2.7995696196564357E-01 
    6.3526351818654738E-03 
    4.7147323192772811E-01 
    4.8626244686645520E-01 
    4.9509467805095825E-01 
    4.9181902459844901E-01 
    4.7808213885342249E-01 
    4.5935648752001473E-01 
    4.2234365600185358E-01 
    3.1102050422558075E-01 
    2.1814823135399591E-01 
    1.3724978310929359E-01 
    7.1379993352085697E-02 
    8.0805850351118619E-02 
    1.4759642965654499E-01 
    2.5762590938933566E-01 
    2.4000009402482878E-01 
    9.9037127266892039E-03 
    1.7362581438246388E-01 
    2.6615246161797096E-01 
    3.1427776962734244E-01 
    3.0269167734213198E-01 
    2.4763565197477336E-01 
    1.8036330906388937E-01 
    9.6040382923094372E-02 
    8.4316653672336095E-03 
    5.1665045156460158E-04 
    6.8170649641976654E-05 
    9.2298854033232676E-06 
    3.9332720008080671E-06 
    1.0225941462438769E-04 
    6.0645474024296330E-03 
    2.9518801467969678E-02 
    2.4475345594400429E-04 
    1.1036244784589726E-06 
    2.0842534059990953E-03 
    5.1895327625872166E-03 
    2.7270349029565565E-03 
    8.9634615663575104E-04 
    9.5540821082272076E-05 
    4.6640363011926834E-05 
    1.5792035453809081E-06 
    1.0043529824814311E-06 
    1.0008377560434722E-06 
    1.0000083207703079E-06 
    1.0000048309293234E-06 
    1.0002116955812602E-06 
    1.5142989346639294E-06 
    1.5373512343376912E-05 
    1.0202960879381098E-06 
    1.0000000016998905E-06 
    1.0586217034550314E-06 
    1.0463491860205318E-06 
    1.0421197627679292E-06 
    1.0089226670955095E-06 
    1.0007129994474435E-06 
    1.0001182642008031E-06 
    1.0000000198317753E-06 
    1.0000000002420576E-06 
    1.0000000000001342E-06 
    9.9999999999999995E-07 
    1.0000000000000747E-06 
    1.0000000000214231E-06 
    1.0000000583102450E-06 
    1.0000078258536526E-06 
    1.0000005273822580E-06 
