# vtk DataFile Version 2.0
Pressure Field Data 
ASCII 
DATASET UNSTRUCTURED_GRID 

POINTS 289 double 

    0.0000000000000000E+00     0.0000000000000000E+00     0.0000000000000000E+00 
    1.0000000000000000E+00     0.0000000000000000E+00     0.0000000000000000E+00 
    1.0000000000000000E+00     1.0000000000000000E+00     0.0000000000000000E+00 
    0.0000000000000000E+00     1.0000000000000000E+00     0.0000000000000000E+00 
    6.2499999999872928E-02     0.0000000000000000E+00     0.0000000000000000E+00 
    1.2499999999977310E-01     0.0000000000000000E+00     0.0000000000000000E+00 
    1.8749999999959341E-01     0.0000000000000000E+00     0.0000000000000000E+00 
    2.4999999999941089E-01     0.0000000000000000E+00     0.0000000000000000E+00 
    3.1249999999922851E-01     0.0000000000000000E+00     0.0000000000000000E+00 
    3.7499999999904610E-01     0.0000000000000000E+00     0.0000000000000000E+00 
    4.3749999999886358E-01     0.0000000000000000E+00     0.0000000000000000E+00 
    4.9999999999869210E-01     0.0000000000000000E+00     0.0000000000000000E+00 
    5.6249999999884603E-01     0.0000000000000000E+00     0.0000000000000000E+00 
    6.2499999999901090E-01     0.0000000000000000E+00     0.0000000000000000E+00 
    6.8749999999917577E-01     0.0000000000000000E+00     0.0000000000000000E+00 
    7.4999999999934064E-01     0.0000000000000000E+00     0.0000000000000000E+00 
    8.1249999999950551E-01     0.0000000000000000E+00     0.0000000000000000E+00 
    8.7499999999967026E-01     0.0000000000000000E+00     0.0000000000000000E+00 
    9.3749999999983513E-01     0.0000000000000000E+00     0.0000000000000000E+00 
    1.0000000000000000E+00     6.2499999999872928E-02     0.0000000000000000E+00 
    1.0000000000000000E+00     1.2499999999977310E-01     0.0000000000000000E+00 
    1.0000000000000000E+00     1.8749999999959341E-01     0.0000000000000000E+00 
    1.0000000000000000E+00     2.4999999999941089E-01     0.0000000000000000E+00 
    1.0000000000000000E+00     3.1249999999922851E-01     0.0000000000000000E+00 
    1.0000000000000000E+00     3.7499999999904610E-01     0.0000000000000000E+00 
    1.0000000000000000E+00     4.3749999999886358E-01     0.0000000000000000E+00 
    1.0000000000000000E+00     4.9999999999869210E-01     0.0000000000000000E+00 
    1.0000000000000000E+00     5.6249999999884603E-01     0.0000000000000000E+00 
    1.0000000000000000E+00     6.2499999999901090E-01     0.0000000000000000E+00 
    1.0000000000000000E+00     6.8749999999917577E-01     0.0000000000000000E+00 
    1.0000000000000000E+00     7.4999999999934064E-01     0.0000000000000000E+00 
    1.0000000000000000E+00     8.1249999999950551E-01     0.0000000000000000E+00 
    1.0000000000000000E+00     8.7499999999967026E-01     0.0000000000000000E+00 
    1.0000000000000000E+00     9.3749999999983513E-01     0.0000000000000000E+00 
    9.3749999999973976E-01     1.0000000000000000E+00     0.0000000000000000E+00 
    8.7499999999950118E-01     1.0000000000000000E+00     0.0000000000000000E+00 
    8.1249999999991318E-01     1.0000000000000000E+00     0.0000000000000000E+00 
    7.5000000000034706E-01     1.0000000000000000E+00     0.0000000000000000E+00 
    6.8750000000078049E-01     1.0000000000000000E+00     0.0000000000000000E+00 
    6.2500000000121403E-01     1.0000000000000000E+00     0.0000000000000000E+00 
    5.6250000000164757E-01     1.0000000000000000E+00     0.0000000000000000E+00 
    5.0000000000205946E-01     1.0000000000000000E+00     0.0000000000000000E+00 
    4.3750000000182099E-01     1.0000000000000000E+00     0.0000000000000000E+00 
    3.7500000000156092E-01     1.0000000000000000E+00     0.0000000000000000E+00 
    3.1250000000130068E-01     1.0000000000000000E+00     0.0000000000000000E+00 
    2.5000000000104050E-01     1.0000000000000000E+00     0.0000000000000000E+00 
    1.8750000000078040E-01     1.0000000000000000E+00     0.0000000000000000E+00 
    1.2500000000052031E-01     1.0000000000000000E+00     0.0000000000000000E+00 
    6.2500000000260125E-02     1.0000000000000000E+00     0.0000000000000000E+00 
    0.0000000000000000E+00     9.3749999999973976E-01     0.0000000000000000E+00 
    0.0000000000000000E+00     8.7499999999950118E-01     0.0000000000000000E+00 
    0.0000000000000000E+00     8.1249999999991318E-01     0.0000000000000000E+00 
    0.0000000000000000E+00     7.5000000000034706E-01     0.0000000000000000E+00 
    0.0000000000000000E+00     6.8750000000078049E-01     0.0000000000000000E+00 
    0.0000000000000000E+00     6.2500000000121403E-01     0.0000000000000000E+00 
    0.0000000000000000E+00     5.6250000000164757E-01     0.0000000000000000E+00 
    0.0000000000000000E+00     5.0000000000205946E-01     0.0000000000000000E+00 
    0.0000000000000000E+00     4.3750000000182099E-01     0.0000000000000000E+00 
    0.0000000000000000E+00     3.7500000000156092E-01     0.0000000000000000E+00 
    0.0000000000000000E+00     3.1250000000130068E-01     0.0000000000000000E+00 
    0.0000000000000000E+00     2.5000000000104050E-01     0.0000000000000000E+00 
    0.0000000000000000E+00     1.8750000000078040E-01     0.0000000000000000E+00 
    0.0000000000000000E+00     1.2500000000052031E-01     0.0000000000000000E+00 
    0.0000000000000000E+00     6.2500000000260125E-02     0.0000000000000000E+00 
    6.2499999999897131E-02     6.2500000000235922E-02     0.0000000000000000E+00 
    6.2499999999921327E-02     1.2500000000047351E-01     0.0000000000000000E+00 
    6.2499999999945530E-02     1.8750000000070621E-01     0.0000000000000000E+00 
    6.2499999999969733E-02     2.5000000000093858E-01     0.0000000000000000E+00 
    6.2499999999993928E-02     3.1250000000117117E-01     0.0000000000000000E+00 
    6.2500000000018124E-02     3.7500000000140382E-01     0.0000000000000000E+00 
    6.2500000000042327E-02     4.3750000000163619E-01     0.0000000000000000E+00 
    6.2500000000066530E-02     5.0000000000184897E-01     0.0000000000000000E+00 
    6.2500000000090733E-02     5.6250000000147260E-01     0.0000000000000000E+00 
    6.2500000000114922E-02     6.2500000000107636E-01     0.0000000000000000E+00 
    6.2500000000139125E-02     6.8750000000068034E-01     0.0000000000000000E+00 
    6.2500000000163328E-02     7.5000000000028411E-01     0.0000000000000000E+00 
    6.2500000000187531E-02     8.1249999999988787E-01     0.0000000000000000E+00 
    6.2500000000211720E-02     8.7499999999951172E-01     0.0000000000000000E+00 
    6.2500000000235922E-02     9.3749999999974565E-01     0.0000000000000000E+00 
    1.2499999999981980E-01     6.2500000000211733E-02     0.0000000000000000E+00 
    1.2499999999986650E-01     1.2500000000042691E-01     0.0000000000000000E+00 
    1.2499999999991319E-01     1.8750000000063199E-01     0.0000000000000000E+00 
    1.2499999999995989E-01     2.5000000000083678E-01     0.0000000000000000E+00 
    1.2500000000000661E-01     3.1250000000104172E-01     0.0000000000000000E+00 
    1.2500000000005329E-01     3.7500000000124661E-01     0.0000000000000000E+00 
    1.2500000000010000E-01     4.3750000000145117E-01     0.0000000000000000E+00 
    1.2500000000014669E-01     5.0000000000163858E-01     0.0000000000000000E+00 
    1.2500000000019340E-01     5.6250000000129741E-01     0.0000000000000000E+00 
    1.2500000000024011E-01     6.2500000000093847E-01     0.0000000000000000E+00 
    1.2500000000028680E-01     6.8750000000057998E-01     0.0000000000000000E+00 
    1.2500000000033351E-01     7.5000000000022127E-01     0.0000000000000000E+00 
    1.2500000000038020E-01     8.1249999999986211E-01     0.0000000000000000E+00 
    1.2500000000042691E-01     8.7499999999952238E-01     0.0000000000000000E+00 
    1.2500000000047359E-01     9.3749999999975164E-01     0.0000000000000000E+00 
    1.8749999999966760E-01     6.2500000000187531E-02     0.0000000000000000E+00 
    1.8749999999974179E-01     1.2500000000038020E-01     0.0000000000000000E+00 
    1.8749999999981601E-01     1.8750000000055780E-01     0.0000000000000000E+00 
    1.8749999999989009E-01     2.5000000000073502E-01     0.0000000000000000E+00 
    1.8749999999996431E-01     3.1250000000091221E-01     0.0000000000000000E+00 
    1.8750000000003850E-01     3.7500000000108941E-01     0.0000000000000000E+00 
    1.8750000000011269E-01     4.3750000000126649E-01     0.0000000000000000E+00 
    1.8750000000018691E-01     5.0000000000142808E-01     0.0000000000000000E+00 
    1.8750000000026110E-01     5.6250000000112244E-01     0.0000000000000000E+00 
    1.8750000000033529E-01     6.2500000000080080E-01     0.0000000000000000E+00 
    1.8750000000040951E-01     6.8750000000047962E-01     0.0000000000000000E+00 
    1.8750000000048361E-01     7.5000000000015843E-01     0.0000000000000000E+00 
    1.8750000000055780E-01     8.1249999999983680E-01     0.0000000000000000E+00 
    1.8750000000063199E-01     8.7499999999953304E-01     0.0000000000000000E+00 
    1.8750000000070621E-01     9.3749999999975764E-01     0.0000000000000000E+00 
    2.4999999999951281E-01     6.2500000000163314E-02     0.0000000000000000E+00 
    2.4999999999961461E-01     1.2500000000033351E-01     0.0000000000000000E+00 
    2.4999999999971650E-01     1.8750000000048361E-01     0.0000000000000000E+00 
    2.4999999999981831E-01     2.5000000000063310E-01     0.0000000000000000E+00 
    2.4999999999992020E-01     3.1250000000078260E-01     0.0000000000000000E+00 
    2.5000000000002198E-01     3.7500000000093209E-01     0.0000000000000000E+00 
    2.5000000000012390E-01     4.3750000000108180E-01     0.0000000000000000E+00 
    2.5000000000022571E-01     5.0000000000121769E-01     0.0000000000000000E+00 
    2.5000000000032763E-01     5.6250000000094724E-01     0.0000000000000000E+00 
    2.5000000000042938E-01     6.2500000000066314E-01     0.0000000000000000E+00 
    2.5000000000053119E-01     6.8750000000037925E-01     0.0000000000000000E+00 
[...]
CELL_DATA 256 
SCALARS Pressure double 1 
LOOKUP_TABLE default 

    8.9851103145449396E-01 
    8.4657133749655766E-01 
    8.1153874107871304E-01 
    7.7843917681946173E-01 
    7.4384701312172918E-01 
    7.0691682603671413E-01 
    6.6761249015387159E-01 
    6.2649013263245001E-01 
    5.8430355896843300E-01 
    5.4187629327109887E-01 
    5.0004238620533292E-01 
    4.5997985881571368E-01 
    4.2358790429017679E-01 
    3.9156600286935367E-01 
    3.6587051176512725E-01 
    3.5434196903524595E-01 
    8.8457507480639319E-01 
    8.4806932143350011E-01 
    8.1423641169436078E-01 
    7.8145588783897313E-01 
    7.4716235009371357E-01 
    7.1052241183083253E-01 
    6.7145226863453111E-01 
    6.3047148781396278E-01 
    5.8831378294806247E-01 
    5.4579144837948912E-01 
    5.0370805639657390E-01 
    4.6316668756257218E-01 
    4.2606484669460937E-01 
    3.9328658355869667E-01 
    3.6643385055084488E-01 
    3.5391740588983639E-01 
    8.7385617664654081E-01 
    8.4736047520783386E-01 
    8.1610903206514263E-01 
    7.8405638163939484E-01 
    7.5018848049713971E-01 
    7.1390110387703665E-01 
    6.7510908136243242E-01 
    6.3429322262052557E-01 
    5.9215301942324339E-01 
    5.4946711983545582E-01 
    5.0700034733333466E-01 
    4.6577072644506168E-01 
    4.2766450207036855E-01 
    3.9387600880316398E-01 
    3.6568968266254820E-01 
    3.5231124422679955E-01 
    8.6533212004143256E-01 
    8.4548414362169433E-01 
    8.1719114528006886E-01 
    7.8622928668362069E-01 
    7.5293456873050291E-01 
    7.1706302209339290E-01 
    6.7858766959995176E-01 
    6.3796241760506589E-01 
    5.9584117299355766E-01 
    5.5294751212278270E-01 
    5.0998956131436068E-01 
    4.6788123875784449E-01 
    4.2847386197098697E-01 
    3.9334067056678224E-01 
    3.6354739652222579E-01 
    3.4930570230369196E-01 
    8.5834547304176956E-01 
    8.4301423526148878E-01 
    8.1760975748971410E-01 
    7.8798694796887092E-01 
    7.5541268206611634E-01 
    7.2002664956630724E-01 
    6.8190595153396538E-01 
    6.4149702118029495E-01 
    5.9940443049150571E-01 
    5.5628014561926908E-01 
    5.1275217081937796E-01 
    4.6960188076783943E-01 
    4.2859946495993312E-01 
    3.9169991213023886E-01 
    3.5990948871370443E-01 
    3.4467929853696461E-01 
    8.5254251666765346E-01 
    8.4031372995934051E-01 
    8.1752434337367186E-01 
    7.8937065700005327E-01 
    7.5764222036905005E-01 
    7.2281383179970182E-01 
    6.8509075008233833E-01 
    6.4492462106311843E-01 
    6.0287362051230753E-01 
    5.5951282199607155E-01 
    5.1536499380619871E-01 
    4.7104487196379430E-01 
    4.2816367766232033E-01 
    3.8898970798466875E-01 
    3.5468102399445023E-01 
    3.3818645496702870E-01 
    8.4769575177838508E-01 
    8.3762006238006659E-01 
    8.1710293196386929E-01 
    7.9044913937913697E-01 
    7.5965327855573805E-01 
    7.2544810702426399E-01 
    6.8816699644010304E-01 
    6.4827551147770923E-01 
    6.0628591539709664E-01 
    5.6269518577935407E-01 
    5.1790810966632161E-01 
    4.7233043017304438E-01 
    4.2731363124162036E-01 
    3.8528488816346457E-01 
    3.4779062037989805E-01 
    3.2955814103608166E-01 
    8.4364494256597988E-01 
    8.3508225755466259E-01 
    8.1649592723857312E-01 
    7.9130123226222981E-01 
    7.6148626554442889E-01 
    7.2795519216147375E-01 
    6.9115875613476219E-01 
    6.5157782817908216E-01 
    6.0967775474624930E-01 
    5.6588034751872218E-01 
    5.2046477709322370E-01 
    4.7359167415159570E-01 
    4.2623345243092348E-01 
    3.8074093920965252E-01 
    3.3924319739384756E-01 
    3.1847914096822266E-01 
    8.4027358628422966E-01 
    8.3278877395976203E-01 
    8.1582628726882778E-01 
    7.9200788802274391E-01 
    7.6318726052573937E-01 
    7.3036302762874084E-01 
    6.9408566048231413E-01 
    6.5485522230332005E-01 
    6.1308511933133236E-01 
    5.6912096350195429E-01 
    5.2312049387530157E-01 
    4.7497084201928769E-01 
    4.2514461265754572E-01 
    3.7562032803889722E-01 
    3.2911840552236904E-01 
    3.0450816704124301E-01 
    8.3749769319508194E-01 
    8.3079298288843284E-01 
    8.1519232847754375E-01 
    7.9264814901911029E-01 
    7.6480947177524616E-01 
    7.3270365583657249E-01 
    6.9696878924433714E-01 
    6.5813057588100876E-01 
    6.1654121227002978E-01 
    5.7246610880433513E-01 
    5.2595596828745173E-01 
    4.7661393600475205E-01 
    4.2429938928052613E-01 
    3.7024923284546496E-01 
    3.1740775288952222E-01 
    2.8677394536555378E-01 
    8.3526278251461405E-01 
    8.2913482376620573E-01 
    8.1467910726398873E-01 
    7.9330118220442192E-01 
    7.6641298739304153E-01 
    7.3501854049791515E-01 
    6.9983417662255543E-01 
    6.6142759015298558E-01 
    6.2007460145151549E-01 
    5.7595202290156300E-01 
    5.2903664137850459E-01 
    4.7865582750050240E-01 
    4.2396967921088086E-01 
    3.6505414645036033E-01 
    3.0414662229891887E-01 
    2.6392460381667188E-01 
    8.3354328429693603E-01 
    8.2785799691504913E-01 
    8.1436908278198616E-01 
    7.9404777061426912E-01 
    7.6806587990871356E-01 
    7.3735899582824549E-01 
    7.0271196961803406E-01 
    6.6475870202206799E-01 
    6.2368206596867148E-01 
    5.7956095432013188E-01 
    5.3235038248196165E-01 
    4.8114463064316537E-01 
    4.2436771577022642E-01 
    3.6054436852972888E-01 
    2.8970575951784278E-01 
    2.3457719067886071E-01 
    8.3228404120842980E-01 
    8.2697312154232572E-01 
    8.1431736781777442E-01 
    7.9494901176597921E-01 
    7.6981760520976505E-01 
    7.3975368302855149E-01 
    7.0557188601893783E-01 
    6.6798531542521833E-01 
    6.2717515632673171E-01 
    5.8309273203373135E-01 
    5.3565237213635020E-01 
    4.8380795309779789E-01 
    4.2539555474256685E-01 
    3.5698403652040855E-01 
    2.7449251789753670E-01 
    1.9705693801992399E-01 
    8.3121924988231310E-01 
    8.2629127536274283E-01 
    8.1441295014066439E-01 
    7.9590046225211764E-01 
    7.7154103862510792E-01 
    7.4208098162480196E-01 
    7.0831974129487030E-01 
    6.7102003891457351E-01 
    6.3049126324818539E-01 
    5.8662887661288843E-01 
    5.3918286962021222E-01 
    4.8704119426515685E-01 
    4.2751169139916007E-01 
    3.5500141841116895E-01 
    2.5924673399571541E-01 
    1.4832219806538499E-01 
    8.3050787633821299E-01 
    8.2590279152865087E-01 
    8.1472214832763556E-01 
    7.9696390255318983E-01 
    7.7329549414681042E-01 
    7.4443344082556162E-01 
    7.1115299087025174E-01 
    6.7421056845876215E-01 
    6.3401148582072586E-01 
    5.9048493912560707E-01 
    5.4325861821928567E-01 
    4.9120289388347632E-01 
    4.3138818191436995E-01 
    3.5667193840555972E-01 
    2.4821272154249302E-01 
    8.3832724352145269E-02 
    8.3032061434494309E-01 
    8.2609427575050220E-01 
    8.1554410601454197E-01 
    7.9845478542034798E-01 
    7.7540876189478614E-01 
    7.4710794160976501E-01 
    7.1430771440364549E-01 
    6.7775153035195590E-01 
    6.3787767546660690E-01 
    5.9466845995476603E-01 
    5.4776758758866562E-01 
    4.9607496234222637E-01 
    4.3671777471041873E-01 
    3.6246494183707190E-01 
    2.5024337435846866E-01 
    0.0000000000000000E+00 

SCALARS Saturarion double 1 
LOOKUP_TABLE default 

    1.0000000000000018E+00 
    9.6539921094097358E-01 
    9.0593109392090265E-01 
    8.3332465484946416E-01 
    7.7176112063398983E-01 
    7.2098906455297951E-01 
    6.7966339638530338E-01 
    6.4506260908999902E-01 
    6.1450136474554051E-01 
    5.8618042489050015E-01 
    5.5896399183808509E-01 
    5.3192691764696587E-01 
    4.9785297682933560E-01 
    3.9206018354963668E-01 
    4.3749603534092275E-02 
    1.0000004497106367E-06 
    9.8571397386511617E-01 
    9.5294204852668107E-01 
    8.9069650508821652E-01 
    8.2368749250031881E-01 
    7.6650778482046500E-01 
    7.1771866794534633E-01 
    6.7677089394980561E-01 
    6.4211763026603796E-01 
    6.1187051586555408E-01 
    5.8424206365637510E-01 
    5.5794628720444617E-01 
    5.3182024643928438E-01 
    4.9891617338549327E-01 
    4.0200329626499298E-01 
    6.2151482615239471E-02 
    2.9150627861122282E-06 
    9.6327217835037404E-01 
    9.3159675123178542E-01 
    8.7005773538032671E-01 
    8.0745837150762378E-01 
    7.5574439132531035E-01 
    7.1052262150066325E-01 
    6.7076843183500090E-01 
    6.3617161513676512E-01 
    6.0628703146066820E-01 
    5.7977865040311205E-01 
    5.5510504923252790E-01 
    5.3056195388007032E-01 
    5.0012170553586155E-01 
    4.1412263777111946E-01 
    8.6198778456063357E-02 
    5.1800875237057736E-06 
    9.2392997935923793E-01 
    8.9872752750292950E-01 
    8.4500351028531595E-01 
    7.8717623760269606E-01 
    7.3886609980144746E-01 
    6.9822683704766964E-01 
    6.6190867442233559E-01 
    6.2950959095295089E-01 
    6.0087244987540356E-01 
    5.7546909452504724E-01 
    5.5197202189732297E-01 
    5.2894535645244856E-01 
    5.0150731261407255E-01 
    4.2632709828737969E-01 
    1.1556418915456461E-01 
    1.1150372796384820E-05 
    8.8044839672458353E-01 
    8.5926061785649321E-01 
    8.1307505513523126E-01 
    7.6219733229809827E-01 
    7.1805793217520586E-01 
    6.8106258453895829E-01 
    6.4898084548592871E-01 
    6.2029114111785244E-01 
    5.9435083057641791E-01 
    5.7073595011588107E-01 
    5.4877996340551571E-01 
    5.2748865684117119E-01 
    5.0248034789971485E-01 
    4.3766123724973305E-01 
    1.4615709832004303E-01 
    2.5241575075014604E-05 
    8.3560892855413038E-01 
    8.1860424773854878E-01 
    7.8022165046922720E-01 
    7.3619818945958937E-01 
    6.9618399657230823E-01 
    6.6192002527951388E-01 
    6.3262913028292189E-01 
    6.0727300791486816E-01 
    5.8443140062983667E-01 
    5.6327677715441071E-01 
    5.4344580921386687E-01 
    5.2438825016005708E-01 
    5.0274023287725211E-01 
    4.4632179701667779E-01 
    1.7781671008844774E-01 
    1.1631721965431087E-04 
    7.8966272707114182E-01 
    7.7760941617319379E-01 
    7.4715068558744169E-01 
    7.0927000679090113E-01 
    6.7334976324818341E-01 
    6.4202253093449624E-01 
    6.1534599444852278E-01 
    5.9219689444919310E-01 
    5.7179268812730599E-01 
    5.5324809802361019E-01 
    5.3609669084612566E-01 
    5.1960176952916448E-01 
    5.0138606646559636E-01 
    4.5447234488649024E-01 
    2.1693205457999043E-01 
    5.8930068019001235E-04 
    7.4266320559942767E-01 
    7.3565380634952382E-01 
    7.1318554460138117E-01 
    6.8151792763349872E-01 
    6.4947755251728689E-01 
    6.2092241605164222E-01 
    5.9616374806794947E-01 
    5.7498908745160138E-01 
    5.5687337483996202E-01 
    5.4109423421430869E-01 
    5.2665437506098034E-01 
    5.1304870190864160E-01 
    4.9845076352753759E-01 
    4.6115571915042947E-01 
    2.6788924785163098E-01 
    3.0077920034392389E-03 
    6.9465847744568221E-01 
    6.9204951819891580E-01 
    6.7667205334646163E-01 
    6.5159498598265653E-01 
    6.2432642779297276E-01 
    5.9857386081057995E-01 
    5.7543227159025212E-01 
    5.5540836141804006E-01 
    5.3911912207645152E-01 
    5.2588134811235043E-01 
    5.1463470314985549E-01 
    5.0431100759323477E-01 
    4.9359694933095283E-01 
    4.6573306577572904E-01 
    3.1857075940017388E-01 
    1.4604539725185538E-02 
    6.4579304646878388E-01 
    6.4692855925336734E-01 
    6.3781339739822185E-01 
    6.1893650053142713E-01 
    5.9685837240349227E-01 
    5.7468005450131576E-01 
    5.5352634975422033E-01 
    5.3506558126230863E-01 
    5.2048717154387869E-01 
    5.0893401072530653E-01 
    4.9954699213862852E-01 
    4.9245872937643287E-01 
    4.8637001639184135E-01 
    4.6738487079708729E-01 
    3.5173840822233410E-01 
    4.6338288984156935E-02 
    5.9719841984464261E-01 
    6.0124374816492665E-01 
    5.9763927875823475E-01 
    5.8449258100561585E-01 
    5.6727376630712067E-01 
    5.4929314211191993E-01 
    5.3184431852531289E-01 
    5.1528930036306642E-01 
    5.0083681971428295E-01 
    4.8874311726643666E-01 
    4.7958469414125871E-01 
    4.7467884716307535E-01 
    4.7400177867352172E-01 
    4.6516629233909945E-01 
    3.7928740368228964E-01 
    9.6322323568386867E-02 
    5.5175869742228079E-01 
    5.5767132572073541E-01 
    5.5831311708126397E-01 
    5.4943635379728561E-01 
    5.3563378954271690E-01 
    5.2156129234778048E-01 
    5.0738178790457189E-01 
    4.9089189069407524E-01 
    4.7233774927215572E-01 
    4.5232717366897668E-01 
    4.3579679628561035E-01 
    4.2901436183064784E-01 
    4.3988828309015343E-01 
    4.5224885393258824E-01 
    3.9846291603069239E-01 
    1.4752912018987285E-01 
    4.9026902416425855E-01 
    5.0275488553033765E-01 
    5.0917352115578995E-01 
    5.0572478265210752E-01 
    4.9298052939276937E-01 
    4.7757245440399193E-01 
    4.5801668624965380E-01 
    4.1458425835206869E-01 
    3.1231095329708297E-01 
    2.3023355255484995E-01 
    1.7981973196416132E-01 
    1.7680997240566954E-01 
    2.8232034181159860E-01 
    3.9246431504743529E-01 
    3.8661780885205271E-01 
    1.9502372511387842E-01 
    2.3678930269819173E-01 
    3.2938048081342125E-01 
    3.7286456446381727E-01 
    3.6963105875550134E-01 
    3.1907080317346170E-01 
    2.4270309330544054E-01 
    1.8496285281217575E-01 
    7.1097754762058513E-02 
    7.3182588886462931E-03 
    5.8463053275624357E-04 
    7.6440042487965355E-05 
    1.1308888947817627E-04 
    2.3236205158434432E-02 
    1.8322382369505902E-01 
    3.3095764341971956E-01 
    2.1652917893044579E-01 
    1.4348172638375397E-04 
    1.2342032141575865E-02 
    2.5016390846873557E-02 
    1.8914641794319967E-02 
    7.0511039344929019E-03 
    5.3300397770655612E-04 
    1.1338990826863686E-04 
    2.9825368412273863E-05 
    1.5249698808288071E-06 
    1.0062106170711532E-06 
    1.0002871141332938E-06 
    1.0002776043606192E-06 
    3.3334985753657259E-05 
    6.2422485881492165E-03 
    2.2207908288662717E-01 
    2.1873995009950650E-01 
    1.0000001732367756E-06 
    2.5249294141740394E-06 
    1.4846417456552730E-06 
    1.6777631686615677E-06 
    1.4160426548781405E-06 
    1.0040565183057038E-06 
    1.0003706298199303E-06 
    1.0000221190013307E-06 
    1.0000000329411185E-06 
    1.0000000004248026E-06 
    1.0000000000001143E-06 
    1.0000000000171164E-06 
    1.0000565183616056E-06 
    1.8063868687949042E-06 
    1.9722251533099880E-02 
    1.8192725341698948E-01 
