# vtk DataFile Version 2.0
Pressure Field Data 
ASCII 
DATASET UNSTRUCTURED_GRID 

POINTS 289 double 

    0.0000000000000000E+00     0.0000000000000000E+00     0.0000000000000000E+00 
    1.0000000000000000E+00     0.0000000000000000E+00     0.0000000000000000E+00 
    1.0000000000000000E+00     1.0000000000000000E+00     0.0000000000000000E+00 
    0.0000000000000000E+00     1.0000000000000000E+00     0.0000000000000000E+00 
    6.2499999999872928E-02     0.0000000000000000E+00     0.0000000000000000E+00 
    1.2499999999977310E-01     0.0000000000000000E+00     0.0000000000000000E+00 
    1.8749999999959341E-01     0.0000000000000000E+00     0.0000000000000000E+00 
    2.4999999999941089E-01     0.0000000000000000E+00     0.0000000000000000E+00 
    3.1249999999922851E-01     0.0000000000000000E+00     0.0000000000000000E+00 
    3.7499999999904610E-01     0.0000000000000000E+00     0.0000000000000000E+00 
    4.3749999999886358E-01     0.0000000000000000E+00     0.0000000000000000E+00 
    4.9999999999869210E-01     0.0000000000000000E+00     0.0000000000000000E+00 
    5.6249999999884603E-01     0.0000000000000000E+00     0.0000000000000000E+00 
    6.2499999999901090E-01     0.0000000000000000E+00     0.0000000000000000E+00 
    6.8749999999917577E-01     0.0000000000000000E+00     0.0000000000000000E+00 
    7.4999999999934064E-01     0.0000000000000000E+00     0.0000000000000000E+00 
    8.1249999999950551E-01     0.0000000000000000E+00     0.0000000000000000E+00 
    8.7499999999967026E-01     0.0000000000000000E+00     0.0000000000000000E+00 
    9.3749999999983513E-01     0.0000000000000000E+00     0.0000000000000000E+00 
    1.0000000000000000E+00     6.2499999999872928E-02     0.0000000000000000E+00 
    1.0000000000000000E+00     1.2499999999977310E-01     0.0000000000000000E+00 
    1.0000000000000000E+00     1.8749999999959341E-01     0.0000000000000000E+00 
    1.0000000000000000E+00     2.4999999999941089E-01     0.0000000000000000E+00 
    1.0000000000000000E+00     3.1249999999922851E-01     0.0000000000000000E+00 
    1.0000000000000000E+00     3.7499999999904610E-01     0.0000000000000000E+00 
    1.0000000000000000E+00     4.3749999999886358E-01     0.0000000000000000E+00 
    1.0000000000000000E+00     4.9999999999869210E-01     0.0000000000000000E+00 
    1.0000000000000000E+00     5.6249999999884603E-01     0.0000000000000000E+00 
    1.0000000000000000E+00     6.2499999999901090E-01     0.0000000000000000E+00 
    1.0000000000000000E+00     6.8749999999917577E-01     0.0000000000000000E+00 
    1.0000000000000000E+00     7.4999999999934064E-01     0.0000000000000000E+00 
    1.0000000000000000E+00     8.1249999999950551E-01     0.0000000000000000E+00 
    1.0000000000000000E+00     8.7499999999967026E-01     0.0000000000000000E+00 
    1.0000000000000000E+00     9.3749999999983513E-01     0.0000000000000000E+00 
    9.3749999999973976E-01     1.0000000000000000E+00     0.0000000000000000E+00 
    8.7499999999950118E-01     1.0000000000000000E+00     0.0000000000000000E+00 
    8.1249999999991318E-01     1.0000000000000000E+00     0.0000000000000000E+00 
    7.5000000000034706E-01     1.0000000000000000E+00     0.0000000000000000E+00 
    6.8750000000078049E-01     1.0000000000000000E+00     0.0000000000000000E+00 
    6.2500000000121403E-01     1.0000000000000000E+00     0.0000000000000000E+00 
    5.6250000000164757E-01     1.0000000000000000E+00     0.0000000000000000E+00 
    5.0000000000205946E-01     1.0000000000000000E+00     0.0000000000000000E+00 
    4.3750000000182099E-01     1.0000000000000000E+00     0.0000000000000000E+00 
    3.7500000000156092E-01     1.0000000000000000E+00     0.0000000000000000E+00 
    3.1250000000130068E-01     1.0000000000000000E+00     0.0000000000000000E+00 
    2.5000000000104050E-01     1.0000000000000000E+00     0.0000000000000000E+00 
    1.8750000000078040E-01     1.0000000000000000E+00     0.0000000000000000E+00 
    1.2500000000052031E-01     1.0000000000000000E+00     0.0000000000000000E+00 
    6.2500000000260125E-02     1.0000000000000000E+00     0.0000000000000000E+00 
    0.0000000000000000E+00     9.3749999999973976E-01     0.0000000000000000E+00 
    0.0000000000000000E+00     8.7499999999950118E-01     0.0000000000000000E+00 
    0.0000000000000000E+00     8.1249999999991318E-01     0.0000000000000000E+00 
    0.0000000000000000E+00     7.5000000000034706E-01     0.0000000000000000E+00 
    0.0000000000000000E+00     6.8750000000078049E-01     0.0000000000000000E+00 
    0.0000000000000000E+00     6.2500000000121403E-01     0.0000000000000000E+00 
    0.0000000000000000E+00     5.6250000000164757E-01     0.0000000000000000E+00 
    0.0000000000000000E+00     5.0000000000205946E-01     0.0000000000000000E+00 
    0.0000000000000000E+00     4.3750000000182099E-01     0.0000000000000000E+00 
    0.0000000000000000E+00     3.7500000000156092E-01     0.0000000000000000E+00 
    0.0000000000000000E+00     3.1250000000130068E-01     0.0000000000000000E+00 
    0.0000000000000000E+00     2.5000000000104050E-01     0.0000000000000000E+00 
    0.0000000000000000E+00     1.8750000000078040E-01     0.0000000000000000E+00 
    0.0000000000000000E+00     1.2500000000052031E-01     0.0000000000000000E+00 
    0.0000000000000000E+00     6.2500000000260125E-02     0.0000000000000000E+00 
    6.2499999999897131E-02     6.2500000000235922E-02     0.0000000000000000E+00 
    6.2499999999921327E-02     1.2500000000047351E-01     0.0000000000000000E+00 
    6.2499999999945530E-02     1.8750000000070621E-01     0.0000000000000000E+00 
    6.2499999999969733E-02     2.5000000000093858E-01     0.0000000000000000E+00 
    6.2499999999993928E-02     3.1250000000117117E-01     0.0000000000000000E+00 
    6.2500000000018124E-02     3.7500000000140382E-01     0.0000000000000000E+00 
    6.2500000000042327E-02     4.3750000000163619E-01     0.0000000000000000E+00 
    6.2500000000066530E-02     5.0000000000184897E-01     0.0000000000000000E+00 
    6.2500000000090733E-02     5.6250000000147260E-01     0.0000000000000000E+00 
    6.2500000000114922E-02     6.2500000000107636E-01     0.0000000000000000E+00 
    6.2500000000139125E-02     6.8750000000068034E-01     0.0000000000000000E+00 
    6.2500000000163328E-02     7.5000000000028411E-01     0.0000000000000000E+00 
    6.2500000000187531E-02     8.1249999999988787E-01     0.0000000000000000E+00 
    6.2500000000211720E-02     8.7499999999951172E-01     0.0000000000000000E+00 
    6.2500000000235922E-02     9.3749999999974565E-01     0.0000000000000000E+00 
    1.2499999999981980E-01     6.2500000000211733E-02     0.0000000000000000E+00 
    1.2499999999986650E-01     1.2500000000042691E-01     0.0000000000000000E+00 
    1.2499999999991319E-01     1.8750000000063199E-01     0.0000000000000000E+00 
    1.2499999999995989E-01     2.5000000000083678E-01     0.0000000000000000E+00 
    1.2500000000000661E-01     3.1250000000104172E-01     0.0000000000000000E+00 
    1.2500000000005329E-01     3.7500000000124661E-01     0.0000000000000000E+00 
    1.2500000000010000E-01     4.3750000000145117E-01     0.0000000000000000E+00 
    1.2500000000014669E-01     5.0000000000163858E-01     0.0000000000000000E+00 
    1.2500000000019340E-01     5.6250000000129741E-01     0.0000000000000000E+00 
    1.2500000000024011E-01     6.2500000000093847E-01     0.0000000000000000E+00 
    1.2500000000028680E-01     6.8750000000057998E-01     0.0000000000000000E+00 
    1.2500000000033351E-01     7.5000000000022127E-01     0.0000000000000000E+00 
    1.2500000000038020E-01     8.1249999999986211E-01     0.0000000000000000E+00 
    1.2500000000042691E-01     8.7499999999952238E-01     0.0000000000000000E+00 
    1.2500000000047359E-01     9.3749999999975164E-01     0.0000000000000000E+00 
    1.8749999999966760E-01     6.2500000000187531E-02     0.0000000000000000E+00 
    1.8749999999974179E-01     1.2500000000038020E-01     0.0000000000000000E+00 
    1.8749999999981601E-01     1.8750000000055780E-01     0.0000000000000000E+00 
    1.8749999999989009E-01     2.5000000000073502E-01     0.0000000000000000E+00 
    1.8749999999996431E-01     3.1250000000091221E-01     0.0000000000000000E+00 
    1.8750000000003850E-01     3.7500000000108941E-01     0.0000000000000000E+00 
    1.8750000000011269E-01     4.3750000000126649E-01     0.0000000000000000E+00 
    1.8750000000018691E-01     5.0000000000142808E-01     0.0000000000000000E+00 
    1.8750000000026110E-01     5.6250000000112244E-01     0.0000000000000000E+00 
    1.8750000000033529E-01     6.2500000000080080E-01     0.0000000000000000E+00 
    1.8750000000040951E-01     6.8750000000047962E-01     0.0000000000000000E+00 
    1.8750000000048361E-01     7.5000000000015843E-01     0.0000000000000000E+00 
    1.8750000000055780E-01     8.1249999999983680E-01     0.0000000000000000E+00 
    1.8750000000063199E-01     8.7499999999953304E-01     0.0000000000000000E+00 
    1.8750000000070621E-01     9.3749999999975764E-01     0.0000000000000000E+00 
    2.4999999999951281E-01     6.2500000000163314E-02     0.0000000000000000E+00 
    2.4999999999961461E-01     1.2500000000033351E-01     0.0000000000000000E+00 
    2.4999999999971650E-01     1.8750000000048361E-01     0.0000000000000000E+00 
    2.4999999999981831E-01     2.5000000000063310E-01     0.0000000000000000E+00 
    2.4999999999992020E-01     3.1250000000078260E-01     0.0000000000000000E+00 
    2.5000000000002198E-01     3.7500000000093209E-01     0.0000000000000000E+00 
    2.5000000000012390E-01     4.3750000000108180E-01     0.0000000000000000E+00 
    2.5000000000022571E-01     5.0000000000121769E-01     0.0000000000000000E+00 
    2.5000000000032763E-01     5.6250000000094724E-01     0.0000000000000000E+00 
    2.5000000000042938E-01     6.2500000000066314E-01     0.0000000000000000E+00 
    2.5000000000053119E-01     6.8750000000037925E-01     0.0000000000000000E+00 
[...]
CELL_DATA 256 
SCALARS Pressure double 1 
LOOKUP_TABLE default 

    6.9470326726004983E-01 
    6.4481967898149783E-01 
    6.1298747336311821E-01 
    5.8413963785909240E-01 
    5.5476757799979237E-01 
    5.2393632438714877E-01 
    4.9145372495893330E-01 
    4.5762782572795918E-01 
    4.2296392976491909E-01 
    3.8806368231080995E-01 
    3.5360839889423956E-01 
    3.2063515894264960E-01 
    2.9096209882090168E-01 
    2.6718942203439949E-01 
    2.5167345755897408E-01 
    2.4399643807785135E-01 
    6.8072171828022976E-01 
    6.4610107427070695E-01 
    6.1537291711672937E-01 
    5.8676276511116465E-01 
    5.5759926418849770E-01 
    5.2696599383681986E-01 
    4.9464712009176615E-01 
    4.6092634905923840E-01 
    4.2628955039417221E-01 
    3.9132003015178440E-01 
    3.5666329419984416E-01 
    3.2328516574744304E-01 
    2.9293701840100816E-01 
    2.6825061041876636E-01 
    2.5184094353671949E-01 
    2.4357726628263549E-01 
    6.7000058080139824E-01 
    6.4524871303889675E-01 
    6.1700445135884530E-01 
    5.8904597494527888E-01 
    5.6022409462272915E-01 
    5.2984622388877911E-01 
    4.9772227453094803E-01 
    4.6411952028936976E-01 
    4.2949795580259514E-01 
    3.9440691216097484E-01 
    3.5944847817824493E-01 
    3.2551107841324423E-01 
    2.9428330571711059E-01 
    2.6846406304449288E-01 
    2.5101999541081094E-01 
    2.4222012950051852E-01 
    6.6158533514087403E-01 
    6.4332116946202444E-01 
    6.1792453936051484E-01 
    5.9096907027862178E-01 
    5.6263770678818503E-01 
    5.3258237510784179E-01 
    5.0068720161343483E-01 
    4.6721739506842452E-01 
    4.3260548879574356E-01 
    3.9735584993719691E-01 
    3.6201527213898610E-01 
    3.2738156934126711E-01 
    2.9506949835873991E-01 
    2.6786136775187824E-01 
    2.4916295845132669E-01 
    2.3978539171745938E-01 
    6.5483107538967611E-01 
    6.4091002324823065E-01 
    6.1826782424012949E-01 
    5.9254304477076891E-01 
    5.6483978248450140E-01 
    5.3517912450335614E-01 
    5.0355144533306251E-01 
    4.7023350068243647E-01 
    4.3563267196547900E-01 
    4.0020192784767433E-01 
    3.6441915471417258E-01 
    3.2897279259160056E-01 
    2.9537569928406876E-01 
    2.6648346792795669E-01 
    2.4621893555712812E-01 
    2.3612573484093194E-01 
    6.4933742651005633E-01 
    6.3836003012459086E-01 
    6.1818658595068154E-01 
    5.9380335266272810E-01 
    5.6683806512701529E-01 
    5.3764097300193314E-01 
    5.0632401344170175E-01 
    4.7318253921195524E-01 
    4.3860255788054603E-01 
    4.0298366469207086E-01 
    3.6671988465999267E-01 
    3.3036884013523726E-01 
    2.9529584597572039E-01 
    2.6438673737215018E-01 
    2.4213444377902579E-01 
    2.3106188093286448E-01 
    6.4484066059532907E-01 
    6.3588038312401840E-01 
    6.1782975637881932E-01 
    5.9480609109645155E-01 
    5.6865343167549187E-01 
    5.3997856224750695E-01 
    5.0901306455360129E-01 
    4.7607779999755390E-01 
    4.4153921103121391E-01 
    4.0574080297785481E-01 
    3.6898194117709909E-01 
    3.3166274524324907E-01 
    2.9494158846709767E-01 
    2.6165181189627440E-01 
    2.3686454863970227E-01 
    2.2439138014979304E-01 
    6.4115521560163968E-01 
    6.3359431121548515E-01 
    6.1732826421781384E-01 
    5.9561799676347693E-01 
    5.7031846819320120E-01 
    5.4220943418931900E-01 
    5.1163040711232066E-01 
    4.7893092125466369E-01 
    4.4446177621903649E-01 
    4.0851009083757012E-01 
    3.7126971021510108E-01 
    3.3295671765680634E-01 
    2.9444683406087802E-01 
    2.5839289314046499E-01 
    2.3038284966756981E-01 
    2.1587587896759050E-01 
    6.3814582721301127E-01 
    6.3156975818971617E-01 
    6.1678846740618865E-01 
    5.9630755060992391E-01 
    5.7187005968953963E-01 
    5.4435510474167437E-01 
    5.1418958681465632E-01 
    4.8175308136083606E-01 
    4.4738616143258553E-01 
    4.1132148009318964E-01 
    3.7364278893719816E-01 
    3.3435732786780470E-01 
    2.9397062160881782E-01 
    2.5476995940049613E-01 
    2.2269013705562074E-01 
    2.0521617604774028E-01 
    6.3571353709376399E-01 
    6.2984279946401089E-01 
    6.1629288499594348E-01 
    5.9693880424585821E-01 
    5.7334812684154768E-01 
    5.4644007679715245E-01 
    5.1670745323534573E-01 
    4.8455677451034757E-01 
    4.5032550924175474E-01 
    4.1419802663113303E-01 
    3.7615090573640020E-01 
    3.3596919467323372E-01 
    2.9369573465644550E-01 
    2.5100373531550996E-01 
    2.1383338325624252E-01 
    1.9201165945375823E-01 
    6.3378516318689737E-01 
    6.2843223184992336E-01 
    6.1590598024679155E-01 
    5.9757046896389709E-01 
    5.7479388291730094E-01 
    5.4849292804879846E-01 
    5.1920379361946789E-01 
    4.8735670193752767E-01 
    4.5329394808725171E-01 
    4.1715962224569664E-01 
    3.7883537292017333E-01 
    3.3789026158348828E-01 
    2.9382631582927904E-01 
    2.4739446505503548E-01 
    2.0395215908413897E-01 
    1.7573714950432381E-01 
    6.3230353114401161E-01 
    6.2734695316281253E-01 
    6.1567986414673104E-01 
    5.9825740775198577E-01 
    5.7625140301768807E-01 
    5.5054726676115984E-01 
    5.2170424602991305E-01 
    4.9017097549087552E-01 
    4.5630711573383753E-01 
    4.2022547184471526E-01 
    3.8172954739637416E-01 
    3.4020674957548258E-01 
    2.9458170995847183E-01 
    2.4433638499158258E-01 
    1.9333072897885914E-01 
    1.5565188420411058E-01 
    6.3123023676057122E-01 
    6.2659675789669078E-01 
    6.1566204370525013E-01 
    5.9905454547301007E-01 
    5.7776764183637752E-01 
    5.5264186357243350E-01 
    5.2423994825511644E-01 
    4.9302188463656843E-01 
    4.5938251835028088E-01 
    4.2341271956347915E-01 
    3.8485642671431192E-01 
    3.4298214833692758E-01 
    2.9617439482954211E-01 
    2.4235250065934802E-01 
    1.8257600731325954E-01 
    1.3068289471995878E-01 
    6.3053404048578499E-01 
    6.2619446309636484E-01 
    6.1589951219212047E-01 
    6.0001733444715977E-01 
    5.7938992252573396E-01 
    5.5481427443122266E-01 
    5.2684118048944240E-01 
    4.9592658864822681E-01 
    4.6251879490192532E-01 
    4.2670512645553121E-01 
    3.8819154717109566E-01 
    3.4620357000398067E-01 
    2.9872423347824462E-01 
    2.4201733469067221E-01 
    1.7283869035664390E-01 
    9.9234572892091616E-02 
    6.3006484304206889E-01 
    6.2604332702225363E-01 
    6.1635311212054922E-01 
    6.0112761454698749E-01 
    5.8109062310891357E-01 
    5.5702013556513252E-01 
    5.2945951585412521E-01 
    4.9884040277337216E-01 
    4.6565821213101444E-01 
    4.3002457591600529E-01 
    3.9163254600743325E-01 
    3.4970937543451464E-01 
    3.0207832768443388E-01 
    2.4359331893506150E-01 
    1.6573668902938024E-01 
    5.8318617645662776E-02 
    6.2989678331423493E-01 
    6.2621203720311280E-01 
    6.1708530680030205E-01 
    6.0244207007745576E-01 
    5.8291763132072305E-01 
    5.5929000228076720E-01 
    5.3211663045811242E-01 
    5.0180684348393678E-01 
    4.6887276265701255E-01 
    4.3346368397714591E-01 
    3.9530047060847850E-01 
    3.5364663868117407E-01 
    3.0647665403611607E-01 
    2.4791145012701521E-01 
    1.6513743260995728E-01 
    0.0000000000000000E+00 

SCALARS Saturarion double 1 
LOOKUP_TABLE default 

    1.0000000000000007E+00 
    9.7652545872605889E-01 
    9.3370348048482488E-01 
    8.7661093475792984E-01 
    8.2869061880589134E-01 
    7.8650983655706674E-01 
    7.4987948973231566E-01 
    7.1817874802864101E-01 
    6.9031846476405745E-01 
    6.6518193071332377E-01 
    6.4154125490134395E-01 
    6.1799241335620292E-01 
    5.9244835443116906E-01 
    5.6150341681014038E-01 
    5.0587227962974080E-01 
    2.2425298393344323E-01 
    9.9114671389444309E-01 
    9.6892008818134034E-01 
    9.2405844730267150E-01 
    8.6968470203362180E-01 
    8.2339687584315036E-01 
    7.8284218354027246E-01 
    7.4728425141492782E-01 
    7.1612926385209397E-01 
    6.8862026843963287E-01 
    6.6379332356570087E-01 
    6.4068388678197807E-01 
    6.1800587014921160E-01 
    5.9357429190522737E-01 
    5.6362338515504218E-01 
    5.1092337432416768E-01 
    2.5399791210928574E-01 
    9.7716635959996845E-01 
    9.5493810671000767E-01 
    9.0991941366209650E-01 
    8.5736396882569288E-01 
    8.1301320654266818E-01 
    7.7516411776406813E-01 
    7.4185005973240892E-01 
    7.1192741360571310E-01 
    6.8497981915229411E-01 
    6.6050351414972108E-01 
    6.3795806699208990E-01 
    6.1634121050053670E-01 
    5.9372945207985706E-01 
    5.6607865592996620E-01 
    5.1755131305978652E-01 
    2.8102574931477459E-01 
    9.5277100406086268E-01 
    9.3406119773560259E-01 
    8.9266441801097351E-01 
    8.4425504655037886E-01 
    8.0074342001326226E-01 
    7.6421387262846063E-01 
    7.3272891251378491E-01 
    7.0475193430861272E-01 
    6.7933026618027903E-01 
    6.5614451496378201E-01 
    6.3464623050361513E-01 
    6.1413734173543311E-01 
    5.9315254994466626E-01 
    5.6808559877718334E-01 
    5.2402304009703671E-01 
    3.0715264729797664E-01 
    9.2290016644172401E-01 
    9.0642548915776100E-01 
    8.6957076142023548E-01 
    8.2601805160272546E-01 
    7.8484413252289997E-01 
    7.4945858444965308E-01 
    7.1949036251858867E-01 
    6.9345608705789052E-01 
    6.7025882282167182E-01 
    6.4927081373596396E-01 
    6.2996717424895587E-01 
    6.1148194258492705E-01 
    5.9233364848801595E-01 
    5.6953017229116765E-01 
    5.2997485900921038E-01 
    3.2842869496578725E-01 
    8.8956040378012113E-01 
    8.7586777753063882E-01 
    8.4386501521232893E-01 
    8.0458099899093249E-01 
    7.6666926276846870E-01 
    7.3314840302342787E-01 
    7.0414925877892154E-01 
    6.7935501211718352E-01 
    6.5797711086895538E-01 
    6.3927812516751947E-01 
    6.2262073563878018E-01 
    6.0715254011824193E-01 
    5.9095487218327170E-01 
    5.7062562269632777E-01 
    5.3527612225304966E-01 
    3.4739625898694765E-01 
    8.5356662993307675E-01 
    8.4323818659413863E-01 
    8.1644877954138029E-01 
    7.8160207352260214E-01 
    7.4722306653725001E-01 
    7.1614203426620804E-01 
    6.8880588841599433E-01 
    6.6484557621728224E-01 
    6.4433885959852355E-01 
    6.2708790338718823E-01 
    6.1273114217372848E-01 
    6.0039138641356149E-01 
    5.8810862824761889E-01 
    5.7143188534070044E-01 
    5.4007619142439045E-01 
    3.6585916474022462E-01 
    8.1471940831793077E-01 
    8.0819956994543896E-01 
    7.8738351867514389E-01 
    7.5752727734986647E-01 
    7.2640441038185366E-01 
    6.9763228613629891E-01 
    6.7188105611827276E-01 
    6.4932671440520839E-01 
    6.2986408598216193E-01 
    6.1365386397276522E-01 
    6.0077837126333744E-01 
    5.9110703846291157E-01 
    5.8295750591929829E-01 
    5.7131198811007611E-01 
    5.4481515783113266E-01 
    3.8443494101703324E-01 
    7.7321044407470441E-01 
    7.7038417883225818E-01 
    7.5538226221015503E-01 
    7.3086075909742387E-01 
    7.0355153084146238E-01 
    6.7719058896614492E-01 
    6.5327872802756970E-01 
    6.3202673105391405E-01 
    6.1353054286548581E-01 
    5.9806661897930724E-01 
    5.8632160800330491E-01 
    5.7889256609623230E-01 
    5.7491656577318606E-01 
    5.6929917050009093E-01 
    5.4884026323006052E-01 
    4.0214138014191303E-01 
    7.2909692189469300E-01 
    7.2970205638804608E-01 
    7.2009780347545982E-01 
    7.0060400273390266E-01 
    6.7736100369391050E-01 
    6.5393735316688451E-01 
    6.3196976561778795E-01 
    6.1239128554454381E-01 
    5.9524499754875770E-01 
    5.8067793306632842E-01 
    5.6947549021948796E-01 
    5.6329565574720653E-01 
    5.6302921921835958E-01 
    5.6437853685864303E-01 
    5.5176665390920832E-01 
    4.1937697598310525E-01 
    6.8203075198710872E-01 
    6.8580390563284255E-01 
    6.8120159754507359E-01 
    6.6636897700485420E-01 
    6.4722114105419581E-01 
    6.2728875418811969E-01 
    6.0825022536492612E-01 
    5.9053765800885305E-01 
    5.7480236408134444E-01 
    5.6147864389452884E-01 
    5.5122419689504976E-01 
    5.4544975360214232E-01 
    5.4688641821535378E-01 
    5.5507667290859930E-01 
    5.5236481285491501E-01 
    4.3671288200309522E-01 
    6.3082800080639834E-01 
    6.3759481257752226E-01 
    6.3806796373161401E-01 
    6.2802134507497032E-01 
    6.1285019319277356E-01 
    5.9633871764382129E-01 
    5.8026625716888913E-01 
    5.6528517504692599E-01 
    5.5169128225901165E-01 
    5.4019934421232629E-01 
    5.3146173170218158E-01 
    5.2656944397163852E-01 
    5.2806992873573078E-01 
    5.4010978679273636E-01 
    5.4757894071849977E-01 
    4.5300002316337867E-01 
    5.7763238450493359E-01 
    5.8621172714933656E-01 
    5.9076223606947287E-01 
    5.8560305823054082E-01 
    5.7494037967702583E-01 
    5.6187832112698100E-01 
    5.4881815221453445E-01 
    5.3627299677123919E-01 
    5.2465015166827433E-01 
    5.1436119542141934E-01 
    5.0680777715851488E-01 
    5.0354672745301743E-01 
    5.0655034385713804E-01 
    5.1999458680271715E-01 
    5.3927160282891351E-01 
    4.6683866116518696E-01 
    5.1618165502142677E-01 
    5.2948197657102458E-01 
    5.3738894488135613E-01 
    5.3728149317665919E-01 
    5.2940559642112983E-01 
    5.1824147650786223E-01 
    5.0542480952090163E-01 
    4.9394141578135486E-01 
    4.8090198025081260E-01 
    4.6269513683180702E-01 
    4.4845151682331996E-01 
    4.4540311102367641E-01 
    4.5338653854615735E-01 
    4.8451500930397984E-01 
    5.2326658487958455E-01 
    4.7644351892347170E-01 
    2.7373998375300718E-01 
    3.5354923212441625E-01 
    3.9562491464619176E-01 
    4.0497882394520585E-01 
    3.9130109511816774E-01 
    3.6004996810346424E-01 
    3.0791798504970169E-01 
    2.5586710671221469E-01 
    2.3117263773654845E-01 
    1.7937039147352471E-01 
    1.5275347194635713E-01 
    1.3304793361687287E-01 
    1.6754530744402260E-01 
    3.1206642673174012E-01 
    4.6353530674670468E-01 
    4.7724633058367250E-01 
    2.5636198945719151E-04 
    1.3637597572907631E-02 
    2.8618149991069167E-02 
    2.9623014567735258E-02 
    2.4008548073529656E-02 
    7.1455734563297939E-03 
    3.4918506112549394E-03 
    1.9640139306211326E-04 
    2.9149055078251176E-04 
    1.3536435669161506E-05 
    2.8108899435952058E-05 
    1.6106369323526915E-05 
    3.8273723505133231E-04 
    9.1143127370520979E-02 
    2.8973435796451569E-01 
    4.2658577361414157E-01 
