# vtk DataFile Version 2.0
Pressure Field Data 
ASCII 
DATASET UNSTRUCTURED_GRID 

POINTS 289 double 

    0.0000000000000000E+00     0.0000000000000000E+00     0.0000000000000000E+00 
    1.0000000000000000E+00     0.0000000000000000E+00     0.0000000000000000E+00 
    1.0000000000000000E+00     1.0000000000000000E+00     0.0000000000000000E+00 
    0.0000000000000000E+00     1.0000000000000000E+00     0.0000000000000000E+00 
    6.2499999999872928E-02     0.0000000000000000E+00     0.0000000000000000E+00 
    1.2499999999977310E-01     0.0000000000000000E+00     0.0000000000000000E+00 
    1.8749999999959341E-01     0.0000000000000000E+00     0.0000000000000000E+00 
    2.4999999999941089E-01     0.0000000000000000E+00     0.0000000000000000E+00 
    3.1249999999922851E-01     0.0000000000000000E+00     0.0000000000000000E+00 
    3.7499999999904610E-01     0.0000000000000000E+00     0.0000000000000000E+00 
    4.3749999999886358E-01     0.0000000000000000E+00     0.0000000000000000E+00 
    4.9999999999869210E-01     0.0000000000000000E+00     0.0000000000000000E+00 
    5.6249999999884603E-01     0.0000000000000000E+00     0.0000000000000000E+00 
    6.2499999999901090E-01     0.0000000000000000E+00     0.0000000000000000E+00 
    6.8749999999917577E-01     0.0000000000000000E+00     0.0000000000000000E+00 
    7.4999999999934064E-01     0.0000000000000000E+00     0.0000000000000000E+00 
    8.1249999999950551E-01     0.0000000000000000E+00     0.0000000000000000E+00 
    8.7499999999967026E-01     0.0000000000000000E+00     0.0000000000000000E+00 
    9.3749999999983513E-01     0.0000000000000000E+00     0.0000000000000000E+00 
    1.0000000000000000E+00     6.2499999999872928E-02     0.0000000000000000E+00 
    1.0000000000000000E+00     1.2499999999977310E-01     0.0000000000000000E+00 
    1.0000000000000000E+00     1.8749999999959341E-01     0.0000000000000000E+00 
    1.0000000000000000E+00     2.4999999999941089E-01     0.0000000000000000E+00 
    1.0000000000000000E+00     3.1249999999922851E-01     0.0000000000000000E+00 
    1.0000000000000000E+00     3.7499999999904610E-01     0.0000000000000000E+00 
    1.0000000000000000E+00     4.3749999999886358E-01     0.0000000000000000E+00 
    1.0000000000000000E+00     4.9999999999869210E-01     0.0000000000000000E+00 
    1.0000000000000000E+00     5.6249999999884603E-01     0.0000000000000000E+00 
    1.0000000000000000E+00     6.2499999999901090E-01     0.0000000000000000E+00 
    1.0000000000000000E+00     6.8749999999917577E-01     0.0000000000000000E+00 
    1.0000000000000000E+00     7.4999999999934064E-01     0.0000000000000000E+00 
    1.0000000000000000E+00     8.1249999999950551E-01     0.0000000000000000E+00 
    1.0000000000000000E+00     8.7499999999967026E-01     0.0000000000000000E+00 
    1.0000000000000000E+00     9.3749999999983513E-01     0.0000000000000000E+00 
    9.3749999999973976E-01     1.0000000000000000E+00     0.0000000000000000E+00 
    8.7499999999950118E-01     1.0000000000000000E+00     0.0000000000000000E+00 
    8.1249999999991318E-01     1.0000000000000000E+00     0.0000000000000000E+00 
    7.5000000000034706E-01     1.0000000000000000E+00     0.0000000000000000E+00 
    6.8750000000078049E-01     1.0000000000000000E+00     0.0000000000000000E+00 
    6.2500000000121403E-01     1.0000000000000000E+00     0.0000000000000000E+00 
    5.6250000000164757E-01     1.0000000000000000E+00     0.0000000000000000E+00 
    5.0000000000205946E-01     1.0000000000000000E+00     0.0000000000000000E+00 
    4.3750000000182099E-01     1.0000000000000000E+00     0.0000000000000000E+00 
    3.7500000000156092E-01     1.0000000000000000E+00     0.0000000000000000E+00 
    3.1250000000130068E-01     1.0000000000000000E+00     0.0000000000000000E+00 
    2.5000000000104050E-01     1.0000000000000000E+00     0.0000000000000000E+00 
    1.8750000000078040E-01     1.0000000000000000E+00     0.0000000000000000E+00 
    1.2500000000052031E-01     1.0000000000000000E+00     0.0000000000000000E+00 
    6.2500000000260125E-02     1.0000000000000000E+00     0.0000000000000000E+00 
    0.0000000000000000E+00     9.3749999999973976E-01     0.0000000000000000E+00 
    0.0000000000000000E+00     8.7499999999950118E-01     0.0000000000000000E+00 
    0.0000000000000000E+00     8.1249999999991318E-01     0.0000000000000000E+00 
    0.0000000000000000E+00     7.5000000000034706E-01     0.0000000000000000E+00 
    0.0000000000000000E+00     6.8750000000078049E-01     0.0000000000000000E+00 
    0.0000000000000000E+00     6.2500000000121403E-01     0.0000000000000000E+00 
    0.0000000000000000E+00     5.6250000000164757E-01     0.0000000000000000E+00 
    0.0000000000000000E+00     5.0000000000205946E-01     0.0000000000000000E+00 
    0.0000000000000000E+00     4.3750000000182099E-01     0.0000000000000000E+00 
    0.0000000000000000E+00     3.7500000000156092E-01     0.0000000000000000E+00 
    0.0000000000000000E+00     3.1250000000130068E-01     0.0000000000000000E+00 
    0.0000000000000000E+00     2.5000000000104050E-01     0.0000000000000000E+00 
    0.0000000000000000E+00     1.8750000000078040E-01     0.0000000000000000E+00 
    0.0000000000000000E+00     1.2500000000052031E-01     0.0000000000000000E+00 
    0.0000000000000000E+00     6.2500000000260125E-02     0.0000000000000000E+00 
    6.2499999999897131E-02     6.2500000000235922E-02     0.0000000000000000E+00 
    6.2499999999921327E-02     1.2500000000047351E-01     0.0000000000000000E+00 
    6.2499999999945530E-02     1.8750000000070621E-01     0.0000000000000000E+00 
    6.2499999999969733E-02     2.5000000000093858E-01     0.0000000000000000E+00 
    6.2499999999993928E-02     3.1250000000117117E-01     0.0000000000000000E+00 
    6.2500000000018124E-02     3.7500000000140382E-01     0.0000000000000000E+00 
    6.2500000000042327E-02     4.3750000000163619E-01     0.0000000000000000E+00 
    6.2500000000066530E-02     5.0000000000184897E-01     0.0000000000000000E+00 
    6.2500000000090733E-02     5.6250000000147260E-01     0.0000000000000000E+00 
    6.2500000000114922E-02     6.2500000000107636E-01     0.0000000000000000E+00 
    6.2500000000139125E-02     6.8750000000068034E-01     0.0000000000000000E+00 
    6.2500000000163328E-02     7.5000000000028411E-01     0.0000000000000000E+00 
    6.2500000000187531E-02     8.1249999999988787E-01     0.0000000000000000E+00 
    6.2500000000211720E-02     8.7499999999951172E-01     0.0000000000000000E+00 
    6.2500000000235922E-02     9.3749999999974565E-01     0.0000000000000000E+00 
    1.2499999999981980E-01     6.2500000000211733E-02     0.0000000000000000E+00 
    1.2499999999986650E-01     1.2500000000042691E-01     0.0000000000000000E+00 
    1.2499999999991319E-01     1.8750000000063199E-01     0.0000000000000000E+00 
    1.2499999999995989E-01     2.5000000000083678E-01     0.0000000000000000E+00 
    1.2500000000000661E-01     3.1250000000104172E-01     0.0000000000000000E+00 
    1.2500000000005329E-01     3.7500000000124661E-01     0.0000000000000000E+00 
    1.2500000000010000E-01     4.3750000000145117E-01     0.0000000000000000E+00 
    1.2500000000014669E-01     5.0000000000163858E-01     0.0000000000000000E+00 
    1.2500000000019340E-01     5.6250000000129741E-01     0.0000000000000000E+00 
    1.2500000000024011E-01     6.2500000000093847E-01     0.0000000000000000E+00 
    1.2500000000028680E-01     6.8750000000057998E-01     0.0000000000000000E+00 
    1.2500000000033351E-01     7.5000000000022127E-01     0.0000000000000000E+00 
    1.2500000000038020E-01     8.1249999999986211E-01     0.0000000000000000E+00 
    1.2500000000042691E-01     8.7499999999952238E-01     0.0000000000000000E+00 
    1.2500000000047359E-01     9.3749999999975164E-01     0.0000000000000000E+00 
    1.8749999999966760E-01     6.2500000000187531E-02     0.0000000000000000E+00 
    1.8749999999974179E-01     1.2500000000038020E-01     0.0000000000000000E+00 
    1.8749999999981601E-01     1.8750000000055780E-01     0.0000000000000000E+00 
    1.8749999999989009E-01     2.5000000000073502E-01     0.0000000000000000E+00 
    1.8749999999996431E-01     3.1250000000091221E-01     0.0000000000000000E+00 
    1.8750000000003850E-01     3.7500000000108941E-01     0.0000000000000000E+00 
    1.8750000000011269E-01     4.3750000000126649E-01     0.0000000000000000E+00 
    1.8750000000018691E-01     5.0000000000142808E-01     0.0000000000000000E+00 
    1.8750000000026110E-01     5.6250000000112244E-01     0.0000000000000000E+00 
    1.8750000000033529E-01     6.2500000000080080E-01     0.0000000000000000E+00 
    1.8750000000040951E-01     6.8750000000047962E-01     0.0000000000000000E+00 
    1.8750000000048361E-01     7.5000000000015843E-01     0.0000000000000000E+00 
    1.8750000000055780E-01     8.1249999999983680E-01     0.0000000000000000E+00 
    1.8750000000063199E-01     8.7499999999953304E-01     0.0000000000000000E+00 
    1.8750000000070621E-01     9.3749999999975764E-01     0.0000000000000000E+00 
    2.4999999999951281E-01     6.2500000000163314E-02     0.0000000000000000E+00 
    2.4999999999961461E-01     1.2500000000033351E-01     0.0000000000000000E+00 
    2.4999999999971650E-01     1.8750000000048361E-01     0.0000000000000000E+00 
    2.4999999999981831E-01     2.5000000000063310E-01     0.0000000000000000E+00 
    2.4999999999992020E-01     3.1250000000078260E-01     0.0000000000000000E+00 
    2.5000000000002198E-01     3.7500000000093209E-01     0.0000000000000000E+00 
    2.5000000000012390E-01     4.3750000000108180E-01     0.0000000000000000E+00 
    2.5000000000022571E-01     5.0000000000121769E-01     0.0000000000000000E+00 
    2.5000000000032763E-01     5.6250000000094724E-01     0.0000000000000000E+00 
    2.5000000000042938E-01     6.2500000000066314E-01     0.0000000000000000E+00 
    2.5000000000053119E-01     6.8750000000037925E-01     0.0000000000000000E+00 
[...]
CELL_DATA 256 
SCALARS Pressure double 1 
LOOKUP_TABLE default 

    6.2860757572088033E-01 
    5.7949528954470442E-01 
    5.4889001481042943E-01 
    5.2168526234196022E-01 
    4.9433253849574749E-01 
    4.6586176328738677E-01 
    4.3604444487231764E-01 
    4.0512593104348804E-01 
    3.7353698702421767E-01 
    3.4179827593558126E-01 
    3.1050405261051728E-01 
    2.8056580343987192E-01 
    2.5359482729364413E-01 
    2.3188749600912012E-01 
    2.1770552046752875E-01 
    2.1089113143182198E-01 
    6.1460267004702906E-01 
    5.8068999511862551E-01 
    5.5114845302640747E-01 
    5.2414629315458638E-01 
    4.9696868761632679E-01 
    4.6866321822573187E-01 
    4.3898045067716801E-01 
    4.0814549559155194E-01 
    3.7657254387750932E-01 
    3.4476604769629715E-01 
    3.1328852777727584E-01 
    2.8298786000979459E-01 
    2.5541519754839631E-01 
    2.3289053608543930E-01 
    2.1788558816802148E-01 
    2.1053961788686157E-01 
    6.0386652659886242E-01 
    5.7977277915956604E-01 
    5.5267479002604092E-01 
    5.2628895269119846E-01 
    4.9942025950438496E-01 
    4.7133778102449991E-01 
    4.4181959996214004E-01 
    4.1107963094141831E-01 
    3.7951105586357803E-01 
    3.4758885679292661E-01 
    3.1583766248707357E-01 
    2.8503735718775985E-01 
    2.5668286089975950E-01 
    2.3315147855439797E-01 
    2.1720433277935836E-01 
    2.0938546285698501E-01 
    5.9546576188347622E-01 
    5.7780740977738254E-01 
    5.5351454616310392E-01 
    5.2809227712949658E-01 
    5.0167892490267396E-01 
    4.7388661031239177E-01 
    4.4456766692286165E-01 
    4.1393805700950009E-01 
    3.8236888826974491E-01 
    3.5029644120272385E-01 
    3.1819768714164925E-01 
    2.8677453548909809E-01 
    2.5745764603896742E-01 
    2.3269742935418955E-01 
    2.1562098656180334E-01 
    2.0730646706727568E-01 
    5.8876526066806378E-01 
    5.7539188426087329E-01 
    5.5380447212346784E-01 
    5.2956820642074565E-01 
    5.0374295766937005E-01 
    4.7631046485465128E-01 
    4.4722978054079721E-01 
    4.1673097732903797E-01 
    3.8516416510781010E-01 
    3.5292075299362324E-01 
    3.2041826656842354E-01 
    2.8826587660870551E-01 
    2.5780849401037470E-01 
    2.3156284036381644E-01 
    2.1308982893848563E-01 
    2.0417195758349246E-01 
    5.8335442909283353E-01 
    5.7286866758078403E-01 
    5.5369659328615484E-01 
    5.3075227699197980E-01 
    5.0561924521065560E-01 
    4.7861085590895136E-01 
    4.4980996629989717E-01 
    4.1946742232895429E-01 
    3.8791451399648413E-01 
    3.5549485357985366E-01 
    3.2255231095097509E-01 
    2.8958522616267268E-01 
    2.5781624011005838E-01 
    2.2979461482922650E-01 
    2.0956188198222681E-01 
    1.9982476860208434E-01 
    5.7895722510314807E-01 
    5.7043938721796950E-01 
    5.5333574400939500E-01 
    5.3169737305849163E-01 
    5.0732609416735908E-01 
    4.8079595351454729E-01 
    4.5231303309664600E-01 
    4.2215566150268707E-01 
    3.9063750434051930E-01 
    3.5805123118715892E-01 
    3.2465604366906858E-01 
    2.9081488003425243E-01 
    2.5757815899442266E-01 
    2.2746069800285221E-01 
    2.0499535584161241E-01 
    1.9408708751758025E-01 
    5.7538028195583024E-01 
    5.6821985921988061E-01 
    5.5284708968760343E-01 
    5.3246576788295019E-01 
    5.0889295405929558E-01 
    4.8288113551816753E-01 
    4.5474856780220768E-01 
    4.2480408714753520E-01 
    3.9334718329462576E-01 
    3.6061940252778080E-01 
    3.2678441512809736E-01 
    2.9204484056606711E-01 
    2.5721220639897308E-01 
    2.2465888499618009E-01 
    1.9936322972911302E-01 
    1.8674729939437651E-01 
    5.7248220537964511E-01 
    5.6627151340578008E-01 
    5.5233143954962283E-01 
    5.3312181104155087E-01 
    5.1035384323160138E-01 
    4.8488547945090110E-01 
    4.5712781346971310E-01 
    4.2742158292101246E-01 
    3.9605640166209460E-01 
    3.6322426382264400E-01 
    3.2898808311610056E-01 
    2.9336755442904794E-01 
    2.5685835260598083E-01 
    2.2152890625129970E-01 
    1.9266278582809573E-01 
    1.7754094656218813E-01 
    5.7015872552632441E-01 
    5.6462485814947794E-01 
    5.5186678366699804E-01 
    5.3372603534207341E-01 
    5.1174561376184735E-01 
    4.8683020624403972E-01 
    4.5946426266795481E-01 
    4.3001811511397231E-01 
    3.9877655546889534E-01 
    3.6588666778908951E-01 
    3.3131056856112107E-01 
    2.9487288667848782E-01 
    2.5667573874935257E-01 
    2.1826438708149890E-01 
    1.8493192935262318E-01 
    1.6611762552672374E-01 
    5.6833247966921741E-01 
    5.6329418767584538E-01 
    5.5151368875978746E-01 
    5.3433370399387314E-01 
    5.1310582730085086E-01 
    4.8873927414973384E-01 
    4.6177284162086629E-01 
    4.3260466140880705E-01 
    4.0151951147129672E-01 
    3.6862543424365513E-01 
    3.3378969472536069E-01 
    2.9664478184210386E-01 
    2.5683946662452251E-01 
    2.1512105054720887E-01 
    1.7627694432768554E-01 
    1.5200861877177108E-01 
    5.6694233356760659E-01 
    5.6228430343992730E-01 
    5.5132026378667798E-01 
    5.3499549900033494E-01 
    5.1447352791259848E-01 
    4.9063956927977886E-01 
    4.6407181593455321E-01 
    4.3519345258964148E-01 
    4.0429646757879439E-01 
    3.7145741596423065E-01 
    3.3645654481080700E-01 
    2.9875711957058138E-01 
    2.5753425296846971E-01 
    2.1245033974377889E-01 
    1.6696849014750009E-01 
    1.3456995183899723E-01 
    5.6593933961351084E-01 
    5.6159546764975088E-01 
    5.5132568275506311E-01 
    5.3575831816721597E-01 
    5.1588783228787527E-01 
    4.9256074253017562E-01 
    4.6638263916577244E-01 
    4.3779893760111421E-01 
    4.0711873863672488E-01 
    3.7439768212698732E-01 
    3.3933601359136994E-01 
    3.0126816153653990E-01 
    2.5893838328450663E-01 
    2.1070443104101000E-01 
    1.5754910234754346E-01 
    1.1286845778297105E-01 
    5.6529226891869622E-01 
    5.6123654813280555E-01 
    5.5157127423593344E-01 
    5.3667212572310796E-01 
    5.1739333546576649E-01 
    4.9453783287145503E-01 
    4.6873153070936308E-01 
    4.4043651683346208E-01 
    4.0999409305925305E-01 
    3.7745636995867848E-01 
    3.4244294382835372E-01 
    3.0421208491924911E-01 
    2.6119724154857149E-01 
    2.1041420003871067E-01 
    1.4902462362655852E-01 
    8.5462858068679759E-02 
    5.6493059307680782E-01 
    5.6118084290768200E-01 
    5.5207117534997152E-01 
    5.3776805560050023E-01 
    5.1901940438769245E-01 
    4.9658812811612907E-01 
    4.7112377420452634E-01 
    4.4309629451818078E-01 
    4.1288706726359475E-01 
    3.8057644460496964E-01 
    3.4570717590050293E-01 
    3.0751526368231996E-01 
    2.6429665239311073E-01 
    2.1199655101065232E-01 
    1.4317715122324612E-01 
    5.0094695623217896E-02 
    5.6481035283410408E-01 
    5.6138950264818543E-01 
    5.5280196193275277E-01 
    5.3903921879250216E-01 
    5.2076700405227627E-01 
    4.9871853394697674E-01 
    4.7356663684590899E-01 
    4.4579121437723424E-01 
    4.1579746264969902E-01 
    3.8373065279384966E-01 
    3.4910587523411013E-01 
    3.1118993021986363E-01 
    2.6827235720257425E-01 
    2.1567386310246686E-01 
    1.4273727077766607E-01 
    0.0000000000000000E+00 

SCALARS Saturarion double 1 
LOOKUP_TABLE default 

    1.0000000000000004E+00 
    9.8055640461785543E-01 
    9.4468540827798597E-01 
    8.9359304361865721E-01 
    8.5100796138669410E-01 
    8.1320886574396678E-01 
    7.7968429061108691E-01 
    7.5006951374226905E-01 
    7.2364621795691486E-01 
    6.9961468365824386E-01 
    6.7703077431177905E-01 
    6.5475759113459120E-01 
    6.3098385641540977E-01 
    6.0199656163750537E-01 
    5.5987904976520197E-01 
    3.7106033136442479E-01 
    9.9295411262213118E-01 
    9.7459236043098219E-01 
    9.3691098809484397E-01 
    8.8814434774702411E-01 
    8.4629051588675208E-01 
    8.0949657890803917E-01 
    7.7690133517515869E-01 
    7.4795543372941098E-01 
    7.2206094807385868E-01 
    6.9845469976657637E-01 
    6.7638438240690346E-01 
    6.5483959150566540E-01 
    6.3202089912904080E-01 
    6.0403245869967459E-01 
    5.6315829944648910E-01 
    3.8794963814472505E-01 
    9.8177934315727666E-01 
    9.6324050313428400E-01 
    9.2520137874807029E-01 
    8.7791572513258342E-01 
    8.3686933733002788E-01 
    8.0177126580926450E-01 
    7.7109082400002393E-01 
    7.4358496078613368E-01 
    7.1866408838577467E-01 
    6.9576187599464356E-01 
    6.7435225711938473E-01 
    6.5362581118087326E-01 
    6.3216857832855866E-01 
    6.0630791117944627E-01 
    5.6799395350026649E-01 
    4.0394620966665612E-01 
    9.6231151868333742E-01 
    9.4663679728402716E-01 
    9.1062385549015123E-01 
    8.6712329382880060E-01 
    8.2682145372075555E-01 
    7.9230503052886070E-01 
    7.6254027708834771E-01 
    7.3638313401021582E-01 
    7.1284489247147109E-01 
    6.9138012451940190E-01 
    6.7128742834332300E-01 
    6.5179240811631001E-01 
    6.3167402007586604E-01 
    6.0803842261015839E-01 
    5.7278264064076301E-01 
    4.1975289641454772E-01 
    9.3804794505654743E-01 
    9.2379616749707272E-01 
    8.9105868410580513E-01 
    8.5179590310318387E-01 
    8.1348496068078557E-01 
    7.7960582751878926E-01 
    7.5055578090270103E-01 
    7.2545619706490405E-01 
    7.0342114136491873E-01 
    6.8378002277408523E-01 
    6.6590923320019935E-01 
    6.4879621725793013E-01 
    6.3078925666183816E-01 
    6.0923017921332578E-01 
    5.7704447638087619E-01 
    4.3341932956612078E-01 
    9.0981412333122269E-01 
    8.9766561419066149E-01 
    8.6892992394317115E-01 
    8.3298007989101996E-01 
    7.9725892304641355E-01 
    7.6493289652000729E-01 
    7.3663318403687161E-01 
    7.1231381606503053E-01 
    6.9137621964644591E-01 
    6.7326388919088698E-01 
    6.5753854256579169E-01 
    6.4344570459684924E-01 
    6.2885255454317679E-01 
    6.1005378107630182E-01 
    5.8066533042249735E-01 
    4.4597627975767767E-01 
    8.7851910632517294E-01 
    8.6917558949849361E-01 
    8.4471029662393526E-01 
    8.1223668046934294E-01 
    7.7944291018536804E-01 
    7.4934248166491191E-01 
    7.2263425807931803E-01 
    6.9903522679793795E-01 
    6.7862089434916950E-01 
    6.6133723648512122E-01 
    6.4713447000205748E-01 
    6.3559461668602135E-01 
    6.2498686748587995E-01 
    6.1035374256988295E-01 
    5.8411748054600909E-01 
    4.5839672579990909E-01 
    8.4406885431425083E-01 
    8.3795588412285060E-01 
    8.1845159795808375E-01 
    7.9015147438056399E-01 
    7.6023800680187403E-01 
    7.3228882874018320E-01 
    7.0704185433180522E-01 
    6.8468361198557204E-01 
    6.6517397275506152E-01 
    6.4872724846578700E-01 
    6.3551238054028358E-01 
    6.2579184536620625E-01 
    6.1871371602059488E-01 
    6.0938054576183232E-01 
    5.8754879249989367E-01 
    4.7099344291397638E-01 
    8.0640699843315800E-01 
    8.0357494517466999E-01 
    7.8912979695454921E-01 
    7.6549043471082390E-01 
    7.3901176294127113E-01 
    7.1323957488818435E-01 
    6.8961068090427979E-01 
    6.6841333644335099E-01 
    6.4985295678823063E-01 
    6.3420685054476211E-01 
    6.2202339018964625E-01 
    6.1391519195367728E-01 
    6.0991415606199151E-01 
    6.0624979883169672E-01 
    5.9049075091276049E-01 
    4.8336127140836443E-01 
    7.6558054805399134E-01 
    7.6592973916674678E-01 
    7.5638789771148862E-01 
    7.3728233309168301E-01 
    7.1446649037784948E-01 
    6.9127376353570891E-01 
    6.6925753893771589E-01 
    6.4949196851954316E-01 
    6.3226321730908852E-01 
    6.1774588817990672E-01 
    6.0641034763472090E-01 
    5.9946524697746117E-01 
    5.9809781290557662E-01 
    6.0018683921619209E-01 
    5.9200339420345183E-01 
    4.9569813420337600E-01 
    7.2130255994097869E-01 
    7.2468669038303313E-01 
    7.1984479057037754E-01 
    7.0502454673671455E-01 
    6.8589686090270352E-01 
    6.6575103113650058E-01 
    6.4620942956759542E-01 
    6.2795579064719098E-01 
    6.1194763194307311E-01 
    5.9868599745823825E-01 
    5.8859097449758768E-01 
    5.8257243747470155E-01 
    5.8283104884746373E-01 
    5.9019971917605873E-01 
    5.8928235602852452E-01 
    5.0848225200601960E-01 
    6.7215738128968172E-01 
    6.7857908938567890E-01 
    6.7864030163677669E-01 
    6.6824336304637721E-01 
    6.5258494778377374E-01 
    6.3525781662513858E-01 
    6.1810286833455075E-01 
    6.0216129281725028E-01 
    5.8797139617335892E-01 
    5.7621619556837445E-01 
    5.6753940743718301E-01 
    5.6294738644934694E-01 
    5.6434898091915708E-01 
    5.7529407749091221E-01 
    5.8582655982025922E-01 
    5.1989561746289747E-01 
    6.1701708349150297E-01 
    6.2611863647251109E-01 
    6.3076565559576914E-01 
    6.2494437226193555E-01 
    6.1338145981011605E-01 
    5.9936116501711700E-01 
    5.8528702105245178E-01 
    5.7167484851733785E-01 
    5.5916792086892109E-01 
    5.4873183206917409E-01 
    5.4174906299480596E-01 
    5.3888576402003929E-01 
    5.4193687632759024E-01 
    5.5510737921161624E-01 
    5.7665229747380231E-01 
    5.2901771184270374E-01 
    5.5938439618240932E-01 
    5.6972174397284536E-01 
    5.7768500784710408E-01 
    5.7614751351230864E-01 
    5.6880933775588716E-01 
    5.5828088009026522E-01 
    5.4676718203615970E-01 
    5.3519872043332639E-01 
    5.2309626469073056E-01 
    5.1268754731033572E-01 
    5.0629502804383897E-01 
    5.0503385696927205E-01 
    5.1074048715933851E-01 
    5.2796457715899758E-01 
    5.5964366018721179E-01 
    5.3402554813755565E-01 
    4.3910687123768344E-01 
    4.6282262731301360E-01 
    4.8208923669999065E-01 
    4.8933614133555958E-01 
    4.8659842598919584E-01 
    4.7676808666631471E-01 
    4.6206362940518830E-01 
    4.4542980414624689E-01 
    4.2739320548486553E-01 
    3.9592928297853003E-01 
    3.5927415935855705E-01 
    3.5129804343554799E-01 
    3.8653515219099377E-01 
    4.4653874724362586E-01 
    5.2559500790648961E-01 
    5.3452722783435269E-01 
    4.7574916053713563E-02 
    1.1547397980463740E-01 
    1.3594589991075906E-01 
    1.6462215629111948E-01 
    1.2798720416835721E-01 
    1.2818769493718912E-01 
    8.0599365140431395E-02 
    6.8789960440690884E-02 
    3.0709188004310866E-02 
    1.4946000654813741E-02 
    1.1055365778104240E-02 
    1.5821473675490558E-02 
    5.1506148693585482E-02 
    2.0101417719412676E-01 
    3.5608258990733416E-01 
    4.8416157637002738E-01 
