# vtk DataFile Version 2.0
Pressure Field Data 
ASCII 
DATASET UNSTRUCTURED_GRID 

POINTS 289 double 

    0.0000000000000000E+00     0.0000000000000000E+00     0.0000000000000000E+00 
    1.0000000000000000E+00     0.0000000000000000E+00     0.0000000000000000E+00 
    1.0000000000000000E+00     1.0000000000000000E+00     0.0000000000000000E+00 
    0.0000000000000000E+00     1.0000000000000000E+00     0.0000000000000000E+00 
    6.2499999999872928E-02     0.0000000000000000E+00     0.0000000000000000E+00 
    1.2499999999977310E-01     0.0000000000000000E+00     0.0000000000000000E+00 
    1.8749999999959341E-01     0.0000000000000000E+00     0.0000000000000000E+00 
    2.4999999999941089E-01     0.0000000000000000E+00     0.0000000000000000E+00 
    3.1249999999922851E-01     0.0000000000000000E+00     0.0000000000000000E+00 
    3.7499999999904610E-01     0.0000000000000000E+00     0.0000000000000000E+00 
    4.3749999999886358E-01     0.0000000000000000E+00     0.0000000000000000E+00 
    4.9999999999869210E-01     0.0000000000000000E+00     0.0000000000000000E+00 
    5.6249999999884603E-01     0.0000000000000000E+00     0.0000000000000000E+00 
    6.2499999999901090E-01     0.0000000000000000E+00     0.0000000000000000E+00 
    6.8749999999917577E-01     0.0000000000000000E+00     0.0000000000000000E+00 
    7.4999999999934064E-01     0.0000000000000000E+00     0.0000000000000000E+00 
    8.1249999999950551E-01     0.0000000000000000E+00     0.0000000000000000E+00 
    8.7499999999967026E-01     0.0000000000000000E+00     0.0000000000000000E+00 
    9.3749999999983513E-01     0.0000000000000000E+00     0.0000000000000000E+00 
    1.0000000000000000E+00     6.2499999999872928E-02     0.0000000000000000E+00 
    1.0000000000000000E+00     1.2499999999977310E-01     0.0000000000000000E+00 
    1.0000000000000000E+00     1.8749999999959341E-01     0.0000000000000000E+00 
    1.0000000000000000E+00     2.4999999999941089E-01     0.0000000000000000E+00 
    1.0000000000000000E+00     3.1249999999922851E-01     0.0000000000000000E+00 
    1.0000000000000000E+00     3.7499999999904610E-01     0.0000000000000000E+00 
    1.0000000000000000E+00     4.3749999999886358E-01     0.0000000000000000E+00 
    1.0000000000000000E+00     4.9999999999869210E-01     0.0000000000000000E+00 
    1.0000000000000000E+00     5.6249999999884603E-01     0.0000000000000000E+00 
    1.0000000000000000E+00     6.2499999999901090E-01     0.0000000000000000E+00 
    1.0000000000000000E+00     6.8749999999917577E-01     0.0000000000000000E+00 
    1.0000000000000000E+00     7.4999999999934064E-01     0.0000000000000000E+00 
    1.0000000000000000E+00     8.1249999999950551E-01     0.0000000000000000E+00 
    1.0000000000000000E+00     8.7499999999967026E-01     0.0000000000000000E+00 
    1.0000000000000000E+00     9.3749999999983513E-01     0.0000000000000000E+00 
    9.3749999999973976E-01     1.0000000000000000E+00     0.0000000000000000E+00 
    8.7499999999950118E-01     1.0000000000000000E+00     0.0000000000000000E+00 
    8.1249999999991318E-01     1.0000000000000000E+00     0.0000000000000000E+00 
    7.5000000000034706E-01     1.0000000000000000E+00     0.0000000000000000E+00 
    6.8750000000078049E-01     1.0000000000000000E+00     0.0000000000000000E+00 
    6.2500000000121403E-01     1.0000000000000000E+00     0.0000000000000000E+00 
    5.6250000000164757E-01     1.0000000000000000E+00     0.0000000000000000E+00 
    5.0000000000205946E-01     1.0000000000000000E+00     0.0000000000000000E+00 
    4.3750000000182099E-01     1.0000000000000000E+00     0.0000000000000000E+00 
    3.7500000000156092E-01     1.0000000000000000E+00     0.0000000000000000E+00 
    3.1250000000130068E-01     1.0000000000000000E+00     0.0000000000000000E+00 
    2.5000000000104050E-01     1.0000000000000000E+00     0.0000000000000000E+00 
    1.8750000000078040E-01     1.0000000000000000E+00     0.0000000000000000E+00 
    1.2500000000052031E-01     1.0000000000000000E+00     0.0000000000000000E+00 
    6.2500000000260125E-02     1.0000000000000000E+00     0.0000000000000000E+00 
    0.0000000000000000E+00     9.3749999999973976E-01     0.0000000000000000E+00 
    0.0000000000000000E+00     8.7499999999950118E-01     0.0000000000000000E+00 
    0.0000000000000000E+00     8.1249999999991318E-01     0.0000000000000000E+00 
    0.0000000000000000E+00     7.5000000000034706E-01     0.0000000000000000E+00 
    0.0000000000000000E+00     6.8750000000078049E-01     0.0000000000000000E+00 
    0.0000000000000000E+00     6.2500000000121403E-01     0.0000000000000000E+00 
    0.0000000000000000E+00     5.6250000000164757E-01     0.0000000000000000E+00 
    0.0000000000000000E+00     5.0000000000205946E-01     0.0000000000000000E+00 
    0.0000000000000000E+00     4.3750000000182099E-01     0.0000000000000000E+00 
    0.0000000000000000E+00     3.7500000000156092E-01     0.0000000000000000E+00 
    0.0000000000000000E+00     3.1250000000130068E-01     0.0000000000000000E+00 
    0.0000000000000000E+00     2.5000000000104050E-01     0.0000000000000000E+00 
    0.0000000000000000E+00     1.8750000000078040E-01     0.0000000000000000E+00 
    0.0000000000000000E+00     1.2500000000052031E-01     0.0000000000000000E+00 
    0.0000000000000000E+00     6.2500000000260125E-02     0.0000000000000000E+00 
    6.2499999999897131E-02     6.2500000000235922E-02     0.0000000000000000E+00 
    6.2499999999921327E-02     1.2500000000047351E-01     0.0000000000000000E+00 
    6.2499999999945530E-02     1.8750000000070621E-01     0.0000000000000000E+00 
    6.2499999999969733E-02     2.5000000000093858E-01     0.0000000000000000E+00 
    6.2499999999993928E-02     3.1250000000117117E-01     0.0000000000000000E+00 
    6.2500000000018124E-02     3.7500000000140382E-01     0.0000000000000000E+00 
    6.2500000000042327E-02     4.3750000000163619E-01     0.0000000000000000E+00 
    6.2500000000066530E-02     5.0000000000184897E-01     0.0000000000000000E+00 
    6.2500000000090733E-02     5.6250000000147260E-01     0.0000000000000000E+00 
    6.2500000000114922E-02     6.2500000000107636E-01     0.0000000000000000E+00 
    6.2500000000139125E-02     6.8750000000068034E-01     0.0000000000000000E+00 
    6.2500000000163328E-02     7.5000000000028411E-01     0.0000000000000000E+00 
    6.2500000000187531E-02     8.1249999999988787E-01     0.0000000000000000E+00 
    6.2500000000211720E-02     8.7499999999951172E-01     0.0000000000000000E+00 
    6.2500000000235922E-02     9.3749999999974565E-01     0.0000000000000000E+00 
    1.2499999999981980E-01     6.2500000000211733E-02     0.0000000000000000E+00 
    1.2499999999986650E-01     1.2500000000042691E-01     0.0000000000000000E+00 
    1.2499999999991319E-01     1.8750000000063199E-01     0.0000000000000000E+00 
    1.2499999999995989E-01     2.5000000000083678E-01     0.0000000000000000E+00 
    1.2500000000000661E-01     3.1250000000104172E-01     0.0000000000000000E+00 
    1.2500000000005329E-01     3.7500000000124661E-01     0.0000000000000000E+00 
    1.2500000000010000E-01     4.3750000000145117E-01     0.0000000000000000E+00 
    1.2500000000014669E-01     5.0000000000163858E-01     0.0000000000000000E+00 
    1.2500000000019340E-01     5.6250000000129741E-01     0.0000000000000000E+00 
    1.2500000000024011E-01     6.2500000000093847E-01     0.0000000000000000E+00 
    1.2500000000028680E-01     6.8750000000057998E-01     0.0000000000000000E+00 
    1.2500000000033351E-01     7.5000000000022127E-01     0.0000000000000000E+00 
    1.2500000000038020E-01     8.1249999999986211E-01     0.0000000000000000E+00 
    1.2500000000042691E-01     8.7499999999952238E-01     0.0000000000000000E+00 
    1.2500000000047359E-01     9.3749999999975164E-01     0.0000000000000000E+00 
    1.8749999999966760E-01     6.2500000000187531E-02     0.0000000000000000E+00 
    1.8749999999974179E-01     1.2500000000038020E-01     0.0000000000000000E+00 
    1.8749999999981601E-01     1.8750000000055780E-01     0.0000000000000000E+00 
    1.8749999999989009E-01     2.5000000000073502E-01     0.0000000000000000E+00 
    1.8749999999996431E-01     3.1250000000091221E-01     0.0000000000000000E+00 
    1.8750000000003850E-01     3.7500000000108941E-01     0.0000000000000000E+00 
    1.8750000000011269E-01     4.3750000000126649E-01     0.0000000000000000E+00 
    1.8750000000018691E-01     5.0000000000142808E-01     0.0000000000000000E+00 
    1.8750000000026110E-01     5.6250000000112244E-01     0.0000000000000000E+00 
    1.8750000000033529E-01     6.2500000000080080E-01     0.0000000000000000E+00 
    1.8750000000040951E-01     6.8750000000047962E-01     0.0000000000000000E+00 
    1.8750000000048361E-01     7.5000000000015843E-01     0.0000000000000000E+00 
    1.8750000000055780E-01     8.1249999999983680E-01     0.0000000000000000E+00 
    1.8750000000063199E-01     8.7499999999953304E-01     0.0000000000000000E+00 
    1.8750000000070621E-01     9.3749999999975764E-01     0.0000000000000000E+00 
    2.4999999999951281E-01     6.2500000000163314E-02     0.0000000000000000E+00 
    2.4999999999961461E-01     1.2500000000033351E-01     0.0000000000000000E+00 
    2.4999999999971650E-01     1.8750000000048361E-01     0.0000000000000000E+00 
    2.4999999999981831E-01     2.5000000000063310E-01     0.0000000000000000E+00 
    2.4999999999992020E-01     3.1250000000078260E-01     0.0000000000000000E+00 
    2.5000000000002198E-01     3.7500000000093209E-01     0.0000000000000000E+00 
    2.5000000000012390E-01     4.3750000000108180E-01     0.0000000000000000E+00 
    2.5000000000022571E-01     5.0000000000121769E-01     0.0000000000000000E+00 
    2.5000000000032763E-01     5.6250000000094724E-01     0.0000000000000000E+00 
    2.5000000000042938E-01     6.2500000000066314E-01     0.0000000000000000E+00 
    2.5000000000053119E-01     6.8750000000037925E-01     0.0000000000000000E+00 
[...]
CELL_DATA 256 
SCALARS Pressure double 1 
LOOKUP_TABLE default 

    7.2323248526349782E-01 
    6.7301011829480151E-01 
    6.4064282629150360E-01 
    6.1108211806472013E-01 
    5.8083998378902502E-01 
    5.4900146089309942E-01 
    5.1539817598039772E-01 
    4.8037097499483888E-01 
    4.4445820607590319E-01 
    4.0829296141162486E-01 
    3.7258514086024902E-01 
    3.3841281176185362E-01 
    3.0767477950826738E-01 
    2.8311093630486162E-01 
    2.6693682913279893E-01 
    2.5889953153667489E-01 
    7.0926064180244974E-01 
    6.7432898611861281E-01 
    6.4308254795689146E-01 
    6.1377343029657838E-01 
    5.8375311138502495E-01 
    5.5212559356697932E-01 
    5.1869706865355925E-01 
    4.8378231594070281E-01 
    4.4789934188195291E-01 
    4.1166256594015777E-01 
    3.7574501846012398E-01 
    3.4115048174350537E-01 
    3.0970768414790512E-01 
    2.8419595693172711E-01 
    2.6711495968874660E-01 
    2.5846942595854561E-01 
    6.9854472529009137E-01 
    6.7350391484133099E-01 
    6.4475817431267279E-01 
    6.1611415232080846E-01 
    5.8644758424703569E-01 
    5.5508819841337020E-01 
    5.2186660759425829E-01 
    4.8707851039739408E-01 
    4.5121390389147437E-01 
    4.1485172628235295E-01 
    3.7861990398975093E-01 
    3.4344135681140942E-01 
    3.1107912349630662E-01 
    2.8438554157466028E-01 
    2.6625098583096724E-01 
    2.5704593928787750E-01 
    6.9012030130442403E-01 
    6.7159099837745428E-01 
    6.4571093508557065E-01 
    6.1808494116843204E-01 
    5.8892118808973259E-01 
    5.5789619653288836E-01 
    5.2491501399310969E-01 
    4.9026902322019794E-01 
    4.5441788792339888E-01 
    4.1789296089407429E-01 
    3.8126392826211625E-01 
    3.4535814861104003E-01 
    3.1186119430701481E-01 
    2.8371265690745784E-01 
    2.6428929225664793E-01 
    2.5447267750259905E-01 
    6.8333896815450634E-01 
    6.6917909371708406E-01 
    6.4607450070400263E-01 
    6.1969657542286105E-01 
    5.9117480150765622E-01 
    5.6055628495184895E-01 
    5.2785347549456652E-01 
    4.9336825049883720E-01 
    4.5753238852348577E-01 
    4.2082266390101375E-01 
    3.8373554003850474E-01 
    3.4698169458144174E-01 
    3.1213878971282583E-01 
    2.8222156006482174E-01 
    2.6117576424266065E-01 
    2.5059243256016883E-01 
    6.7780630609267944E-01 
    6.6661479704438598E-01 
    6.4600169759671033E-01 
    6.2098486958562493E-01 
    5.9321710844031050E-01 
    5.6307478123766497E-01 
    5.3069339907066038E-01 
    4.9639325085950892E-01 
    4.6058237076534775E-01 
    4.2368119811998362E-01 
    3.8609726003345113E-01 
    3.4840070474104323E-01 
    3.1201153772563278E-01 
    2.7997261586560429E-01 
    2.5685418568616764E-01 
    2.4521576230643943E-01 
    6.7326427150411972E-01 
    6.6411123879437661E-01 
    6.4564393835623413E-01 
    6.2200783925201042E-01 
    5.9507029846909298E-01 
    5.6546349476139546E-01 
    5.3344464745984732E-01 
    4.9935984709528625E-01 
    4.6359468046681152E-01 
    4.2651084256530747E-01 
    3.8841642837616425E-01 
    3.4971251524157310E-01 
    3.1159739933635777E-01 
    2.7705193792077754E-01 
    2.5127724553649083E-01 
    2.3812678898822182E-01 
    6.6953096295886227E-01 
    6.6179543474671076E-01 
    6.4513524067911410E-01 
    6.2283446769397932E-01 
    5.9676831106229400E-01 
    5.6774069261203830E-01 
    5.3611995091265208E-01 
    5.0228144838869482E-01 
    4.6659095400727951E-01 
    4.2935130459543130E-01 
    3.9076097246958685E-01 
    3.5102401813233319E-01 
    3.1103728669940317E-01 
    2.7358150348629473E-01 
    2.4441931222150795E-01 
    2.2907394347652385E-01 
    6.6647411471778895E-01 
    6.5973866865101127E-01 
    6.4458476235184836E-01 
    6.2353530986347872E-01 
    5.9834947824616536E-01 
    5.6992873540529387E-01 
    5.3873335282282586E-01 
    5.0517006182427115E-01 
    4.6958851044965860E-01 
    4.3223495904438114E-01 
    3.9319470988664246E-01 
    3.5244763599992668E-01 
    3.1049859678511893E-01 
    2.6973176490827933E-01 
    2.3628393311525278E-01 
    2.1774157950229256E-01 
    6.6399708570363647E-01 
    6.5797975856840663E-01 
    6.4407737366550522E-01 
    6.2417648214452182E-01 
    5.9985569209665268E-01 
    5.7205339738834360E-01 
    5.4130218966495569E-01 
    5.0803853124602827E-01 
    4.7260081531878106E-01 
    4.3518610518656187E-01 
    3.9577163124472337E-01 
    3.5409527624151699E-01 
    3.1017439305032452E-01 
    2.6573726847268841E-01 
    2.2692351249130605E-01 
    2.0370559945665953E-01 
    6.6202849874677006E-01 
    6.5653991687992264E-01 
    6.4367985661595284E-01 
    6.2481916771411472E-01 
    6.0133099546380309E-01 
    5.7414522532311696E-01 
    5.4384691802035112E-01 
    5.1090218810303489E-01 
    4.7564240442510136E-01 
    4.3822530033784807E-01 
    3.9853729456105874E-01 
    3.5607372524590569E-01 
    3.1028216826134503E-01 
    2.6191734890019353E-01 
    2.1648958518102418E-01 
    1.8641151472186893E-01 
    6.6051378049892207E-01 
    6.5543127618555463E-01 
    6.4344750098160608E-01 
    6.2552188425722033E-01 
    6.0282392659305961E-01 
    5.7624077568486576E-01 
    5.4639411827732554E-01 
    5.1378079463809556E-01 
    4.7873061907858755E-01 
    4.4137213081303961E-01 
    4.0152792462906545E-01 
    3.5847698414464957E-01 
    3.1105667091034545E-01 
    2.5869138840551187E-01 
    2.0528889663871899E-01 
    1.6508586339229769E-01 
    6.5942039308903733E-01 
    6.5467078642497201E-01 
    6.4343405234645257E-01 
    6.2634522062251186E-01 
    6.0438736743598520E-01 
    5.7838202732155131E-01 
    5.4897496436856374E-01 
    5.1669775785206440E-01 
    4.8188283924769693E-01 
    4.4463963300630127E-01 
    4.0476463164463344E-01 
    3.6137021038684286E-01 
    3.1272167284795571E-01 
    2.5661110822392924E-01 
    1.9396411056185156E-01 
    1.3860977296247215E-01 
    6.5870397854695784E-01 
    6.5426358946038166E-01 
    6.4368298984807093E-01 
    6.2734307783399079E-01 
    6.0606943133460922E-01 
    5.8060420279744585E-01 
    5.5161129773617512E-01 
    5.1965467092214979E-01 
    4.8506710912159090E-01 
    4.4796364178731241E-01 
    4.0816287978005866E-01 
    3.6467798347419356E-01 
    3.1533743280676324E-01 
    2.5620231970214352E-01 
    1.8364565329948296E-01 
    1.0526132646597709E-01 
    6.5819580616885265E-01 
    6.5407334312406362E-01 
    6.4411054394936851E-01 
    6.2845888311586939E-01 
    6.0781235018975310E-01 
    5.8285334275085010E-01 
    5.5425312169079544E-01 
    5.2260218586840113E-01 
    4.8822868055665225E-01 
    4.5129038845141656E-01 
    4.1166011987570250E-01 
    3.6832316779828878E-01 
    3.1884571543909246E-01 
    2.5782376634050969E-01 
    1.7600208106118390E-01 
    6.1786516619724043E-02 
    6.5801446535672969E-01 
    6.5422606586223186E-01 
    6.4483619836405959E-01 
    6.2979287820605745E-01 
    6.0969324108374290E-01 
    5.8519960731205356E-01 
    5.5698173894923364E-01 
    5.2564209225682212E-01 
    4.9152088411930128E-01 
    4.5481154832471821E-01 
    4.1543004274220718E-01 
    3.7242270425967039E-01 
    3.2343886333772515E-01 
    2.6247385845060622E-01 
    1.7552747777453298E-01 
    0.0000000000000000E+00 

SCALARS Saturarion double 1 
LOOKUP_TABLE default 

    1.0000000000000007E+00 
    9.7475262941157637E-01 
    9.2903584062030242E-01 
    8.6942295157585603E-01 
    8.1919277961466408E-01 
    7.7527144013994687E-01 
    7.3753049017897110E-01 
    7.0514660219041547E-01 
    6.7682133588598814E-01 
    6.5126808407197412E-01 
    6.2712619597922703E-01 
    6.0291856598257043E-01 
    5.7659648469424352E-01 
    5.4543299668412071E-01 
    4.7699786571133224E-01 
    1.4642835850642075E-01 
    9.9032279760700870E-01 
    9.6640151650290229E-01 
    9.1852909410033357E-01 
    8.6191348168160842E-01 
    8.1377324321445632E-01 
    7.7168448823137015E-01 
    7.3499347743730015E-01 
    7.0305465378732257E-01 
    6.7499960093844580E-01 
    6.4974052841526753E-01 
    6.2618689815642148E-01 
    6.0293221766761806E-01 
    5.7775700606290392E-01 
    5.4755710278666636E-01 
    4.8272372032419952E-01 
    1.8043032980167864E-01 
    9.7506594724325657E-01 
    9.5125148562227824E-01 
    9.0332942528521132E-01 
    8.4878271483785728E-01 
    8.0315186443395215E-01 
    7.6412245784501054E-01 
    7.2967079150939906E-01 
    6.9876982310755364E-01 
    6.7108074882402247E-01 
    6.4609338330188670E-01 
    6.2319846339667739E-01 
    6.0121682792886399E-01 
    5.7800999752935300E-01 
    5.5001643362112851E-01 
    4.9080466364268699E-01 
    2.1426585260977296E-01 
    9.4840598179760394E-01 
    9.2846723502570017E-01 
    8.8489710930803367E-01 
    8.3458487924331093E-01 
    7.8995145588383031E-01 
    7.5270083465096771E-01 
    7.2047067211975069E-01 
    6.9167078148033012E-01 
    6.6547915885912035E-01 
    6.4169285244509611E-01 
    6.1977821728240590E-01 
    5.9896327369413715E-01 
    5.7755204647683378E-01 
    5.5210462785816317E-01 
    4.9892312378213227E-01 
    2.4752381761924269E-01 
    9.1614543759731482E-01 
    8.9881734749623077E-01 
    8.6029190587707161E-01 
    8.1511288391864567E-01 
    7.7303915186105643E-01 
    7.3724224131204585E-01 
    7.0694209060461377E-01 
    6.8046665663030315E-01 
    6.5674173736887032E-01 
    6.3521387502702698E-01 
    6.1540082479840530E-01 
    5.9646043985480257E-01 
    5.7685134609020605E-01 
    5.5365589336172749E-01 
    5.0660103039431947E-01 
    2.7358542699371025E-01 
    8.8075198014854894E-01 
    8.6644578375742931E-01 
    8.3316208322090624E-01 
    7.9271298742315344E-01 
    7.5415227924940176E-01 
    7.2031344572637435E-01 
    6.9112114056261231E-01 
    6.6618732166868422E-01 
    6.4464599608929507E-01 
    6.2566899922152441E-01 
    6.0856324035744558E-01 
    5.9251710583915285E-01 
    5.7569511614180269E-01 
    5.5485672404286412E-01 
    5.1318978212635991E-01 
    2.9634176535312534E-01 
    8.4287703430837024E-01 
    8.3218198397162968E-01 
    8.0456196841912997E-01 
    7.6894599687248244E-01 
    7.3409427657404625E-01 
    7.0273104768102335E-01 
    6.7525536596210955E-01 
    6.5128894853273744E-01 
    6.3086141551755293E-01 
    6.1364036742918893E-01 
    5.9909289517007225E-01 
    5.8623045140150243E-01 
    5.7319020671379806E-01 
    5.5582667764681393E-01 
    5.1923396343423411E-01 
    3.1833264846610776E-01 
    8.0236565396911841E-01 
    7.9571838228147462E-01 
    7.7448478566787493E-01 
    7.4414949694179255E-01 
    7.1265837654189890E-01 
    6.8366172078590826E-01 
    6.5783869619572310E-01 
    6.3534906873313968E-01 
    6.1604000648389456E-01 
    6.0002356173575710E-01 
    5.8726866477222128E-01 
    5.7737731319203600E-01 
    5.6848892568914167E-01 
    5.5595991526507449E-01 
    5.2511390971864691E-01 
    3.4038608089038341E-01 
    7.5946755122604737E-01 
    7.5666248597697250E-01 
    7.4152164537077014E-01 
    7.1676018301080835E-01 
    6.8922903752336262E-01 
    6.6275734815707565E-01 
    6.3884866000254392E-01 
    6.1765550634588795E-01 
    5.9925361975036251E-01 
    5.8398220099053932E-01 
    5.7256843175775907E-01 
    5.6537095408735605E-01 
    5.6097825010144364E-01 
    5.5431807392452481E-01 
    5.3023773022387455E-01 
    3.6115421149573640E-01 
    7.1420093536994045E-01 
    7.1490950829478805E-01 
    7.0534307123112583E-01 
    6.8580292682509403E-01 
    6.6252968691095171E-01 
    6.3916682254882884E-01 
    6.1730954614742850E-01 
    5.9778455038564304E-01 
    5.8062554751301820E-01 
    5.6614348047127883E-01 
    5.5532121966075254E-01 
    5.4969946486292731E-01 
    5.4955320345858305E-01 
    5.4994551767074984E-01 
    5.3415440916086698E-01 
    3.8122067831617301E-01 
    6.6623353678718755E-01 
    6.7012939851125652E-01 
    6.6567610378143993E-01 
    6.5098649410760812E-01 
    6.3204181374530288E-01 
    6.1239304834063668E-01 
    5.9359756126925689E-01 
    5.7597515357853968E-01 
    5.6025332097992364E-01 
    5.4704040164244871E-01 
    5.3713519302622925E-01 
    5.3193701884874156E-01 
    5.3378710098051863E-01 
    5.4136029108971573E-01 
    5.3581836958675100E-01 
    4.0131720475030996E-01 
    6.1481786025686402E-01 
    6.2155303122817840E-01 
    6.2219656846316918E-01 
    6.1252641635705674E-01 
    5.9787640465668312E-01 
    5.8184610756745125E-01 
    5.6602143766354129E-01 
    5.5117613737877147E-01 
    5.3785621851618892E-01 
    5.2667174010521656E-01 
    5.1807632858688912E-01 
    5.1338485785126642E-01 
    5.1525540615272902E-01 
    5.2716691721338826E-01 
    5.3210155420508087E-01 
    4.2062446135963882E-01 
    5.6349196178011252E-01 
    5.7171626860789715E-01 
    5.7620675299651980E-01 
    5.7134837012754447E-01 
    5.6103676460899066E-01 
    5.4813478044679231E-01 
    5.3512284291801449E-01 
    5.2266130186120718E-01 
    5.1070698224379873E-01 
    4.9962621823252690E-01 
    4.9203764650365406E-01 
    4.8959008607072924E-01 
    4.9320938327376179E-01 
    5.0741994043022509E-01 
    5.2465832843715443E-01 
    4.3738480679331787E-01 
    4.9339199394291994E-01 
    5.0894369745770196E-01 
    5.1887692242671379E-01 
    5.2022790864725887E-01 
    5.1232861343101654E-01 
    5.0090493665135605E-01 
    4.8712838561423200E-01 
    4.7347191770905050E-01 
    4.5127419357807014E-01 
    4.2054093906864914E-01 
    3.9484507969785704E-01 
    3.8295240051564838E-01 
    4.0680500344455611E-01 
    4.5855401421714642E-01 
    5.0630037689167140E-01 
    4.4921803686411921E-01 
    1.9649324394388368E-01 
    2.8020111830415112E-01 
    3.3168805544856272E-01 
    3.4200640454532122E-01 
    3.2358219072552913E-01 
    2.7126501863695024E-01 
    2.4370130322339900E-01 
    1.8856019825099080E-01 
    1.3726131989597015E-01 
    7.9075052777876312E-02 
    3.5858353735662027E-02 
    4.5102134462532896E-02 
    9.0880566709864746E-02 
    2.4161743105060507E-01 
    4.4063247152076918E-01 
    4.5195660243969921E-01 
    1.3195711034276237E-06 
    2.1380762500206800E-03 
    5.5842546643796800E-03 
    4.9820905331512946E-03 
    5.3237462643029015E-03 
    3.5715079340670100E-04 
    4.4482474786841750E-04 
    1.3864682374853694E-05 
    1.4441440206075496E-05 
    1.1868815476423002E-05 
    3.9929459140494987E-06 
    6.9535387719990446E-06 
    1.0884421194177228E-04 
    5.4002647444002037E-02 
    2.6595895485523585E-01 
    4.0290107094026123E-01 
