# vtk DataFile Version 2.0
Pressure Field Data 
ASCII 
DATASET UNSTRUCTURED_GRID 

POINTS 289 double 

    0.0000000000000000E+00     0.0000000000000000E+00     0.0000000000000000E+00 
    1.0000000000000000E+00     0.0000000000000000E+00     0.0000000000000000E+00 
    1.0000000000000000E+00     1.0000000000000000E+00     0.0000000000000000E+00 
    0.0000000000000000E+00     1.0000000000000000E+00     0.0000000000000000E+00 
    6.2499999999872928E-02     0.0000000000000000E+00     0.0000000000000000E+00 
    1.2499999999977310E-01     0.0000000000000000E+00     0.0000000000000000E+00 
    1.8749999999959341E-01     0.0000000000000000E+00     0.0000000000000000E+00 
    2.4999999999941089E-01     0.0000000000000000E+00     0.0000000000000000E+00 
    3.1249999999922851E-01     0.0000000000000000E+00     0.0000000000000000E+00 
    3.7499999999904610E-01     0.0000000000000000E+00     0.0000000000000000E+00 
    4.3749999999886358E-01     0.0000000000000000E+00     0.0000000000000000E+00 
    4.9999999999869210E-01     0.0000000000000000E+00     0.0000000000000000E+00 
    5.6249999999884603E-01     0.0000000000000000E+00     0.0000000000000000E+00 
    6.2499999999901090E-01     0.0000000000000000E+00     0.0000000000000000E+00 
    6.8749999999917577E-01     0.0000000000000000E+00     0.0000000000000000E+00 
    7.4999999999934064E-01     0.0000000000000000E+00     0.0000000000000000E+00 
    8.1249999999950551E-01     0.0000000000000000E+00     0.0000000000000000E+00 
    8.7499999999967026E-01     0.0000000000000000E+00     0.0000000000000000E+00 
    9.3749999999983513E-01     0.0000000000000000E+00     0.0000000000000000E+00 
    1.0000000000000000E+00     6.2499999999872928E-02     0.0000000000000000E+00 
    1.0000000000000000E+00     1.2499999999977310E-01     0.0000000000000000E+00 
    1.0000000000000000E+00     1.8749999999959341E-01     0.0000000000000000E+00 
    1.0000000000000000E+00     2.4999999999941089E-01     0.0000000000000000E+00 
    1.0000000000000000E+00     3.1249999999922851E-01     0.0000000000000000E+00 
    1.0000000000000000E+00     3.7499999999904610E-01     0.0000000000000000E+00 
    1.0000000000000000E+00     4.3749999999886358E-01     0.0000000000000000E+00 
    1.0000000000000000E+00     4.9999999999869210E-01     0.0000000000000000E+00 
    1.0000000000000000E+00     5.6249999999884603E-01     0.0000000000000000E+00 
    1.0000000000000000E+00     6.2499999999901090E-01     0.0000000000000000E+00 
    1.0000000000000000E+00     6.8749999999917577E-01     0.0000000000000000E+00 
    1.0000000000000000E+00     7.4999999999934064E-01     0.0000000000000000E+00 
    1.0000000000000000E+00     8.1249999999950551E-01     0.0000000000000000E+00 
    1.0000000000000000E+00     8.7499999999967026E-01     0.0000000000000000E+00 
    1.0000000000000000E+00     9.3749999999983513E-01     0.0000000000000000E+00 
    9.3749999999973976E-01     1.0000000000000000E+00     0.0000000000000000E+00 
    8.7499999999950118E-01     1.0000000000000000E+00     0.0000000000000000E+00 
    8.1249999999991318E-01     1.0000000000000000E+00     0.0000000000000000E+00 
    7.5000000000034706E-01     1.0000000000000000E+00     0.0000000000000000E+00 
    6.8750000000078049E-01     1.0000000000000000E+00     0.0000000000000000E+00 
    6.2500000000121403E-01     1.0000000000000000E+00     0.0000000000000000E+00 
    5.6250000000164757E-01     1.0000000000000000E+00     0.0000000000000000E+00 
    5.0000000000205946E-01     1.0000000000000000E+00     0.0000000000000000E+00 
    4.3750000000182099E-01     1.0000000000000000E+00     0.0000000000000000E+00 
    3.7500000000156092E-01     1.0000000000000000E+00     0.0000000000000000E+00 
    3.1250000000130068E-01     1.0000000000000000E+00     0.0000000000000000E+00 
    2.5000000000104050E-01     1.0000000000000000E+00     0.0000000000000000E+00 
    1.8750000000078040E-01     1.0000000000000000E+00     0.0000000000000000E+00 
    1.2500000000052031E-01     1.0000000000000000E+00     0.0000000000000000E+00 
    6.2500000000260125E-02     1.0000000000000000E+00     0.0000000000000000E+00 
    0.0000000000000000E+00     9.3749999999973976E-01     0.0000000000000000E+00 
    0.0000000000000000E+00     8.7499999999950118E-01     0.0000000000000000E+00 
    0.0000000000000000E+00     8.1249999999991318E-01     0.0000000000000000E+00 
    0.0000000000000000E+00     7.5000000000034706E-01     0.0000000000000000E+00 
    0.0000000000000000E+00     6.8750000000078049E-01     0.0000000000000000E+00 
    0.0000000000000000E+00     6.2500000000121403E-01     0.0000000000000000E+00 
    0.0000000000000000E+00     5.6250000000164757E-01     0.0000000000000000E+00 
    0.0000000000000000E+00     5.0000000000205946E-01     0.0000000000000000E+00 
    0.0000000000000000E+00     4.3750000000182099E-01     0.0000000000000000E+00 
    0.0000000000000000E+00     3.7500000000156092E-01     0.0000000000000000E+00 
    0.0000000000000000E+00     3.1250000000130068E-01     0.0000000000000000E+00 
    0.0000000000000000E+00     2.5000000000104050E-01     0.0000000000000000E+00 
    0.0000000000000000E+00     1.8750000000078040E-01     0.0000000000000000E+00 
    0.0000000000000000E+00     1.2500000000052031E-01     0.0000000000000000E+00 
    0.0000000000000000E+00     6.2500000000260125E-02     0.0000000000000000E+00 
    6.2499999999897131E-02     6.2500000000235922E-02     0.0000000000000000E+00 
    6.2499999999921327E-02     1.2500000000047351E-01     0.0000000000000000E+00 
    6.2499999999945530E-02     1.8750000000070621E-01     0.0000000000000000E+00 
    6.2499999999969733E-02     2.5000000000093858E-01     0.0000000000000000E+00 
    6.2499999999993928E-02     3.1250000000117117E-01     0.0000000000000000E+00 
    6.2500000000018124E-02     3.7500000000140382E-01     0.0000000000000000E+00 
    6.2500000000042327E-02     4.3750000000163619E-01     0.0000000000000000E+00 
    6.2500000000066530E-02     5.0000000000184897E-01     0.0000000000000000E+00 
    6.2500000000090733E-02     5.6250000000147260E-01     0.0000000000000000E+00 
    6.2500000000114922E-02     6.2500000000107636E-01     0.0000000000000000E+00 
    6.2500000000139125E-02     6.8750000000068034E-01     0.0000000000000000E+00 
    6.2500000000163328E-02     7.5000000000028411E-01     0.0000000000000000E+00 
    6.2500000000187531E-02     8.1249999999988787E-01     0.0000000000000000E+00 
    6.2500000000211720E-02     8.7499999999951172E-01     0.0000000000000000E+00 
    6.2500000000235922E-02     9.3749999999974565E-01     0.0000000000000000E+00 
    1.2499999999981980E-01     6.2500000000211733E-02     0.0000000000000000E+00 
    1.2499999999986650E-01     1.2500000000042691E-01     0.0000000000000000E+00 
    1.2499999999991319E-01     1.8750000000063199E-01     0.0000000000000000E+00 
    1.2499999999995989E-01     2.5000000000083678E-01     0.0000000000000000E+00 
    1.2500000000000661E-01     3.1250000000104172E-01     0.0000000000000000E+00 
    1.2500000000005329E-01     3.7500000000124661E-01     0.0000000000000000E+00 
    1.2500000000010000E-01     4.3750000000145117E-01     0.0000000000000000E+00 
    1.2500000000014669E-01     5.0000000000163858E-01     0.0000000000000000E+00 
    1.2500000000019340E-01     5.6250000000129741E-01     0.0000000000000000E+00 
    1.2500000000024011E-01     6.2500000000093847E-01     0.0000000000000000E+00 
    1.2500000000028680E-01     6.8750000000057998E-01     0.0000000000000000E+00 
    1.2500000000033351E-01     7.5000000000022127E-01     0.0000000000000000E+00 
    1.2500000000038020E-01     8.1249999999986211E-01     0.0000000000000000E+00 
    1.2500000000042691E-01     8.7499999999952238E-01     0.0000000000000000E+00 
    1.2500000000047359E-01     9.3749999999975164E-01     0.0000000000000000E+00 
    1.8749999999966760E-01     6.2500000000187531E-02     0.0000000000000000E+00 
    1.8749999999974179E-01     1.2500000000038020E-01     0.0000000000000000E+00 
    1.8749999999981601E-01     1.8750000000055780E-01     0.0000000000000000E+00 
    1.8749999999989009E-01     2.5000000000073502E-01     0.0000000000000000E+00 
    1.8749999999996431E-01     3.1250000000091221E-01     0.0000000000000000E+00 
    1.8750000000003850E-01     3.7500000000108941E-01     0.0000000000000000E+00 
    1.8750000000011269E-01     4.3750000000126649E-01     0.0000000000000000E+00 
    1.8750000000018691E-01     5.0000000000142808E-01     0.0000000000000000E+00 
    1.8750000000026110E-01     5.6250000000112244E-01     0.0000000000000000E+00 
    1.8750000000033529E-01     6.2500000000080080E-01     0.0000000000000000E+00 
    1.8750000000040951E-01     6.8750000000047962E-01     0.0000000000000000E+00 
    1.8750000000048361E-01     7.5000000000015843E-01     0.0000000000000000E+00 
    1.8750000000055780E-01     8.1249999999983680E-01     0.0000000000000000E+00 
    1.8750000000063199E-01     8.7499999999953304E-01     0.0000000000000000E+00 
    1.8750000000070621E-01     9.3749999999975764E-01     0.0000000000000000E+00 
    2.4999999999951281E-01     6.2500000000163314E-02     0.0000000000000000E+00 
    2.4999999999961461E-01     1.2500000000033351E-01     0.0000000000000000E+00 
    2.4999999999971650E-01     1.8750000000048361E-01     0.0000000000000000E+00 
    2.4999999999981831E-01     2.5000000000063310E-01     0.0000000000000000E+00 
    2.4999999999992020E-01     3.1250000000078260E-01     0.0000000000000000E+00 
    2.5000000000002198E-01     3.7500000000093209E-01     0.0000000000000000E+00 
    2.5000000000012390E-01     4.3750000000108180E-01     0.0000000000000000E+00 
    2.5000000000022571E-01     5.0000000000121769E-01     0.0000000000000000E+00 
    2.5000000000032763E-01     5.6250000000094724E-01     0.0000000000000000E+00 
    2.5000000000042938E-01     6.2500000000066314E-01     0.0000000000000000E+00 
    2.5000000000053119E-01     6.8750000000037925E-01     0.0000000000000000E+00 
[...]
CELL_DATA 256 
SCALARS Pressure double 1 
LOOKUP_TABLE default 

    8.8910610336005980E-01 
    8.3726639702302663E-01 
    8.0238666746944243E-01 
    7.6948856958324252E-01 
    7.3514320470366845E-01 
    6.9849983887780276E-01 
    6.5951297309794954E-01 
    6.1872565136872582E-01 
    5.7687838823219995E-01 
    5.3478273962572509E-01 
    4.9326572028742438E-01 
    4.5351151619172042E-01 
    4.1752085978718895E-01 
    3.8648604665533759E-01 
    3.6139159050686748E-01 
    3.4986771104957931E-01 
    8.7516831549504071E-01 
    8.3875427137048697E-01 
    8.0507007495618677E-01 
    7.7248742765219058E-01 
    7.3843616573389070E-01 
    7.0207855500099803E-01 
    6.6332305723679985E-01 
    6.2267665959787522E-01 
    5.8085933594446759E-01 
    5.3867045818683390E-01 
    4.9690547188318535E-01 
    4.5666965261378906E-01 
    4.1994671366145342E-01 
    3.8812312547020023E-01 
    3.6193157869093834E-01 
    3.4945272779844178E-01 
    8.6445034857042125E-01 
    8.3803924250565420E-01 
    8.0693224842152689E-01 
    7.7507433338875975E-01 
    7.4144441504424474E-01 
    7.0543430350411152E-01 
    6.6695331359156340E-01 
    6.2647092655318803E-01 
    5.8467265022558990E-01 
    5.4232306652291240E-01 
    5.0017777345871073E-01 
    4.5925401130732779E-01 
    4.2150956212784230E-01 
    3.8862686036121075E-01 
    3.6116500256363709E-01 
    3.4787261116868529E-01 
    8.5593349628750037E-01 
    8.3616177333761366E-01 
    8.0800809039533450E-01 
    7.7723730205106534E-01 
    7.4417656764449491E-01 
    7.0857727337106513E-01 
    6.7040868827889788E-01 
    6.3011533446004975E-01 
    5.8833768014987531E-01 
    5.4578417577216332E-01 
    5.0315257704063587E-01 
    4.6135363324184342E-01 
    4.2229504767965526E-01 
    3.8800401673562573E-01 
    3.5900785280857034E-01 
    3.4491835514119962E-01 
    8.4896040866124056E-01 
    8.3369661588368449E-01 
    8.0842497961587068E-01 
    7.7898838645601398E-01 
    7.4664388316802899E-01 
    7.1152529839987999E-01 
    6.7370671680881977E-01 
    6.3362747729263602E-01 
    5.9188017339374344E-01 
    5.4910073432650630E-01 
    5.0590569818034015E-01 
    4.6307179672023507E-01 
    4.2240947072102497E-01 
    3.8627642445578669E-01 
    3.5537093224968974E-01 
    3.4037893155979537E-01 
    8.4317463170023166E-01 
    8.3100542650298526E-01 
    8.0834173849347846E-01 
    7.8036833506877312E-01 
    7.4886489507698972E-01 
    7.1429914057157462E-01 
    6.7687327667744313E-01 
    6.3703441362456703E-01 
    5.9533081865953041E-01 
    5.5232033413008119E-01 
    5.0851344233627704E-01 
    4.6452047693936838E-01 
    4.2197725933795033E-01 
    3.8348761060826791E-01 
    3.5017323254038757E-01 
    3.3402127616683258E-01 
    8.3834681485287199E-01 
    8.2832402478729328E-01 
    8.0792525369381840E-01 
    7.8144520548059926E-01 
    7.5086914958153650E-01 
    7.1692143765037808E-01 
    6.7993221138157589E-01 
    6.4036557508030356E-01 
    5.9872648483390734E-01 
    5.5549250048537535E-01 
    5.1105536902372428E-01 
    4.6581932427370132E-01 
    4.2114795575161995E-01 
    3.7973216576652985E-01 
    3.4337401364634546E-01 
    3.2559236500323196E-01 
    8.3431536147665708E-01 
    8.2580005609212537E-01 
    8.0732493635055347E-01 
    7.8229722764458587E-01 
    7.5269665330865021E-01 
    7.1941739640701408E-01 
    6.8290662124694701E-01 
    6.4364776697258475E-01 
    6.0210275040714423E-01 
    5.5866997205109981E-01 
    5.1361406799886422E-01 
    4.6710027617886640E-01 
    4.2010585590503197E-01 
    3.7519383402913165E-01 
    3.3499899390811005E-01 
    3.1475886403031927E-01 
    8.3096286910715544E-01 
    8.2352094709065515E-01 
    8.0666282957243829E-01 
    7.8300453858037322E-01 
    7.5439304517247052E-01 
    7.2181484167860299E-01 
    6.8581551475672020E-01 
    6.4690287709417893E-01 
    6.0549394374704479E-01 
    5.6190462393287555E-01 
    5.1627405704631069E-01 
    4.6850381247466055E-01 
    4.1907002327123954E-01 
    3.7012064623106317E-01 
    3.2502711936639012E-01 
    3.0092507173886102E-01 
    8.2820446366209188E-01 
    8.2153901974818089E-01 
    8.0603615805221807E-01 
    7.8364501176286527E-01 
    7.5601091151419408E-01 
    7.2414589040999611E-01 
    6.8867949497492664E-01 
    6.5015162397232684E-01 
    6.0893125775992230E-01 
    5.6524476538758350E-01 
    5.1911517248077865E-01 
    4.7017402065111008E-01 
    4.1829039922761396E-01 
    3.6482920382951300E-01 
    3.1338997638850336E-01 
    2.8308945735345614E-01 
    8.2598411822019790E-01 
    8.1989251755349346E-01 
    8.0552835074480877E-01 
    7.8429617473168955E-01 
    7.5760939448709486E-01 
    7.2645194847621841E-01 
    6.9152445037869803E-01 
    6.5341601804106098E-01 
    6.1244229041822040E-01 
    5.6872735825059872E-01 
    5.2220309793044228E-01 
    4.7224539784834624E-01 
    4.1803918226075892E-01 
    3.5974269646595125E-01 
    3.0019758016401243E-01 
    2.6012419670011699E-01 
    8.2427460940627229E-01 
    8.1862309860232652E-01 
    8.0522032377155717E-01 
    7.8503726242699712E-01 
    7.5925550932386421E-01 
    7.2878478652847689E-01 
    6.9438265332802718E-01 
    6.5670983607124556E-01 
    6.1602846434712155E-01 
    5.7234456359477681E-01 
    5.2553890377950119E-01 
    4.7478083875331578E-01 
    4.1854592515934025E-01 
    3.5538799273804283E-01 
    2.8589890469224288E-01 
    2.3096733094286828E-01 
    8.2302728364807265E-01 
    8.1774620991727731E-01 
    8.0517037793864088E-01 
    7.8593088462118521E-01 
    7.6100072202363966E-01 
    7.3117927975859198E-01 
    6.9724694494085471E-01 
    6.5992429670509489E-01 
    6.1950810229952069E-01 
    5.7589690545348826E-01 
    5.2888097072581641E-01 
    4.7753775182463709E-01 
    4.1975969429613647E-01 
    3.5210345439524104E-01 
    2.7102110852089334E-01 
    1.9411783623040552E-01 
    8.2198835899195588E-01 
    8.1709197201590700E-01 
    8.0528829560996407E-01 
    7.8689214848190336E-01 
    7.6272723922900043E-01 
    7.3351557512867860E-01 
    7.0001789045560381E-01 
    6.6297373374535529E-01 
    6.2279832547251335E-01 
    5.7941072783020720E-01 
    5.3241671632150678E-01 
    4.8082839977237091E-01 
    4.2202982732572841E-01 
    3.5044005498651143E-01 
    2.5629628994925996E-01 
    1.4657722185895020E-01 
    8.2129029563748401E-01 
    8.1671991492222895E-01 
    8.0561085609978655E-01 
    7.8796114292200348E-01 
    7.6447499722474521E-01 
    7.3585800027295067E-01 
    7.0284443150826237E-01 
    6.6615858929239324E-01 
    6.2628158778301890E-01 
    5.8321273250232630E-01 
    5.3646048759671605E-01 
    4.8498116963780413E-01 
    4.2595732711288797E-01 
    3.5235073278080259E-01 
    2.4563057581613537E-01 
    8.3658089190897358E-02 
    8.2110434043548663E-01 
    8.1690957696277466E-01 
    8.0642608354163681E-01 
    7.8944060738520871E-01 
    7.6656730896099501E-01 
    7.3850539178876196E-01 
    7.0597186555109204E-01 
    6.6967602114595337E-01 
    6.3012049430839212E-01 
    5.8735282415479995E-01 
    5.4092633068330043E-01 
    4.8980672131576425E-01 
    4.3125204744309475E-01 
    3.5826830381774361E-01 
    2.4738593510253107E-01 
    0.0000000000000000E+00 

SCALARS Saturarion double 1 
LOOKUP_TABLE default 

    1.0000000000000016E+00 
    9.6594140526628192E-01 
    9.0720569766350490E-01 
    8.3535588702384911E-01 
    7.7439074582454370E-01 
    7.2390572007691945E-01 
    6.8270475744068160E-01 
    6.4820947296410625E-01 
    6.1780550642748755E-01 
    5.8967109501473614E-01 
    5.6261043996891924E-01 
    5.3576857577744108E-01 
    5.0379881366945800E-01 
    4.1390237404145214E-01 
    7.1626340274222197E-02 
    1.0000006681487272E-06 
    9.8599230895060974E-01 
    9.5372822786250022E-01 
    8.9224646289018217E-01 
    8.2579510750255414E-01 
    7.6910668285249950E-01 
    7.2063796902329269E-01 
    6.7986538027507470E-01 
    6.4532742160731404E-01 
    6.1520565334256994E-01 
    5.8773352246759192E-01 
    5.6159663307116026E-01 
    5.3568990215606194E-01 
    5.0482927561304813E-01 
    4.2149550453358470E-01 
    9.2847943917385933E-02 
    3.7403294061816481E-06 
    9.6398947235238364E-01 
    9.3274118252311811E-01 
    8.7191526495654892E-01 
    8.0969451968719364E-01 
    7.5832517866004800E-01 
    7.1345699210296654E-01 
    6.7395916781649001E-01 
    6.3949576244674600E-01 
    6.0967281073626289E-01 
    5.8324434732395769E-01 
    5.5871396311954613E-01 
    5.3441830686041258E-01 
    5.0571784073407777E-01 
    4.3171872113661491E-01 
    1.1843735985625953E-01 
    5.4620274959896223E-06 
    9.2540242400695494E-01 
    9.0045433128092434E-01 
    8.4727016299125657E-01 
    7.8975932717309627E-01 
    7.4158981371525601E-01 
    7.0115592234422486E-01 
    6.6506370875561471E-01 
    6.3280578443572644E-01 
    6.0423602129429355E-01 
    5.7890173477692342E-01 
    5.5553219285964650E-01 
    5.3272695090084521E-01 
    5.0679455723532552E-01 
    4.4191305450785107E-01 
    1.4933545108281518E-01 
    2.6134891361866598E-05 
    8.8250521170136742E-01 
    8.6152409525241880E-01 
    8.1572104780438481E-01 
    7.6504227842914785E-01 
    7.2094015079019125E-01 
    6.8400322945800185E-01 
    6.5202286420658273E-01 
    6.2344185389275664E-01 
    5.9760576951668076E-01 
    5.7410294510280868E-01 
    5.5229123626555443E-01 
    5.3118712101271970E-01 
    5.0750832460123485E-01 
    4.5123787918296260E-01 
    1.8246597478121424E-01 
    9.5367764762518704E-05 
    8.3816073587316642E-01 
    8.2128443902229076E-01 
    7.8311803962215965E-01 
    7.3920447090113617E-01 
    6.9921235871823195E-01 
    6.6492385771851914E-01 
    6.3560948980175969E-01 
    6.1029402429897139E-01 
    5.8757126382421032E-01 
    5.6657362084276408E-01 
    5.4692350400050282E-01 
    5.2810086975153958E-01 
    5.0752942477281571E-01 
    4.5857243334335707E-01 
    2.1788703756797861E-01 
    4.0465168974897561E-04 
    7.9259895493906807E-01 
    7.8060105758712994E-01 
    7.5024505284367471E-01 
    7.1243248248389757E-01 
    6.7651137495476277E-01 
    6.4511133731312775E-01 
    6.1834351078585181E-01 
    5.9515468223392898E-01 
    5.7481203346037413E-01 
    5.5642161732662598E-01 
    5.3946851067153434E-01 
    5.2326484801200923E-01 
    5.0598228009948165E-01 
    4.6526240720937923E-01 
    2.6219577666965527E-01 
    1.9390049317437564E-03 
    7.4589181978399344E-01 
    7.3889104214598644E-01 
    7.1645640867875293E-01 
    6.8481115610203969E-01 
    6.5273113872771071E-01 
    6.2409142485122637E-01 
    5.9923625476292541E-01 
    5.7796039580064995E-01 
    5.5978711494697575E-01 
    5.4409244387229105E-01 
    5.2989734524721699E-01 
    5.1663567724087889E-01 
    5.0287067498883742E-01 
    4.7083765560138363E-01 
    3.1241806957395130E-01 
    1.0436301092189614E-02 
    6.9810002382613190E-01 
    6.9547689516819822E-01 
    6.8008506340569530E-01 
    6.5496600209618649E-01 
    6.2761750918013004E-01 
    6.0180607099394667E-01 
    5.7860459426223354E-01 
    5.5841932487465273E-01 
    5.4191741669392535E-01 
    5.2863463023015578E-01 
    5.1760360724344212E-01 
    5.0770665726958109E-01 
    4.9779631051506018E-01 
    4.7446761744821397E-01 
    3.4893781154211068E-01 
    3.5862595397745146E-02 
    6.4933066351346136E-01 
    6.5044972247071375E-01 
    6.4127824087424123E-01 
    6.2229885278713992E-01 
    6.0010851765094186E-01 
    5.7788382279907313E-01 
    5.5667577009728531E-01 
    5.3801065784642765E-01 
    5.2317443082524351E-01 
    5.1158298120884815E-01 
    5.0237023284348592E-01 
    4.9567306708362652E-01 
    4.9034112257649209E-01 
    4.7527140991003824E-01 
    3.7795970484638031E-01 
    8.0524942303731833E-02 
    6.0055131132236206E-01 
    6.0461903972577191E-01 
    6.0094533357138369E-01 
    5.8768610212995864E-01 
    5.7039131041446911E-01 
    5.5232833629921718E-01 
    5.3478890508059929E-01 
    5.1819219653046678E-01 
    5.0377607659148937E-01 
    4.9182601527676539E-01 
    4.8280036082775213E-01 
    4.7818321015074400E-01 
    4.7813835330405563E-01 
    4.7239210679350846E-01 
    3.9889958875913045E-01 
    1.3135751700973697E-01 
    5.5468056784467157E-01 
    5.6062128868659711E-01 
    5.6131392692606774E-01 
    5.5249583831881910E-01 
    5.3864644806744322E-01 
    5.2440686683348592E-01 
    5.1043207919305011E-01 
    4.9469804101535081E-01 
    4.7711281753162260E-01 
    4.5896878573095823E-01 
    4.4396111176553710E-01 
    4.3833264386661253E-01 
    4.4763452576820983E-01 
    4.6012901597048428E-01 
    4.1568311277652475E-01 
    1.7907167834232321E-01 
    4.9562871204736364E-01 
    5.0758078615175595E-01 
    5.1339233592959521E-01 
    5.0981089584695016E-01 
    4.9724347962023541E-01 
    4.8233855740383791E-01 
    4.6516753828148005E-01 
    4.3368801077858327E-01 
    3.4852288325546710E-01 
    2.5872847961562101E-01 
    2.1228855176732625E-01 
    2.0991695214010242E-01 
    3.1071543075588759E-01 
    4.0607222494435519E-01 
    4.0650745343841882E-01 
    2.2240323052005706E-01 
    2.5813904599142873E-01 
    3.4696876054706566E-01 
    3.8748124712232979E-01 
    3.8664549370965817E-01 
    3.4207308314524404E-01 
    2.6308959871046927E-01 
    2.0793283254037517E-01 
    1.0685909799772407E-01 
    1.7062173383101262E-02 
    1.5549593422475613E-03 
    2.3683577281875145E-04 
    3.0716902297367547E-04 
    4.0410643762315721E-02 
    2.0880112588533672E-01 
    3.5698426370249442E-01 
    2.4533840458172279E-01 
    4.1471992429105718E-04 
    1.8864838152852288E-02 
    3.5365525163012779E-02 
    2.9080823592483443E-02 
    1.2328370636584955E-02 
    1.0933160865113315E-03 
    2.0504980096981801E-04 
    3.7814582520324045E-05 
    3.9052419688767207E-06 
    1.0336394424855001E-06 
    1.0028048232593496E-06 
    1.0021995736904671E-06 
    1.1942224777796661E-04 
    2.2214380743602061E-02 
    2.5472539939113259E-01 
    2.5280731422636643E-01 
    1.0000006211941084E-06 
    4.3415032118415702E-06 
    1.8643645068070283E-06 
    2.1448891299333793E-06 
    2.1854493513525676E-06 
    1.0130879008169781E-06 
    1.0006888960465209E-06 
    1.0000669865452195E-06 
    1.0000002912169652E-06 
    1.0000000019668062E-06 
    1.0000000000001177E-06 
    1.0000000001556679E-06 
    1.0010622265391085E-06 
    0.0000000000000000E+00 
    7.8295782533927050E-02 
    2.1780530387864039E-01 
