# vtk DataFile Version 2.0
Pressure Field Data 
ASCII 
DATASET UNSTRUCTURED_GRID 

POINTS 289 double 

    0.0000000000000000E+00     0.0000000000000000E+00     0.0000000000000000E+00 
    1.0000000000000000E+00     0.0000000000000000E+00     0.0000000000000000E+00 
    1.0000000000000000E+00     1.0000000000000000E+00     0.0000000000000000E+00 
    0.0000000000000000E+00     1.0000000000000000E+00     0.0000000000000000E+00 
    6.2499999999872928E-02     0.0000000000000000E+00     0.0000000000000000E+00 
    1.2499999999977310E-01     0.0000000000000000E+00     0.0000000000000000E+00 
    1.8749999999959341E-01     0.0000000000000000E+00     0.0000000000000000E+00 
    2.4999999999941089E-01     0.0000000000000000E+00     0.0000000000000000E+00 
    3.1249999999922851E-01     0.0000000000000000E+00     0.0000000000000000E+00 
    3.7499999999904610E-01     0.0000000000000000E+00     0.0000000000000000E+00 
    4.3749999999886358E-01     0.0000000000000000E+00     0.0000000000000000E+00 
    4.9999999999869210E-01     0.0000000000000000E+00     0.0000000000000000E+00 
    5.6249999999884603E-01     0.0000000000000000E+00     0.0000000000000000E+00 
    6.2499999999901090E-01     0.0000000000000000E+00     0.0000000000000000E+00 
    6.8749999999917577E-01     0.0000000000000000E+00     0.0000000000000000E+00 
    7.4999999999934064E-01     0.0000000000000000E+00     0.0000000000000000E+00 
    8.1249999999950551E-01     0.0000000000000000E+00     0.0000000000000000E+00 
    8.7499999999967026E-01     0.0000000000000000E+00     0.0000000000000000E+00 
    9.3749999999983513E-01     0.0000000000000000E+00     0.0000000000000000E+00 
    1.0000000000000000E+00     6.2499999999872928E-02     0.0000000000000000E+00 
    1.0000000000000000E+00     1.2499999999977310E-01     0.0000000000000000E+00 
    1.0000000000000000E+00     1.8749999999959341E-01     0.0000000000000000E+00 
    1.0000000000000000E+00     2.4999999999941089E-01     0.0000000000000000E+00 
    1.0000000000000000E+00     3.1249999999922851E-01     0.0000000000000000E+00 
    1.0000000000000000E+00     3.7499999999904610E-01     0.0000000000000000E+00 
    1.0000000000000000E+00     4.3749999999886358E-01     0.0000000000000000E+00 
    1.0000000000000000E+00     4.9999999999869210E-01     0.0000000000000000E+00 
    1.0000000000000000E+00     5.6249999999884603E-01     0.0000000000000000E+00 
    1.0000000000000000E+00     6.2499999999901090E-01     0.0000000000000000E+00 
    1.0000000000000000E+00     6.8749999999917577E-01     0.0000000000000000E+00 
    1.0000000000000000E+00     7.4999999999934064E-01     0.0000000000000000E+00 
    1.0000000000000000E+00     8.1249999999950551E-01     0.0000000000000000E+00 
    1.0000000000000000E+00     8.7499999999967026E-01     0.0000000000000000E+00 
    1.0000000000000000E+00     9.3749999999983513E-01     0.0000000000000000E+00 
    9.3749999999973976E-01     1.0000000000000000E+00     0.0000000000000000E+00 
    8.7499999999950118E-01     1.0000000000000000E+00     0.0000000000000000E+00 
    8.1249999999991318E-01     1.0000000000000000E+00     0.0000000000000000E+00 
    7.5000000000034706E-01     1.0000000000000000E+00     0.0000000000000000E+00 
    6.8750000000078049E-01     1.0000000000000000E+00     0.0000000000000000E+00 
    6.2500000000121403E-01     1.0000000000000000E+00     0.0000000000000000E+00 
    5.6250000000164757E-01     1.0000000000000000E+00     0.0000000000000000E+00 
    5.0000000000205946E-01     1.0000000000000000E+00     0.0000000000000000E+00 
    4.3750000000182099E-01     1.0000000000000000E+00     0.0000000000000000E+00 
    3.7500000000156092E-01     1.0000000000000000E+00     0.0000000000000000E+00 
    3.1250000000130068E-01     1.0000000000000000E+00     0.0000000000000000E+00 
    2.5000000000104050E-01     1.0000000000000000E+00     0.0000000000000000E+00 
    1.8750000000078040E-01     1.0000000000000000E+00     0.0000000000000000E+00 
    1.2500000000052031E-01     1.0000000000000000E+00     0.0000000000000000E+00 
    6.2500000000260125E-02     1.0000000000000000E+00     0.0000000000000000E+00 
    0.0000000000000000E+00     9.3749999999973976E-01     0.0000000000000000E+00 
    0.0000000000000000E+00     8.7499999999950118E-01     0.0000000000000000E+00 
    0.0000000000000000E+00     8.1249999999991318E-01     0.0000000000000000E+00 
    0.0000000000000000E+00     7.5000000000034706E-01     0.0000000000000000E+00 
    0.0000000000000000E+00     6.8750000000078049E-01     0.0000000000000000E+00 
    0.0000000000000000E+00     6.2500000000121403E-01     0.0000000000000000E+00 
    0.0000000000000000E+00     5.6250000000164757E-01     0.0000000000000000E+00 
    0.0000000000000000E+00     5.0000000000205946E-01     0.0000000000000000E+00 
    0.0000000000000000E+00     4.3750000000182099E-01     0.0000000000000000E+00 
    0.0000000000000000E+00     3.7500000000156092E-01     0.0000000000000000E+00 
    0.0000000000000000E+00     3.1250000000130068E-01     0.0000000000000000E+00 
    0.0000000000000000E+00     2.5000000000104050E-01     0.0000000000000000E+00 
    0.0000000000000000E+00     1.8750000000078040E-01     0.0000000000000000E+00 
    0.0000000000000000E+00     1.2500000000052031E-01     0.0000000000000000E+00 
    0.0000000000000000E+00     6.2500000000260125E-02     0.0000000000000000E+00 
    6.2499999999897131E-02     6.2500000000235922E-02     0.0000000000000000E+00 
    6.2499999999921327E-02     1.2500000000047351E-01     0.0000000000000000E+00 
    6.2499999999945530E-02     1.8750000000070621E-01     0.0000000000000000E+00 
    6.2499999999969733E-02     2.5000000000093858E-01     0.0000000000000000E+00 
    6.2499999999993928E-02     3.1250000000117117E-01     0.0000000000000000E+00 
    6.2500000000018124E-02     3.7500000000140382E-01     0.0000000000000000E+00 
    6.2500000000042327E-02     4.3750000000163619E-01     0.0000000000000000E+00 
    6.2500000000066530E-02     5.0000000000184897E-01     0.0000000000000000E+00 
    6.2500000000090733E-02     5.6250000000147260E-01     0.0000000000000000E+00 
    6.2500000000114922E-02     6.2500000000107636E-01     0.0000000000000000E+00 
    6.2500000000139125E-02     6.8750000000068034E-01     0.0000000000000000E+00 
    6.2500000000163328E-02     7.5000000000028411E-01     0.0000000000000000E+00 
    6.2500000000187531E-02     8.1249999999988787E-01     0.0000000000000000E+00 
    6.2500000000211720E-02     8.7499999999951172E-01     0.0000000000000000E+00 
    6.2500000000235922E-02     9.3749999999974565E-01     0.0000000000000000E+00 
    1.2499999999981980E-01     6.2500000000211733E-02     0.0000000000000000E+00 
    1.2499999999986650E-01     1.2500000000042691E-01     0.0000000000000000E+00 
    1.2499999999991319E-01     1.8750000000063199E-01     0.0000000000000000E+00 
    1.2499999999995989E-01     2.5000000000083678E-01     0.0000000000000000E+00 
    1.2500000000000661E-01     3.1250000000104172E-01     0.0000000000000000E+00 
    1.2500000000005329E-01     3.7500000000124661E-01     0.0000000000000000E+00 
    1.2500000000010000E-01     4.3750000000145117E-01     0.0000000000000000E+00 
    1.2500000000014669E-01     5.0000000000163858E-01     0.0000000000000000E+00 
    1.2500000000019340E-01     5.6250000000129741E-01     0.0000000000000000E+00 
    1.2500000000024011E-01     6.2500000000093847E-01     0.0000000000000000E+00 
    1.2500000000028680E-01     6.8750000000057998E-01     0.0000000000000000E+00 
    1.2500000000033351E-01     7.5000000000022127E-01     0.0000000000000000E+00 
    1.2500000000038020E-01     8.1249999999986211E-01     0.0000000000000000E+00 
    1.2500000000042691E-01     8.7499999999952238E-01     0.0000000000000000E+00 
    1.2500000000047359E-01     9.3749999999975164E-01     0.0000000000000000E+00 
    1.8749999999966760E-01     6.2500000000187531E-02     0.0000000000000000E+00 
    1.8749999999974179E-01     1.2500000000038020E-01     0.0000000000000000E+00 
    1.8749999999981601E-01     1.8750000000055780E-01     0.0000000000000000E+00 
    1.8749999999989009E-01     2.5000000000073502E-01     0.0000000000000000E+00 
    1.8749999999996431E-01     3.1250000000091221E-01     0.0000000000000000E+00 
    1.8750000000003850E-01     3.7500000000108941E-01     0.0000000000000000E+00 
    1.8750000000011269E-01     4.3750000000126649E-01     0.0000000000000000E+00 
    1.8750000000018691E-01     5.0000000000142808E-01     0.0000000000000000E+00 
    1.8750000000026110E-01     5.6250000000112244E-01     0.0000000000000000E+00 
    1.8750000000033529E-01     6.2500000000080080E-01     0.0000000000000000E+00 
    1.8750000000040951E-01     6.8750000000047962E-01     0.0000000000000000E+00 
    1.8750000000048361E-01     7.5000000000015843E-01     0.0000000000000000E+00 
    1.8750000000055780E-01     8.1249999999983680E-01     0.0000000000000000E+00 
    1.8750000000063199E-01     8.7499999999953304E-01     0.0000000000000000E+00 
    1.8750000000070621E-01     9.3749999999975764E-01     0.0000000000000000E+00 
    2.4999999999951281E-01     6.2500000000163314E-02     0.0000000000000000E+00 
    2.4999999999961461E-01     1.2500000000033351E-01     0.0000000000000000E+00 
    2.4999999999971650E-01     1.8750000000048361E-01     0.0000000000000000E+00 
    2.4999999999981831E-01     2.5000000000063310E-01     0.0000000000000000E+00 
    2.4999999999992020E-01     3.1250000000078260E-01     0.0000000000000000E+00 
    2.5000000000002198E-01     3.7500000000093209E-01     0.0000000000000000E+00 
    2.5000000000012390E-01     4.3750000000108180E-01     0.0000000000000000E+00 
    2.5000000000022571E-01     5.0000000000121769E-01     0.0000000000000000E+00 
    2.5000000000032763E-01     5.6250000000094724E-01     0.0000000000000000E+00 
    2.5000000000042938E-01     6.2500000000066314E-01     0.0000000000000000E+00 
    2.5000000000053119E-01     6.8750000000037925E-01     0.0000000000000000E+00 
[...]
CELL_DATA 256 
SCALARS Pressure double 1 
LOOKUP_TABLE default 

    7.8519185231056154E-01 
    7.3431988456143060E-01 
    7.0093530209968780E-01 
    6.7002071809142483E-01 
    6.3811822102766469E-01 
    6.0433947636378438E-01 
    5.6855678084221417E-01 
    5.3117815204452079E-01 
    4.9281495938484104E-01 
    4.5417304652577589E-01 
    4.1602168415419344E-01 
    3.7950765818123933E-01 
    3.4669319519312874E-01 
    3.2047702664975342E-01 
    3.0209437470525397E-01 
    2.9314403450318754E-01 
    7.7123576457794396E-01 
    7.3570831361809685E-01 
    7.0347567543944356E-01 
    6.7283885739651894E-01 
    6.4118595995476746E-01 
    6.0764751757065150E-01 
    5.7206420178271056E-01 
    5.3481321468859511E-01 
    4.9648352737747453E-01 
    4.5776281831882121E-01 
    4.1938408018717233E-01 
    3.8241463049357999E-01 
    3.4884166613530143E-01 
    3.2164014380080530E-01 
    3.0236946718265190E-01 
    2.9275724465831449E-01 
    7.6052398944252986E-01 
    7.3493090416763551E-01 
    7.0523026470693739E-01 
    6.7528327660796439E-01 
    6.4400992658498912E-01 
    6.1077017504622111E-01 
    5.7542257513887796E-01 
    5.3831727074700786E-01 
    5.0001020952552377E-01 
    4.6115152362949186E-01 
    4.2242948740969594E-01 
    3.8482645319436809E-01 
    3.5025751352518480E-01 
    3.2180293679852712E-01 
    3.0152557688006276E-01 
    2.9135204660992714E-01 
    7.5207143774002327E-01 
    7.3303825825065316E-01 
    7.0623781866605539E-01 
    6.7733687488061045E-01 
    6.4659219456198092E-01 
    6.1371648553244829E-01 
    5.7863938275423143E-01 
    5.4169831914085131E-01 
    5.0341123510906149E-01 
    4.6437539841387404E-01 
    4.2521902929388894E-01 
    3.8682399821042612E-01 
    3.5101989942695005E-01 
    3.2100447404156490E-01 
    2.9947516776864436E-01 
    2.8869142702684264E-01 
    7.4522447279661674E-01 
    7.3061378085504514E-01 
    7.0662972801103641E-01 
    6.7901021348248369E-01 
    6.4893671137924624E-01 
    6.1649732335249496E-01 
    5.8172866170124404E-01 
    5.4497222610506324E-01 
    5.0670929540629572E-01 
    4.6747462046164834E-01 
    4.2781827148093493E-01 
    3.8849767019506098E-01 
    3.5122304624537942E-01 
    3.1929301941540034E-01 
    2.9612995207549969E-01 
    2.8453297763505569E-01 
    7.3960233840465883E-01 
    7.2800890673722296E-01 
    7.0656047409184564E-01 
    6.8034020632079639E-01 
    6.5105469514895931E-01 
    6.1912349141833511E-01 
    5.8470726394503214E-01 
    5.4816090963695641E-01 
    5.0993292291528014E-01 
    4.7049306594367185E-01 
    4.3029540046306969E-01 
    3.8994573799058063E-01 
    3.5097800947049357E-01 
    3.1673383364441526E-01 
    2.9141278714266799E-01 
    2.7864042300083675E-01 
    7.3495827996096874E-01 
    7.2544526926860364E-01 
    7.0618713936788213E-01 
    6.8138867168466533E-01 
    6.5297052786449838E-01 
    6.2160956680753132E-01 
    5.8758964607599695E-01 
    5.5128623771011520E-01 
    5.1311467704668690E-01 
    4.7347732607745813E-01 
    4.3272281049862199E-01 
    3.9127427573433099E-01 
    3.5041644585699888E-01 
    3.1342473473750604E-01 
    2.8527020714954576E-01 
    2.7076241305809179E-01 
    7.3111807143150009E-01 
    7.2305795649048521E-01 
    7.0565012274487182E-01 
    6.8222842502843140E-01 
    6.5471987948784049E-01 
    6.2397522890513268E-01 
    5.9039147987320839E-01 
    5.5436666454981764E-01 
    5.1628245570163300E-01 
    4.7647335369587845E-01 
    4.3517472519923206E-01 
    3.9259940905282292E-01 
    3.4969411162570663E-01 
    3.0950297219194350E-01 
    2.7767578198507009E-01 
    2.6061296560133029E-01 
    7.2795544095026554E-01 
    7.2092504647466249E-01 
    7.0506412995492518E-01 
    6.8293359301983814E-01 
    6.5634301161513431E-01 
    6.2624407827699846E-01 
    5.9312809541484779E-01 
    5.5741707885425174E-01 
    5.1945905632844303E-01 
    4.7952100979219014E-01 
    4.3772389403490042E-01 
    3.9404478500326723E-01 
    3.4899569583486717E-01 
    3.0516184306865379E-01 
    2.6864174525469581E-01 
    2.4784368365823048E-01 
    7.2537810324559249E-01 
    7.1909085573219789E-01 
    7.0451905165848971E-01 
    6.8357427452065966E-01 
    6.5788473326143349E-01 
    6.2844353853207380E-01 
    5.9581753841534213E-01 
    5.6045192204222516E-01 
    5.2266243367527709E-01 
    4.8265272854489438E-01 
    4.4043565389113210E-01 
    3.9573652027022060E-01 
    3.4853441471120838E-01 
    3.0066797737883977E-01 
    2.5823841425130573E-01 
    2.3198379225517204E-01 
    7.2331876121540184E-01 
    7.1758222008594941E-01 
    7.0408766687872348E-01 
    6.8421717511494806E-01 
    6.5939337956927835E-01 
    6.3060674875214073E-01 
    5.9848150125877697E-01 
    5.6348912902714066E-01 
    5.2591258280035980E-01 
    4.8589708933473658E-01 
    4.4336675784934909E-01 
    3.9779735543281991E-01 
    3.4855073645788598E-01 
    2.9638525510276054E-01 
    2.4665442839318200E-01 
    2.1241401138984400E-01 
    7.2173083892193279E-01 
    7.1642094247627441E-01 
    7.0383532000477289E-01 
    6.8492976458337551E-01 
    6.6092360840184428E-01 
    6.3277359499560071E-01 
    6.0114942501743840E-01 
    5.6655362480140192E-01 
    5.2923206067978590E-01 
    4.8927582141735354E-01 
    4.4655456943198174E-01 
    4.0032945432838840E-01 
    3.4929900603767666E-01 
    2.9279631540651013E-01 
    2.3428178904286040E-01 
    1.8829763596283630E-01 
    7.2058919868809190E-01 
    7.1563663352700257E-01 
    7.0382875337958672E-01 
    6.8578223645415826E-01 
    6.6253198938713498E-01 
    6.3498523441400401E-01 
    6.0385038910954314E-01 
    5.6966863251274547E-01 
    5.3263573801806896E-01 
    4.9278319478831312E-01 
    4.4998153260469892E-01 
    4.0335390334036275E-01 
    3.5096335432610665E-01 
    2.9044514842074087E-01 
    2.2178803795591936E-01 
    1.5838014845430712E-01 
    7.1979532186773310E-01 
    7.1519680082630788E-01 
    7.0409023928695258E-01 
    6.8681257047294519E-01 
    6.6424419235688914E-01 
    6.3723651452828289E-01 
    6.0653380139958202E-01 
    5.7274216129022670E-01 
    5.3600964247431293E-01 
    4.9628572948953958E-01 
    4.5346280595432986E-01 
    4.0662242031603474E-01 
    3.5341866029456948E-01 
    2.8969060168664723E-01 
    2.1010753938194651E-01 
    1.2046011031841924E-01 
    7.1922887932843960E-01 
    7.1495636250226680E-01 
    7.0449506263320594E-01 
    6.8792773882176184E-01 
    6.6599217000820166E-01 
    6.3948393461273323E-01 
    6.0917203335660619E-01 
    5.7573324933542014E-01 
    5.3932049854141006E-01 
    4.9983013271835408E-01 
    4.5714606802011759E-01 
    4.1036751815794248E-01 
    3.5702060776021316E-01 
    2.9142846645416759E-01 
    2.0122990074586303E-01 
    7.0351994284195196E-02 
    7.1904445496112890E-01 
    7.1511510961305813E-01 
    7.0524449540133338E-01 
    6.8931226372456533E-01 
    6.6795146845453246E-01 
    6.4192414108429874E-01 
    6.1200238532710249E-01 
    5.7889579024175086E-01 
    5.4280434504240915E-01 
    5.0362470339422860E-01 
    4.6123274006097359E-01 
    4.1477988983394914E-01 
    3.6191535532804037E-01 
    2.9673403726938125E-01 
    2.0134885758973739E-01 
    0.0000000000000000E+00 

SCALARS Saturarion double 1 
LOOKUP_TABLE default 

    1.0000000000000009E+00 
    9.7125486735677102E-01 
    9.2010583542711089E-01 
    8.5561928484679461E-01 
    8.0094293919790416E-01 
    7.5398877053454627E-01 
    7.1450017237844510E-01 
    6.8109869898891817E-01 
    6.5199317189724071E-01 
    6.2555583499366652E-01 
    6.0027088411852814E-01 
    5.7475162404300184E-01 
    5.4756169364860308E-01 
    5.1314822507529556E-01 
    3.8321350401843968E-01 
    1.8661491689441003E-02 
    9.8864910219692703E-01 
    9.6139783840201509E-01 
    9.0785173141369790E-01 
    8.4711544704702402E-01 
    7.9545714052125072E-01 
    7.5058039458237646E-01 
    7.1197262922656657E-01 
    6.7878685674845896E-01 
    6.4984717131463265E-01 
    6.2377485553167078E-01 
    5.9924952226272432E-01 
    5.7479653628979832E-01 
    5.4869843787723138E-01 
    5.1561287298515612E-01 
    3.9814655288489226E-01 
    3.5340131134237431E-02 
    9.7079735142775203E-01 
    9.4393240856539262E-01 
    8.9058464971351703E-01 
    8.3259742225338529E-01 
    7.8461691945180989E-01 
    7.4326642933109088E-01 
    7.0665904312824190E-01 
    6.7405491686112751E-01 
    6.4521614703364571E-01 
    6.1951050757128256E-01 
    5.9604372422431096E-01 
    5.7324659599777250E-01 
    5.4908428483390470E-01 
    5.1842770707031005E-01 
    4.1563259975992045E-01 
    6.2302001246888228E-02 
    9.3951521436382257E-01 
    9.1737092333884052E-01 
    8.6977724440990378E-01 
    8.1614867408061453E-01 
    7.6975715429959846E-01 
    7.3123265449576935E-01 
    6.9748829347114183E-01 
    6.6712041925294252E-01 
    6.3966380248144294E-01 
    6.1503628409329969E-01 
    5.9255818381067371E-01 
    5.7113527997534919E-01 
    5.4888171905965699E-01 
    5.2139537361287869E-01 
    4.3203548973142158E-01 
    1.0138710449118182E-01 
    9.0276875941704759E-01 
    8.8390492576456881E-01 
    8.4227492722101149E-01 
    7.9438647453746791E-01 
    7.5109321479441327E-01 
    7.1474817799407142E-01 
    6.8380114661614688E-01 
    6.5643986634949036E-01 
    6.3175770383004803E-01 
    6.0933183471093266E-01 
    5.8870615034202167E-01 
    5.6895977800750441E-01 
    5.4844406784605026E-01 
    5.2355420385951379E-01 
    4.4519773057147705E-01 
    1.3667696995334938E-01 
    8.6360574071800300E-01 
    8.4817654110928142E-01 
    8.1264630468090648E-01 
    7.7039000743708674E-01 
    7.3096561684200612E-01 
    6.9674822474040543E-01 
    6.6736001713585436E-01 
    6.4227337172232823E-01 
    6.2039774640094825E-01 
    6.0075066752221240E-01 
    5.8268893149059831E-01 
    5.6556520585103642E-01 
    5.4766500414933683E-01 
    5.2545880819367841E-01 
    4.5693124697733289E-01 
    1.7028257465960925E-01 
    8.2234906439693434E-01 
    8.1103733973576819E-01 
    7.8206873949936029E-01 
    7.4529711763568873E-01 
    7.0977625838011060E-01 
    6.7810867079501180E-01 
    6.5067204382020982E-01 
    6.2695930060785532E-01 
    6.0673909190369102E-01 
    5.8935742472847918E-01 
    5.7408151789051787E-01 
    5.6000245540245108E-01 
    5.4561524237841708E-01 
    5.2716171136624035E-01 
    4.6760685884841502E-01 
    2.0345882677608246E-01 
    7.7901206812199830E-01 
    7.7217143485810735E-01 
    7.5030170636708959E-01 
    7.1924112473376367E-01 
    6.8723651118043949E-01 
    6.5808238433918775E-01 
    6.3244547181709787E-01 
    6.1034710884189936E-01 
    5.9148187650865136E-01 
    5.7579993950481867E-01 
    5.6293982048686730E-01 
    5.5211722354896997E-01 
    5.4162302767730264E-01 
    5.2776884967895221E-01 
    4.7773120240416483E-01 
    2.3636117079853861E-01 
    7.3382304589173253E-01 
    7.3107363200257602E-01 
    7.1574269239029620E-01 
    6.9064144075048772E-01 
    6.6288428685582579E-01 
    6.3646780183751550E-01 
    6.1279108276843830E-01 
    5.9186327060861466E-01 
    5.7384145182552304E-01 
    5.5921353388288353E-01 
    5.4845494083768476E-01 
    5.4112731364841882E-01 
    5.3522437360252995E-01 
    5.2671874903150040E-01 
    4.8688138259088126E-01 
    2.6599764303748091E-01 
    6.8674885491086424E-01 
    6.8764151318618894E-01 
    6.7816188738560534E-01 
    6.5863129074992544E-01 
    6.3550765174205870E-01 
    6.1248779250204977E-01 
    5.9094152475226436E-01 
    5.7155700807028276E-01 
    5.5467310316441643E-01 
    5.4104848408588657E-01 
    5.3141797096371668E-01 
    5.2640890206882818E-01 
    5.2529770394886699E-01 
    5.2332584293874884E-01 
    4.9433145500613102E-01 
    2.9377782034943056E-01 
    6.3767157998843205E-01 
    6.4173745988833619E-01 
    6.3754822109510989E-01 
    6.2326032773598905E-01 
    6.0489269817874536E-01 
    5.8585393880379311E-01 
    5.6748542317761541E-01 
    5.5020649110203046E-01 
    5.3501906484008965E-01 
    5.2265570398042316E-01 
    5.1370533080674063E-01 
    5.0923307775353377E-01 
    5.1107845022976672E-01 
    5.1634100320171661E-01 
    4.9977616623178539E-01 
    3.2109819034979453E-01 
    5.8740663051038255E-01 
    5.9387041960686981E-01 
    5.9468559128401366E-01 
    5.8576016514627505E-01 
    5.7182419779234150E-01 
    5.5615196718755078E-01 
    5.4084712436624482E-01 
    5.2705864198755403E-01 
    5.1445500360547936E-01 
    5.0293626136449410E-01 
    4.9370414109958094E-01 
    4.8896217072812331E-01 
    4.9228458571112749E-01 
    5.0414844942070969E-01 
    5.0159072482764189E-01 
    3.4759210802445706E-01 
    5.3853814950639445E-01 
    5.4700240793075117E-01 
    5.5125432310081279E-01 
    5.4651840609431002E-01 
    5.3595640346111761E-01 
    5.2237635016421580E-01 
    5.0899380326969057E-01 
    4.9640686917881938E-01 
    4.8321365217794948E-01 
    4.7004591385331718E-01 
    4.5540127863957142E-01 
    4.4661687760557589E-01 
    4.5302883721730181E-01 
    4.7821398763042872E-01 
    4.9414011814352060E-01 
    3.7151474186075711E-01 
    4.3444830464019601E-01 
    4.6109313663888019E-01 
    4.7935606028953109E-01 
    4.8214842789880857E-01 
    4.7395384166414661E-01 
    4.5590932833625308E-01 
    4.2690575428244326E-01 
    3.7991493064073650E-01 
    3.0902495206921926E-01 
    2.2636974488246045E-01 
    1.9305024780936186E-01 
    1.8714888236673224E-01 
    2.4754839360471995E-01 
    3.8596543356602758E-01 
    4.6400234980868948E-01 
    3.8725469152938130E-01 
    7.1875320320246003E-02 
    1.5026660665592315E-01 
    1.8587699530121971E-01 
    2.0018168000797176E-01 
    1.8477082822222587E-01 
    1.3711968201501390E-01 
    6.8090474867140788E-02 
    1.7714581180986032E-02 
    6.1419179177859395E-03 
    6.4537998740922444E-04 
    8.9175170174767655E-05 
    3.9904790741748917E-05 
    1.2428225132861064E-02 
    1.2026803986304624E-01 
    3.7016979411028950E-01 
    3.9111996234116875E-01 
    1.0007644775206237E-06 
    7.1951112250886635E-05 
    4.5937734691053448E-05 
    4.6409807345683361E-06 
    8.1266175780970960E-05 
    1.6738913132016524E-05 
    9.7013614409386013E-06 
    2.1614471226184762E-06 
    1.0613494480760129E-06 
    1.0033789248359230E-06 
    1.0000887320574483E-06 
    1.0000857693241048E-06 
    1.2015505821010671E-05 
    6.9165410706647813E-03 
    2.1631289587148775E-01 
    3.4851490037509858E-01 
