# vtk DataFile Version 2.0
Pressure Field Data 
ASCII 
DATASET UNSTRUCTURED_GRID 

POINTS 289 double 

    0.0000000000000000E+00     0.0000000000000000E+00     0.0000000000000000E+00 
    1.0000000000000000E+00     0.0000000000000000E+00     0.0000000000000000E+00 
    1.0000000000000000E+00     1.0000000000000000E+00     0.0000000000000000E+00 
    0.0000000000000000E+00     1.0000000000000000E+00     0.0000000000000000E+00 
    6.2499999999872928E-02     0.0000000000000000E+00     0.0000000000000000E+00 
    1.2499999999977310E-01     0.0000000000000000E+00     0.0000000000000000E+00 
    1.8749999999959341E-01     0.0000000000000000E+00     0.0000000000000000E+00 
    2.4999999999941089E-01     0.0000000000000000E+00     0.0000000000000000E+00 
    3.1249999999922851E-01     0.0000000000000000E+00     0.0000000000000000E+00 
    3.7499999999904610E-01     0.0000000000000000E+00     0.0000000000000000E+00 
    4.3749999999886358E-01     0.0000000000000000E+00     0.0000000000000000E+00 
    4.9999999999869210E-01     0.0000000000000000E+00     0.0000000000000000E+00 
    5.6249999999884603E-01     0.0000000000000000E+00     0.0000000000000000E+00 
    6.2499999999901090E-01     0.0000000000000000E+00     0.0000000000000000E+00 
    6.8749999999917577E-01     0.0000000000000000E+00     0.0000000000000000E+00 
    7.4999999999934064E-01     0.0000000000000000E+00     0.0000000000000000E+00 
    8.1249999999950551E-01     0.0000000000000000E+00     0.0000000000000000E+00 
    8.7499999999967026E-01     0.0000000000000000E+00     0.0000000000000000E+00 
    9.3749999999983513E-01     0.0000000000000000E+00     0.0000000000000000E+00 
    1.0000000000000000E+00     6.2499999999872928E-02     0.0000000000000000E+00 
    1.0000000000000000E+00     1.2499999999977310E-01     0.0000000000000000E+00 
    1.0000000000000000E+00     1.8749999999959341E-01     0.0000000000000000E+00 
    1.0000000000000000E+00     2.4999999999941089E-01     0.0000000000000000E+00 
    1.0000000000000000E+00     3.1249999999922851E-01     0.0000000000000000E+00 
    1.0000000000000000E+00     3.7499999999904610E-01     0.0000000000000000E+00 
    1.0000000000000000E+00     4.3749999999886358E-01     0.0000000000000000E+00 
    1.0000000000000000E+00     4.9999999999869210E-01     0.0000000000000000E+00 
    1.0000000000000000E+00     5.6249999999884603E-01     0.0000000000000000E+00 
    1.0000000000000000E+00     6.2499999999901090E-01     0.0000000000000000E+00 
    1.0000000000000000E+00     6.8749999999917577E-01     0.0000000000000000E+00 
    1.0000000000000000E+00     7.4999999999934064E-01     0.0000000000000000E+00 
    1.0000000000000000E+00     8.1249999999950551E-01     0.0000000000000000E+00 
    1.0000000000000000E+00     8.7499999999967026E-01     0.0000000000000000E+00 
    1.0000000000000000E+00     9.3749999999983513E-01     0.0000000000000000E+00 
    9.3749999999973976E-01     1.0000000000000000E+00     0.0000000000000000E+00 
    8.7499999999950118E-01     1.0000000000000000E+00     0.0000000000000000E+00 
    8.1249999999991318E-01     1.0000000000000000E+00     0.0000000000000000E+00 
    7.5000000000034706E-01     1.0000000000000000E+00     0.0000000000000000E+00 
    6.8750000000078049E-01     1.0000000000000000E+00     0.0000000000000000E+00 
    6.2500000000121403E-01     1.0000000000000000E+00     0.0000000000000000E+00 
    5.6250000000164757E-01     1.0000000000000000E+00     0.0000000000000000E+00 
    5.0000000000205946E-01     1.0000000000000000E+00     0.0000000000000000E+00 
    4.3750000000182099E-01     1.0000000000000000E+00     0.0000000000000000E+00 
    3.7500000000156092E-01     1.0000000000000000E+00     0.0000000000000000E+00 
    3.1250000000130068E-01     1.0000000000000000E+00     0.0000000000000000E+00 
    2.5000000000104050E-01     1.0000000000000000E+00     0.0000000000000000E+00 
    1.8750000000078040E-01     1.0000000000000000E+00     0.0000000000000000E+00 
    1.2500000000052031E-01     1.0000000000000000E+00     0.0000000000000000E+00 
    6.2500000000260125E-02     1.0000000000000000E+00     0.0000000000000000E+00 
    0.0000000000000000E+00     9.3749999999973976E-01     0.0000000000000000E+00 
    0.0000000000000000E+00     8.7499999999950118E-01     0.0000000000000000E+00 
    0.0000000000000000E+00     8.1249999999991318E-01     0.0000000000000000E+00 
    0.0000000000000000E+00     7.5000000000034706E-01     0.0000000000000000E+00 
    0.0000000000000000E+00     6.8750000000078049E-01     0.0000000000000000E+00 
    0.0000000000000000E+00     6.2500000000121403E-01     0.0000000000000000E+00 
    0.0000000000000000E+00     5.6250000000164757E-01     0.0000000000000000E+00 
    0.0000000000000000E+00     5.0000000000205946E-01     0.0000000000000000E+00 
    0.0000000000000000E+00     4.3750000000182099E-01     0.0000000000000000E+00 
    0.0000000000000000E+00     3.7500000000156092E-01     0.0000000000000000E+00 
    0.0000000000000000E+00     3.1250000000130068E-01     0.0000000000000000E+00 
    0.0000000000000000E+00     2.5000000000104050E-01     0.0000000000000000E+00 
    0.0000000000000000E+00     1.8750000000078040E-01     0.0000000000000000E+00 
    0.0000000000000000E+00     1.2500000000052031E-01     0.0000000000000000E+00 
    0.0000000000000000E+00     6.2500000000260125E-02     0.0000000000000000E+00 
    6.2499999999897131E-02     6.2500000000235922E-02     0.0000000000000000E+00 
    6.2499999999921327E-02     1.2500000000047351E-01     0.0000000000000000E+00 
    6.2499999999945530E-02     1.8750000000070621E-01     0.0000000000000000E+00 
    6.2499999999969733E-02     2.5000000000093858E-01     0.0000000000000000E+00 
    6.2499999999993928E-02     3.1250000000117117E-01     0.0000000000000000E+00 
    6.2500000000018124E-02     3.7500000000140382E-01     0.0000000000000000E+00 
    6.2500000000042327E-02     4.3750000000163619E-01     0.0000000000000000E+00 
    6.2500000000066530E-02     5.0000000000184897E-01     0.0000000000000000E+00 
    6.2500000000090733E-02     5.6250000000147260E-01     0.0000000000000000E+00 
    6.2500000000114922E-02     6.2500000000107636E-01     0.0000000000000000E+00 
    6.2500000000139125E-02     6.8750000000068034E-01     0.0000000000000000E+00 
    6.2500000000163328E-02     7.5000000000028411E-01     0.0000000000000000E+00 
    6.2500000000187531E-02     8.1249999999988787E-01     0.0000000000000000E+00 
    6.2500000000211720E-02     8.7499999999951172E-01     0.0000000000000000E+00 
    6.2500000000235922E-02     9.3749999999974565E-01     0.0000000000000000E+00 
    1.2499999999981980E-01     6.2500000000211733E-02     0.0000000000000000E+00 
    1.2499999999986650E-01     1.2500000000042691E-01     0.0000000000000000E+00 
    1.2499999999991319E-01     1.8750000000063199E-01     0.0000000000000000E+00 
    1.2499999999995989E-01     2.5000000000083678E-01     0.0000000000000000E+00 
    1.2500000000000661E-01     3.1250000000104172E-01     0.0000000000000000E+00 
    1.2500000000005329E-01     3.7500000000124661E-01     0.0000000000000000E+00 
    1.2500000000010000E-01     4.3750000000145117E-01     0.0000000000000000E+00 
    1.2500000000014669E-01     5.0000000000163858E-01     0.0000000000000000E+00 
    1.2500000000019340E-01     5.6250000000129741E-01     0.0000000000000000E+00 
    1.2500000000024011E-01     6.2500000000093847E-01     0.0000000000000000E+00 
    1.2500000000028680E-01     6.8750000000057998E-01     0.0000000000000000E+00 
    1.2500000000033351E-01     7.5000000000022127E-01     0.0000000000000000E+00 
    1.2500000000038020E-01     8.1249999999986211E-01     0.0000000000000000E+00 
    1.2500000000042691E-01     8.7499999999952238E-01     0.0000000000000000E+00 
    1.2500000000047359E-01     9.3749999999975164E-01     0.0000000000000000E+00 
    1.8749999999966760E-01     6.2500000000187531E-02     0.0000000000000000E+00 
    1.8749999999974179E-01     1.2500000000038020E-01     0.0000000000000000E+00 
    1.8749999999981601E-01     1.8750000000055780E-01     0.0000000000000000E+00 
    1.8749999999989009E-01     2.5000000000073502E-01     0.0000000000000000E+00 
    1.8749999999996431E-01     3.1250000000091221E-01     0.0000000000000000E+00 
    1.8750000000003850E-01     3.7500000000108941E-01     0.0000000000000000E+00 
    1.8750000000011269E-01     4.3750000000126649E-01     0.0000000000000000E+00 
    1.8750000000018691E-01     5.0000000000142808E-01     0.0000000000000000E+00 
    1.8750000000026110E-01     5.6250000000112244E-01     0.0000000000000000E+00 
    1.8750000000033529E-01     6.2500000000080080E-01     0.0000000000000000E+00 
    1.8750000000040951E-01     6.8750000000047962E-01     0.0000000000000000E+00 
    1.8750000000048361E-01     7.5000000000015843E-01     0.0000000000000000E+00 
    1.8750000000055780E-01     8.1249999999983680E-01     0.0000000000000000E+00 
    1.8750000000063199E-01     8.7499999999953304E-01     0.0000000000000000E+00 
    1.8750000000070621E-01     9.3749999999975764E-01     0.0000000000000000E+00 
    2.4999999999951281E-01     6.2500000000163314E-02     0.0000000000000000E+00 
    2.4999999999961461E-01     1.2500000000033351E-01     0.0000000000000000E+00 
    2.4999999999971650E-01     1.8750000000048361E-01     0.0000000000000000E+00 
    2.4999999999981831E-01     2.5000000000063310E-01     0.0000000000000000E+00 
    2.4999999999992020E-01     3.1250000000078260E-01     0.0000000000000000E+00 
    2.5000000000002198E-01     3.7500000000093209E-01     0.0000000000000000E+00 
    2.5000000000012390E-01     4.3750000000108180E-01     0.0000000000000000E+00 
    2.5000000000022571E-01     5.0000000000121769E-01     0.0000000000000000E+00 
    2.5000000000032763E-01     5.6250000000094724E-01     0.0000000000000000E+00 
    2.5000000000042938E-01     6.2500000000066314E-01     0.0000000000000000E+00 
    2.5000000000053119E-01     6.8750000000037925E-01     0.0000000000000000E+00 
[...]
CELL_DATA 256 
SCALARS Pressure double 1 
LOOKUP_TABLE default 

    6.6544149048814516E-01 
    6.1589034725887992E-01 
    5.8458618279731145E-01 
    5.5644494852660742E-01 
    5.2794002492757208E-01 
    4.9811941343565508E-01 
    4.6677152380485826E-01 
    4.3417508759012763E-01 
    4.0080535496700037E-01 
    3.6723467061184156E-01 
    3.3411299560943691E-01 
    3.0242741497954440E-01 
    2.7390676650247298E-01 
    2.5101029180873069E-01 
    2.3609719379094640E-01 
    2.2880016833970185E-01 
    6.5145006898994173E-01 
    6.1713450306051154E-01 
    5.8691717134512056E-01 
    5.5899888891993799E-01 
    5.3068859661193613E-01 
    5.0105246532214576E-01 
    4.6985646740564996E-01 
    4.3735639469579407E-01 
    4.0400897881205544E-01 
    3.7036921424358449E-01 
    3.3705325209818987E-01 
    3.0498048460913507E-01 
    2.7581618555600368E-01 
    2.5204679031744959E-01 
    2.3626741708508761E-01 
    2.2840780051440437E-01 
    6.4072302338874398E-01 
    6.1625451283632871E-01 
    5.8850372295051778E-01 
    5.6122237820734089E-01 
    5.3324042469031196E-01 
    5.0384657273952826E-01 
    4.7283321159082947E-01 
    4.4044147252851379E-01 
    4.0710404975344550E-01 
    3.7334432201208639E-01 
    3.3973792937341329E-01 
    3.0713120709484537E-01 
    2.7712964614198743E-01 
    2.5228231999096257E-01 
    2.3550558131557917E-01 
    2.2713774290480987E-01 
    6.3231518831561995E-01 
    6.1431128840069205E-01 
    5.8938959457384610E-01 
    5.6309467386155876E-01 
    5.3558919802881688E-01 
    5.0650530090952672E-01 
    4.7570911181048198E-01 
    4.4344065222212020E-01 
    4.1010720163941078E-01 
    3.7619072991278246E-01 
    3.4221585696571932E-01 
    3.0894423019650535E-01 
    2.7791173274634307E-01 
    2.5174663664122110E-01 
    2.3376799794944811E-01 
    2.2485942001105763E-01 
    6.2558562601005530E-01 
    6.1189916876581829E-01 
    5.8971037492719325E-01 
    5.6462709438340808E-01 
    5.3773369985685637E-01 
    5.0903141506229010E-01 
    4.7849191481208747E-01 
    4.4636639861372690E-01 
    4.1303824913994253E-01 
    3.7894222853692761E-01 
    3.4453975023687905E-01 
    3.1049107264985271E-01 
    2.7823740155729632E-01 
    2.5047736344500643E-01 
    2.3100571626874469E-01 
    2.2143306857255554E-01 
    6.2012899428655688E-01 
    6.0936164999411069E-01 
    5.8961811135534936E-01 
    5.6585496106237976E-01 
    5.3968099185297413E-01 
    5.1142781298730744E-01 
    4.8118840506787119E-01 
    4.4923118998571565E-01 
    4.1591819278454012E-01 
    3.8163513901761292E-01 
    3.4676635901821679E-01 
    3.1185104906588973E-01 
    2.7819456207626025E-01 
    2.4852650773435278E-01 
    2.2716709031824583E-01 
    2.1668911699735177E-01 
    6.1567615603742876E-01 
    6.0690448961780363E-01 
    5.8925976456830720E-01 
    5.6683274666977201E-01 
    5.4145062143671518E-01 
    5.1370388078316154E-01 
    4.8380524639850186E-01 
    4.5204628808134711E-01 
    4.1876845516370997E-01 
    3.8430619466633331E-01 
    3.4895669279676145E-01 
    3.1311237830444877E-01 
    2.7788825392488387E-01 
    2.4596915293799096E-01 
    2.2220930338977882E-01 
    2.1043703239974429E-01 
    6.1203815963826547E-01 
    6.0464761463814720E-01 
    5.8876363297784617E-01 
    5.6762510789984988E-01 
    5.4307365331942259E-01 
    5.1587607865361418E-01 
    4.8635332622925515E-01 
    4.5482219525050127E-01 
    4.2160613538107267E-01 
    3.8698897938710358E-01 
    3.5117107997892544E-01 
    3.1437187331979993E-01 
    2.7744505637530159E-01 
    2.4291163120956161E-01 
    2.1610480102644655E-01 
    2.0245018768335510E-01 
    6.0907698205793126E-01 
    6.0265607195718174E-01 
    5.8823365250041149E-01 
    5.6829864195670099E-01 
    5.4458546341391478E-01 
    5.1796457055625478E-01 
    4.8884529368821772E-01 
    4.5756972238475019E-01 
    4.2444624910222806E-01 
    3.8971112773803002E-01 
    3.5346500229757050E-01 
    3.1572966003756819E-01 
    2.7701525512335906E-01 
    2.3950473756182958E-01 
    2.0885329929115592E-01 
    1.9244561187496417E-01 
    6.0669136667699886E-01 
    6.0096356098801818E-01 
    5.8775044944283195E-01 
    5.6891573719446575E-01 
    5.4602416744924487E-01 
    5.1999189331903051E-01 
    4.9129663297146231E-01 
    4.6030134433854525E-01 
    4.2730209151605103E-01 
    3.9249467365896973E-01 
    3.5588500254903116E-01 
    3.1728312812087051E-01 
    2.7677069411853172E-01 
    2.3595610396807409E-01 
    2.0049708112193532E-01 
    1.8004646822759426E-01 
    6.0480632990046945E-01 
    5.9958699798708914E-01 
    5.8737691073304676E-01 
    5.6953339439593853E-01 
    5.4742866413399660E-01 
    5.2198370725677679E-01 
    4.9372497956728656E-01 
    4.6303169953366197E-01 
    4.3018821244626965E-01 
    3.9535898634748584E-01 
    3.5847020232094512E-01 
    3.1912253225899545E-01 
    2.7690151795023876E-01 
    2.3254761590171430E-01 
    1.9116362350653437E-01 
    1.6475406167259674E-01 
    6.0336266596347277E-01 
    5.9853334537860914E-01 
    5.8716344527264230E-01 
    5.7020427368043403E-01 
    5.4883969540590949E-01 
    5.2396921335976632E-01 
    4.9615247025591919E-01 
    4.6577856711042603E-01 
    4.3312027678456666E-01 
    3.9832191206694939E-01 
    3.6125236046837711E-01 
    3.2132676795530379E-01 
    2.7760924815113158E-01 
    2.2965748504680988E-01 
    1.8113801124341372E-01 
    1.4587841358886913E-01 
    6.0231639489928779E-01 
    5.9780731891800520E-01 
    5.8715352863677406E-01 
    5.7097919634547856E-01 
    5.5029948129547901E-01 
    5.2598128201003003E-01 
    4.9860536461504007E-01 
    4.6856420641249197E-01 
    4.3611664645705256E-01 
    4.0140002976814748E-01 
    3.6425622920313494E-01 
    3.2395671320002850E-01 
    2.7908909585725578E-01 
    2.2777154923455017E-01 
    1.7097894971792804E-01 
    1.2239485227486643E-01 
    6.0163987065585300E-01 
    5.9742309930139692E-01 
    5.8739439813061101E-01 
    5.7191296369058897E-01 
    5.5185438190817337E-01 
    5.2805445419820918E-01 
    5.0111050509544541E-01 
    4.7141114232726017E-01 
    4.3919207407423078E-01 
    4.0459457032100493E-01 
    3.6748045957659525E-01 
    3.2703136700646457E-01 
    2.8148409318903728E-01 
    2.2746012640368563E-01 
    1.6178282576479736E-01 
    9.2762796460638924E-02 
    6.0121908072781760E-01 
    5.9732046332526700E-01 
    5.8787836337553534E-01 
    5.7301693046068503E-01 
    5.5350961253994468E-01 
    5.3017589606534699E-01 
    5.0363049134552462E-01 
    4.7426979543945563E-01 
    4.4229270653510250E-01 
    4.0783894758654754E-01 
    3.7082310371882826E-01 
    3.3040866379460609E-01 
    2.8470340351702095E-01 
    2.2907413708819443E-01 
    1.5532433027116041E-01 
    5.4442021384360308E-02 
    6.0107276809020838E-01 
    5.9751236777331451E-01 
    5.8861957206781146E-01 
    5.7431399680598993E-01 
    5.5529152716430497E-01 
    5.3236961675450445E-01 
    5.0617229076768977E-01 
    4.7712867897229116E-01 
    4.4542229480109519E-01 
    4.1118231060764987E-01 
    3.7436866246229161E-01 
    3.3420573900982875E-01 
    2.8892506074566637E-01 
    2.3312266658773473E-01 
    1.5479763965112245E-01 
    0.0000000000000000E+00 

SCALARS Saturarion double 1 
LOOKUP_TABLE default 

    1.0000000000000004E+00 
    9.7825959632465920E-01 
    9.3836422333467184E-01 
    8.8379563898217195E-01 
    8.3815785574977952E-01 
    7.9779699323960651E-01 
    7.6240585836560981E-01 
    7.3150805799193852E-01 
    7.0419101614765045E-01 
    6.7948664926042079E-01 
    6.5629817866319162E-01 
    6.3333226074958959E-01 
    6.0858656630485708E-01 
    5.7826108860099867E-01 
    5.3054167814593500E-01 
    2.9339642455629183E-01 
    9.9193586977624593E-01 
    9.7137033912740156E-01 
    9.2954092225357698E-01 
    8.7748313484335916E-01 
    8.3305955744726279E-01 
    7.9407778316205024E-01 
    7.5973175838928897E-01 
    7.2945488350748799E-01 
    7.0257185694019397E-01 
    6.7821795749987890E-01 
    6.5553509551765610E-01 
    6.3336592178130713E-01 
    6.0967037599944962E-01 
    5.8037030105441789E-01 
    5.3481516657256900E-01 
    3.1671439574193017E-01 
    9.7917917773940732E-01 
    9.5852509427937527E-01 
    9.1644533151186391E-01 
    8.6602198696667254E-01 
    8.2301209894650373E-01 
    7.8632806463109894E-01 
    7.5414261692955131E-01 
    7.2523527216205486E-01 
    6.9910869584279323E-01 
    6.7524099709166596E-01 
    6.5311689309383847E-01 
    6.3185298573755166E-01 
    6.0977513851312670E-01 
    5.8277771428376279E-01 
    5.4050096894351107E-01 
    3.3808278646014223E-01 
    9.5694239628985434E-01 
    9.3950101143750575E-01 
    9.0033789872605674E-01 
    8.5393668657453703E-01 
    8.1168807594295533E-01 
    7.7594762923917093E-01 
    7.4518893386949814E-01 
    7.1800923785901016E-01 
    6.9339123017724613E-01 
    6.7089861940452566E-01 
    6.4992729971401442E-01 
    6.2978060288877491E-01 
    6.0916566744308842E-01 
    5.8466888661262406E-01 
    5.4610735029951951E-01 
    3.5887298411636409E-01 
    9.2946381300419778E-01 
    9.1389205208815416E-01 
    8.7874616932576577E-01 
    8.3694012431125753E-01 
    7.9685209691083025E-01 
    7.6199980501008213E-01 
    7.3238302020129509E-01 
    7.0676191975069436E-01 
    6.8408453314318840E-01 
    6.6367094187769604E-01 
    6.4494460623980432E-01 
    6.2698261997869142E-01 
    6.0828210743652933E-01 
    5.8598994573168695E-01 
    5.5089123559792308E-01 
    3.7635743546217326E-01 
    8.9824293572792946E-01 
    8.8518480530545296E-01 
    8.5452637971295120E-01 
    8.1655708828603735E-01 
    7.7945152063660794E-01 
    7.4634700002724119E-01 
    7.1759696606627832E-01 
    6.9298256644871326E-01 
    6.7178576238284304E-01 
    6.5334704838293911E-01 
    6.3710830196082335E-01 
    6.2222502307350480E-01 
    6.0667160250563468E-01 
    5.8696167315142411E-01 
    5.5535058401446091E-01 
    3.9214885437504926E-01 
    8.6419688090822511E-01 
    8.5426576794630082E-01 
    8.2839918972881632E-01 
    7.9445621854095749E-01 
    7.6065397101623933E-01 
    7.2992442158454329E-01 
    7.0280741511964195E-01 
    6.7895109202776838E-01 
    6.5843701101048324E-01 
    6.4115335018426600E-01 
    6.2689758111277527E-01 
    6.1497101599871140E-01 
    6.0342178303129779E-01 
    5.8756693175253716E-01 
    5.5938657584701412E-01 
    4.0767827947079360E-01 
    8.2713753300238269E-01 
    8.2076993270572707E-01 
    8.0044928865989229E-01 
    7.7116924755079130E-01 
    7.4048649909995423E-01 
    7.1200558104741951E-01 
    6.8641369805926489E-01 
    6.6389218039165965E-01 
    6.4436304489492424E-01 
    6.2801096110366816E-01 
    6.1498416747441698E-01 
    6.0536988368814526E-01 
    5.9779126235739599E-01 
    5.8712205176085042E-01 
    5.6328948745963658E-01 
    4.2335245994398696E-01 
    7.8715906156967974E-01 
    7.8432077393806876E-01 
    7.6951052514626317E-01 
    7.4529939414841495E-01 
    7.1827763085215246E-01 
    6.9209768889126366E-01 
    6.6824837665246484E-01 
    6.4699116531124168E-01 
    6.2845562925859766E-01 
    6.1288469455828609E-01 
    6.0090427608258712E-01 
    5.9318719108986873E-01 
    5.8933882007896199E-01 
    5.8466355815087945E-01 
    5.6680556410197136E-01 
    4.3853388988418240E-01 
    7.4434071104879829E-01 
    7.4483763059203090E-01 
    7.3522984279433379E-01 
    7.1584823781829043E-01 
    6.9271332466300384E-01 
    6.6929699922763253E-01 
    6.4724495637024504E-01 
    6.2759617349010999E-01 
    6.1046783573761443E-01 
    5.9593145591613328E-01 
    5.8459988639759108E-01 
    5.7800387366998762E-01 
    5.7732470052974094E-01 
    5.7921584301365092E-01 
    5.6886545713724423E-01 
    4.5347862740999384E-01 
    6.9835247572787351E-01 
    7.0197424369672923E-01 
    6.9724996395825178E-01 
    6.8236724645338309E-01 
    6.6313025361000677E-01 
    6.4297584264574525E-01 
    6.2364521036130249E-01 
    6.0575770806198181E-01 
    5.9003007883534053E-01 
    5.7676816494111205E-01 
    5.6649315623657215E-01 
    5.6046795696598717E-01 
    5.6134966276736920E-01 
    5.6945744042806501E-01 
    5.6856655188604999E-01 
    4.6855693830678252E-01 
    6.4781087651385150E-01 
    6.5449274974065796E-01 
    6.5479045478462006E-01 
    6.4451991800863728E-01 
    6.2898521746606539E-01 
    6.1193167740631049E-01 
    5.9533330708920573E-01 
    5.8010629059361762E-01 
    5.6646237997587812E-01 
    5.5484088936556886E-01 
    5.4599647094473036E-01 
    5.4114481493759292E-01 
    5.4249098910861415E-01 
    5.5420486948501801E-01 
    5.6485163974914843E-01 
    4.8265150278625524E-01 
    5.9324288662818137E-01 
    6.0216425394334783E-01 
    6.0678654006354549E-01 
    6.0131035267597421E-01 
    5.9020628855448898E-01 
    5.7666985407642835E-01 
    5.6314179759425576E-01 
    5.5030882295813788E-01 
    5.3867689102536476E-01 
    5.2865362791348502E-01 
    5.2144874750841208E-01 
    5.1821077192178899E-01 
    5.2090657906699267E-01 
    5.3393926799886693E-01 
    5.5433826197233393E-01 
    4.9420614081943037E-01 
    5.3569738955248725E-01 
    5.4727282756319806E-01 
    5.5484467642623714E-01 
    5.5372177555943891E-01 
    5.4617049499284109E-01 
    5.3508678262663245E-01 
    5.2247617530349866E-01 
    5.1081561840390710E-01 
    4.9974461001352349E-01 
    4.8900070760533149E-01 
    4.7801239381902988E-01 
    4.7595820004011341E-01 
    4.8435468916508229E-01 
    5.0511270797679086E-01 
    5.3836023912476072E-01 
    5.0161613027823515E-01 
    3.5635966542115322E-01 
    4.0877336187480778E-01 
    4.3839718449529214E-01 
    4.4787717594891169E-01 
    4.4139580716142612E-01 
    4.2548789331294773E-01 
    3.9675760135480870E-01 
    3.4839402581660223E-01 
    2.9298594143467099E-01 
    2.4925690982715726E-01 
    2.5008804962118347E-01 
    2.4296878525117954E-01 
    2.9376768461532293E-01 
    3.8842855085015382E-01 
    4.9445714936976293E-01 
    5.0331053190549302E-01 
    5.6514351853226537E-03 
    4.3891630175484996E-02 
    6.9575940936446520E-02 
    8.1469500791058677E-02 
    5.8546652629843696E-02 
    4.0653720386568837E-02 
    2.1247092939079126E-02 
    4.7107393172405587E-03 
    2.5534876902746869E-03 
    1.3946452450080442E-04 
    7.1809693777333901E-04 
    1.1034135572555427E-04 
    3.6483235324119298E-03 
    1.4576504564805468E-01 
    3.1927126206774242E-01 
    4.5222361364281394E-01 
