# vtk DataFile Version 2.0
Pressure Field Data 
ASCII 
DATASET UNSTRUCTURED_GRID 

POINTS 289 double 

    0.0000000000000000E+00     0.0000000000000000E+00     0.0000000000000000E+00 
    1.0000000000000000E+00     0.0000000000000000E+00     0.0000000000000000E+00 
    1.0000000000000000E+00     1.0000000000000000E+00     0.0000000000000000E+00 
    0.0000000000000000E+00     1.0000000000000000E+00     0.0000000000000000E+00 
    6.2499999999872928E-02     0.0000000000000000E+00     0.0000000000000000E+00 
    1.2499999999977310E-01     0.0000000000000000E+00     0.0000000000000000E+00 
    1.8749999999959341E-01     0.0000000000000000E+00     0.0000000000000000E+00 
    2.4999999999941089E-01     0.0000000000000000E+00     0.0000000000000000E+00 
    3.1249999999922851E-01     0.0000000000000000E+00     0.0000000000000000E+00 
    3.7499999999904610E-01     0.0000000000000000E+00     0.0000000000000000E+00 
    4.3749999999886358E-01     0.0000000000000000E+00     0.0000000000000000E+00 
    4.9999999999869210E-01     0.0000000000000000E+00     0.0000000000000000E+00 
    5.6249999999884603E-01     0.0000000000000000E+00     0.0000000000000000E+00 
    6.2499999999901090E-01     0.0000000000000000E+00     0.0000000000000000E+00 
    6.8749999999917577E-01     0.0000000000000000E+00     0.0000000000000000E+00 
    7.4999999999934064E-01     0.0000000000000000E+00     0.0000000000000000E+00 
    8.1249999999950551E-01     0.0000000000000000E+00     0.0000000000000000E+00 
    8.7499999999967026E-01     0.0000000000000000E+00     0.0000000000000000E+00 
    9.3749999999983513E-01     0.0000000000000000E+00     0.0000000000000000E+00 
    1.0000000000000000E+00     6.2499999999872928E-02     0.0000000000000000E+00 
    1.0000000000000000E+00     1.2499999999977310E-01     0.0000000000000000E+00 
    1.0000000000000000E+00     1.8749999999959341E-01     0.0000000000000000E+00 
    1.0000000000000000E+00     2.4999999999941089E-01     0.0000000000000000E+00 
    1.0000000000000000E+00     3.1249999999922851E-01     0.0000000000000000E+00 
    1.0000000000000000E+00     3.7499999999904610E-01     0.0000000000000000E+00 
    1.0000000000000000E+00     4.3749999999886358E-01     0.0000000000000000E+00 
    1.0000000000000000E+00     4.9999999999869210E-01     0.0000000000000000E+00 
    1.0000000000000000E+00     5.6249999999884603E-01     0.0000000000000000E+00 
    1.0000000000000000E+00     6.2499999999901090E-01     0.0000000000000000E+00 
    1.0000000000000000E+00     6.8749999999917577E-01     0.0000000000000000E+00 
    1.0000000000000000E+00     7.4999999999934064E-01     0.0000000000000000E+00 
    1.0000000000000000E+00     8.1249999999950551E-01     0.0000000000000000E+00 
    1.0000000000000000E+00     8.7499999999967026E-01     0.0000000000000000E+00 
    1.0000000000000000E+00     9.3749999999983513E-01     0.0000000000000000E+00 
    9.3749999999973976E-01     1.0000000000000000E+00     0.0000000000000000E+00 
    8.7499999999950118E-01     1.0000000000000000E+00     0.0000000000000000E+00 
    8.1249999999991318E-01     1.0000000000000000E+00     0.0000000000000000E+00 
    7.5000000000034706E-01     1.0000000000000000E+00     0.0000000000000000E+00 
    6.8750000000078049E-01     1.0000000000000000E+00     0.0000000000000000E+00 
    6.2500000000121403E-01     1.0000000000000000E+00     0.0000000000000000E+00 
    5.6250000000164757E-01     1.0000000000000000E+00     0.0000000000000000E+00 
    5.0000000000205946E-01     1.0000000000000000E+00     0.0000000000000000E+00 
    4.3750000000182099E-01     1.0000000000000000E+00     0.0000000000000000E+00 
    3.7500000000156092E-01     1.0000000000000000E+00     0.0000000000000000E+00 
    3.1250000000130068E-01     1.0000000000000000E+00     0.0000000000000000E+00 
    2.5000000000104050E-01     1.0000000000000000E+00     0.0000000000000000E+00 
    1.8750000000078040E-01     1.0000000000000000E+00     0.0000000000000000E+00 
    1.2500000000052031E-01     1.0000000000000000E+00     0.0000000000000000E+00 
    6.2500000000260125E-02     1.0000000000000000E+00     0.0000000000000000E+00 
    0.0000000000000000E+00     9.3749999999973976E-01     0.0000000000000000E+00 
    0.0000000000000000E+00     8.7499999999950118E-01     0.0000000000000000E+00 
    0.0000000000000000E+00     8.1249999999991318E-01     0.0000000000000000E+00 
    0.0000000000000000E+00     7.5000000000034706E-01     0.0000000000000000E+00 
    0.0000000000000000E+00     6.8750000000078049E-01     0.0000000000000000E+00 
    0.0000000000000000E+00     6.2500000000121403E-01     0.0000000000000000E+00 
    0.0000000000000000E+00     5.6250000000164757E-01     0.0000000000000000E+00 
    0.0000000000000000E+00     5.0000000000205946E-01     0.0000000000000000E+00 
    0.0000000000000000E+00     4.3750000000182099E-01     0.0000000000000000E+00 
    0.0000000000000000E+00     3.7500000000156092E-01     0.0000000000000000E+00 
    0.0000000000000000E+00     3.1250000000130068E-01     0.0000000000000000E+00 
    0.0000000000000000E+00     2.5000000000104050E-01     0.0000000000000000E+00 
    0.0000000000000000E+00     1.8750000000078040E-01     0.0000000000000000E+00 
    0.0000000000000000E+00     1.2500000000052031E-01     0.0000000000000000E+00 
    0.0000000000000000E+00     6.2500000000260125E-02     0.0000000000000000E+00 
    6.2499999999897131E-02     6.2500000000235922E-02     0.0000000000000000E+00 
    6.2499999999921327E-02     1.2500000000047351E-01     0.0000000000000000E+00 
    6.2499999999945530E-02     1.8750000000070621E-01     0.0000000000000000E+00 
    6.2499999999969733E-02     2.5000000000093858E-01     0.0000000000000000E+00 
    6.2499999999993928E-02     3.1250000000117117E-01     0.0000000000000000E+00 
    6.2500000000018124E-02     3.7500000000140382E-01     0.0000000000000000E+00 
    6.2500000000042327E-02     4.3750000000163619E-01     0.0000000000000000E+00 
    6.2500000000066530E-02     5.0000000000184897E-01     0.0000000000000000E+00 
    6.2500000000090733E-02     5.6250000000147260E-01     0.0000000000000000E+00 
    6.2500000000114922E-02     6.2500000000107636E-01     0.0000000000000000E+00 
    6.2500000000139125E-02     6.8750000000068034E-01     0.0000000000000000E+00 
    6.2500000000163328E-02     7.5000000000028411E-01     0.0000000000000000E+00 
    6.2500000000187531E-02     8.1249999999988787E-01     0.0000000000000000E+00 
    6.2500000000211720E-02     8.7499999999951172E-01     0.0000000000000000E+00 
    6.2500000000235922E-02     9.3749999999974565E-01     0.0000000000000000E+00 
    1.2499999999981980E-01     6.2500000000211733E-02     0.0000000000000000E+00 
    1.2499999999986650E-01     1.2500000000042691E-01     0.0000000000000000E+00 
    1.2499999999991319E-01     1.8750000000063199E-01     0.0000000000000000E+00 
    1.2499999999995989E-01     2.5000000000083678E-01     0.0000000000000000E+00 
    1.2500000000000661E-01     3.1250000000104172E-01     0.0000000000000000E+00 
    1.2500000000005329E-01     3.7500000000124661E-01     0.0000000000000000E+00 
    1.2500000000010000E-01     4.3750000000145117E-01     0.0000000000000000E+00 
    1.2500000000014669E-01     5.0000000000163858E-01     0.0000000000000000E+00 
    1.2500000000019340E-01     5.6250000000129741E-01     0.0000000000000000E+00 
    1.2500000000024011E-01     6.2500000000093847E-01     0.0000000000000000E+00 
    1.2500000000028680E-01     6.8750000000057998E-01     0.0000000000000000E+00 
    1.2500000000033351E-01     7.5000000000022127E-01     0.0000000000000000E+00 
    1.2500000000038020E-01     8.1249999999986211E-01     0.0000000000000000E+00 
    1.2500000000042691E-01     8.7499999999952238E-01     0.0000000000000000E+00 
    1.2500000000047359E-01     9.3749999999975164E-01     0.0000000000000000E+00 
    1.8749999999966760E-01     6.2500000000187531E-02     0.0000000000000000E+00 
    1.8749999999974179E-01     1.2500000000038020E-01     0.0000000000000000E+00 
    1.8749999999981601E-01     1.8750000000055780E-01     0.0000000000000000E+00 
    1.8749999999989009E-01     2.5000000000073502E-01     0.0000000000000000E+00 
    1.8749999999996431E-01     3.1250000000091221E-01     0.0000000000000000E+00 
    1.8750000000003850E-01     3.7500000000108941E-01     0.0000000000000000E+00 
    1.8750000000011269E-01     4.3750000000126649E-01     0.0000000000000000E+00 
    1.8750000000018691E-01     5.0000000000142808E-01     0.0000000000000000E+00 
    1.8750000000026110E-01     5.6250000000112244E-01     0.0000000000000000E+00 
    1.8750000000033529E-01     6.2500000000080080E-01     0.0000000000000000E+00 
    1.8750000000040951E-01     6.8750000000047962E-01     0.0000000000000000E+00 
    1.8750000000048361E-01     7.5000000000015843E-01     0.0000000000000000E+00 
    1.8750000000055780E-01     8.1249999999983680E-01     0.0000000000000000E+00 
    1.8750000000063199E-01     8.7499999999953304E-01     0.0000000000000000E+00 
    1.8750000000070621E-01     9.3749999999975764E-01     0.0000000000000000E+00 
    2.4999999999951281E-01     6.2500000000163314E-02     0.0000000000000000E+00 
    2.4999999999961461E-01     1.2500000000033351E-01     0.0000000000000000E+00 
    2.4999999999971650E-01     1.8750000000048361E-01     0.0000000000000000E+00 
    2.4999999999981831E-01     2.5000000000063310E-01     0.0000000000000000E+00 
    2.4999999999992020E-01     3.1250000000078260E-01     0.0000000000000000E+00 
    2.5000000000002198E-01     3.7500000000093209E-01     0.0000000000000000E+00 
    2.5000000000012390E-01     4.3750000000108180E-01     0.0000000000000000E+00 
    2.5000000000022571E-01     5.0000000000121769E-01     0.0000000000000000E+00 
    2.5000000000032763E-01     5.6250000000094724E-01     0.0000000000000000E+00 
    2.5000000000042938E-01     6.2500000000066314E-01     0.0000000000000000E+00 
    2.5000000000053119E-01     6.8750000000037925E-01     0.0000000000000000E+00 
[...]
CELL_DATA 256 
SCALARS Pressure double 1 
LOOKUP_TABLE default 

    6.4705859305136515E-01 
    5.9772263593556685E-01 
    5.6676111778492333E-01 
    5.3907926812825224E-01 
    5.1114008093305885E-01 
    4.8198286478794211E-01 
    4.5138665165846137E-01 
    4.1961207829208530E-01 
    3.8711226390884385E-01 
    3.5443621472304815E-01 
    3.2220928977917890E-01 
    2.9138187823678757E-01 
    2.6362308451517985E-01 
    2.4130884000687713E-01 
    2.2676142814319822E-01 
    2.1970522674158635E-01 
    6.3306066714113585E-01 
    5.9894258109782461E-01 
    5.6905654424393703E-01 
    5.4158766037911676E-01 
    5.1383350788517868E-01 
    4.8485137458028554E-01 
    4.5439871684606981E-01 
    4.2271441849498703E-01 
    3.9023377260422137E-01 
    3.5748899446108928E-01 
    3.2507298336139762E-01 
    2.9387064607235319E-01 
    2.6548905727204142E-01 
    2.4232926673237765E-01 
    2.2693624529587600E-01 
    2.1933284900372496E-01 
    6.2232943973036470E-01 
    5.9804446702242020E-01 
    5.7061358789992966E-01 
    5.4377150382669048E-01 
    5.1633619429311428E-01 
    4.8758697054363009E-01 
    4.5730835923648550E-01 
    4.2572604816694443E-01 
    3.9325239717475052E-01 
    3.6038919431628264E-01 
    3.2769075941327880E-01 
    2.9597169231810777E-01 
    2.6678056954005414E-01 
    2.4257819846849180E-01 
    2.2621439533356330E-01 
    2.1812039423596138E-01 
    6.1392561505701915E-01 
    5.9609065295998154E-01 
    5.7147688013353604E-01 
    5.4560988938244803E-01 
    5.1864074517279957E-01 
    4.9019199577173278E-01 
    4.6012221547236670E-01 
    4.2865714694018753E-01 
    3.9618478135924157E-01 
    3.6316705923130738E-01 
    3.3011002611562051E-01 
    2.9774734402040115E-01 
    2.6755981100452103E-01 
    2.4208408856376876E-01 
    2.2455381205394001E-01 
    2.1594173452097734E-01 
    6.0721105193981750E-01 
    5.9367728655955621E-01 
    5.7178261019864884E-01 
    5.4711443418470596E-01 
    5.2074559471127424E-01 
    4.9266810539317951E-01 
    4.6284671582707748E-01 
    4.3151919587676379E-01 
    3.9905007864463871E-01 
    3.6585549073661938E-01 
    3.3238184149863259E-01 
    2.9926646344395175E-01 
    2.6789868596114069E-01 
    2.4088299505429281E-01 
    2.2190718975307613E-01 
    2.1266170670672760E-01 
    6.0177764453546434E-01 
    5.9114728399478478E-01 
    5.7168280002749050E-01 
    5.4832053614870735E-01 
    5.2265761435523606E-01 
    4.9501735435656091E-01 
    4.6548717810988915E-01 
    4.3432305393912113E-01 
    4.0186780942794725E-01 
    3.6848923766178071E-01 
    3.3456092203988702E-01 
    3.0060552759150527E-01 
    2.6788154189908447E-01 
    2.3902399144911243E-01 
    2.1822360437288280E-01 
    2.0811669694548687E-01 
    5.9735282441074822E-01 
    5.8870433204186290E-01 
    5.7132332814251163E-01 
    5.4928183833360744E-01 
    5.2439567006855992E-01 
    4.9724839992596509E-01 
    4.6804922897313517E-01 
    4.3707856313685806E-01 
    4.0465768421228276E-01 
    3.7110296078329597E-01 
    3.3670574876129600E-01 
    3.0184973779465163E-01 
    2.6760959946465962E-01 
    2.3657862907902946E-01 
    2.1346090647910215E-01 
    2.0212268563245733E-01 
    5.9374547658507659E-01 
    5.8646632596912318E-01 
    5.7083093585932720E-01 
    5.5006181423484646E-01 
    5.2598999430576099E-01 
    4.9937704372862074E-01 
    4.7054296228555115E-01 
    4.3979526879342434E-01 
    4.0743557340846009E-01 
    3.7372824215338513E-01 
    3.3887370634491448E-01 
    3.0309243725162333E-01 
    2.6720527244561398E-01 
    2.3364942443947145E-01 
    2.0759294881473636E-01 
    1.9446169372830185E-01 
    5.9081588119503303E-01 
    5.8449652287660414E-01 
    5.7030804564744619E-01 
    5.5072598600337563E-01 
    5.2747525918096128E-01 
    5.0142272791452325E-01 
    4.7298009532584701E-01 
    4.4248318136076137E-01 
    4.1021592934703677E-01 
    3.7639143202511804E-01 
    3.4111739234897520E-01 
    3.0442972191224671E-01 
    2.6681390555157336E-01 
    2.3038138056651236E-01 
    2.0061731219396892E-01 
    1.8485939272096899E-01 
    5.8846129012535775E-01 
    5.8282707948130330E-01 
    5.6983404989471920E-01 
    5.5133587541793105E-01 
    5.2888890007834222E-01 
    5.0340707025935194E-01 
    4.7537472835206762E-01 
    4.4515372987127666E-01 
    4.1301198329319488E-01 
    3.7911423999703331E-01 
    3.4348109508327607E-01 
    3.0595477134284554E-01 
    2.6660134798228319E-01 
    2.2697490055973277E-01 
    1.9257323873779694E-01 
    1.7295148051118600E-01 
    5.8660554758904804E-01 
    5.8147367510486536E-01 
    5.6947078148239327E-01 
    5.5194768476509259E-01 
    5.3026909179727755E-01 
    5.0535452591270302E-01 
    4.7774248267482616E-01 
    4.4781988740823719E-01 
    4.1583831396407384E-01 
    3.8191633496231342E-01 
    3.4600218863759891E-01 
    3.0775382758095093E-01 
    2.6675052598126747E-01 
    2.2370191708172485E-01 
    1.8358283841857140E-01 
    1.5825680501509742E-01 
    5.8518840791732962E-01 
    5.8044221778230620E-01 
    5.6926759478283606E-01 
    5.5261314708638309E-01 
    5.3165564856347358E-01 
    5.0729267654217114E-01 
    4.8010244893400161E-01 
    4.5049666058759108E-01 
    4.1871043966418775E-01 
    3.8481609450029242E-01 
    3.4871041964277627E-01 
    3.0990187388160101E-01 
    2.6745465226223636E-01 
    2.2092337365143758E-01 
    1.7391345690419285E-01 
    1.4010082340727759E-01 
    5.8416305260866919E-01 
    5.7973497722165956E-01 
    5.6926574801910923E-01 
    5.5338109853565332E-01 
    5.3308920658725001E-01 
    5.0925237818562707E-01 
    4.8247674753075875E-01 
    4.5320197915142019E-01 
    4.2164644547599600E-01 
    3.8783146158948661E-01 
    3.5162838863867124E-01 
    3.1245673441942323E-01 
    2.6890163914340820E-01 
    2.1910658815956213E-01 
    1.6410844499687743E-01 
    1.1749320977198621E-01 
    5.8350082946365722E-01 
    5.7936424927055108E-01 
    5.6951021970712035E-01 
    5.5430453297496829E-01 
    5.3461591604886349E-01 
    5.1126873913087445E-01 
    4.8488916443624869E-01 
    4.5595287789151689E-01 
    4.2466345073443384E-01 
    3.9097482254287341E-01 
    3.5476053340946506E-01 
    3.1544299802366649E-01 
    2.7124092112992937E-01 
    2.1882017527695313E-01 
    1.5526232004966306E-01 
    8.8995408021375538E-02 
    5.8311140027941444E-01 
    5.7928862118259927E-01 
    5.7000617647815077E-01 
    5.5540654105973497E-01 
    5.3625570899032182E-01 
    5.1334749434351834E-01 
    4.8732673697331719E-01 
    4.5871261759571136E-01 
    4.2770133706230518E-01 
    3.9418527001193959E-01 
    3.5803059442291513E-01 
    3.1875344891511387E-01 
    2.7442125376256105E-01 
    2.2044508897133641E-01 
    1.4913678106342801E-01 
    5.2228280033186220E-02 
    5.8297929290998218E-01 
    5.7949181149760720E-01 
    5.7074562227487402E-01 
    5.5669259913768787E-01 
    5.3802061470949181E-01 
    5.1550607817138194E-01 
    4.8980423285536545E-01 
    4.6147992738084065E-01 
    4.3073258689509913E-01 
    3.9745898728692397E-01 
    3.6150346069273004E-01 
    3.2246814889345227E-01 
    2.7853091659987550E-01 
    2.2432943525355467E-01 
    1.4864961875799629E-01 
    0.0000000000000000E+00 

SCALARS Saturarion double 1 
LOOKUP_TABLE default 

    1.0000000000000002E+00 
    9.7938596506308506E-01 
    9.4144283964882269E-01 
    8.8855642402248070E-01 
    8.4441100577207362E-01 
    8.0528651704683030E-01 
    7.7077925371777423E-01 
    7.4047866177663557E-01 
    7.1357261086348156E-01 
    6.8917919656919446E-01 
    6.6628043926146285E-01 
    6.4366147677422847E-01 
    6.1940868422150497E-01 
    5.8969783832658018E-01 
    5.4533502569863113E-01 
    3.3332046830426060E-01 
    9.9243916181466107E-01 
    9.7295396904579845E-01 
    9.3314007551905509E-01 
    8.8266157926352606E-01 
    8.3948167998580148E-01 
    8.0155762156853128E-01 
    7.6804998029947535E-01 
    7.3840225923057312E-01 
    7.1198029646458705E-01 
    6.8797255972739180E-01 
    6.6557804216140726E-01 
    6.4371709014500811E-01 
    6.2046752901244562E-01 
    5.9177858515692572E-01 
    5.4905308941383602E-01 
    3.5312037091647513E-01 
    9.8046383793376612E-01 
    9.6084306681379872E-01 
    9.2072407594392380E-01 
    8.7179237943447363E-01 
    8.2971436627300710E-01 
    7.9379892424784915E-01 
    7.6235011289451360E-01 
    7.3412410081487711E-01 
    7.0857425231602489E-01 
    6.8515793534637881E-01 
    6.6335942937548009E-01 
    6.4234301891938228E-01 
    6.2057764722713160E-01 
    5.9412653459735665E-01 
    5.5427882160526842E-01 
    3.7158403556770164E-01 
    9.5959787029383536E-01 
    9.4301178449009659E-01 
    9.0536449507193684E-01 
    8.6034980284919660E-01 
    8.1901518362978298E-01 
    7.8384539604781844E-01 
    7.5356555407899617E-01 
    7.2689230880453293E-01 
    7.0280611379843216E-01 
    6.8080627746523026E-01 
    6.6024086718070951E-01 
    6.4038461560929194E-01 
    6.2000354236400645E-01 
    5.9593275626170539E-01 
    5.5943292413789858E-01 
    3.8969141956733949E-01 
    9.3369203324419614E-01 
    9.1874893770611077E-01 
    8.8476093515285914E-01 
    8.4416994487200370E-01 
    8.0490372266276600E-01 
    7.7048538391247379E-01 
    7.4112587972690680E-01 
    7.1576207225618738E-01 
    6.9341023709132577E-01 
    6.7337938766699945E-01 
    6.5506232054038260E-01 
    6.3749260873556757E-01 
    6.1910952568682176E-01 
    5.9717800173394520E-01 
    5.6391723840029362E-01 
    4.0514387319046702E-01 
    9.0390970981800212E-01 
    8.9128643180967282E-01 
    8.6155047735538615E-01 
    8.2453197152430857E-01 
    7.8805663184489205E-01 
    7.5529549098219384E-01 
    7.2674425510212082E-01 
    7.0226555437158722E-01 
    6.8119613360196007E-01 
    6.6292270540567511E-01 
    6.4694161046316701E-01 
    6.3244367812057467E-01 
    6.1734232092723407E-01 
    5.9806882966144814E-01 
    5.6772725748522213E-01 
    4.1923871752932074E-01 
    8.7118708978923232E-01 
    8.6153548687672987E-01 
    8.3633077226782349E-01 
    8.0306771639928143E-01 
    7.6972038588697000E-01 
    7.3927053930683329E-01 
    7.1233388441076539E-01 
    6.8858740524397832E-01 
    6.6811040328339144E-01 
    6.5082169243417876E-01 
    6.3659846474025206E-01 
    6.2488084768246022E-01 
    6.1379882393898422E-01 
    5.9852666574649127E-01 
    5.7150894486384518E-01 
    4.3316415205601738E-01 
    8.3537298692956852E-01 
    8.2912238035424801E-01 
    8.0917840830630594E-01 
    7.8034563970099324E-01 
    7.5000939843804360E-01 
    7.2176403936632527E-01 
    6.9631772642583678E-01 
    6.7385754031332357E-01 
    6.5432871456818797E-01 
    6.3792309765499600E-01 
    6.2479750448353821E-01 
    6.1514640613114402E-01 
    6.0784815609600540E-01 
    5.9783421216648647E-01 
    5.7522766248542145E-01 
    4.4724268966521341E-01 
    7.9648691860624143E-01 
    7.9364813770902354E-01 
    7.7900071355794798E-01 
    7.5504585787078193E-01 
    7.2826507901840642E-01 
    7.0225684017507894E-01 
    6.7848664209046328E-01 
    6.5724174665936697E-01 
    6.3869848427136511E-01 
    6.2309708421586207E-01 
    6.1100403770364287E-01 
    6.0308373435586693E-01 
    5.9919421677178464E-01 
    5.9505375712986253E-01 
    5.7835646066557278E-01 
    4.6094369247193512E-01 
    7.5460317331138627E-01 
    7.5502782689375603E-01 
    7.4544305280572609E-01 
    7.2617995312248917E-01 
    7.0317705611689341E-01 
    6.7983486840266416E-01 
    6.5776147750644087E-01 
    6.3803906148072731E-01 
    6.2089071554644593E-01 
    6.0640106363997204E-01 
    5.9505957904756035E-01 
    5.8825490988325779E-01 
    5.8723492264363930E-01 
    5.8928767783808922E-01 
    5.8010758148967168E-01 
    4.7452806953344906E-01 
    7.0941252226882534E-01 
    7.1292134454432377E-01 
    7.0813547020797729E-01 
    6.9327047520959262E-01 
    6.7405996724195238E-01 
    6.5386251172823018E-01 
    6.3437177540386913E-01 
    6.1628078134426012E-01 
    6.0047351969269436E-01 
    5.8729135415958578E-01 
    5.7710755774530198E-01 
    5.7103154571715842E-01 
    5.7156777039730822E-01 
    5.7936589148366513E-01 
    5.7933447551818285E-01 
    4.8829878673209859E-01 
    6.5949180184139744E-01 
    6.6606066663284436E-01 
    6.6624624067827631E-01 
    6.5590095246994107E-01 
    6.4026655983646885E-01 
    6.2300767727109485E-01 
    6.0605444266562314E-01 
    5.9044379808692271E-01 
    5.7663578200599208E-01 
    5.6508567362789608E-01 
    5.5631449726713156E-01 
    5.5151374974316136E-01 
    5.5284292187338002E-01 
    5.6420200880176963E-01 
    5.7463393884674918E-01 
    5.0090553222031653E-01 
    6.0445050067345485E-01 
    6.1350190204865351E-01 
    6.1815951978781902E-01 
    6.1250705843147768E-01 
    6.0116080343064326E-01 
    5.8736243125260279E-01 
    5.7349727681214502E-01 
    5.6019132343897315E-01 
    5.4822660369684661E-01 
    5.3829115327430654E-01 
    5.3130262500022574E-01 
    5.2813552958918553E-01 
    5.3089569723585417E-01 
    5.4390721453104673E-01 
    5.6437177033533992E-01 
    5.1111498787428056E-01 
    5.4743542917946864E-01 
    5.5822252390805815E-01 
    5.6596054602173906E-01 
    5.6454249927901878E-01 
    5.5716861336283863E-01 
    5.4639629650816335E-01 
    5.3427467864667755E-01 
    5.2218792934380631E-01 
    5.1041409861719200E-01 
    5.0123886743711865E-01 
    4.9380045612825263E-01 
    4.9106198043872129E-01 
    4.9799403960348670E-01 
    5.1678379923850082E-01 
    5.5064666871813350E-01 
    5.1794060537926401E-01 
    4.0218400265945525E-01 
    4.3656654124991379E-01 
    4.6154597943200532E-01 
    4.6907929027376610E-01 
    4.6540323395836913E-01 
    4.5349772038214115E-01 
    4.3447276850184463E-01 
    4.1046379451042120E-01 
    3.6690476603571104E-01 
    3.0301905899642012E-01 
    2.9457733805303427E-01 
    3.1608692708240332E-01 
    3.4644146069877457E-01 
    4.1807245122321368E-01 
    5.1028897748463053E-01 
    5.1925762111326401E-01 
    2.0229816872909322E-02 
    7.5452871588388357E-02 
    1.0093176919668476E-01 
    1.2290392751246584E-01 
    8.9124163526098643E-02 
    7.9942351541653328E-02 
    4.5025723155847124E-02 
    2.4767668029151656E-02 
    1.0562990736566366E-02 
    1.3535531153299144E-03 
    3.1387050135396372E-03 
    2.8704558646080406E-03 
    1.9161583573811064E-02 
    1.7639218089419642E-01 
    3.3701571653164031E-01 
    4.6811712727944904E-01 
