# vtk DataFile Version 2.0
Pressure Field Data 
ASCII 
DATASET UNSTRUCTURED_GRID 

POINTS 289 double 

    0.0000000000000000E+00     0.0000000000000000E+00     0.0000000000000000E+00 
    1.0000000000000000E+00     0.0000000000000000E+00     0.0000000000000000E+00 
    1.0000000000000000E+00     1.0000000000000000E+00     0.0000000000000000E+00 
    0.0000000000000000E+00     1.0000000000000000E+00     0.0000000000000000E+00 
    6.2499999999872928E-02     0.0000000000000000E+00     0.0000000000000000E+00 
    1.2499999999977310E-01     0.0000000000000000E+00     0.0000000000000000E+00 
    1.8749999999959341E-01     0.0000000000000000E+00     0.0000000000000000E+00 
    2.4999999999941089E-01     0.0000000000000000E+00     0.0000000000000000E+00 
    3.1249999999922851E-01     0.0000000000000000E+00     0.0000000000000000E+00 
    3.7499999999904610E-01     0.0000000000000000E+00     0.0000000000000000E+00 
    4.3749999999886358E-01     0.0000000000000000E+00     0.0000000000000000E+00 
    4.9999999999869210E-01     0.0000000000000000E+00     0.0000000000000000E+00 
    5.6249999999884603E-01     0.0000000000000000E+00     0.0000000000000000E+00 
    6.2499999999901090E-01     0.0000000000000000E+00     0.0000000000000000E+00 
    6.8749999999917577E-01     0.0000000000000000E+00     0.0000000000000000E+00 
    7.4999999999934064E-01     0.0000000000000000E+00     0.0000000000000000E+00 
    8.1249999999950551E-01     0.0000000000000000E+00     0.0000000000000000E+00 
    8.7499999999967026E-01     0.0000000000000000E+00     0.0000000000000000E+00 
    9.3749999999983513E-01     0.0000000000000000E+00     0.0000000000000000E+00 
    1.0000000000000000E+00     6.2499999999872928E-02     0.0000000000000000E+00 
    1.0000000000000000E+00     1.2499999999977310E-01     0.0000000000000000E+00 
    1.0000000000000000E+00     1.8749999999959341E-01     0.0000000000000000E+00 
    1.0000000000000000E+00     2.4999999999941089E-01     0.0000000000000000E+00 
    1.0000000000000000E+00     3.1249999999922851E-01     0.0000000000000000E+00 
    1.0000000000000000E+00     3.7499999999904610E-01     0.0000000000000000E+00 
    1.0000000000000000E+00     4.3749999999886358E-01     0.0000000000000000E+00 
    1.0000000000000000E+00     4.9999999999869210E-01     0.0000000000000000E+00 
    1.0000000000000000E+00     5.6249999999884603E-01     0.0000000000000000E+00 
    1.0000000000000000E+00     6.2499999999901090E-01     0.0000000000000000E+00 
    1.0000000000000000E+00     6.8749999999917577E-01     0.0000000000000000E+00 
    1.0000000000000000E+00     7.4999999999934064E-01     0.0000000000000000E+00 
    1.0000000000000000E+00     8.1249999999950551E-01     0.0000000000000000E+00 
    1.0000000000000000E+00     8.7499999999967026E-01     0.0000000000000000E+00 
    1.0000000000000000E+00     9.3749999999983513E-01     0.0000000000000000E+00 
    9.3749999999973976E-01     1.0000000000000000E+00     0.0000000000000000E+00 
    8.7499999999950118E-01     1.0000000000000000E+00     0.0000000000000000E+00 
    8.1249999999991318E-01     1.0000000000000000E+00     0.0000000000000000E+00 
    7.5000000000034706E-01     1.0000000000000000E+00     0.0000000000000000E+00 
    6.8750000000078049E-01     1.0000000000000000E+00     0.0000000000000000E+00 
    6.2500000000121403E-01     1.0000000000000000E+00     0.0000000000000000E+00 
    5.6250000000164757E-01     1.0000000000000000E+00     0.0000000000000000E+00 
    5.0000000000205946E-01     1.0000000000000000E+00     0.0000000000000000E+00 
    4.3750000000182099E-01     1.0000000000000000E+00     0.0000000000000000E+00 
    3.7500000000156092E-01     1.0000000000000000E+00     0.0000000000000000E+00 
    3.1250000000130068E-01     1.0000000000000000E+00     0.0000000000000000E+00 
    2.5000000000104050E-01     1.0000000000000000E+00     0.0000000000000000E+00 
    1.8750000000078040E-01     1.0000000000000000E+00     0.0000000000000000E+00 
    1.2500000000052031E-01     1.0000000000000000E+00     0.0000000000000000E+00 
    6.2500000000260125E-02     1.0000000000000000E+00     0.0000000000000000E+00 
    0.0000000000000000E+00     9.3749999999973976E-01     0.0000000000000000E+00 
    0.0000000000000000E+00     8.7499999999950118E-01     0.0000000000000000E+00 
    0.0000000000000000E+00     8.1249999999991318E-01     0.0000000000000000E+00 
    0.0000000000000000E+00     7.5000000000034706E-01     0.0000000000000000E+00 
    0.0000000000000000E+00     6.8750000000078049E-01     0.0000000000000000E+00 
    0.0000000000000000E+00     6.2500000000121403E-01     0.0000000000000000E+00 
    0.0000000000000000E+00     5.6250000000164757E-01     0.0000000000000000E+00 
    0.0000000000000000E+00     5.0000000000205946E-01     0.0000000000000000E+00 
    0.0000000000000000E+00     4.3750000000182099E-01     0.0000000000000000E+00 
    0.0000000000000000E+00     3.7500000000156092E-01     0.0000000000000000E+00 
    0.0000000000000000E+00     3.1250000000130068E-01     0.0000000000000000E+00 
    0.0000000000000000E+00     2.5000000000104050E-01     0.0000000000000000E+00 
    0.0000000000000000E+00     1.8750000000078040E-01     0.0000000000000000E+00 
    0.0000000000000000E+00     1.2500000000052031E-01     0.0000000000000000E+00 
    0.0000000000000000E+00     6.2500000000260125E-02     0.0000000000000000E+00 
    6.2499999999897131E-02     6.2500000000235922E-02     0.0000000000000000E+00 
    6.2499999999921327E-02     1.2500000000047351E-01     0.0000000000000000E+00 
    6.2499999999945530E-02     1.8750000000070621E-01     0.0000000000000000E+00 
    6.2499999999969733E-02     2.5000000000093858E-01     0.0000000000000000E+00 
    6.2499999999993928E-02     3.1250000000117117E-01     0.0000000000000000E+00 
    6.2500000000018124E-02     3.7500000000140382E-01     0.0000000000000000E+00 
    6.2500000000042327E-02     4.3750000000163619E-01     0.0000000000000000E+00 
    6.2500000000066530E-02     5.0000000000184897E-01     0.0000000000000000E+00 
    6.2500000000090733E-02     5.6250000000147260E-01     0.0000000000000000E+00 
    6.2500000000114922E-02     6.2500000000107636E-01     0.0000000000000000E+00 
    6.2500000000139125E-02     6.8750000000068034E-01     0.0000000000000000E+00 
    6.2500000000163328E-02     7.5000000000028411E-01     0.0000000000000000E+00 
    6.2500000000187531E-02     8.1249999999988787E-01     0.0000000000000000E+00 
    6.2500000000211720E-02     8.7499999999951172E-01     0.0000000000000000E+00 
    6.2500000000235922E-02     9.3749999999974565E-01     0.0000000000000000E+00 
    1.2499999999981980E-01     6.2500000000211733E-02     0.0000000000000000E+00 
    1.2499999999986650E-01     1.2500000000042691E-01     0.0000000000000000E+00 
    1.2499999999991319E-01     1.8750000000063199E-01     0.0000000000000000E+00 
    1.2499999999995989E-01     2.5000000000083678E-01     0.0000000000000000E+00 
    1.2500000000000661E-01     3.1250000000104172E-01     0.0000000000000000E+00 
    1.2500000000005329E-01     3.7500000000124661E-01     0.0000000000000000E+00 
    1.2500000000010000E-01     4.3750000000145117E-01     0.0000000000000000E+00 
    1.2500000000014669E-01     5.0000000000163858E-01     0.0000000000000000E+00 
    1.2500000000019340E-01     5.6250000000129741E-01     0.0000000000000000E+00 
    1.2500000000024011E-01     6.2500000000093847E-01     0.0000000000000000E+00 
    1.2500000000028680E-01     6.8750000000057998E-01     0.0000000000000000E+00 
    1.2500000000033351E-01     7.5000000000022127E-01     0.0000000000000000E+00 
    1.2500000000038020E-01     8.1249999999986211E-01     0.0000000000000000E+00 
    1.2500000000042691E-01     8.7499999999952238E-01     0.0000000000000000E+00 
    1.2500000000047359E-01     9.3749999999975164E-01     0.0000000000000000E+00 
    1.8749999999966760E-01     6.2500000000187531E-02     0.0000000000000000E+00 
    1.8749999999974179E-01     1.2500000000038020E-01     0.0000000000000000E+00 
    1.8749999999981601E-01     1.8750000000055780E-01     0.0000000000000000E+00 
    1.8749999999989009E-01     2.5000000000073502E-01     0.0000000000000000E+00 
    1.8749999999996431E-01     3.1250000000091221E-01     0.0000000000000000E+00 
    1.8750000000003850E-01     3.7500000000108941E-01     0.0000000000000000E+00 
    1.8750000000011269E-01     4.3750000000126649E-01     0.0000000000000000E+00 
    1.8750000000018691E-01     5.0000000000142808E-01     0.0000000000000000E+00 
    1.8750000000026110E-01     5.6250000000112244E-01     0.0000000000000000E+00 
    1.8750000000033529E-01     6.2500000000080080E-01     0.0000000000000000E+00 
    1.8750000000040951E-01     6.8750000000047962E-01     0.0000000000000000E+00 
    1.8750000000048361E-01     7.5000000000015843E-01     0.0000000000000000E+00 
    1.8750000000055780E-01     8.1249999999983680E-01     0.0000000000000000E+00 
    1.8750000000063199E-01     8.7499999999953304E-01     0.0000000000000000E+00 
    1.8750000000070621E-01     9.3749999999975764E-01     0.0000000000000000E+00 
    2.4999999999951281E-01     6.2500000000163314E-02     0.0000000000000000E+00 
    2.4999999999961461E-01     1.2500000000033351E-01     0.0000000000000000E+00 
    2.4999999999971650E-01     1.8750000000048361E-01     0.0000000000000000E+00 
    2.4999999999981831E-01     2.5000000000063310E-01     0.0000000000000000E+00 
    2.4999999999992020E-01     3.1250000000078260E-01     0.0000000000000000E+00 
    2.5000000000002198E-01     3.7500000000093209E-01     0.0000000000000000E+00 
    2.5000000000012390E-01     4.3750000000108180E-01     0.0000000000000000E+00 
    2.5000000000022571E-01     5.0000000000121769E-01     0.0000000000000000E+00 
    2.5000000000032763E-01     5.6250000000094724E-01     0.0000000000000000E+00 
    2.5000000000042938E-01     6.2500000000066314E-01     0.0000000000000000E+00 
    2.5000000000053119E-01     6.8750000000037925E-01     0.0000000000000000E+00 
[...]
CELL_DATA 256 
SCALARS Pressure double 1 
LOOKUP_TABLE default 

    6.9845330278006812E-01 
    6.4852544272032198E-01 
    6.1662314031155752E-01 
    5.8768178640532731E-01 
    5.5819544689672729E-01 
    5.2723173636105902E-01 
    4.9460138308308760E-01 
    4.6061635289080749E-01 
    4.2578594244365431E-01 
    3.9071577155045745E-01 
    3.5609104831788951E-01 
    3.2295461669546061E-01 
    2.9313561751142891E-01 
    2.6925329088491190E-01 
    2.5365536715103570E-01 
    2.4592963423828035E-01 
    6.8447305802041380E-01 
    6.4981177147769420E-01 
    6.1901575182494561E-01 
    5.9031394727731756E-01 
    5.6103792127746088E-01 
    5.3027390552570786E-01 
    4.9780877007562252E-01 
    4.6392992978820491E-01 
    4.2912711117170599E-01 
    3.9398751742253413E-01 
    3.5916036421403336E-01 
    3.2561678834546698E-01 
    2.9511868037473121E-01 
    2.7031758565417191E-01 
    2.5382319937707287E-01 
    2.4550781554314827E-01 
    6.7375267432577568E-01 
    6.4896304605809618E-01 
    6.2065316426644379E-01 
    5.9260486370744281E-01 
    5.6367208343707764E-01 
    5.3316512443946984E-01 
    5.0089650502638527E-01 
    4.6713690069219821E-01 
    4.3234986974734851E-01 
    3.9708841297509245E-01 
    3.6195805966137690E-01 
    3.2785199357061423E-01 
    2.9646884039931354E-01 
    2.7052791134408422E-01 
    2.5299523813636149E-01 
    2.4414021217553386E-01 
    6.6533636261969376E-01 
    6.4703752427298478E-01 
    6.2157767720446888E-01 
    5.9453443564718678E-01 
    5.6609384370697247E-01 
    5.3591097125804332E-01 
    5.0387265215080335E-01 
    4.7024726070824291E-01 
    4.3547051402874698E-01 
    4.0005008770009798E-01 
    3.6453580106796668E-01 
    3.2972944864920301E-01 
    2.9725514866266134E-01 
    2.6991605918251493E-01 
    2.5112307176342469E-01 
    2.4168564417188543E-01 
    6.5857872836510667E-01 
    6.4462642692536276E-01 
    6.2192380989325391E-01 
    5.9611362530974954E-01 
    5.6830302550505940E-01 
    5.3851637931241803E-01 
    5.0674697698739035E-01 
    4.7327466359268638E-01 
    4.3850964692355854E-01 
    4.0290778476175693E-01 
    3.6694943667859597E-01 
    3.3132593704007601E-01 
    2.9755839124095912E-01 
    2.6852340187530033E-01 
    2.4815548553549305E-01 
    2.3799573350307182E-01 
    6.5308012182388864E-01 
    6.4207471756071088E-01 
    6.2184389757812009E-01 
    5.9737792624667074E-01 
    5.7030748394127062E-01 
    5.4098606985154551E-01 
    5.0952878547314462E-01 
    4.7623411780667130E-01 
    4.4149058332850283E-01 
    4.0570027366115219E-01 
    3.6925908939414182E-01 
    3.3272618330183540E-01 
    2.9747331742732441E-01 
    2.6640690676035700E-01 
    2.4403876060500590E-01 
    2.3288995070404866E-01 
    6.4857754514678601E-01 
    6.3959207638528226E-01 
    6.2148717051658298E-01 
    5.9838367979991491E-01 
    5.7212827742488737E-01 
    5.4333083346551514E-01 
    5.1222643490892061E-01 
    4.7913922278910415E-01 
    4.4443775315080708E-01 
    4.0846764440073369E-01 
    3.7152962869632461E-01 
    3.3402383064056190E-01 
    2.9711248144639824E-01 
    2.6364794620925147E-01 
    2.3872762864960462E-01 
    2.2616417735939870E-01 
    6.4488589799052232E-01 
    6.3730219920122788E-01 
    6.2098493878595362E-01 
    5.9919792065510491E-01 
    5.7379819235081564E-01 
    5.4556831558859031E-01 
    5.1485183325404815E-01 
    4.8200182082535353E-01 
    4.4737061603587047E-01 
    4.1124702746495412E-01 
    3.7382590196482240E-01 
    3.3532175709968859E-01 
    2.9661081507192216E-01 
    2.6036172807949931E-01 
    2.3219564466337508E-01 
    2.1757832928963339E-01 
    6.4187029489852154E-01 
    6.3527344023497700E-01 
    6.2044390653804116E-01 
    5.9988940582766981E-01 
    5.7535432919280471E-01 
    5.4772015836154575E-01 
    5.1741858253948270E-01 
    4.8483318448245272E-01 
    4.5030525479096151E-01 
    4.1406865779913621E-01 
    3.7620799795445997E-01 
    3.3672734129320403E-01 
    2.9612861099392090E-01 
    2.5670958894953166E-01 
    2.2444382974341795E-01 
    2.0683110578487041E-01 
    6.3943207900518184E-01 
    6.3354220840471909E-01 
    6.1994687039249519E-01 
    6.0052245217839795E-01 
    5.7683689521935200E-01 
    5.4981105686088738E-01 
    5.1994359522934341E-01 
    4.8764585234550556E-01 
    4.5325486096784945E-01 
    4.1695569752587663E-01 
    3.7872604542105559E-01 
    3.3834614117610690E-01 
    2.9585024861076775E-01 
    2.5291407437304098E-01 
    2.1551965142982951E-01 
    1.9351883527518410E-01 
    6.3749830180117750E-01 
    6.3212757655317398E-01 
    6.1955854155180545E-01 
    6.0115607008854455E-01 
    5.7828750984589861E-01 
    5.5186988828152750E-01 
    5.2244674402678182E-01 
    4.9045459612345477E-01 
    4.5623362983173049E-01 
    4.1992806702502028E-01 
    3.8142164911820220E-01 
    3.4027713952190847E-01 
    2.9598200266996588E-01 
    2.4927797833775447E-01 
    2.0556387977791554E-01 
    1.7711260700616399E-01 
    6.3601209171011708E-01 
    6.3103877437985623E-01 
    6.1933133312996014E-01 
    6.0184553398334095E-01 
    5.7975088164408517E-01 
    5.5393072996323978E-01 
    5.2495378234066814E-01 
    4.9327768457139048E-01 
    4.5925744742184599E-01 
    4.2300506295023910E-01 
    3.8432828751733195E-01 
    3.4260741718536658E-01 
    2.9674592532560667E-01 
    2.4619906417400481E-01 
    1.9486299820393591E-01 
    1.5686728074076667E-01 
    6.3493582737881671E-01 
    6.3028642197044060E-01 
    6.1931341600750722E-01 
    6.0264644226625019E-01 
    5.8127487141908829E-01 
    5.5603295625856797E-01 
    5.2749587031829204E-01 
    4.9613752946217804E-01 
    4.6234401005214903E-01 
    4.2620354947031841E-01 
    3.8746840594185039E-01 
    3.4540038516081811E-01 
    2.9835703944702519E-01 
    2.4420473609510562E-01 
    1.8402770012941402E-01 
    1.3170376021567040E-01 
    6.3423713780812074E-01 
    6.2988271091872938E-01 
    6.1955146235026493E-01 
    6.0361415491523107E-01 
    5.8290723982875114E-01 
    5.5821426176362743E-01 
    5.3010251540611952E-01 
    4.9905008046380656E-01 
    4.6548943602495457E-01 
    4.2950354056147383E-01 
    3.9081174748317121E-01 
    3.4863555965029008E-01 
    3.0092879395368299E-01 
    2.4386305013628476E-01 
    1.7420313821301353E-01 
    1.0000873493529268E-01 
    6.3376216530625906E-01 
    6.2972556399080204E-01 
    6.2000097121606945E-01 
    6.0472560043179435E-01 
    5.8461541569507092E-01 
    5.6042839576691261E-01 
    5.3272529516538325E-01 
    5.0196986543585309E-01 
    4.6863520598473407E-01 
    4.3282784492268994E-01 
    3.9425942010638904E-01 
    3.5215642369101230E-01 
    3.0430783578652926E-01 
    2.4543685468630086E-01 
    1.6700391805639814E-01 
    5.8757094954254872E-02 
    6.3359176298097120E-01 
    6.2989147361325704E-01 
    6.2073176968951449E-01 
    6.0604254918072320E-01 
    5.8644988647022445E-01 
    5.6270947287594519E-01 
    5.3539341060767220E-01 
    5.0494687624429857E-01 
    4.7186095183087606E-01 
    4.3627904130732242E-01 
    3.9794105739636948E-01 
    3.5611155657516524E-01 
    3.0873055655841497E-01 
    2.4979676818046917E-01 
    1.6640139031152135E-01 
    0.0000000000000000E+00 

SCALARS Saturarion double 1 
LOOKUP_TABLE default 

    1.0000000000000007E+00 
    9.7629502116426947E-01 
    9.3309126400646103E-01 
    8.7566818099416399E-01 
    8.2744608241129869E-01 
    7.8503183621669359E-01 
    7.4824813986394434E-01 
    7.1645096078796833E-01 
    6.8852560149907494E-01 
    6.6333418688211210E-01 
    6.3963105576430013E-01 
    6.1599967996240901E-01 
    5.9034925648218806E-01 
    5.5935762758335861E-01 
    5.0237157605092597E-01 
    2.1441559516865971E-01 
    9.9104058156844743E-01 
    9.6859346196196638E-01 
    9.2333537035668989E-01 
    8.6866345481071072E-01 
    8.2213195782270232E-01 
    7.8137348726278788E-01 
    7.4566206364763143E-01 
    7.1439870917141357E-01 
    6.8681365167174180E-01 
    6.6192811009964259E-01 
    6.3876191623736234E-01 
    6.1601201170095743E-01 
    5.9148058934864456E-01 
    5.6147698071302821E-01 
    5.0752434558001081E-01 
    2.4497247788587556E-01 
    9.7689575766781422E-01 
    9.5445995343392576E-01 
    9.0905807486038404E-01 
    8.5623343871257862E-01 
    8.1171167934548161E-01 
    7.7370874698144687E-01 
    7.4024562417695128E-01 
    7.1019199850042947E-01 
    6.8314210338579551E-01 
    6.5859294546990155E-01 
    6.3599787479831249E-01 
    6.1433452676701983E-01 
    5.9164681803494201E-01 
    5.6393434382677643E-01 
    5.1430089151335734E-01 
    2.7285575159178210E-01 
    9.5220927284475354E-01 
    9.3333570943228972E-01 
    8.9165051280479435E-01 
    8.4298535993017265E-01 
    7.9931848559441232E-01 
    7.6269091154798641E-01 
    7.3110953561338010E-01 
    7.0302562244137756E-01 
    6.7750013867394498E-01 
    6.5422958101244044E-01 
    6.3267030170657557E-01 
    6.1211895859783505E-01 
    5.9108151242045193E-01 
    5.6595338669841933E-01 
    5.2092863776951448E-01 
    2.9981529758051639E-01 
    9.2202417906002621E-01 
    9.0543491447697821E-01 
    8.6835899881198841E-01 
    8.2458568288043899E-01 
    7.8328313698728125E-01 
    7.4783725665921730E-01 
    7.1782488408544243E-01 
    6.9173420051946377E-01 
    6.6846752479231297E-01 
    6.4740602492508825E-01 
    6.2803132260681749E-01 
    6.0948293836752654E-01 
    5.9027558220261978E-01 
    5.6741241214986493E-01 
    5.2706675495226907E-01 
    3.2167402744803236E-01 
    8.8841126577490837E-01 
    8.7463706215715498E-01 
    8.4246250568707148E-01 
    8.0301706374979009E-01 
    7.6501164422536039E-01 
    7.3144390315974139E-01 
    7.0241620427695139E-01 
    6.7760121502803194E-01 
    6.5620102694011062E-01 
    6.3746675773135819E-01 
    6.2075204592977062E-01 
    6.0520735718860219E-01 
    5.8892680925371343E-01 
    5.6852229437565283E-01 
    5.3252590484718410E-01 
    3.4110542278273320E-01 
    8.5216667401517876E-01 
    8.4178838869755401E-01 
    8.1488485054912529E-01 
    7.7992996545869542E-01 
    7.4548361214563230E-01 
    7.1436168735345973E-01 
    6.8700211802040045E-01 
    6.6303515951714109E-01 
    6.4253535421312102E-01 
    6.2528940400394717E-01 
    6.1091326181430050E-01 
    5.9851083828158280E-01 
    5.8612934950271389E-01 
    5.6935193541093776E-01 
    5.3745416657487954E-01 
    3.5999337105242074E-01 
    8.1309377752438827E-01 
    8.0655595982808537E-01 
    7.8568107619717786E-01 
    7.5575709615539943E-01 
    7.2458234879925321E-01 
    6.9577684134613638E-01 
    6.7001055039927104E-01 
    6.4745889814876056E-01 
    6.2801201964171804E-01 
    6.1182489396987128E-01 
    5.9896773287801686E-01 
    5.8927759140910607E-01 
    5.8103977614474067E-01 
    5.6926959575217362E-01 
    5.4231720649349047E-01 
    3.7898537451663922E-01 
    7.7139452519712259E-01 
    7.6857064146335619E-01 
    7.5354800760521556E-01 
    7.2899173236949699E-01 
    7.0165017265479157E-01 
    6.7527080895864011E-01 
    6.5135509307179695E-01 
    6.3010756792639888E-01 
    6.1162111515069717E-01 
    5.9617712115752963E-01 
    5.8446949832735207E-01 
    5.7707597737385030E-01 
    5.7306285447912542E-01 
    5.6731063165627715E-01 
    5.4646017165408189E-01 
    3.9705497825006847E-01 
    7.2712146799550226E-01 
    7.2774050869371332E-01 
    7.1813987881363150E-01 
    6.9863699935364876E-01 
    6.7538644246063939E-01 
    6.5196768542809957E-01 
    6.3001265257491801E-01 
    6.1044160524122848E-01 
    5.9329350469942665E-01 
    5.7872868186120485E-01 
    5.6755825106309943E-01 
    5.6144600298441871E-01 
    5.6121734276688351E-01 
    5.6246276731464950E-01 
    5.4950225684430376E-01 
    4.1462474486242262E-01 
    6.7992620281911853E-01 
    6.8371704499755448E-01 
    6.7913344727968739E-01 
    6.6431510921999593E-01 
    6.4518898828017879E-01 
    6.2529291762312422E-01 
    6.0628869702304733E-01 
    5.8859032638648567E-01 
    5.7285458426068303E-01 
    5.5953308446299699E-01 
    5.4930070531960584E-01 
    5.4358587421307514E-01 
    5.4509324648394930E-01 
    5.5324375445300833E-01 
    5.5022610017371720E-01 
    4.3228664593739008E-01 
    6.2866715987576860E-01 
    6.3543606038991085E-01 
    6.3593289943032427E-01 
    6.2592829579604059E-01 
    6.1082105776673612E-01 
    5.9438452220129523E-01 
    5.7835868416327207E-01 
    5.6339078545993937E-01 
    5.4981920261815909E-01 
    5.3836561839689456E-01 
    5.2964416573103557E-01 
    5.2476344761477733E-01 
    5.2630759986681508E-01 
    5.3835981364307961E-01 
    5.4556245553628946E-01 
    4.4892945971880927E-01 
    5.7569905326948667E-01 
    5.8422653453992490E-01 
    5.8876913749905169E-01 
    5.8365444969145086E-01 
    5.7304897629066176E-01 
    5.6003618685612100E-01 
    5.4700183727513996E-01 
    5.3446672516535731E-01 
    5.2283635777676429E-01 
    5.1247966256973909E-01 
    5.0486555451011250E-01 
    5.0166506060859917E-01 
    5.0476748616297240E-01 
    5.1828493147841703E-01 
    5.3734958700850100E-01 
    4.6311569939707120E-01 
    5.1340005267946909E-01 
    5.2696299367213961E-01 
    5.3501965997261347E-01 
    5.3509256436280528E-01 
    5.2719267640730683E-01 
    5.1603897042914559E-01 
    5.0316426979655338E-01 
    4.9155821688002488E-01 
    4.7784779935040084E-01 
    4.5839149759763637E-01 
    4.4356911024882911E-01 
    4.3951833739837243E-01 
    4.4806407575030160E-01 
    4.8085947187227213E-01 
    5.2090504565978202E-01 
    4.7296241965664576E-01 
    2.6303191766928524E-01 
    3.4478399941631882E-01 
    3.8870325859865928E-01 
    3.9791099659840307E-01 
    3.8320488680232273E-01 
    3.4815819063356790E-01 
    2.9832693246026920E-01 
    2.4726458660192396E-01 
    2.2129824500897391E-01 
    1.6861276667029737E-01 
    1.3627588550487627E-01 
    1.1835781604513995E-01 
    1.5451362076682057E-01 
    2.9805227523260813E-01 
    4.6028456915514332E-01 
    4.7395473142053918E-01 
    1.5559485948835023E-04 
    1.1153695786352584E-02 
    2.4351859424628860E-02 
    2.4763797413518987E-02 
    2.0569681877850306E-02 
    5.1754395696682011E-03 
    2.6734466724587275E-03 
    1.2637036705202695E-04 
    2.1299306809040327E-04 
    1.3065551214044914E-05 
    1.5763825127958501E-05 
    1.2706475702456123E-05 
    2.7785029898327982E-04 
    8.6237792650853420E-02 
    2.8719409153005637E-01 
    4.2371456091045812E-01 
