# vtk DataFile Version 2.0
Pressure Field Data 
ASCII 
DATASET UNSTRUCTURED_GRID 

POINTS 289 double 

    0.0000000000000000E+00     0.0000000000000000E+00     0.0000000000000000E+00 
    1.0000000000000000E+00     0.0000000000000000E+00     0.0000000000000000E+00 
    1.0000000000000000E+00     1.0000000000000000E+00     0.0000000000000000E+00 
    0.0000000000000000E+00     1.0000000000000000E+00     0.0000000000000000E+00 
    6.2499999999872928E-02     0.0000000000000000E+00     0.0000000000000000E+00 
    1.2499999999977310E-01     0.0000000000000000E+00     0.0000000000000000E+00 
    1.8749999999959341E-01     0.0000000000000000E+00     0.0000000000000000E+00 
    2.4999999999941089E-01     0.0000000000000000E+00     0.0000000000000000E+00 
    3.1249999999922851E-01     0.0000000000000000E+00     0.0000000000000000E+00 
    3.7499999999904610E-01     0.0000000000000000E+00     0.0000000000000000E+00 
    4.3749999999886358E-01     0.0000000000000000E+00     0.0000000000000000E+00 
    4.9999999999869210E-01     0.0000000000000000E+00     0.0000000000000000E+00 
    5.6249999999884603E-01     0.0000000000000000E+00     0.0000000000000000E+00 
    6.2499999999901090E-01     0.0000000000000000E+00     0.0000000000000000E+00 
    6.8749999999917577E-01     0.0000000000000000E+00     0.0000000000000000E+00 
    7.4999999999934064E-01     0.0000000000000000E+00     0.0000000000000000E+00 
    8.1249999999950551E-01     0.0000000000000000E+00     0.0000000000000000E+00 
    8.7499999999967026E-01     0.0000000000000000E+00     0.0000000000000000E+00 
    9.3749999999983513E-01     0.0000000000000000E+00     0.0000000000000000E+00 
    1.0000000000000000E+00     6.2499999999872928E-02     0.0000000000000000E+00 
    1.0000000000000000E+00     1.2499999999977310E-01     0.0000000000000000E+00 
    1.0000000000000000E+00     1.8749999999959341E-01     0.0000000000000000E+00 
    1.0000000000000000E+00     2.4999999999941089E-01     0.0000000000000000E+00 
    1.0000000000000000E+00     3.1249999999922851E-01     0.0000000000000000E+00 
    1.0000000000000000E+00     3.7499999999904610E-01     0.0000000000000000E+00 
    1.0000000000000000E+00     4.3749999999886358E-01     0.0000000000000000E+00 
    1.0000000000000000E+00     4.9999999999869210E-01     0.0000000000000000E+00 
    1.0000000000000000E+00     5.6249999999884603E-01     0.0000000000000000E+00 
    1.0000000000000000E+00     6.2499999999901090E-01     0.0000000000000000E+00 
    1.0000000000000000E+00     6.8749999999917577E-01     0.0000000000000000E+00 
    1.0000000000000000E+00     7.4999999999934064E-01     0.0000000000000000E+00 
    1.0000000000000000E+00     8.1249999999950551E-01     0.0000000000000000E+00 
    1.0000000000000000E+00     8.7499999999967026E-01     0.0000000000000000E+00 
    1.0000000000000000E+00     9.3749999999983513E-01     0.0000000000000000E+00 
    9.3749999999973976E-01     1.0000000000000000E+00     0.0000000000000000E+00 
    8.7499999999950118E-01     1.0000000000000000E+00     0.0000000000000000E+00 
    8.1249999999991318E-01     1.0000000000000000E+00     0.0000000000000000E+00 
    7.5000000000034706E-01     1.0000000000000000E+00     0.0000000000000000E+00 
    6.8750000000078049E-01     1.0000000000000000E+00     0.0000000000000000E+00 
    6.2500000000121403E-01     1.0000000000000000E+00     0.0000000000000000E+00 
    5.6250000000164757E-01     1.0000000000000000E+00     0.0000000000000000E+00 
    5.0000000000205946E-01     1.0000000000000000E+00     0.0000000000000000E+00 
    4.3750000000182099E-01     1.0000000000000000E+00     0.0000000000000000E+00 
    3.7500000000156092E-01     1.0000000000000000E+00     0.0000000000000000E+00 
    3.1250000000130068E-01     1.0000000000000000E+00     0.0000000000000000E+00 
    2.5000000000104050E-01     1.0000000000000000E+00     0.0000000000000000E+00 
    1.8750000000078040E-01     1.0000000000000000E+00     0.0000000000000000E+00 
    1.2500000000052031E-01     1.0000000000000000E+00     0.0000000000000000E+00 
    6.2500000000260125E-02     1.0000000000000000E+00     0.0000000000000000E+00 
    0.0000000000000000E+00     9.3749999999973976E-01     0.0000000000000000E+00 
    0.0000000000000000E+00     8.7499999999950118E-01     0.0000000000000000E+00 
    0.0000000000000000E+00     8.1249999999991318E-01     0.0000000000000000E+00 
    0.0000000000000000E+00     7.5000000000034706E-01     0.0000000000000000E+00 
    0.0000000000000000E+00     6.8750000000078049E-01     0.0000000000000000E+00 
    0.0000000000000000E+00     6.2500000000121403E-01     0.0000000000000000E+00 
    0.0000000000000000E+00     5.6250000000164757E-01     0.0000000000000000E+00 
    0.0000000000000000E+00     5.0000000000205946E-01     0.0000000000000000E+00 
    0.0000000000000000E+00     4.3750000000182099E-01     0.0000000000000000E+00 
    0.0000000000000000E+00     3.7500000000156092E-01     0.0000000000000000E+00 
    0.0000000000000000E+00     3.1250000000130068E-01     0.0000000000000000E+00 
    0.0000000000000000E+00     2.5000000000104050E-01     0.0000000000000000E+00 
    0.0000000000000000E+00     1.8750000000078040E-01     0.0000000000000000E+00 
    0.0000000000000000E+00     1.2500000000052031E-01     0.0000000000000000E+00 
    0.0000000000000000E+00     6.2500000000260125E-02     0.0000000000000000E+00 
    6.2499999999897131E-02     6.2500000000235922E-02     0.0000000000000000E+00 
    6.2499999999921327E-02     1.2500000000047351E-01     0.0000000000000000E+00 
    6.2499999999945530E-02     1.8750000000070621E-01     0.0000000000000000E+00 
    6.2499999999969733E-02     2.5000000000093858E-01     0.0000000000000000E+00 
    6.2499999999993928E-02     3.1250000000117117E-01     0.0000000000000000E+00 
    6.2500000000018124E-02     3.7500000000140382E-01     0.0000000000000000E+00 
    6.2500000000042327E-02     4.3750000000163619E-01     0.0000000000000000E+00 
    6.2500000000066530E-02     5.0000000000184897E-01     0.0000000000000000E+00 
    6.2500000000090733E-02     5.6250000000147260E-01     0.0000000000000000E+00 
    6.2500000000114922E-02     6.2500000000107636E-01     0.0000000000000000E+00 
    6.2500000000139125E-02     6.8750000000068034E-01     0.0000000000000000E+00 
    6.2500000000163328E-02     7.5000000000028411E-01     0.0000000000000000E+00 
    6.2500000000187531E-02     8.1249999999988787E-01     0.0000000000000000E+00 
    6.2500000000211720E-02     8.7499999999951172E-01     0.0000000000000000E+00 
    6.2500000000235922E-02     9.3749999999974565E-01     0.0000000000000000E+00 
    1.2499999999981980E-01     6.2500000000211733E-02     0.0000000000000000E+00 
    1.2499999999986650E-01     1.2500000000042691E-01     0.0000000000000000E+00 
    1.2499999999991319E-01     1.8750000000063199E-01     0.0000000000000000E+00 
    1.2499999999995989E-01     2.5000000000083678E-01     0.0000000000000000E+00 
    1.2500000000000661E-01     3.1250000000104172E-01     0.0000000000000000E+00 
    1.2500000000005329E-01     3.7500000000124661E-01     0.0000000000000000E+00 
    1.2500000000010000E-01     4.3750000000145117E-01     0.0000000000000000E+00 
    1.2500000000014669E-01     5.0000000000163858E-01     0.0000000000000000E+00 
    1.2500000000019340E-01     5.6250000000129741E-01     0.0000000000000000E+00 
    1.2500000000024011E-01     6.2500000000093847E-01     0.0000000000000000E+00 
    1.2500000000028680E-01     6.8750000000057998E-01     0.0000000000000000E+00 
    1.2500000000033351E-01     7.5000000000022127E-01     0.0000000000000000E+00 
    1.2500000000038020E-01     8.1249999999986211E-01     0.0000000000000000E+00 
    1.2500000000042691E-01     8.7499999999952238E-01     0.0000000000000000E+00 
    1.2500000000047359E-01     9.3749999999975164E-01     0.0000000000000000E+00 
    1.8749999999966760E-01     6.2500000000187531E-02     0.0000000000000000E+00 
    1.8749999999974179E-01     1.2500000000038020E-01     0.0000000000000000E+00 
    1.8749999999981601E-01     1.8750000000055780E-01     0.0000000000000000E+00 
    1.8749999999989009E-01     2.5000000000073502E-01     0.0000000000000000E+00 
    1.8749999999996431E-01     3.1250000000091221E-01     0.0000000000000000E+00 
    1.8750000000003850E-01     3.7500000000108941E-01     0.0000000000000000E+00 
    1.8750000000011269E-01     4.3750000000126649E-01     0.0000000000000000E+00 
    1.8750000000018691E-01     5.0000000000142808E-01     0.0000000000000000E+00 
    1.8750000000026110E-01     5.6250000000112244E-01     0.0000000000000000E+00 
    1.8750000000033529E-01     6.2500000000080080E-01     0.0000000000000000E+00 
    1.8750000000040951E-01     6.8750000000047962E-01     0.0000000000000000E+00 
    1.8750000000048361E-01     7.5000000000015843E-01     0.0000000000000000E+00 
    1.8750000000055780E-01     8.1249999999983680E-01     0.0000000000000000E+00 
    1.8750000000063199E-01     8.7499999999953304E-01     0.0000000000000000E+00 
    1.8750000000070621E-01     9.3749999999975764E-01     0.0000000000000000E+00 
    2.4999999999951281E-01     6.2500000000163314E-02     0.0000000000000000E+00 
    2.4999999999961461E-01     1.2500000000033351E-01     0.0000000000000000E+00 
    2.4999999999971650E-01     1.8750000000048361E-01     0.0000000000000000E+00 
    2.4999999999981831E-01     2.5000000000063310E-01     0.0000000000000000E+00 
    2.4999999999992020E-01     3.1250000000078260E-01     0.0000000000000000E+00 
    2.5000000000002198E-01     3.7500000000093209E-01     0.0000000000000000E+00 
    2.5000000000012390E-01     4.3750000000108180E-01     0.0000000000000000E+00 
    2.5000000000022571E-01     5.0000000000121769E-01     0.0000000000000000E+00 
    2.5000000000032763E-01     5.6250000000094724E-01     0.0000000000000000E+00 
    2.5000000000042938E-01     6.2500000000066314E-01     0.0000000000000000E+00 
    2.5000000000053119E-01     6.8750000000037925E-01     0.0000000000000000E+00 
[...]
CELL_DATA 256 
SCALARS Pressure double 1 
LOOKUP_TABLE default 

    9.7159840472432124E-01 
    9.1771231580693002E-01 
    8.7976352099179356E-01 
    8.4286851509856797E-01 
    8.0368650476592374E-01 
    7.6158117792658864E-01 
    7.1672575638564828E-01 
    6.6972314516071207E-01 
    6.2121481240786980E-01 
    5.7161780821698993E-01 
    5.1991848578794531E-01 
    4.5976587064506391E-01 
    4.0122148995820539E-01 
    3.5947786670197907E-01 
    3.3270945017167569E-01 
    3.2177907114486798E-01 
    9.5768669258617900E-01 
    9.1939610391587923E-01 
    8.8271818953569159E-01 
    8.4620558521497213E-01 
    8.0740540329229393E-01 
    7.6565698475835209E-01 
    7.2107518388225067E-01 
    6.7425130375109588E-01 
    6.2583886617817175E-01 
    5.7630524559517438E-01 
    5.2479933304611504E-01 
    4.6469816624972993E-01 
    4.0505055747125207E-01 
    3.6162475548999778E-01 
    3.3325545734888906E-01 
    3.2134874292838533E-01 
    9.4691735921041364E-01 
    9.1878594961011539E-01 
    8.8476500772472744E-01 
    8.4903503863030061E-01 
    8.1074601914709099E-01 
    7.6943102401701080E-01 
    7.2517642805508231E-01 
    6.7855510780983141E-01 
    6.3021871548894648E-01 
    5.8064222925346576E-01 
    5.2905999811169979E-01 
    4.6867881950569096E-01 
    4.0781714776675015E-01 
    3.6256820227171566E-01 
    3.3246457402830148E-01 
    3.1975149506566392E-01 
    9.3820170712546858E-01 
    9.1689501525663641E-01 
    8.8593147287867691E-01 
    8.5135844533903782E-01 
    8.1372258642041184E-01 
    7.7290914532420818E-01 
    7.2903497695587516E-01 
    6.8264954512825815E-01 
    6.3438165170515637E-01 
    5.8467593178502353E-01 
    5.3278075324317242E-01 
    4.7183816717568139E-01 
    4.0963093950590312E-01 
    3.6233304664699778E-01 
    3.3025110194305274E-01 
    3.1676272003543687E-01 
    9.3088815356720989E-01 
    9.1428177252570286E-01 
    8.8633871451523083E-01 
    8.5319882207887898E-01 
    8.1636480925694066E-01 
    7.7612072034562196E-01 
    7.3267406972988902E-01 
    6.8655787062368279E-01 
    6.3836097471067499E-01 
    5.8846362190470491E-01 
    5.3603528788097399E-01 
    4.7428629444440223E-01 
    4.1061900332485729E-01 
    3.6096773691484679E-01 
    3.2652682455849363E-01 
    3.1215065807599496E-01 
    9.2468461954612691E-01 
    9.1134354907847148E-01 
    8.8616462098803428E-01 
    8.5461311318631661E-01 
    8.1871527029439783E-01 
    7.7910865290457032E-01 
    7.3612869448788476E-01 
    6.9030776926244264E-01 
    6.4218871258517962E-01 
    5.9205831489892480E-01 
    5.3886583691486867E-01 
    4.7610811597845881E-01 
    4.1093577021597333E-01 
    3.5855251328416277E-01 
    3.2120611294586759E-01 
    3.0565331088379227E-01 
    9.1940375308898437E-01 
    9.0835305007322487E-01 
    8.8560024002530269E-01 
    8.5568348689608664E-01 
    8.2082112137170304E-01 
    7.8191734325136109E-01 
    7.3943694707285101E-01 
    6.9393181465132781E-01 
    6.4590130195164153E-01 
    5.9551330484102905E-01 
    5.4129634344794464E-01 
    4.7739713086271268E-01 
    4.1079231438580971E-01 
    3.5521308791547967E-01 
    3.1421763162430172E-01 
    2.9697348583869104E-01 
    9.1491297610566324E-01 
    9.0548716082616554E-01 
    8.8481585539839447E-01 
    8.5650164464455947E-01 
    8.2273476383177069E-01 
    7.8458919912246394E-01 
    7.4264153662128274E-01 
    6.9746970655305252E-01 
    6.4953635767272344E-01 
    5.9886975283565180E-01 
    5.4335783305958307E-01 
    4.7830719955742723E-01 
    4.1046469992192647E-01 
    3.5113249008730812E-01 
    3.0551342141680093E-01 
    2.8574746567841341E-01 
    9.1111749164325473E-01 
    9.0285938085852735E-01 
    8.8395722574797220E-01 
    8.5716549989027591E-01 
    8.2451312079208938E-01 
    7.8716657796668243E-01 
    7.4578517591012727E-01 
    7.0096383444014898E-01 
    6.5312543588180516E-01 
    6.0206663536078098E-01 
    5.4510542161840148E-01 
    4.7913578741160245E-01 
    4.1025283940502938E-01 
    3.4656870307149429E-01 
    2.9509557016337118E-01 
    2.7152445711301787E-01 
    9.0796335672815576E-01 
    9.0055608035147749E-01 
    8.8315221373764041E-01 
    8.5777551185562018E-01 
    8.2622281558442856E-01 
    7.8969626470800203E-01 
    7.4890647540281352E-01 
    7.0443935223645748E-01 
    6.5663666867371007E-01 
    6.0489342939131074E-01 
    5.4661683709892561E-01 
    4.8029308032899209E-01 
    4.1036450533075919E-01 
    3.4186387289355291E-01 
    2.8305126551844484E-01 
    2.5371763228732880E-01 
    9.0543257526456056E-01 
    8.9865704205123675E-01 
    8.8251661953894722E-01 
    8.5843290669630712E-01 
    8.2793543436256878E-01 
    7.9221782152264175E-01 
    7.5200954278675269E-01 
    7.0780305951159195E-01 
    6.5982169927749790E-01 
    6.0728798633250258E-01 
    5.4836580109705535E-01 
    4.8223426162420818E-01 
    4.1098009440293237E-01 
    3.3746655394197927E-01 
    2.6962386204462507E-01 
    2.3155326235500001E-01 
    9.0344856893597303E-01 
    8.9717470924086307E-01 
    8.8211258978554008E-01 
    8.5919783716657627E-01 
    8.2965983532130183E-01 
    7.9460931375194366E-01 
    7.5486675075287191E-01 
    7.1083626255828791E-01 
    6.6264185915413631E-01 
    6.0980815015801659E-01 
    5.5097469034121038E-01 
    4.8507353689858052E-01 
    4.1241274337203221E-01 
    3.3396104695905687E-01 
    2.5532739537370036E-01 
    2.0398171558670455E-01 
    9.0162235574532223E-01 
    8.9583205205601946E-01 
    8.8172977072248171E-01 
    8.5984792358813966E-01 
    8.3117605774501868E-01 
    7.9671826338736462E-01 
    7.5742348292877493E-01 
    7.1376194495534950E-01 
    6.6573573751678705E-01 
    6.1305568091230644E-01 
    5.5449177834311836E-01 
    4.8869499640856268E-01 
    4.1498093858385710E-01 
    3.3207271687742862E-01 
    2.4114588688499441E-01 
    1.6955673793356027E-01 
    9.0016239984615520E-01 
    8.9470891146109988E-01 
    8.8143936364839792E-01 
    8.6048211587369650E-01 
    8.3266272418926690E-01 
    7.9892180283540848E-01 
    7.6021624072849514E-01 
    7.1706758148150163E-01 
    6.6941959273681395E-01 
    6.1698061781121882E-01 
    5.5868976478271926E-01 
    4.9315233758018584E-01 
    4.1891098358108259E-01 
    3.3261329989550853E-01 
    2.2886080764816133E-01 
    1.2624570964048881E-01 
    8.9940766623778656E-01 
    8.9428041212399045E-01 
    8.8173006023567591E-01 
    8.6161491732571860E-01 
    8.3461426343378431E-01 
    8.0159495273343784E-01 
    7.6346388038615109E-01 
    7.2076500040509683E-01 
    6.7352004826320477E-01 
    6.2143392075657777E-01 
    5.6354391045733288E-01 
    4.9845461859305334E-01 
    4.2429895801589212E-01 
    3.3632441789502382E-01 
    2.2160433703591306E-01 
    7.1141717049262213E-02 
    8.9919871232443460E-01 
    8.9448905176593196E-01 
    8.8264945331297950E-01 
    8.6330874048960515E-01 
    8.3703363598085256E-01 
    8.0465694235056262E-01 
    7.6706504724392877E-01 
    7.2482872969113943E-01 
    6.7802594107113490E-01 
    6.2638650306557631E-01 
    5.6901885322541079E-01 
    5.0456255106695647E-01 
    4.3107556541677988E-01 
    3.4350653406999510E-01 
    2.2478616957458655E-01 
    0.0000000000000000E+00 

SCALARS Saturarion double 1 
LOOKUP_TABLE default 

    1.0000000000000653E+00 
    9.5511106663727685E-01 
    8.8299242542597511E-01 
    7.9580230431472476E-01 
    7.2499003927322148E-01 
    6.7096504269581625E-01 
    6.2786724264634397E-01 
    5.9042199752809688E-01 
    5.5583891624992743E-01 
    5.2079292504624530E-01 
    4.6678327957021165E-01 
    2.6127754405878661E-01 
    1.4328382728557275E-03 
    1.0000000001430147E-06 
    1.0000000000000002E-06 
    9.9999999999999995E-07 
    9.8020839450033259E-01 
    9.3795376702730948E-01 
    8.6277681415908614E-01 
    7.8564651292787457E-01 
    7.2013163349455622E-01 
    6.6689686232147782E-01 
    6.2369025763325314E-01 
    5.8679895239203095E-01 
    5.5319564849454950E-01 
    5.1886188873061367E-01 
    4.6546828791004596E-01 
    2.6213857075963626E-01 
    1.6593424630479930E-03 
    1.0000373819948744E-06 
    1.0000000000016654E-06 
    9.9999999999999995E-07 
    9.4877236147495259E-01 
    9.0990635731193092E-01 
    8.3642823022080637E-01 
    7.6786586273154001E-01 
    7.0946066882493142E-01 
    6.5834032275493681E-01 
    6.1563575250199376E-01 
    5.7987288223149624E-01 
    5.4793300126427169E-01 
    5.1496532499988878E-01 
    4.6337750847446096E-01 
    2.6382047199913505E-01 
    1.8694262918024348E-03 
    1.0000493396440518E-06 
    1.0000000000030059E-06 
    9.9999999999999995E-07 
    8.9549903745149051E-01 
    8.6597848182426784E-01 
    8.0322043199319326E-01 
    7.4197526427063243E-01 
    6.9136827053704941E-01 
    6.4680535305789544E-01 
    6.0767876942616117E-01 
    5.7399951759186596E-01 
    5.4339979929840898E-01 
    5.1201824359455161E-01 
    4.6253878684003286E-01 
    2.7165774425747713E-01 
    2.5310411339392663E-03 
    1.0028109316192936E-06 
    1.0000000003192194E-06 
    9.9999999999999995E-07 
    8.4194057406611056E-01 
    8.1724470487265077E-01 
    7.6559892230019455E-01 
    7.1321125503582194E-01 
    6.6902397865474084E-01 
    6.3107537184108131E-01 
    5.9732100837315760E-01 
    5.6664531559387066E-01 
    5.3786566160506855E-01 
    5.0754575573198779E-01 
    4.5933341596112148E-01 
    2.7011288099230485E-01 
    2.5538146504977869E-03 
    1.0085856459012840E-06 
    1.0000000004655085E-06 
    9.9999999999999995E-07 
    7.8910162322997923E-01 
    7.7025513430495729E-01 
    7.2929735046468469E-01 
    6.8453687356226867E-01 
    6.4536400323640786E-01 
    6.1234788128953688E-01 
    5.8290569175168083E-01 
    5.5552884839935945E-01 
    5.2931849807540476E-01 
    5.0063065439588961E-01 
    4.5153665641395047E-01 
    2.5068769141691571E-01 
    1.5960099961481412E-03 
    1.0250097556784811E-06 
    1.0000000014602233E-06 
    9.9999999999999995E-07 
    7.3743731556784820E-01 
    7.2472366901341789E-01 
    6.9322752431154377E-01 
    6.5530150000679077E-01 
    6.2095772663981241E-01 
    5.9183934188078546E-01 
    5.6639996030389728E-01 
    5.4234349782176916E-01 
    5.1825390517705128E-01 
    4.9090698659877385E-01 
    4.3988575399950841E-01 
    2.1304090574313167E-01 
    4.7310229586006029E-04 
    1.0057705403387522E-06 
    1.0000000005680357E-06 
    9.9999999999999995E-07 
    6.8640890309762825E-01 
    6.7941937093406868E-01 
    6.5701907351153710E-01 
    6.2626366585927296E-01 
    5.9605737359791588E-01 
    5.6956382813490847E-01 
    5.4701427388545565E-01 
    5.2701458446886695E-01 
    5.0600706563994324E-01 
    4.7901956950468194E-01 
    4.1879628177032707E-01 
    1.5282865842075202E-01 
    1.2089752120750849E-04 
    1.0028685138810502E-06 
    1.0000000002755518E-06 
    9.9999999999999995E-07 
    6.3629145822086752E-01 
    6.3404261989310207E-01 
    6.1968790045291944E-01 
    5.9631503775498740E-01 
    5.7068845240715094E-01 
    5.4676604444725352E-01 
    5.2684334436654012E-01 
    5.0934040912883416E-01 
    4.9019032207032609E-01 
    4.6011820722826963E-01 
    3.6163378101911159E-01 
    5.7128523655587238E-02 
    9.6387103211016160E-05 
    1.0014474581026674E-06 
    1.0000000000000025E-06 
    9.9999999999999995E-07 
    5.8894633565316756E-01 
    5.9036554556708765E-01 
    5.8268027719646676E-01 
    5.6532866637912638E-01 
    5.4466591360495709E-01 
    5.2455111445579872E-01 
    5.0598320533324548E-01 
    4.8796830068775410E-01 
    4.6471154699775136E-01 
    4.1224792228755075E-01 
    2.0735570808713238E-01 
    3.2057992253497723E-03 
    1.3873205299399868E-06 
    1.0000001072774010E-06 
    1.0000000000000038E-06 
    9.9999999999999995E-07 
    5.4667049674974000E-01 
    5.5044255841675938E-01 
    5.4660270147905643E-01 
    5.3324441041058934E-01 
    5.1786995452588624E-01 
    4.9985757160808408E-01 
    4.7869961004051770E-01 
    4.5135538492857580E-01 
    3.8628589338237102E-01 
    2.1876380396353667E-01 
    2.2884666788207799E-02 
    2.3659737440026949E-05 
    1.0000525274808128E-06 
    1.0000000000000692E-06 
    9.9999999999999995E-07 
    9.9999999999999995E-07 
    4.9054642206509247E-01 
    4.9960633089475848E-01 
    5.0095735692276822E-01 
    4.9153290325859494E-01 
    4.7462455042275115E-01 
    4.4040339427371822E-01 
    3.5978342316917283E-01 
    2.4766125104714651E-01 
    1.0449216965689745E-01 
    4.5760516016559744E-03 
    1.5276495750439260E-05 
    1.0000521831533183E-06 
    1.0000000000107052E-06 
    9.9999999999999995E-07 
    9.9999999999999995E-07 
    9.9999999999999995E-07 
    2.7603361807244664E-01 
    3.5313676427360174E-01 
    3.7758374755089030E-01 
    3.4005766631035556E-01 
    2.6945605064143324E-01 
    1.4869489174265285E-01 
    2.9736261553865329E-02 
    1.6333546362185833E-03 
    8.9990765712774474E-05 
    1.3380394970498351E-06 
    1.0000086478035078E-06 
    1.0000000000019403E-06 
    9.9999999999999995E-07 
    9.9999999999999995E-07 
    9.9999999999999995E-07 
    9.9999999999999995E-07 
    1.3168733729868223E-03 
    2.4905187895242608E-02 
    3.3105026215905546E-02 
    1.1560954218870653E-02 
    2.5705136630683723E-03 
    1.1189018405266932E-04 
    1.0166536832284901E-05 
    1.0502463699025709E-06 
    1.0009369555190687E-06 
    1.0000000272347812E-06 
    1.0000000000000535E-06 
    9.9999999999999995E-07 
    9.9999999999999995E-07 
    9.9999999999999995E-07 
    9.9999999999999995E-07 
    9.9999999999999995E-07 
    1.0000027754569908E-06 
    6.3970580345539783E-06 
    1.1509489462890097E-06 
    2.4196032350072248E-06 
    1.1213941191703685E-06 
    1.0021576682678692E-06 
    1.0000034108539801E-06 
    1.0000000044898101E-06 
    1.0000000000000042E-06 
    1.0000000000000002E-06 
    9.9999999999999995E-07 
    9.9999999999999995E-07 
    9.9999999999999995E-07 
    9.9999999999999995E-07 
    9.9999999999999995E-07 
    9.9999999999999995E-07 
    1.0000000000001558E-06 
    1.0000005695212063E-06 
    1.0000000257883157E-06 
    1.0000000579421730E-06 
    1.0000000089807976E-06 
    1.0000000000014492E-06 
    9.9999999999999995E-07 
    9.9999999999999995E-07 
    9.9999999999999995E-07 
    9.9999999999999995E-07 
    9.9999999999999995E-07 
    9.9999999999999995E-07 
    9.9999999999999995E-07 
    9.9999999999999995E-07 
    9.9999999999999995E-07 
    1.0000003906691485E-06 
