# vtk DataFile Version 2.0
Pressure Field Data 
ASCII 
DATASET UNSTRUCTURED_GRID 

POINTS 289 double 

    0.0000000000000000E+00     0.0000000000000000E+00     0.0000000000000000E+00 
    1.0000000000000000E+00     0.0000000000000000E+00     0.0000000000000000E+00 
    1.0000000000000000E+00     1.0000000000000000E+00     0.0000000000000000E+00 
    0.0000000000000000E+00     1.0000000000000000E+00     0.0000000000000000E+00 
    6.2499999999872928E-02     0.0000000000000000E+00     0.0000000000000000E+00 
    1.2499999999977310E-01     0.0000000000000000E+00     0.0000000000000000E+00 
    1.8749999999959341E-01     0.0000000000000000E+00     0.0000000000000000E+00 
    2.4999999999941089E-01     0.0000000000000000E+00     0.0000000000000000E+00 
    3.1249999999922851E-01     0.0000000000000000E+00     0.0000000000000000E+00 
    3.7499999999904610E-01     0.0000000000000000E+00     0.0000000000000000E+00 
    4.3749999999886358E-01     0.0000000000000000E+00     0.0000000000000000E+00 
    4.9999999999869210E-01     0.0000000000000000E+00     0.0000000000000000E+00 
    5.6249999999884603E-01     0.0000000000000000E+00     0.0000000000000000E+00 
    6.2499999999901090E-01     0.0000000000000000E+00     0.0000000000000000E+00 
    6.8749999999917577E-01     0.0000000000000000E+00     0.0000000000000000E+00 
    7.4999999999934064E-01     0.0000000000000000E+00     0.0000000000000000E+00 
    8.1249999999950551E-01     0.0000000000000000E+00     0.0000000000000000E+00 
    8.7499999999967026E-01     0.0000000000000000E+00     0.0000000000000000E+00 
    9.3749999999983513E-01     0.0000000000000000E+00     0.0000000000000000E+00 
    1.0000000000000000E+00     6.2499999999872928E-02     0.0000000000000000E+00 
    1.0000000000000000E+00     1.2499999999977310E-01     0.0000000000000000E+00 
    1.0000000000000000E+00     1.8749999999959341E-01     0.0000000000000000E+00 
    1.0000000000000000E+00     2.4999999999941089E-01     0.0000000000000000E+00 
    1.0000000000000000E+00     3.1249999999922851E-01     0.0000000000000000E+00 
    1.0000000000000000E+00     3.7499999999904610E-01     0.0000000000000000E+00 
    1.0000000000000000E+00     4.3749999999886358E-01     0.0000000000000000E+00 
    1.0000000000000000E+00     4.9999999999869210E-01     0.0000000000000000E+00 
    1.0000000000000000E+00     5.6249999999884603E-01     0.0000000000000000E+00 
    1.0000000000000000E+00     6.2499999999901090E-01     0.0000000000000000E+00 
    1.0000000000000000E+00     6.8749999999917577E-01     0.0000000000000000E+00 
    1.0000000000000000E+00     7.4999999999934064E-01     0.0000000000000000E+00 
    1.0000000000000000E+00     8.1249999999950551E-01     0.0000000000000000E+00 
    1.0000000000000000E+00     8.7499999999967026E-01     0.0000000000000000E+00 
    1.0000000000000000E+00     9.3749999999983513E-01     0.0000000000000000E+00 
    9.3749999999973976E-01     1.0000000000000000E+00     0.0000000000000000E+00 
    8.7499999999950118E-01     1.0000000000000000E+00     0.0000000000000000E+00 
    8.1249999999991318E-01     1.0000000000000000E+00     0.0000000000000000E+00 
    7.5000000000034706E-01     1.0000000000000000E+00     0.0000000000000000E+00 
    6.8750000000078049E-01     1.0000000000000000E+00     0.0000000000000000E+00 
    6.2500000000121403E-01     1.0000000000000000E+00     0.0000000000000000E+00 
    5.6250000000164757E-01     1.0000000000000000E+00     0.0000000000000000E+00 
    5.0000000000205946E-01     1.0000000000000000E+00     0.0000000000000000E+00 
    4.3750000000182099E-01     1.0000000000000000E+00     0.0000000000000000E+00 
    3.7500000000156092E-01     1.0000000000000000E+00     0.0000000000000000E+00 
    3.1250000000130068E-01     1.0000000000000000E+00     0.0000000000000000E+00 
    2.5000000000104050E-01     1.0000000000000000E+00     0.0000000000000000E+00 
    1.8750000000078040E-01     1.0000000000000000E+00     0.0000000000000000E+00 
    1.2500000000052031E-01     1.0000000000000000E+00     0.0000000000000000E+00 
    6.2500000000260125E-02     1.0000000000000000E+00     0.0000000000000000E+00 
    0.0000000000000000E+00     9.3749999999973976E-01     0.0000000000000000E+00 
    0.0000000000000000E+00     8.7499999999950118E-01     0.0000000000000000E+00 
    0.0000000000000000E+00     8.1249999999991318E-01     0.0000000000000000E+00 
    0.0000000000000000E+00     7.5000000000034706E-01     0.0000000000000000E+00 
    0.0000000000000000E+00     6.8750000000078049E-01     0.0000000000000000E+00 
    0.0000000000000000E+00     6.2500000000121403E-01     0.0000000000000000E+00 
    0.0000000000000000E+00     5.6250000000164757E-01     0.0000000000000000E+00 
    0.0000000000000000E+00     5.0000000000205946E-01     0.0000000000000000E+00 
    0.0000000000000000E+00     4.3750000000182099E-01     0.0000000000000000E+00 
    0.0000000000000000E+00     3.7500000000156092E-01     0.0000000000000000E+00 
    0.0000000000000000E+00     3.1250000000130068E-01     0.0000000000000000E+00 
    0.0000000000000000E+00     2.5000000000104050E-01     0.0000000000000000E+00 
    0.0000000000000000E+00     1.8750000000078040E-01     0.0000000000000000E+00 
    0.0000000000000000E+00     1.2500000000052031E-01     0.0000000000000000E+00 
    0.0000000000000000E+00     6.2500000000260125E-02     0.0000000000000000E+00 
    6.2499999999897131E-02     6.2500000000235922E-02     0.0000000000000000E+00 
    6.2499999999921327E-02     1.2500000000047351E-01     0.0000000000000000E+00 
    6.2499999999945530E-02     1.8750000000070621E-01     0.0000000000000000E+00 
    6.2499999999969733E-02     2.5000000000093858E-01     0.0000000000000000E+00 
    6.2499999999993928E-02     3.1250000000117117E-01     0.0000000000000000E+00 
    6.2500000000018124E-02     3.7500000000140382E-01     0.0000000000000000E+00 
    6.2500000000042327E-02     4.3750000000163619E-01     0.0000000000000000E+00 
    6.2500000000066530E-02     5.0000000000184897E-01     0.0000000000000000E+00 
    6.2500000000090733E-02     5.6250000000147260E-01     0.0000000000000000E+00 
    6.2500000000114922E-02     6.2500000000107636E-01     0.0000000000000000E+00 
    6.2500000000139125E-02     6.8750000000068034E-01     0.0000000000000000E+00 
    6.2500000000163328E-02     7.5000000000028411E-01     0.0000000000000000E+00 
    6.2500000000187531E-02     8.1249999999988787E-01     0.0000000000000000E+00 
    6.2500000000211720E-02     8.7499999999951172E-01     0.0000000000000000E+00 
    6.2500000000235922E-02     9.3749999999974565E-01     0.0000000000000000E+00 
    1.2499999999981980E-01     6.2500000000211733E-02     0.0000000000000000E+00 
    1.2499999999986650E-01     1.2500000000042691E-01     0.0000000000000000E+00 
    1.2499999999991319E-01     1.8750000000063199E-01     0.0000000000000000E+00 
    1.2499999999995989E-01     2.5000000000083678E-01     0.0000000000000000E+00 
    1.2500000000000661E-01     3.1250000000104172E-01     0.0000000000000000E+00 
    1.2500000000005329E-01     3.7500000000124661E-01     0.0000000000000000E+00 
    1.2500000000010000E-01     4.3750000000145117E-01     0.0000000000000000E+00 
    1.2500000000014669E-01     5.0000000000163858E-01     0.0000000000000000E+00 
    1.2500000000019340E-01     5.6250000000129741E-01     0.0000000000000000E+00 
    1.2500000000024011E-01     6.2500000000093847E-01     0.0000000000000000E+00 
    1.2500000000028680E-01     6.8750000000057998E-01     0.0000000000000000E+00 
    1.2500000000033351E-01     7.5000000000022127E-01     0.0000000000000000E+00 
    1.2500000000038020E-01     8.1249999999986211E-01     0.0000000000000000E+00 
    1.2500000000042691E-01     8.7499999999952238E-01     0.0000000000000000E+00 
    1.2500000000047359E-01     9.3749999999975164E-01     0.0000000000000000E+00 
    1.8749999999966760E-01     6.2500000000187531E-02     0.0000000000000000E+00 
    1.8749999999974179E-01     1.2500000000038020E-01     0.0000000000000000E+00 
    1.8749999999981601E-01     1.8750000000055780E-01     0.0000000000000000E+00 
    1.8749999999989009E-01     2.5000000000073502E-01     0.0000000000000000E+00 
    1.8749999999996431E-01     3.1250000000091221E-01     0.0000000000000000E+00 
    1.8750000000003850E-01     3.7500000000108941E-01     0.0000000000000000E+00 
    1.8750000000011269E-01     4.3750000000126649E-01     0.0000000000000000E+00 
    1.8750000000018691E-01     5.0000000000142808E-01     0.0000000000000000E+00 
    1.8750000000026110E-01     5.6250000000112244E-01     0.0000000000000000E+00 
    1.8750000000033529E-01     6.2500000000080080E-01     0.0000000000000000E+00 
    1.8750000000040951E-01     6.8750000000047962E-01     0.0000000000000000E+00 
    1.8750000000048361E-01     7.5000000000015843E-01     0.0000000000000000E+00 
    1.8750000000055780E-01     8.1249999999983680E-01     0.0000000000000000E+00 
    1.8750000000063199E-01     8.7499999999953304E-01     0.0000000000000000E+00 
    1.8750000000070621E-01     9.3749999999975764E-01     0.0000000000000000E+00 
    2.4999999999951281E-01     6.2500000000163314E-02     0.0000000000000000E+00 
    2.4999999999961461E-01     1.2500000000033351E-01     0.0000000000000000E+00 
    2.4999999999971650E-01     1.8750000000048361E-01     0.0000000000000000E+00 
    2.4999999999981831E-01     2.5000000000063310E-01     0.0000000000000000E+00 
    2.4999999999992020E-01     3.1250000000078260E-01     0.0000000000000000E+00 
    2.5000000000002198E-01     3.7500000000093209E-01     0.0000000000000000E+00 
    2.5000000000012390E-01     4.3750000000108180E-01     0.0000000000000000E+00 
    2.5000000000022571E-01     5.0000000000121769E-01     0.0000000000000000E+00 
    2.5000000000032763E-01     5.6250000000094724E-01     0.0000000000000000E+00 
    2.5000000000042938E-01     6.2500000000066314E-01     0.0000000000000000E+00 
    2.5000000000053119E-01     6.8750000000037925E-01     0.0000000000000000E+00 
[...]
CELL_DATA 256 
SCALARS Pressure double 1 
LOOKUP_TABLE default 

    9.6361391649917627E-01 
    9.0989279864115458E-01 
    8.7218709467075239E-01 
    8.3560503597244107E-01 
    7.9679636974135848E-01 
    7.5509889369189909E-01 
    7.1066790420792270E-01 
    6.6411196614282331E-01 
    6.1609910959051262E-01 
    5.6714681690072433E-01 
    5.1679155419556977E-01 
    4.5996486739193931E-01 
    4.0295576973374120E-01 
    3.6043389255169467E-01 
    3.3347068700672799E-01 
    3.2248438379196692E-01 
    9.4970063739811528E-01 
    9.1156146186147080E-01 
    8.7512132405892551E-01 
    8.3891679627728621E-01 
    8.0048347388150554E-01 
    7.5913905842563212E-01 
    7.1497997183730932E-01 
    6.6859953116583382E-01 
    6.2067430965891524E-01 
    5.7175718835853429E-01 
    5.2151006349075579E-01 
    4.6470289344693494E-01 
    4.0674210385205939E-01 
    3.6258852793221308E-01 
    3.3401645871041863E-01 
    3.2205052121066491E-01 
    9.3893737005153233E-01 
    9.1094409396191445E-01 
    8.7715522681060221E-01 
    8.4172930721804895E-01 
    8.0380008743880915E-01 
    7.6288386837977740E-01 
    7.1904993637496439E-01 
    6.7286966299723183E-01 
    6.2501579489983417E-01 
    5.7604311340117409E-01 
    5.2566944627139489E-01 
    4.6854718715880966E-01 
    4.0944562289919206E-01 
    3.6350342851669076E-01 
    3.3321062837934162E-01 
    3.2044127464274863E-01 
    9.3024058976997104E-01 
    9.0905630956525518E-01 
    8.7831682516283582E-01 
    8.4404301561909523E-01 
    8.0676041927448539E-01 
    7.6633946295608357E-01 
    7.2288259380418562E-01 
    6.7693621107043722E-01 
    6.2914957145216222E-01 
    5.8005079698212314E-01 
    5.2936032383935328E-01 
    4.7162095236541879E-01 
    4.1116597775940283E-01 
    3.6320836335898227E-01 
    3.3096613171812389E-01 
    3.1743079744212643E-01 
    9.2295774179134893E-01 
    9.0645767321102888E-01 
    8.7872748556869862E-01 
    8.4587962770219682E-01 
    8.0939265567979835E-01 
    7.6953443646025432E-01 
    7.2650067635857063E-01 
    6.8082157937032428E-01 
    6.3310680903346850E-01 
    5.8383280424530559E-01 
    5.3267643460503633E-01 
    4.7403424175564340E-01 
    4.1200468000796447E-01 
    3.6175552813236023E-01 
    3.2719477928171486E-01 
    3.1278669309852020E-01 
    9.1679109806573966E-01 
    9.0354202461933575E-01 
    8.7856303305469341E-01 
    8.4729430616934875E-01 
    8.1173715761189247E-01 
    7.7251027391433724E-01 
    7.2993906459157909E-01 
    6.8455328351742339E-01 
    6.3691782494124061E-01 
    5.8743484502093735E-01 
    5.3567553392486655E-01 
    4.7587169619038044E-01 
    4.1208248106126588E-01 
    3.5923073287857671E-01 
    3.2181202343500837E-01 
    3.0624697880716134E-01 
    9.1154955551701866E-01 
    9.0057880977325289E-01 
    8.7801242094070797E-01 
    8.4836789067176177E-01 
    8.1383942649287511E-01 
    7.7530977505275300E-01 
    7.3323533069623581E-01 
    6.8816409329431671E-01 
    6.4061882782275237E-01 
    5.9090297763860011E-01 
    5.3837183097914343E-01 
    4.7720949406582486E-01 
    4.1158631317893074E-01 
    3.5576192307768306E-01 
    3.1474813760703979E-01 
    2.9751513082141029E-01 
    9.0709810213439701E-01 
    8.9774238708338017E-01 
    8.7724391383796063E-01 
    8.4919070614181913E-01 
    8.1575086560660648E-01 
    7.7797372845505874E-01 
    7.3643064971610261E-01 
    6.9169370480659009E-01 
    6.4424961855236984E-01 
    5.9428918934068964E-01 
    5.4074138885018341E-01 
    4.7812967116916855E-01 
    4.1079502694465719E-01 
    3.5152822914316506E-01 
    3.0595690117212154E-01 
    2.8622865014892296E-01 
    9.0333951668985335E-01 
    8.9514350322616121E-01 
    8.7640064970924414E-01 
    8.4985893668214729E-01 
    8.1752764353744845E-01 
    7.8054266513229076E-01 
    7.3956560139515182E-01 
    6.9518498749639146E-01 
    6.4784853810918175E-01 
    5.9760766188948267E-01 
    5.4275438366156270E-01 
    4.7879282249655403E-01 
    4.1008769988090077E-01 
    3.4678797606484163E-01 
    2.9544264861980324E-01 
    2.7193851955586829E-01 
    9.0021627122547931E-01 
    8.9286479592093349E-01 
    8.7560728848072689E-01 
    8.5047086240305914E-01 
    8.1923553514314085E-01 
    7.8306215687720826E-01 
    7.4267866187921938E-01 
    6.9866944496293459E-01 
    6.5141650309659516E-01 
    6.0069589739547580E-01 
    5.4442343274642269E-01 
    4.7960374289188595E-01 
    4.0986448174896650E-01 
    3.4190386736165640E-01 
    2.8329681361140380E-01 
    2.5406027121895897E-01 
    8.9770845207382577E-01 
    8.9098392206421584E-01 
    8.7497781762488913E-01 
    8.5112585024157661E-01 
    8.2094754721538066E-01 
    7.8557570734021764E-01 
    7.4578265492864759E-01 
    7.0209891863178564E-01 
    6.5474951184911490E-01 
    6.0334309699440769E-01 
    5.4607173271488840E-01 
    4.8110741252708650E-01 
    4.1032762111579274E-01 
    3.3734739555606214E-01 
    2.6976855652387410E-01 
    2.3182312137242289E-01 
    8.9575313194252382E-01 
    8.8952425071993235E-01 
    8.7458145597041104E-01 
    8.5189109980037381E-01 
    8.2269357848000324E-01 
    7.8800541406648728E-01 
    7.4867780738780543E-01 
    7.0523690060928645E-01 
    6.5771829299254891E-01 
    6.0589525870728933E-01 
    5.4843684191403175E-01 
    4.8361499286048254E-01 
    4.1162438374989924E-01 
    3.3370534599110258E-01 
    2.5537699048902102E-01 
    2.0418071113090383E-01 
    8.9399772278738687E-01 
    8.8825353573136612E-01 
    8.7425658257746763E-01 
    8.5258203008672706E-01 
    8.2425965626410935E-01 
    7.9017955917851546E-01 
    7.5127083713632969E-01 
    7.0817914597608200E-01 
    6.6083979739767551E-01 
    6.0906955982181576E-01 
    5.5175966560534451E-01 
    4.8704112076957923E-01 
    4.1405800929423969E-01 
    3.3169895903856789E-01 
    2.4110950790740096E-01 
    1.6969009106033453E-01 
    8.9257874581321639E-01 
    8.8717663248627643E-01 
    8.7400695748942470E-01 
    8.5324398594589435E-01 
    8.2575546940803179E-01 
    7.9238321732477657E-01 
    7.5405059286154008E-01 
    7.1144008317747931E-01 
    6.6449406785478482E-01 
    6.1294935861064270E-01 
    5.5581629781639474E-01 
    4.9133485499963070E-01 
    4.1786550352402024E-01 
    3.3213811891214196E-01 
    2.2874984294001641E-01 
    1.2632184545892755E-01 
    8.9182858786656716E-01 
    8.8674426743992807E-01 
    8.7428656901847390E-01 
    8.5435790449204840E-01 
    8.2767155139057935E-01 
    7.9502024200166943E-01 
    7.5727806058556202E-01 
    7.1510621842720734E-01 
    6.6855020489043293E-01 
    6.1734024667792575E-01 
    5.6054909509745898E-01 
    4.9650107409820965E-01 
    4.2314634414444108E-01 
    3.3576410250710170E-01 
    2.2143180759541300E-01 
    7.1172173517402848E-02 
    8.9162152676888418E-01 
    8.8695095423280712E-01 
    8.7520043550034310E-01 
    8.5603804663191019E-01 
    8.3006246452638688E-01 
    7.9804700830870123E-01 
    7.6084538633513099E-01 
    7.1912445854516815E-01 
    6.7299561506569716E-01 
    6.2221415137201197E-01 
    5.6591413384279166E-01 
    5.0249614136009524E-01 
    4.2983290016304621E-01 
    3.4287756068131003E-01 
    2.2456625145640832E-01 
    0.0000000000000000E+00 

SCALARS Saturarion double 1 
LOOKUP_TABLE default 

    1.0000000000000593E+00 
    9.5599290956060368E-01 
    8.8487535015621543E-01 
    7.9894325039512826E-01 
    7.2875115084613418E-01 
    6.7487356194913206E-01 
    6.3194293749277863E-01 
    5.9483614622435144E-01 
    5.6076031629583856E-01 
    5.2727591957963749E-01 
    4.8183350864018126E-01 
    3.3997590555129320E-01 
    1.5144537140607147E-02 
    1.0000000019197557E-06 
    1.0000000000000006E-06 
    9.9999999999999995E-07 
    9.8069606382536212E-01 
    9.3924175470687798E-01 
    8.6505963481893089E-01 
    7.8877520415752900E-01 
    7.2389186416824147E-01 
    6.7092422373614113E-01 
    6.2786494643196522E-01 
    5.9121833956510639E-01 
    5.5809497895191840E-01 
    5.2535716529043341E-01 
    4.8060017806944832E-01 
    3.4135232270023902E-01 
    1.6801383789268206E-02 
    1.0007042877917907E-06 
    1.0000000000788155E-06 
    9.9999999999999995E-07 
    9.5008950713087092E-01 
    9.1176074874912427E-01 
    8.3919303893712971E-01 
    7.7107488030555571E-01 
    7.1325266012264155E-01 
    6.6254597509514168E-01 
    6.1994874404703282E-01 
    5.8427242498217136E-01 
    5.5277491636868359E-01 
    5.2145083834764805E-01 
    4.7846513550860093E-01 
    3.4372677726899847E-01 
    1.8823901573182027E-02 
    1.0007265535741036E-06 
    1.0000000001158834E-06 
    9.9999999999999995E-07 
    8.9794810503250466E-01 
    8.6878611648429471E-01 
    8.0669411167967509E-01 
    7.4557108827644003E-01 
    6.9516838593696029E-01 
    6.5090640015761725E-01 
    6.1189747100142222E-01 
    5.7830948800092374E-01 
    5.4813658314822900E-01 
    5.1836003168840716E-01 
    4.7749318269250496E-01 
    3.5037719332667483E-01 
    2.3864434637350950E-02 
    1.2049197748186726E-06 
    1.0000000447664957E-06 
    9.9999999999999995E-07 
    8.4520168506832571E-01 
    8.2076612312754960E-01 
    7.6944582036424758E-01 
    7.1705797800732574E-01 
    6.7284319542974025E-01 
    6.3496089553434099E-01 
    6.0134667102591233E-01 
    5.7088037453853091E-01 
    5.4257841773693949E-01 
    5.1394586987773017E-01 
    4.7442401994225658E-01 
    3.5136615496475870E-01 
    2.5542124353564035E-02 
    1.2435941917165560E-06 
    1.0000000336631342E-06 
    1.0000000000000042E-06 
    7.9294312362877051E-01 
    7.7421067456937187E-01 
    7.3337291291708617E-01 
    6.8858578207155174E-01 
    6.4924583903531585E-01 
    6.1610914148922924E-01 
    5.8676119044263353E-01 
    5.5965384200026347E-01 
    5.3394487168952487E-01 
    5.0720772210026599E-01 
    4.6784535070743666E-01 
    3.3945272333625581E-01 
    2.0370842869777230E-02 
    2.6836292589248160E-06 
    1.0000002560995018E-06 
    1.0000000000000256E-06 
    7.4166994908655004E-01 
    7.2898417812775851E-01 
    6.9750966016930460E-01 
    6.5948128111121274E-01 
    6.2491093505667650E-01 
    5.9559675247223876E-01 
    5.7012219699583733E-01 
    5.4630993019703367E-01 
    5.2292526248202376E-01 
    4.9785486127050615E-01 
    4.5868655633564470E-01 
    3.1159434289228288E-01 
    1.0470159976344746E-02 
    2.3081118056622137E-06 
    1.0000003942045262E-06 
    9.9999999999999995E-07 
    6.9088441097910380E-01 
    6.8387619303752800E-01 
    6.6139759716615787E-01 
    6.3046808048433622E-01 
    6.0007451697473768E-01 
    5.7338827964982231E-01 
    5.5062486624928531E-01 
    5.3071117919009014E-01 
    5.1060602032539770E-01 
    4.8683709308603240E-01 
    4.4474208661928816E-01 
    2.5962887375616683E-01 
    3.0356504474972298E-03 
    1.2498622388560538E-06 
    1.0000000522118734E-06 
    9.9999999999999995E-07 
    6.4079575821141677E-01 
    6.3850242072835484E-01 
    6.2398748473246302E-01 
    6.0043712477984224E-01 
    5.7469705665163373E-01 
    5.5051534170824779E-01 
    5.3027078378875414E-01 
    5.1293434637018054E-01 
    4.9516098496424904E-01 
    4.7097835517396519E-01 
    4.1267106627484029E-01 
    1.5968055678919749E-01 
    2.6902754717564320E-04 
    1.0132243951335203E-06 
    1.0000000005267645E-06 
    9.9999999999999995E-07 
    5.9307281636876719E-01 
    5.9446780880995642E-01 
    5.8666566044852297E-01 
    5.6925434776240191E-01 
    5.4847162969364160E-01 
    5.2809108010182548E-01 
    5.0958732494783721E-01 
    4.9231548778310630E-01 
    4.7256843018154021E-01 
    4.3665671204386852E-01 
    3.0656548600068617E-01 
    3.3935468730323055E-02 
    5.7345390408452197E-05 
    1.0003512443085196E-06 
    1.0000000000000038E-06 
    9.9999999999999995E-07 
    5.5034101154140047E-01 
    5.5411958672966799E-01 
    5.5046407160605471E-01 
    5.3708157778762311E-01 
    5.2151119886399133E-01 
    5.0413324298176510E-01 
    4.8424344544346032E-01 
    4.6010382926470883E-01 
    4.1484757182475185E-01 
    2.9397614598102528E-01 
    7.8831925682153650E-02 
    3.6549570504895988E-04 
    1.0268514275955505E-06 
    1.0000000001849420E-06 
    9.9999999999999995E-07 
    9.9999999999999995E-07 
    4.9730641761272548E-01 
    5.0573318977036485E-01 
    5.0647816221706266E-01 
    4.9721150720262275E-01 
    4.8186027760682842E-01 
    4.5359362581404822E-01 
    3.9042211925337550E-01 
    2.8993425426308739E-01 
    1.5933367166782542E-01 
    2.3239409565885390E-02 
    2.1831593852688627E-04 
    1.0249185199600547E-06 
    1.0000000130967452E-06 
    1.0000000000000016E-06 
    9.9999999999999995E-07 
    9.9999999999999995E-07 
    3.0797456936810275E-01 
    3.7435397734949977E-01 
    3.9756306661187918E-01 
    3.7026293017049683E-01 
    3.0593606361670544E-01 
    1.8762982819797427E-01 
    5.7366063600544602E-02 
    5.2915155586183323E-03 
    1.3600301132182604E-04 
    1.3607944751270065E-05 
    1.0039950342931209E-06 
    1.0000000026855639E-06 
    1.0000000000000010E-06 
    9.9999999999999995E-07 
    9.9999999999999995E-07 
    9.9999999999999995E-07 
    3.5725647173521949E-03 
    4.0167207653710339E-02 
    5.2849189423123215E-02 
    2.4021291431405987E-02 
    6.9765506846384941E-03 
    2.5998318785003764E-04 
    2.5199138055163750E-05 
    1.4637807075444290E-06 
    1.0018623161104207E-06 
    1.0000064721646011E-06 
    1.0000000000033036E-06 
    1.0000000000000002E-06 
    9.9999999999999995E-07 
    9.9999999999999995E-07 
    9.9999999999999995E-07 
    9.9999999999999995E-07 
    1.0000166888057650E-06 
    1.4471503700455165E-05 
    1.2143060393075341E-06 
    6.0943590120992041E-06 
    1.7181440349575707E-06 
    1.0031220690863235E-06 
    1.0000292780869169E-06 
    1.0000000411000581E-06 
    1.0000000000130379E-06 
    1.0000000000000002E-06 
    9.9999999999999995E-07 
    9.9999999999999995E-07 
    9.9999999999999995E-07 
    9.9999999999999995E-07 
    9.9999999999999995E-07 
    9.9999999999999995E-07 
    1.0000000000009764E-06 
    1.0000032413275897E-06 
    1.0000000576436005E-06 
    1.0000004320584498E-06 
    1.0000000676514826E-06 
    1.0000000000555308E-06 
    9.9999999999999995E-07 
    9.9999999999999995E-07 
    9.9999999999999995E-07 
    9.9999999999999995E-07 
    9.9999999999999995E-07 
    9.9999999999999995E-07 
    9.9999999999999995E-07 
    9.9999999999999995E-07 
    9.9999999999999995E-07 
    1.0000004019738378E-06 
