# vtk DataFile Version 2.0
Pressure Field Data 
ASCII 
DATASET UNSTRUCTURED_GRID 

POINTS 289 double 

    0.0000000000000000E+00     0.0000000000000000E+00     0.0000000000000000E+00 
    1.0000000000000000E+00     0.0000000000000000E+00     0.0000000000000000E+00 
    1.0000000000000000E+00     1.0000000000000000E+00     0.0000000000000000E+00 
    0.0000000000000000E+00     1.0000000000000000E+00     0.0000000000000000E+00 
    6.2499999999872928E-02     0.0000000000000000E+00     0.0000000000000000E+00 
    1.2499999999977310E-01     0.0000000000000000E+00     0.0000000000000000E+00 
    1.8749999999959341E-01     0.0000000000000000E+00     0.0000000000000000E+00 
    2.4999999999941089E-01     0.0000000000000000E+00     0.0000000000000000E+00 
    3.1249999999922851E-01     0.0000000000000000E+00     0.0000000000000000E+00 
    3.7499999999904610E-01     0.0000000000000000E+00     0.0000000000000000E+00 
    4.3749999999886358E-01     0.0000000000000000E+00     0.0000000000000000E+00 
    4.9999999999869210E-01     0.0000000000000000E+00     0.0000000000000000E+00 
    5.6249999999884603E-01     0.0000000000000000E+00     0.0000000000000000E+00 
    6.2499999999901090E-01     0.0000000000000000E+00     0.0000000000000000E+00 
    6.8749999999917577E-01     0.0000000000000000E+00     0.0000000000000000E+00 
    7.4999999999934064E-01     0.0000000000000000E+00     0.0000000000000000E+00 
    8.1249999999950551E-01     0.0000000000000000E+00     0.0000000000000000E+00 
    8.7499999999967026E-01     0.0000000000000000E+00     0.0000000000000000E+00 
    9.3749999999983513E-01     0.0000000000000000E+00     0.0000000000000000E+00 
    1.0000000000000000E+00     6.2499999999872928E-02     0.0000000000000000E+00 
    1.0000000000000000E+00     1.2499999999977310E-01     0.0000000000000000E+00 
    1.0000000000000000E+00     1.8749999999959341E-01     0.0000000000000000E+00 
    1.0000000000000000E+00     2.4999999999941089E-01     0.0000000000000000E+00 
    1.0000000000000000E+00     3.1249999999922851E-01     0.0000000000000000E+00 
    1.0000000000000000E+00     3.7499999999904610E-01     0.0000000000000000E+00 
    1.0000000000000000E+00     4.3749999999886358E-01     0.0000000000000000E+00 
    1.0000000000000000E+00     4.9999999999869210E-01     0.0000000000000000E+00 
    1.0000000000000000E+00     5.6249999999884603E-01     0.0000000000000000E+00 
    1.0000000000000000E+00     6.2499999999901090E-01     0.0000000000000000E+00 
    1.0000000000000000E+00     6.8749999999917577E-01     0.0000000000000000E+00 
    1.0000000000000000E+00     7.4999999999934064E-01     0.0000000000000000E+00 
    1.0000000000000000E+00     8.1249999999950551E-01     0.0000000000000000E+00 
    1.0000000000000000E+00     8.7499999999967026E-01     0.0000000000000000E+00 
    1.0000000000000000E+00     9.3749999999983513E-01     0.0000000000000000E+00 
    9.3749999999973976E-01     1.0000000000000000E+00     0.0000000000000000E+00 
    8.7499999999950118E-01     1.0000000000000000E+00     0.0000000000000000E+00 
    8.1249999999991318E-01     1.0000000000000000E+00     0.0000000000000000E+00 
    7.5000000000034706E-01     1.0000000000000000E+00     0.0000000000000000E+00 
    6.8750000000078049E-01     1.0000000000000000E+00     0.0000000000000000E+00 
    6.2500000000121403E-01     1.0000000000000000E+00     0.0000000000000000E+00 
    5.6250000000164757E-01     1.0000000000000000E+00     0.0000000000000000E+00 
    5.0000000000205946E-01     1.0000000000000000E+00     0.0000000000000000E+00 
    4.3750000000182099E-01     1.0000000000000000E+00     0.0000000000000000E+00 
    3.7500000000156092E-01     1.0000000000000000E+00     0.0000000000000000E+00 
    3.1250000000130068E-01     1.0000000000000000E+00     0.0000000000000000E+00 
    2.5000000000104050E-01     1.0000000000000000E+00     0.0000000000000000E+00 
    1.8750000000078040E-01     1.0000000000000000E+00     0.0000000000000000E+00 
    1.2500000000052031E-01     1.0000000000000000E+00     0.0000000000000000E+00 
    6.2500000000260125E-02     1.0000000000000000E+00     0.0000000000000000E+00 
    0.0000000000000000E+00     9.3749999999973976E-01     0.0000000000000000E+00 
    0.0000000000000000E+00     8.7499999999950118E-01     0.0000000000000000E+00 
    0.0000000000000000E+00     8.1249999999991318E-01     0.0000000000000000E+00 
    0.0000000000000000E+00     7.5000000000034706E-01     0.0000000000000000E+00 
    0.0000000000000000E+00     6.8750000000078049E-01     0.0000000000000000E+00 
    0.0000000000000000E+00     6.2500000000121403E-01     0.0000000000000000E+00 
    0.0000000000000000E+00     5.6250000000164757E-01     0.0000000000000000E+00 
    0.0000000000000000E+00     5.0000000000205946E-01     0.0000000000000000E+00 
    0.0000000000000000E+00     4.3750000000182099E-01     0.0000000000000000E+00 
    0.0000000000000000E+00     3.7500000000156092E-01     0.0000000000000000E+00 
    0.0000000000000000E+00     3.1250000000130068E-01     0.0000000000000000E+00 
    0.0000000000000000E+00     2.5000000000104050E-01     0.0000000000000000E+00 
    0.0000000000000000E+00     1.8750000000078040E-01     0.0000000000000000E+00 
    0.0000000000000000E+00     1.2500000000052031E-01     0.0000000000000000E+00 
    0.0000000000000000E+00     6.2500000000260125E-02     0.0000000000000000E+00 
    6.2499999999897131E-02     6.2500000000235922E-02     0.0000000000000000E+00 
    6.2499999999921327E-02     1.2500000000047351E-01     0.0000000000000000E+00 
    6.2499999999945530E-02     1.8750000000070621E-01     0.0000000000000000E+00 
    6.2499999999969733E-02     2.5000000000093858E-01     0.0000000000000000E+00 
    6.2499999999993928E-02     3.1250000000117117E-01     0.0000000000000000E+00 
    6.2500000000018124E-02     3.7500000000140382E-01     0.0000000000000000E+00 
    6.2500000000042327E-02     4.3750000000163619E-01     0.0000000000000000E+00 
    6.2500000000066530E-02     5.0000000000184897E-01     0.0000000000000000E+00 
    6.2500000000090733E-02     5.6250000000147260E-01     0.0000000000000000E+00 
    6.2500000000114922E-02     6.2500000000107636E-01     0.0000000000000000E+00 
    6.2500000000139125E-02     6.8750000000068034E-01     0.0000000000000000E+00 
    6.2500000000163328E-02     7.5000000000028411E-01     0.0000000000000000E+00 
    6.2500000000187531E-02     8.1249999999988787E-01     0.0000000000000000E+00 
    6.2500000000211720E-02     8.7499999999951172E-01     0.0000000000000000E+00 
    6.2500000000235922E-02     9.3749999999974565E-01     0.0000000000000000E+00 
    1.2499999999981980E-01     6.2500000000211733E-02     0.0000000000000000E+00 
    1.2499999999986650E-01     1.2500000000042691E-01     0.0000000000000000E+00 
    1.2499999999991319E-01     1.8750000000063199E-01     0.0000000000000000E+00 
    1.2499999999995989E-01     2.5000000000083678E-01     0.0000000000000000E+00 
    1.2500000000000661E-01     3.1250000000104172E-01     0.0000000000000000E+00 
    1.2500000000005329E-01     3.7500000000124661E-01     0.0000000000000000E+00 
    1.2500000000010000E-01     4.3750000000145117E-01     0.0000000000000000E+00 
    1.2500000000014669E-01     5.0000000000163858E-01     0.0000000000000000E+00 
    1.2500000000019340E-01     5.6250000000129741E-01     0.0000000000000000E+00 
    1.2500000000024011E-01     6.2500000000093847E-01     0.0000000000000000E+00 
    1.2500000000028680E-01     6.8750000000057998E-01     0.0000000000000000E+00 
    1.2500000000033351E-01     7.5000000000022127E-01     0.0000000000000000E+00 
    1.2500000000038020E-01     8.1249999999986211E-01     0.0000000000000000E+00 
    1.2500000000042691E-01     8.7499999999952238E-01     0.0000000000000000E+00 
    1.2500000000047359E-01     9.3749999999975164E-01     0.0000000000000000E+00 
    1.8749999999966760E-01     6.2500000000187531E-02     0.0000000000000000E+00 
    1.8749999999974179E-01     1.2500000000038020E-01     0.0000000000000000E+00 
    1.8749999999981601E-01     1.8750000000055780E-01     0.0000000000000000E+00 
    1.8749999999989009E-01     2.5000000000073502E-01     0.0000000000000000E+00 
    1.8749999999996431E-01     3.1250000000091221E-01     0.0000000000000000E+00 
    1.8750000000003850E-01     3.7500000000108941E-01     0.0000000000000000E+00 
    1.8750000000011269E-01     4.3750000000126649E-01     0.0000000000000000E+00 
    1.8750000000018691E-01     5.0000000000142808E-01     0.0000000000000000E+00 
    1.8750000000026110E-01     5.6250000000112244E-01     0.0000000000000000E+00 
    1.8750000000033529E-01     6.2500000000080080E-01     0.0000000000000000E+00 
    1.8750000000040951E-01     6.8750000000047962E-01     0.0000000000000000E+00 
    1.8750000000048361E-01     7.5000000000015843E-01     0.0000000000000000E+00 
    1.8750000000055780E-01     8.1249999999983680E-01     0.0000000000000000E+00 
    1.8750000000063199E-01     8.7499999999953304E-01     0.0000000000000000E+00 
    1.8750000000070621E-01     9.3749999999975764E-01     0.0000000000000000E+00 
    2.4999999999951281E-01     6.2500000000163314E-02     0.0000000000000000E+00 
    2.4999999999961461E-01     1.2500000000033351E-01     0.0000000000000000E+00 
    2.4999999999971650E-01     1.8750000000048361E-01     0.0000000000000000E+00 
    2.4999999999981831E-01     2.5000000000063310E-01     0.0000000000000000E+00 
    2.4999999999992020E-01     3.1250000000078260E-01     0.0000000000000000E+00 
    2.5000000000002198E-01     3.7500000000093209E-01     0.0000000000000000E+00 
    2.5000000000012390E-01     4.3750000000108180E-01     0.0000000000000000E+00 
    2.5000000000022571E-01     5.0000000000121769E-01     0.0000000000000000E+00 
    2.5000000000032763E-01     5.6250000000094724E-01     0.0000000000000000E+00 
    2.5000000000042938E-01     6.2500000000066314E-01     0.0000000000000000E+00 
    2.5000000000053119E-01     6.8750000000037925E-01     0.0000000000000000E+00 
[...]
CELL_DATA 256 
SCALARS Pressure double 1 
LOOKUP_TABLE default 

    1.2577766441965341E+00 
    1.1818117777849473E+00 
    1.1038913522214391E+00 
    1.0073497213035156E+00 
    9.2244294378546976E-01 
    8.4598516068513663E-01 
    7.7288346250605111E-01 
    7.0218631799248388E-01 
    6.3389028524192592E-01 
    5.6835204268757744E-01 
    5.0609957812253648E-01 
    4.4822567170370858E-01 
    3.9714928038659342E-01 
    3.5659962199681045E-01 
    3.3036821081995876E-01 
    3.1961989977517030E-01 
    1.2425297695512485E+00 
    1.1844050981611387E+00 
    1.1090240120177077E+00 
    1.0141138946870372E+00 
    9.2975628336986016E-01 
    8.5313428257909585E-01 
    7.7988367711682505E-01 
    7.0898975748609316E-01 
    6.4041845067420777E-01 
    5.7450314870599839E-01 
    5.1172229479904996E-01 
    4.5305319628751423E-01 
    4.0079975017974939E-01 
    3.5871493284101069E-01 
    3.3091074655670777E-01 
    3.1919740712684336E-01 
    1.2267775948984565E+00 
    1.1816479698366098E+00 
    1.1101190795213496E+00 
    1.0185968145139799E+00 
    9.3617988375209293E-01 
    8.5989714082941260E-01 
    7.8669586434599714E-01 
    7.1569030744332640E-01 
    6.4685472779846753E-01 
    5.8049419756287013E-01 
    5.1703844878675886E-01 
    4.5734925821966926E-01 
    4.0362503682190748E-01 
    3.5969921187697340E-01 
    3.3015370441451602E-01 
    3.1762914203732923E-01 
    1.2094876090707238E+00 
    1.1739768587802089E+00 
    1.1071696219201641E+00 
    1.0212364603325237E+00 
    9.4167334859582574E-01 
    8.6623311301893746E-01 
    7.9330093151579884E-01 
    7.2228450977954428E-01 
    6.5321287047872267E-01 
    5.8636692727112982E-01 
    5.2212176920222231E-01 
    4.6121364681099658E-01 
    4.0572446700594050E-01 
    3.5959514371717971E-01 
    3.2801744636729030E-01 
    3.1469458126184069E-01 
    1.1923467536953640E+00 
    1.1630211278162617E+00 
    1.1013534634152700E+00 
    1.0226188654834727E+00 
    9.4630656146346193E-01 
    8.7213357052063423E-01 
    7.9969005521042935E-01 
    7.2877241489748212E-01 
    6.5950817309043797E-01 
    5.9216310677242112E-01 
    5.2704772403453026E-01 
    4.6475413743083321E-01 
    4.0721189452589268E-01 
    3.5845807869531149E-01 
    3.2441800771254808E-01 
    3.1016500880290304E-01 
    1.1731643146559965E+00 
    1.1491403616129587E+00 
    1.0942710371184952E+00 
    1.0231836147787814E+00 
    9.5021756640599797E-01 
    8.7762183974569885E-01 
    8.0586773780874388E-01 
    7.3515878505593923E-01 
    6.6575605357300260E-01 
    5.9792391807232681E-01 
    5.3189258745935508E-01 
    4.6808716364806280E-01 
    4.0822099212877677E-01 
    3.5636613539921619E-01 
    3.1927112762825843E-01 
    3.0378021051721077E-01 
    1.1542250830201712E+00 
    1.1348663219969148E+00 
    1.0873851154465457E+00 
    1.0230927413990603E+00 
    9.5355374665499992E-01 
    8.8274610828704347E-01 
    8.1184756284899584E-01 
    7.4145336847992005E-01 
    6.7197610090160542E-01 
    6.0368902757513976E-01 
    5.3673459802551493E-01 
    4.7133738114253437E-01 
    4.0891067904146372E-01 
    3.5343430793292829E-01 
    3.1250332853009988E-01 
    2.9524288194572595E-01 
    1.1394130082633935E+00 
    1.1231813051016106E+00 
    1.0813304536741972E+00 
    1.0225655616642544E+00 
    9.5646544583582438E-01 
    8.8757191968523075E-01 
    8.1765678170260425E-01 
    7.4767094639852916E-01 
    6.7818592673242628E-01 
    6.0949586560333324E-01 
    5.4164809711717965E-01 
    4.7463631320719640E-01 
    4.0946777241161347E-01 
    3.4982681022504131E-01 
    3.0406111962814225E-01 
    2.8418727935198723E-01 
    1.1274689855042268E+00 
    1.1133120841188027E+00 
    1.0759587689173393E+00 
    1.0219232132626044E+00 
    9.5910914788303037E-01 
    8.9217650701484719E-01 
    8.2332996807546066E-01 
    7.5383033393613696E-01 
    6.8440536039561917E-01 
    6.1537836391369116E-01 
    5.4670383680097667E-01 
    4.7811831995916731E-01 
    4.1010961058929735E-01 
    3.4577811888718868E-01 
    2.9393800299005796E-01 
    2.7015843780697746E-01 
    1.1179497887901164E+00 
    1.1051826921238028E+00 
    1.0714224953270357E+00 
    1.0214096093726255E+00 
    9.6164218304159776E-01 
    8.9664469740072739E-01 
    8.2891102433528940E-01 
    7.5995452631989135E-01 
    6.9065231068471478E-01 
    6.2136565357728979E-01 
    5.5196326543505181E-01 
    4.8191494836182852E-01 
    4.1108166127745355E-01 
    3.4161325387721142E-01 
    2.8221097887075947E-01 
    2.5256354655097579E-01 
    1.1105285608376594E+00 
    1.0987081618790373E+00 
    1.0678263840707565E+00 
    1.0212179272724884E+00 
    9.6421036516490699E-01 
    9.0106518983896677E-01 
    8.3444747121551166E-01 
    7.6606967822218774E-01 
    6.9694518606144074E-01 
    6.2748099403445579E-01 
    5.5747749589808593E-01 
    4.8614694439288358E-01 
    4.1265083056883151E-01 
    3.3777361335869349E-01 
    2.6911339397212553E-01 
    2.3062185429417867E-01 
    1.1049348113564108E+00 
    1.0937922869016805E+00 
    1.0652386890245231E+00 
    1.0215020448687044E+00 
    9.6694889903802228E-01 
    9.0552700024430288E-01 
    8.3999148623838449E-01 
    7.7220386341155645E-01 
    7.0329977812999522E-01 
    6.3374089537161693E-01 
    5.6328190426269253E-01 
    4.9091396631026424E-01 
    4.1508699959834516E-01 
    3.3483234240004400E-01 
    2.5514862542247058E-01 
    2.0327538744987211E-01 
    1.1009386789084774E+00 
    1.0903372915822440E+00 
    1.0637018067530504E+00 
    1.0223846978424500E+00 
    9.6997743254903346E-01 
    9.1011717882812226E-01 
    8.4559604032776114E-01 
    7.7838653433105132E-01 
    7.0973140173893001E-01 
    6.4015465972136976E-01 
    5.6939524328021407E-01 
    4.9628303651035055E-01 
    4.1863418084438925E-01 
    3.3349506997236777E-01 
    2.4128897789576653E-01 
    1.6906859054370113E-01 
    1.0983355768801564E+00 
    1.0882479782502039E+00 
    1.0632412982508535E+00 
    1.0239655617728642E+00 
    9.7340344627532738E-01 
    9.1491935683987846E-01 
    8.5131509326776289E-01 
    7.8464773789426701E-01 
    7.1625329182127417E-01 
    6.4672464209457259E-01 
    5.7581747786573678E-01 
    5.0227854574577713E-01 
    4.2346659232224521E-01 
    3.3454951613289280E-01 
    2.2930268321395819E-01 
    1.2595814056326979E-01 
    1.0969341454418946E+00 
    1.0874340557184519E+00 
    1.0638729824853930E+00 
    1.0263276143572881E+00 
    9.7732230628645489E-01 
    9.2001216748637027E-01 
    8.5720197466441161E-01 
    7.9101784698369915E-01 
    7.2287759317688671E-01 
    6.5344751001137480E-01 
    5.8253154490763026E-01 
    5.0887731954649251E-01 
    4.2963722195443754E-01 
    3.3871238486961536E-01 
    2.2230783242553198E-01 
    7.1025054930594217E-02 
    1.0965448731934175E+00 
    1.0878110323556700E+00 
    1.0656088608709195E+00 
    1.0295433456908636E+00 
    9.8181922974996816E-01 
    9.2546916538722535E-01 
    8.6330848134031868E-01 
    7.9752695362867787E-01 
    7.2961565966779462E-01 
    6.6031558757104336E-01 
    5.8950682733839821E-01 
    5.1601295565803107E-01 
    4.3703997041770382E-01 
    3.4625990575883903E-01 
    2.2570017671540640E-01 
    0.0000000000000000E+00 

SCALARS Saturarion double 1 
LOOKUP_TABLE default 

    9.9662117075239054E-01 
    8.0208052970407595E-01 
    4.8317163127155655E-01 
    3.0179576240226685E-02 
    1.0000785807173215E-06 
    1.0000000000290310E-06 
    9.9999999999999995E-07 
    9.9999999999999995E-07 
    9.9999999999999995E-07 
    9.9999999999999995E-07 
    9.9999999999999995E-07 
    9.9999999999999995E-07 
    9.9999999999999995E-07 
    9.9999999999999995E-07 
    9.9999999999999995E-07 
    9.9999999999999995E-07 
    8.7118705070280467E-01 
    7.3876529642319999E-01 
    4.3641033313651617E-01 
    1.9154817827462735E-02 
    3.5169641025928459E-06 
    1.0000003956257992E-06 
    1.0000000000000277E-06 
    9.9999999999999995E-07 
    9.9999999999999995E-07 
    9.9999999999999995E-07 
    9.9999999999999995E-07 
    9.9999999999999995E-07 
    9.9999999999999995E-07 
    9.9999999999999995E-07 
    9.9999999999999995E-07 
    9.9999999999999995E-07 
    6.7570553899200914E-01 
    6.2345898075381689E-01 
    3.5709154397714504E-01 
    6.5488515279657220E-03 
    1.7247879899607716E-06 
    1.0000001715461440E-06 
    9.9999999999999995E-07 
    9.9999999999999995E-07 
    9.9999999999999995E-07 
    9.9999999999999995E-07 
    9.9999999999999995E-07 
    9.9999999999999995E-07 
    9.9999999999999995E-07 
    9.9999999999999995E-07 
    9.9999999999999995E-07 
    9.9999999999999995E-07 
    5.7969889293955756E-01 
    5.3514161268469396E-01 
    2.4444539347215291E-01 
    9.4784206954441879E-04 
    1.0270274333648238E-06 
    1.0000000049335692E-06 
    9.9999999999999974E-07 
    9.9999999999999995E-07 
    9.9999999999999995E-07 
    9.9999999999999995E-07 
    9.9999999999999995E-07 
    9.9999999999999995E-07 
    9.9999999999999995E-07 
    9.9999999999999995E-07 
    9.9999999999999995E-07 
    9.9999999999999995E-07 
    5.1583658713120839E-01 
    4.2757117521584259E-01 
    9.3756532605832818E-02 
    1.5385230226535907E-04 
    1.0034992168620446E-06 
    1.0000000000000006E-06 
    9.9999999999999995E-07 
    9.9999999999999995E-07 
    9.9999999999999995E-07 
    9.9999999999999995E-07 
    9.9999999999999995E-07 
    9.9999999999999995E-07 
    9.9999999999999995E-07 
    9.9999999999999995E-07 
    9.9999999999999995E-07 
    9.9999999999999995E-07 
    3.4510102945101556E-01 
    1.5091907344297043E-01 
    2.5032752979550436E-03 
    1.0538975898867357E-06 
    1.0000000038150660E-06 
    1.0000000000000004E-06 
    9.9999999999999995E-07 
    9.9999999999999995E-07 
    9.9999999999999995E-07 
    9.9999999999999995E-07 
    9.9999999999999995E-07 
    9.9999999999999995E-07 
    9.9999999999999995E-07 
    9.9999999999999995E-07 
    9.9999999999999995E-07 
    9.9999999999999995E-07 
    1.2352683286670501E-02 
    7.2183257429224467E-04 
    1.3691143056728250E-06 
    1.0000000397410090E-06 
    1.0000000000000010E-06 
    9.9999999999999995E-07 
    9.9999999999999995E-07 
    9.9999999999999995E-07 
    9.9999999999999995E-07 
    9.9999999999999995E-07 
    9.9999999999999995E-07 
    9.9999999999999995E-07 
    9.9999999999999995E-07 
    9.9999999999999995E-07 
    9.9999999999999995E-07 
    9.9999999999999995E-07 
    1.0141995125413302E-06 
    1.1848347099132581E-06 
    1.0000000575335770E-06 
    1.0000000000000093E-06 
    9.9999999999999995E-07 
    9.9999999999999995E-07 
    9.9999999999999995E-07 
    9.9999999999999995E-07 
    9.9999999999999995E-07 
    9.9999999999999995E-07 
    9.9999999999999995E-07 
    9.9999999999999995E-07 
    9.9999999999999995E-07 
    9.9999999999999995E-07 
    9.9999999999999995E-07 
    9.9999999999999995E-07 
    1.0000000029082651E-06 
    1.0000000003195042E-06 
    1.0000000000000046E-06 
    9.9999999999999995E-07 
    9.9999999999999995E-07 
    9.9999999999999995E-07 
    9.9999999999999995E-07 
    9.9999999999999995E-07 
    9.9999999999999995E-07 
    9.9999999999999995E-07 
    9.9999999999999995E-07 
    9.9999999999999995E-07 
    9.9999999999999995E-07 
    9.9999999999999995E-07 
    9.9999999999999995E-07 
    9.9999999999999995E-07 
    9.9999999999999995E-07 
    9.9999999999999995E-07 
    9.9999999999999995E-07 
    9.9999999999999995E-07 
    9.9999999999999995E-07 
    9.9999999999999995E-07 
    9.9999999999999995E-07 
    9.9999999999999995E-07 
    9.9999999999999995E-07 
    9.9999999999999995E-07 
    9.9999999999999995E-07 
    9.9999999999999995E-07 
    9.9999999999999995E-07 
    9.9999999999999995E-07 
    9.9999999999999995E-07 
    9.9999999999999995E-07 
    9.9999999999999995E-07 
    9.9999999999999995E-07 
    9.9999999999999995E-07 
    9.9999999999999995E-07 
    9.9999999999999995E-07 
    9.9999999999999995E-07 
    9.9999999999999995E-07 
    9.9999999999999995E-07 
    9.9999999999999995E-07 
    9.9999999999999995E-07 
    9.9999999999999995E-07 
    9.9999999999999995E-07 
    9.9999999999999995E-07 
    9.9999999999999995E-07 
    9.9999999999999995E-07 
    9.9999999999999995E-07 
    9.9999999999999995E-07 
    9.9999999999999995E-07 
    9.9999999999999995E-07 
    9.9999999999999995E-07 
    9.9999999999999995E-07 
    9.9999999999999995E-07 
    9.9999999999999995E-07 
    9.9999999999999995E-07 
    9.9999999999999995E-07 
    9.9999999999999995E-07 
    9.9999999999999995E-07 
    9.9999999999999995E-07 
    9.9999999999999995E-07 
    9.9999999999999995E-07 
    9.9999999999999995E-07 
    9.9999999999999995E-07 
    9.9999999999999995E-07 
    9.9999999999999995E-07 
    9.9999999999999995E-07 
    9.9999999999999995E-07 
    9.9999999999999995E-07 
    9.9999999999999995E-07 
    9.9999999999999995E-07 
    9.9999999999999995E-07 
    9.9999999999999995E-07 
    9.9999999999999995E-07 
    9.9999999999999995E-07 
    9.9999999999999995E-07 
    9.9999999999999995E-07 
    9.9999999999999995E-07 
    9.9999999999999995E-07 
    9.9999999999999995E-07 
    9.9999999999999995E-07 
    9.9999999999999995E-07 
    9.9999999999999995E-07 
    9.9999999999999995E-07 
    9.9999999999999995E-07 
    9.9999999999999995E-07 
    9.9999999999999995E-07 
    9.9999999999999995E-07 
    9.9999999999999995E-07 
    9.9999999999999995E-07 
    9.9999999999999995E-07 
    9.9999999999999995E-07 
    9.9999999999999995E-07 
    9.9999999999999995E-07 
    9.9999999999999995E-07 
    9.9999999999999995E-07 
    9.9999999999999995E-07 
    9.9999999999999995E-07 
    9.9999999999999995E-07 
    9.9999999999999995E-07 
    9.9999999999999995E-07 
    9.9999999999999995E-07 
    9.9999999999999995E-07 
    9.9999999999999995E-07 
    9.9999999999999995E-07 
    9.9999999999999995E-07 
    9.9999999999999995E-07 
    9.9999999999999995E-07 
    9.9999999999999995E-07 
    9.9999999999999995E-07 
    9.9999999999999995E-07 
    9.9999999999999995E-07 
    9.9999999999999995E-07 
    9.9999999999999995E-07 
    9.9999999999999995E-07 
    9.9999999999999995E-07 
    9.9999999999999995E-07 
    9.9999999999999995E-07 
    9.9999999999999995E-07 
    9.9999999999999995E-07 
    9.9999999999999995E-07 
    9.9999999999999995E-07 
    9.9999999999999995E-07 
    9.9999999999999995E-07 
    9.9999999999999995E-07 
    9.9999999999999995E-07 
    9.9999999999999995E-07 
    1.0000000395232192E-06 
