# vtk DataFile Version 2.0
Pressure Field Data 
ASCII 
DATASET UNSTRUCTURED_GRID 

POINTS 289 double 

    0.0000000000000000E+00     0.0000000000000000E+00     0.0000000000000000E+00 
    1.0000000000000000E+00     0.0000000000000000E+00     0.0000000000000000E+00 
    1.0000000000000000E+00     1.0000000000000000E+00     0.0000000000000000E+00 
    0.0000000000000000E+00     1.0000000000000000E+00     0.0000000000000000E+00 
    6.2499999999872928E-02     0.0000000000000000E+00     0.0000000000000000E+00 
    1.2499999999977310E-01     0.0000000000000000E+00     0.0000000000000000E+00 
    1.8749999999959341E-01     0.0000000000000000E+00     0.0000000000000000E+00 
    2.4999999999941089E-01     0.0000000000000000E+00     0.0000000000000000E+00 
    3.1249999999922851E-01     0.0000000000000000E+00     0.0000000000000000E+00 
    3.7499999999904610E-01     0.0000000000000000E+00     0.0000000000000000E+00 
    4.3749999999886358E-01     0.0000000000000000E+00     0.0000000000000000E+00 
    4.9999999999869210E-01     0.0000000000000000E+00     0.0000000000000000E+00 
    5.6249999999884603E-01     0.0000000000000000E+00     0.0000000000000000E+00 
    6.2499999999901090E-01     0.0000000000000000E+00     0.0000000000000000E+00 
    6.8749999999917577E-01     0.0000000000000000E+00     0.0000000000000000E+00 
    7.4999999999934064E-01     0.0000000000000000E+00     0.0000000000000000E+00 
    8.1249999999950551E-01     0.0000000000000000E+00     0.0000000000000000E+00 
    8.7499999999967026E-01     0.0000000000000000E+00     0.0000000000000000E+00 
    9.3749999999983513E-01     0.0000000000000000E+00     0.0000000000000000E+00 
    1.0000000000000000E+00     6.2499999999872928E-02     0.0000000000000000E+00 
    1.0000000000000000E+00     1.2499999999977310E-01     0.0000000000000000E+00 
    1.0000000000000000E+00     1.8749999999959341E-01     0.0000000000000000E+00 
    1.0000000000000000E+00     2.4999999999941089E-01     0.0000000000000000E+00 
    1.0000000000000000E+00     3.1249999999922851E-01     0.0000000000000000E+00 
    1.0000000000000000E+00     3.7499999999904610E-01     0.0000000000000000E+00 
    1.0000000000000000E+00     4.3749999999886358E-01     0.0000000000000000E+00 
    1.0000000000000000E+00     4.9999999999869210E-01     0.0000000000000000E+00 
    1.0000000000000000E+00     5.6249999999884603E-01     0.0000000000000000E+00 
    1.0000000000000000E+00     6.2499999999901090E-01     0.0000000000000000E+00 
    1.0000000000000000E+00     6.8749999999917577E-01     0.0000000000000000E+00 
    1.0000000000000000E+00     7.4999999999934064E-01     0.0000000000000000E+00 
    1.0000000000000000E+00     8.1249999999950551E-01     0.0000000000000000E+00 
    1.0000000000000000E+00     8.7499999999967026E-01     0.0000000000000000E+00 
    1.0000000000000000E+00     9.3749999999983513E-01     0.0000000000000000E+00 
    9.3749999999973976E-01     1.0000000000000000E+00     0.0000000000000000E+00 
    8.7499999999950118E-01     1.0000000000000000E+00     0.0000000000000000E+00 
    8.1249999999991318E-01     1.0000000000000000E+00     0.0000000000000000E+00 
    7.5000000000034706E-01     1.0000000000000000E+00     0.0000000000000000E+00 
    6.8750000000078049E-01     1.0000000000000000E+00     0.0000000000000000E+00 
    6.2500000000121403E-01     1.0000000000000000E+00     0.0000000000000000E+00 
    5.6250000000164757E-01     1.0000000000000000E+00     0.0000000000000000E+00 
    5.0000000000205946E-01     1.0000000000000000E+00     0.0000000000000000E+00 
    4.3750000000182099E-01     1.0000000000000000E+00     0.0000000000000000E+00 
    3.7500000000156092E-01     1.0000000000000000E+00     0.0000000000000000E+00 
    3.1250000000130068E-01     1.0000000000000000E+00     0.0000000000000000E+00 
    2.5000000000104050E-01     1.0000000000000000E+00     0.0000000000000000E+00 
    1.8750000000078040E-01     1.0000000000000000E+00     0.0000000000000000E+00 
    1.2500000000052031E-01     1.0000000000000000E+00     0.0000000000000000E+00 
    6.2500000000260125E-02     1.0000000000000000E+00     0.0000000000000000E+00 
    0.0000000000000000E+00     9.3749999999973976E-01     0.0000000000000000E+00 
    0.0000000000000000E+00     8.7499999999950118E-01     0.0000000000000000E+00 
    0.0000000000000000E+00     8.1249999999991318E-01     0.0000000000000000E+00 
    0.0000000000000000E+00     7.5000000000034706E-01     0.0000000000000000E+00 
    0.0000000000000000E+00     6.8750000000078049E-01     0.0000000000000000E+00 
    0.0000000000000000E+00     6.2500000000121403E-01     0.0000000000000000E+00 
    0.0000000000000000E+00     5.6250000000164757E-01     0.0000000000000000E+00 
    0.0000000000000000E+00     5.0000000000205946E-01     0.0000000000000000E+00 
    0.0000000000000000E+00     4.3750000000182099E-01     0.0000000000000000E+00 
    0.0000000000000000E+00     3.7500000000156092E-01     0.0000000000000000E+00 
    0.0000000000000000E+00     3.1250000000130068E-01     0.0000000000000000E+00 
    0.0000000000000000E+00     2.5000000000104050E-01     0.0000000000000000E+00 
    0.0000000000000000E+00     1.8750000000078040E-01     0.0000000000000000E+00 
    0.0000000000000000E+00     1.2500000000052031E-01     0.0000000000000000E+00 
    0.0000000000000000E+00     6.2500000000260125E-02     0.0000000000000000E+00 
    6.2499999999897131E-02     6.2500000000235922E-02     0.0000000000000000E+00 
    6.2499999999921327E-02     1.2500000000047351E-01     0.0000000000000000E+00 
    6.2499999999945530E-02     1.8750000000070621E-01     0.0000000000000000E+00 
    6.2499999999969733E-02     2.5000000000093858E-01     0.0000000000000000E+00 
    6.2499999999993928E-02     3.1250000000117117E-01     0.0000000000000000E+00 
    6.2500000000018124E-02     3.7500000000140382E-01     0.0000000000000000E+00 
    6.2500000000042327E-02     4.3750000000163619E-01     0.0000000000000000E+00 
    6.2500000000066530E-02     5.0000000000184897E-01     0.0000000000000000E+00 
    6.2500000000090733E-02     5.6250000000147260E-01     0.0000000000000000E+00 
    6.2500000000114922E-02     6.2500000000107636E-01     0.0000000000000000E+00 
    6.2500000000139125E-02     6.8750000000068034E-01     0.0000000000000000E+00 
    6.2500000000163328E-02     7.5000000000028411E-01     0.0000000000000000E+00 
    6.2500000000187531E-02     8.1249999999988787E-01     0.0000000000000000E+00 
    6.2500000000211720E-02     8.7499999999951172E-01     0.0000000000000000E+00 
    6.2500000000235922E-02     9.3749999999974565E-01     0.0000000000000000E+00 
    1.2499999999981980E-01     6.2500000000211733E-02     0.0000000000000000E+00 
    1.2499999999986650E-01     1.2500000000042691E-01     0.0000000000000000E+00 
    1.2499999999991319E-01     1.8750000000063199E-01     0.0000000000000000E+00 
    1.2499999999995989E-01     2.5000000000083678E-01     0.0000000000000000E+00 
    1.2500000000000661E-01     3.1250000000104172E-01     0.0000000000000000E+00 
    1.2500000000005329E-01     3.7500000000124661E-01     0.0000000000000000E+00 
    1.2500000000010000E-01     4.3750000000145117E-01     0.0000000000000000E+00 
    1.2500000000014669E-01     5.0000000000163858E-01     0.0000000000000000E+00 
    1.2500000000019340E-01     5.6250000000129741E-01     0.0000000000000000E+00 
    1.2500000000024011E-01     6.2500000000093847E-01     0.0000000000000000E+00 
    1.2500000000028680E-01     6.8750000000057998E-01     0.0000000000000000E+00 
    1.2500000000033351E-01     7.5000000000022127E-01     0.0000000000000000E+00 
    1.2500000000038020E-01     8.1249999999986211E-01     0.0000000000000000E+00 
    1.2500000000042691E-01     8.7499999999952238E-01     0.0000000000000000E+00 
    1.2500000000047359E-01     9.3749999999975164E-01     0.0000000000000000E+00 
    1.8749999999966760E-01     6.2500000000187531E-02     0.0000000000000000E+00 
    1.8749999999974179E-01     1.2500000000038020E-01     0.0000000000000000E+00 
    1.8749999999981601E-01     1.8750000000055780E-01     0.0000000000000000E+00 
    1.8749999999989009E-01     2.5000000000073502E-01     0.0000000000000000E+00 
    1.8749999999996431E-01     3.1250000000091221E-01     0.0000000000000000E+00 
    1.8750000000003850E-01     3.7500000000108941E-01     0.0000000000000000E+00 
    1.8750000000011269E-01     4.3750000000126649E-01     0.0000000000000000E+00 
    1.8750000000018691E-01     5.0000000000142808E-01     0.0000000000000000E+00 
    1.8750000000026110E-01     5.6250000000112244E-01     0.0000000000000000E+00 
    1.8750000000033529E-01     6.2500000000080080E-01     0.0000000000000000E+00 
    1.8750000000040951E-01     6.8750000000047962E-01     0.0000000000000000E+00 
    1.8750000000048361E-01     7.5000000000015843E-01     0.0000000000000000E+00 
    1.8750000000055780E-01     8.1249999999983680E-01     0.0000000000000000E+00 
    1.8750000000063199E-01     8.7499999999953304E-01     0.0000000000000000E+00 
    1.8750000000070621E-01     9.3749999999975764E-01     0.0000000000000000E+00 
    2.4999999999951281E-01     6.2500000000163314E-02     0.0000000000000000E+00 
    2.4999999999961461E-01     1.2500000000033351E-01     0.0000000000000000E+00 
    2.4999999999971650E-01     1.8750000000048361E-01     0.0000000000000000E+00 
    2.4999999999981831E-01     2.5000000000063310E-01     0.0000000000000000E+00 
    2.4999999999992020E-01     3.1250000000078260E-01     0.0000000000000000E+00 
    2.5000000000002198E-01     3.7500000000093209E-01     0.0000000000000000E+00 
    2.5000000000012390E-01     4.3750000000108180E-01     0.0000000000000000E+00 
    2.5000000000022571E-01     5.0000000000121769E-01     0.0000000000000000E+00 
    2.5000000000032763E-01     5.6250000000094724E-01     0.0000000000000000E+00 
    2.5000000000042938E-01     6.2500000000066314E-01     0.0000000000000000E+00 
    2.5000000000053119E-01     6.8750000000037925E-01     0.0000000000000000E+00 
[...]
CELL_DATA 256 
SCALARS Pressure double 1 
LOOKUP_TABLE default 

    6.2618766177886476E-01 
    5.7710535293839704E-01 
    5.4654782624689036E-01 
    5.1940693954559813E-01 
    4.9213253247592370E-01 
    4.6375310356426025E-01 
    4.3403916764954564E-01 
    4.0323429095624302E-01 
    3.7176657965063731E-01 
    3.4015304208681391E-01 
    3.0898338795493707E-01 
    2.7916333386063918E-01 
    2.5229654265269402E-01 
    2.3066959929430386E-01 
    2.1653545220196030E-01 
    2.0975267993871660E-01 
    6.1218179400141526E-01 
    5.7829666467282925E-01 
    5.4880130523784709E-01 
    5.2186163478653969E-01 
    4.9476104911170637E-01 
    4.6654565952043509E-01 
    4.3696508501300674E-01 
    4.0624284257534127E-01 
    3.7479065720613697E-01 
    3.4310946416912441E-01 
    3.1175734909934122E-01 
    2.8157657709488720E-01 
    2.5411085911389997E-01 
    2.3167026303933877E-01 
    2.1671619474617668E-01 
    2.0940389486964531E-01 
    6.0144493121141518E-01 
    5.7737685580448295E-01 
    5.5032351809103752E-01 
    5.2399878826666979E-01 
    4.9720581655846219E-01 
    4.6921213366258407E-01 
    4.3979489041669700E-01 
    4.0916665505290661E-01 
    3.7771844125883164E-01 
    3.4592193259889381E-01 
    3.1429742287720819E-01 
    2.8361932171590187E-01 
    2.5537533870059992E-01 
    2.3193263806724571E-01 
    2.1604019723198770E-01 
    2.0825731403545636E-01 
    5.9304446561687840E-01 
    5.7540987465848037E-01 
    5.5116010067972299E-01 
    5.2579743436216764E-01 
    4.9945839191214447E-01 
    4.7175353365150002E-01 
    4.4253424318059104E-01 
    4.1201537871265242E-01 
    3.8056624018558355E-01 
    3.4862009891592644E-01 
    3.1664969155585498E-01 
    2.8535156395961025E-01 
    2.5614951833942962E-01 
    2.3148366301200810E-01 
    2.1446684733452034E-01 
    2.0619121987656705E-01 
    5.8634569330804909E-01 
    5.7299396254285917E-01 
    5.5144787239280646E-01 
    5.2726955256287789E-01 
    5.0151703686063498E-01 
    4.7417051696557050E-01 
    4.4518811531403651E-01 
    4.1479904934117934E-01 
    3.8335201978549088E-01 
    3.5123575956057657E-01 
    3.1886364109734971E-01 
    2.8683951205696723E-01 
    2.5650197588013490E-01 
    2.3035757388430633E-01 
    2.1195061520667888E-01 
    2.0307551117461883E-01 
    5.8093771841261921E-01 
    5.7047153531291361E-01 
    5.5133885937265525E-01 
    5.2845069712786397E-01 
    5.0338864957590101E-01 
    4.7646454380381520E-01 
    4.4776038974330590E-01 
    4.1752647402759457E-01 
    3.8609314047922766E-01 
    3.5380170914057524E-01 
    3.2099193906477674E-01 
    2.8815670937211124E-01 
    2.5651311720580255E-01 
    2.2860098204503726E-01 
    2.0844276380157631E-01 
    1.9875384983927166E-01 
    5.7654404416949456E-01 
    5.6804395269293628E-01 
    5.5097776107955188E-01 
    5.2939365423805373E-01 
    5.0509146474362465E-01 
    4.7864373206088257E-01 
    4.5025579516498820E-01 
    4.2020574714980136E-01 
    3.8880688289811172E-01 
    3.5635009104065063E-01 
    3.2309049713793048E-01 
    2.8938512008271045E-01 
    2.5627973325197928E-01 
    2.2628140561453552E-01 
    2.0390164854983964E-01 
    1.9304931222677649E-01 
    5.7297100147896651E-01 
    5.6582675497877644E-01 
    5.5048953555138203E-01 
    5.3016053541226160E-01 
    5.0665482229728476E-01 
    4.8072340891000220E-01 
    4.5268388006645177E-01 
    4.2284515263944245E-01 
    3.9150705410870729E-01 
    3.5891006985616680E-01 
    3.2521392358272588E-01 
    2.9061437731394912E-01 
    2.5591922623734642E-01 
    2.2349602917220662E-01 
    1.9830013890832018E-01 
    1.8575112094771637E-01 
    5.7007697857071171E-01 
    5.6388113074313595E-01 
    5.4997477487438728E-01 
    5.3081552538043897E-01 
    5.0811264365884956E-01 
    4.8272261043002102E-01 
    4.5505585965943196E-01 
    4.2545348349061157E-01 
    3.9420629654296552E-01 
    3.6150622277785555E-01 
    3.2741258456278444E-01 
    2.9193656431131493E-01 
    2.5557090216305228E-01 
    2.2038380755821155E-01 
    1.9163529010625704E-01 
    1.7659592926869980E-01 
    5.6775750445634576E-01 
    5.6223736559325099E-01 
    5.4951127530283750E-01 
    5.3141901409056591E-01 
    5.0950169257956168E-01 
    4.8466251449864711E-01 
    4.5738519085469881E-01 
    4.2804059747302736E-01 
    3.9691577989745880E-01 
    3.6415907837797995E-01 
    3.2972982094530023E-01 
    2.9344130452005351E-01 
    2.5539309800813814E-01 
    2.1713739280139902E-01 
    1.8394475011688327E-01 
    1.6523505891372514E-01 
    5.6593505430106428E-01 
    5.6090956034727568E-01 
    5.4915942534966677E-01 
    5.3202612785275982E-01 
    5.1085943455060989E-01 
    4.8656702479030139E-01 
    4.5968676145894055E-01 
    4.3061733896097321E-01 
    3.9964707886468304E-01 
    3.6688701166532345E-01 
    3.3220334848511646E-01 
    2.9521255237427269E-01 
    2.5555999615770925E-01 
    2.1401114100764437E-01 
    1.7533415610388209E-01 
    1.5120182166987720E-01 
    5.6454838395381757E-01 
    5.5990236285511319E-01 
    5.4896716162300641E-01 
    5.3268740064371800E-01 
    5.1222479420318356E-01 
    4.8846294945573032E-01 
    4.6197879241836620E-01 
    4.3319577063096676E-01 
    4.0241099847777240E-01 
    3.6970616407736578E-01 
    3.3486410552746249E-01 
    2.9732454227709998E-01 
    2.5625543064828105E-01 
    2.1135251025007459E-01 
    1.6606841111589224E-01 
    1.3385085835223581E-01 
    5.6354831858859522E-01 
    5.5921579748756078E-01 
    5.4897340431995834E-01 
    5.3344948893797961E-01 
    5.1363666514904271E-01 
    4.9037978346614935E-01 
    4.6428269547703482E-01 
    4.3579016944478349E-01 
    4.0521837574793124E-01 
    3.7263042789009115E-01 
    3.3773664106819429E-01 
    2.9983635048488150E-01 
    2.5765697927970421E-01 
    2.0961436858950902E-01 
    1.5669714771959470E-01 
    1.1226146755622403E-01 
    5.6290321428087642E-01 
    5.5885819935933922E-01 
    5.4921894863071030E-01 
    5.3436191511396181E-01 
    5.1513931418807080E-01 
    4.9235245137592309E-01 
    4.6662494224525797E-01 
    4.3841616255347871E-01 
    4.0807673053927512E-01 
    3.7566815797377318E-01 
    3.4083545371264784E-01 
    3.0278444744736271E-01 
    2.5990971852085037E-01 
    2.0932808211292583E-01 
    1.4823189262809069E-01 
    8.5023348979195695E-02 
    5.6254477053398488E-01 
    5.5880450333427711E-01 
    5.4971885915163599E-01 
    5.3545659488897157E-01 
    5.1676303683076141E-01 
    4.9439939560369017E-01 
    4.6901272289107943E-01 
    4.4106621494310383E-01 
    4.1095457780705752E-01 
    3.7876749783746355E-01 
    3.4409029587025058E-01 
    3.0609578789901232E-01 
    2.6300166363831673E-01 
    2.1090314909189092E-01 
    1.4241865872368539E-01 
    4.9851726041469056E-02 
    5.6242585508782117E-01 
    5.5901343327200559E-01 
    5.5044813181881991E-01 
    5.3672540102958577E-01 
    5.1850779161283800E-01 
    4.9652624030991699E-01 
    4.7145209440322355E-01 
    4.4375316039136792E-01 
    4.1385338821647161E-01 
    3.8190577732786152E-01 
    3.4747133775135064E-01 
    3.0976447742252805E-01 
    2.6696224577571004E-01 
    2.1455347887155177E-01 
    1.4197884301094629E-01 
    0.0000000000000000E+00 

SCALARS Saturarion double 1 
LOOKUP_TABLE default 

    1.0000000000000004E+00 
    9.8071273284402094E-01 
    9.4512187367225098E-01 
    8.9427322203181636E-01 
    8.5189747020016393E-01 
    8.1427839360303722E-01 
    7.8089001074256359E-01 
    7.5137198673181405E-01 
    7.2501773450727036E-01 
    7.0103806657568979E-01 
    6.7849810839307867E-01 
    6.5627077537655643E-01 
    6.3255850115866519E-01 
    6.0366983901265803E-01 
    5.6177770145057515E-01 
    3.7583784128304376E-01 
    9.9302225895547980E-01 
    9.7481060392578123E-01 
    9.3741697838305982E-01 
    8.8888484721044481E-01 
    8.4721111421588891E-01 
    8.1057066856917315E-01 
    7.7810051706965577E-01 
    7.4925207413911410E-01 
    7.2343186019842531E-01 
    6.9988279015852783E-01 
    6.7785836165231339E-01 
    6.5635635539783255E-01 
    6.3359297376635870E-01 
    6.0569895884262226E-01 
    5.6501478173880970E-01 
    3.9238876857816529E-01 
    9.8195352819686244E-01 
    9.6355978492843464E-01 
    9.2580166105828121E-01 
    8.7874358379984197E-01 
    8.3784050606492866E-01 
    8.0285360906740910E-01 
    7.7227621307947514E-01 
    7.4486734122227904E-01 
    7.2003246859538050E-01 
    6.9720219264379080E-01 
    6.7584862583715111E-01 
    6.5516424674921658E-01 
    6.3374783234059529E-01 
    6.0796471321386270E-01 
    5.6980359531461766E-01 
    4.0809144839458367E-01 
    9.6267042816569859E-01 
    9.4711898051060817E-01 
    9.1132909328188294E-01 
    8.6803669216740786E-01 
    8.2787942827302041E-01 
    7.9345550088533523E-01 
    7.6376163356306537E-01 
    7.3767296780262526E-01 
    7.1420714744104674E-01 
    6.9281485677982724E-01 
    6.7278885084015405E-01 
    6.5334712288068886E-01 
    6.3326660035341042E-01 
    6.0968701724897545E-01 
    5.7455631229535697E-01 
    4.2362194897826722E-01 
    9.3862645125056454E-01 
    9.2447001492835834E-01 
    8.9190359219290694E-01 
    8.5282320454081939E-01 
    8.1464774480117585E-01 
    7.8084809033458846E-01 
    7.5184365502089112E-01 
    7.2677991930553310E-01 
    7.0478542023485702E-01 
    6.8519480342997352E-01 
    6.6738441865395826E-01 
    6.5033623665479634E-01 
    6.3238410161406311E-01 
    6.1087426211614149E-01 
    5.7878816622953022E-01 
    4.3707040417703097E-01 
    9.1060361707407278E-01 
    8.9852049389436661E-01 
    8.6992169192186730E-01 
    8.3412069161200753E-01 
    7.9850824858217706E-01 
    7.6624714426688834E-01 
    7.3798539523093110E-01 
    7.1368940327719199E-01 
    6.9276950121248682E-01 
    6.7467726178591636E-01 
    6.5898451233963096E-01 
    6.4494609959337146E-01 
    6.3042420018320788E-01 
    6.1169063338185237E-01 
    5.8239325969891986E-01 
    4.4944095484325397E-01 
    8.7950359082948637E-01 
    8.7020256959758535E-01 
    8.4583993746741748E-01 
    8.1347827669454820E-01 
    7.8076515405100111E-01 
    7.5071660374236360E-01 
    7.2404272347974019E-01 
    7.0046649641129588E-01 
    6.8006258997049318E-01 
    6.6277992309938605E-01 
    6.4857853189291081E-01 
    6.3706003284169954E-01 
    6.2651488600126970E-01 
    6.1196954329223874E-01 
    5.8582734652014568E-01 
    4.6167869943793005E-01 
    8.4524093365542652E-01 
    8.3914757937497564E-01 
    8.1970579637051189E-01 
    7.9148226548946476E-01 
    7.6163045843404509E-01 
    7.3372516519930220E-01 
    7.0850909791294914E-01 
    6.8616843745813094E-01 
    6.6666348981699686E-01 
    6.5021136059932050E-01 
    6.3698441606663037E-01 
    6.2725364849114651E-01 
    6.2020062243326401E-01 
    6.1095755341078994E-01 
    5.8922833128544105E-01 
    4.7408966736984220E-01 
    8.0774983854251958E-01 
    8.0491925805887232E-01 
    7.9050369725681968E-01 
    7.6691035125938012E-01 
    7.4047599148275189E-01 
    7.1473972353838711E-01 
    6.9113502836135965E-01 
    6.6994874359653056E-01 
    6.5138723591010816E-01 
    6.3573247020251566E-01 
    6.2353538886973525E-01 
    6.1540497517301818E-01 
    6.1138705495176549E-01 
    6.0777982592428692E-01 
    5.9213416168345312E-01 
    4.8628861120546341E-01 
    7.6707183044067317E-01 
    7.6741091448881160E-01 
    7.5787614675864046E-01 
    7.3879409662444784E-01 
    7.1600648374446185E-01 
    6.9283871741061853E-01 
    6.7083718897939659E-01 
    6.5107204349584735E-01 
    6.3383246808347682E-01 
    6.1930316314969913E-01 
    6.0796153701224520E-01 
    6.0100295690661176E-01 
    5.9959511418155131E-01 
    6.0168065226718559E-01 
    5.9360970506939548E-01 
    4.9846896149670472E-01 
    7.2292264180041144E-01 
    7.2628968590679344E-01 
    7.2144061477245425E-01 
    7.0662781890845361E-01 
    6.8751404854391762E-01 
    6.6738087964496262E-01 
    6.4784212526926221E-01 
    6.2957660795562431E-01 
    6.1354203476882319E-01 
    6.0025471180426526E-01 
    5.9015453498089010E-01 
    5.8414824124014386E-01 
    5.8438430445686007E-01 
    5.9169191453300274E-01 
    5.9083169865050922E-01 
    5.1108460328814209E-01 
    6.7389027612092445E-01 
    6.8029081301612415E-01 
    6.8033440411822488E-01 
    6.6993159083679998E-01 
    6.5427340697884151E-01 
    6.3694516012470614E-01 
    6.1977694409068551E-01 
    6.0380602957116714E-01 
    5.8956859822477214E-01 
    5.7776234102662383E-01 
    5.6906514993918378E-01 
    5.6450482902723043E-01 
    5.6593930300450901E-01 
    5.7683086053079724E-01 
    5.8695123117279158E-01 
    5.2224649526486111E-01 
    6.1876685022748767E-01 
    6.2786905706971319E-01 
    6.3250953858713110E-01 
    6.2666666908951552E-01 
    6.1507647801477905E-01 
    6.0102811442557291E-01 
    5.8693318833297625E-01 
    5.7329969611194820E-01 
    5.6074422084776743E-01 
    5.5021585885378044E-01 
    5.4315844700171045E-01 
    5.4032701531628624E-01 
    5.4346765264227115E-01 
    5.5667271192396683E-01 
    5.7837000339188926E-01 
    5.3133116510774836E-01 
    5.6098960229593420E-01 
    5.7129551786692090E-01 
    5.7928734863212816E-01 
    5.7774035179774808E-01 
    5.7039485914724974E-01 
    5.5988108240495393E-01 
    5.4843357638703349E-01 
    5.3696662704563158E-01 
    5.2494587825103722E-01 
    5.1436814710975987E-01 
    5.0779119825764174E-01 
    5.0662309047648668E-01 
    5.1240404342615065E-01 
    5.2952041929755622E-01 
    5.6267971052477028E-01 
    5.3666270050318055E-01 
    4.4333971139623279E-01 
    4.6618947914057635E-01 
    4.8469270474459225E-01 
    4.9190733749427318E-01 
    4.8918430833962007E-01 
    4.7970012458963290E-01 
    4.6526070582059148E-01 
    4.4935698213966946E-01 
    4.3248948440467427E-01 
    4.0426761666758643E-01 
    3.7348218677097078E-01 
    3.5691708701103408E-01 
    3.8845504327126879E-01 
    4.4983702695565081E-01 
    5.2594367559062771E-01 
    5.3677856829711812E-01 
    5.2100856969159060E-02 
    1.2117609221151827E-01 
    1.4077855061253922E-01 
    1.6991927289868874E-01 
    1.3362097837905959E-01 
    1.3472851966850180E-01 
    8.6349929796322292E-02 
    7.5945817990763997E-02 
    3.4222226196900102E-02 
    1.8961079059689512E-02 
    1.3247672472120402E-02 
    1.8218256612967939E-02 
    5.6189371711771227E-02 
    2.0440727913836590E-01 
    3.5819612596955014E-01 
    4.8631692878881805E-01 
