# vtk DataFile Version 2.0
Pressure Field Data 
ASCII 
DATASET UNSTRUCTURED_GRID 

POINTS 289 double 

    0.0000000000000000E+00     0.0000000000000000E+00     0.0000000000000000E+00 
    1.0000000000000000E+00     0.0000000000000000E+00     0.0000000000000000E+00 
    1.0000000000000000E+00     1.0000000000000000E+00     0.0000000000000000E+00 
    0.0000000000000000E+00     1.0000000000000000E+00     0.0000000000000000E+00 
    6.2499999999872928E-02     0.0000000000000000E+00     0.0000000000000000E+00 
    1.2499999999977310E-01     0.0000000000000000E+00     0.0000000000000000E+00 
    1.8749999999959341E-01     0.0000000000000000E+00     0.0000000000000000E+00 
    2.4999999999941089E-01     0.0000000000000000E+00     0.0000000000000000E+00 
    3.1249999999922851E-01     0.0000000000000000E+00     0.0000000000000000E+00 
    3.7499999999904610E-01     0.0000000000000000E+00     0.0000000000000000E+00 
    4.3749999999886358E-01     0.0000000000000000E+00     0.0000000000000000E+00 
    4.9999999999869210E-01     0.0000000000000000E+00     0.0000000000000000E+00 
    5.6249999999884603E-01     0.0000000000000000E+00     0.0000000000000000E+00 
    6.2499999999901090E-01     0.0000000000000000E+00     0.0000000000000000E+00 
    6.8749999999917577E-01     0.0000000000000000E+00     0.0000000000000000E+00 
    7.4999999999934064E-01     0.0000000000000000E+00     0.0000000000000000E+00 
    8.1249999999950551E-01     0.0000000000000000E+00     0.0000000000000000E+00 
    8.7499999999967026E-01     0.0000000000000000E+00     0.0000000000000000E+00 
    9.3749999999983513E-01     0.0000000000000000E+00     0.0000000000000000E+00 
    1.0000000000000000E+00     6.2499999999872928E-02     0.0000000000000000E+00 
    1.0000000000000000E+00     1.2499999999977310E-01     0.0000000000000000E+00 
    1.0000000000000000E+00     1.8749999999959341E-01     0.0000000000000000E+00 
    1.0000000000000000E+00     2.4999999999941089E-01     0.0000000000000000E+00 
    1.0000000000000000E+00     3.1249999999922851E-01     0.0000000000000000E+00 
    1.0000000000000000E+00     3.7499999999904610E-01     0.0000000000000000E+00 
    1.0000000000000000E+00     4.3749999999886358E-01     0.0000000000000000E+00 
    1.0000000000000000E+00     4.9999999999869210E-01     0.0000000000000000E+00 
    1.0000000000000000E+00     5.6249999999884603E-01     0.0000000000000000E+00 
    1.0000000000000000E+00     6.2499999999901090E-01     0.0000000000000000E+00 
    1.0000000000000000E+00     6.8749999999917577E-01     0.0000000000000000E+00 
    1.0000000000000000E+00     7.4999999999934064E-01     0.0000000000000000E+00 
    1.0000000000000000E+00     8.1249999999950551E-01     0.0000000000000000E+00 
    1.0000000000000000E+00     8.7499999999967026E-01     0.0000000000000000E+00 
    1.0000000000000000E+00     9.3749999999983513E-01     0.0000000000000000E+00 
    9.3749999999973976E-01     1.0000000000000000E+00     0.0000000000000000E+00 
    8.7499999999950118E-01     1.0000000000000000E+00     0.0000000000000000E+00 
    8.1249999999991318E-01     1.0000000000000000E+00     0.0000000000000000E+00 
    7.5000000000034706E-01     1.0000000000000000E+00     0.0000000000000000E+00 
    6.8750000000078049E-01     1.0000000000000000E+00     0.0000000000000000E+00 
    6.2500000000121403E-01     1.0000000000000000E+00     0.0000000000000000E+00 
    5.6250000000164757E-01     1.0000000000000000E+00     0.0000000000000000E+00 
    5.0000000000205946E-01     1.0000000000000000E+00     0.0000000000000000E+00 
    4.3750000000182099E-01     1.0000000000000000E+00     0.0000000000000000E+00 
    3.7500000000156092E-01     1.0000000000000000E+00     0.0000000000000000E+00 
    3.1250000000130068E-01     1.0000000000000000E+00     0.0000000000000000E+00 
    2.5000000000104050E-01     1.0000000000000000E+00     0.0000000000000000E+00 
    1.8750000000078040E-01     1.0000000000000000E+00     0.0000000000000000E+00 
    1.2500000000052031E-01     1.0000000000000000E+00     0.0000000000000000E+00 
    6.2500000000260125E-02     1.0000000000000000E+00     0.0000000000000000E+00 
    0.0000000000000000E+00     9.3749999999973976E-01     0.0000000000000000E+00 
    0.0000000000000000E+00     8.7499999999950118E-01     0.0000000000000000E+00 
    0.0000000000000000E+00     8.1249999999991318E-01     0.0000000000000000E+00 
    0.0000000000000000E+00     7.5000000000034706E-01     0.0000000000000000E+00 
    0.0000000000000000E+00     6.8750000000078049E-01     0.0000000000000000E+00 
    0.0000000000000000E+00     6.2500000000121403E-01     0.0000000000000000E+00 
    0.0000000000000000E+00     5.6250000000164757E-01     0.0000000000000000E+00 
    0.0000000000000000E+00     5.0000000000205946E-01     0.0000000000000000E+00 
    0.0000000000000000E+00     4.3750000000182099E-01     0.0000000000000000E+00 
    0.0000000000000000E+00     3.7500000000156092E-01     0.0000000000000000E+00 
    0.0000000000000000E+00     3.1250000000130068E-01     0.0000000000000000E+00 
    0.0000000000000000E+00     2.5000000000104050E-01     0.0000000000000000E+00 
    0.0000000000000000E+00     1.8750000000078040E-01     0.0000000000000000E+00 
    0.0000000000000000E+00     1.2500000000052031E-01     0.0000000000000000E+00 
    0.0000000000000000E+00     6.2500000000260125E-02     0.0000000000000000E+00 
    6.2499999999897131E-02     6.2500000000235922E-02     0.0000000000000000E+00 
    6.2499999999921327E-02     1.2500000000047351E-01     0.0000000000000000E+00 
    6.2499999999945530E-02     1.8750000000070621E-01     0.0000000000000000E+00 
    6.2499999999969733E-02     2.5000000000093858E-01     0.0000000000000000E+00 
    6.2499999999993928E-02     3.1250000000117117E-01     0.0000000000000000E+00 
    6.2500000000018124E-02     3.7500000000140382E-01     0.0000000000000000E+00 
    6.2500000000042327E-02     4.3750000000163619E-01     0.0000000000000000E+00 
    6.2500000000066530E-02     5.0000000000184897E-01     0.0000000000000000E+00 
    6.2500000000090733E-02     5.6250000000147260E-01     0.0000000000000000E+00 
    6.2500000000114922E-02     6.2500000000107636E-01     0.0000000000000000E+00 
    6.2500000000139125E-02     6.8750000000068034E-01     0.0000000000000000E+00 
    6.2500000000163328E-02     7.5000000000028411E-01     0.0000000000000000E+00 
    6.2500000000187531E-02     8.1249999999988787E-01     0.0000000000000000E+00 
    6.2500000000211720E-02     8.7499999999951172E-01     0.0000000000000000E+00 
    6.2500000000235922E-02     9.3749999999974565E-01     0.0000000000000000E+00 
    1.2499999999981980E-01     6.2500000000211733E-02     0.0000000000000000E+00 
    1.2499999999986650E-01     1.2500000000042691E-01     0.0000000000000000E+00 
    1.2499999999991319E-01     1.8750000000063199E-01     0.0000000000000000E+00 
    1.2499999999995989E-01     2.5000000000083678E-01     0.0000000000000000E+00 
    1.2500000000000661E-01     3.1250000000104172E-01     0.0000000000000000E+00 
    1.2500000000005329E-01     3.7500000000124661E-01     0.0000000000000000E+00 
    1.2500000000010000E-01     4.3750000000145117E-01     0.0000000000000000E+00 
    1.2500000000014669E-01     5.0000000000163858E-01     0.0000000000000000E+00 
    1.2500000000019340E-01     5.6250000000129741E-01     0.0000000000000000E+00 
    1.2500000000024011E-01     6.2500000000093847E-01     0.0000000000000000E+00 
    1.2500000000028680E-01     6.8750000000057998E-01     0.0000000000000000E+00 
    1.2500000000033351E-01     7.5000000000022127E-01     0.0000000000000000E+00 
    1.2500000000038020E-01     8.1249999999986211E-01     0.0000000000000000E+00 
    1.2500000000042691E-01     8.7499999999952238E-01     0.0000000000000000E+00 
    1.2500000000047359E-01     9.3749999999975164E-01     0.0000000000000000E+00 
    1.8749999999966760E-01     6.2500000000187531E-02     0.0000000000000000E+00 
    1.8749999999974179E-01     1.2500000000038020E-01     0.0000000000000000E+00 
    1.8749999999981601E-01     1.8750000000055780E-01     0.0000000000000000E+00 
    1.8749999999989009E-01     2.5000000000073502E-01     0.0000000000000000E+00 
    1.8749999999996431E-01     3.1250000000091221E-01     0.0000000000000000E+00 
    1.8750000000003850E-01     3.7500000000108941E-01     0.0000000000000000E+00 
    1.8750000000011269E-01     4.3750000000126649E-01     0.0000000000000000E+00 
    1.8750000000018691E-01     5.0000000000142808E-01     0.0000000000000000E+00 
    1.8750000000026110E-01     5.6250000000112244E-01     0.0000000000000000E+00 
    1.8750000000033529E-01     6.2500000000080080E-01     0.0000000000000000E+00 
    1.8750000000040951E-01     6.8750000000047962E-01     0.0000000000000000E+00 
    1.8750000000048361E-01     7.5000000000015843E-01     0.0000000000000000E+00 
    1.8750000000055780E-01     8.1249999999983680E-01     0.0000000000000000E+00 
    1.8750000000063199E-01     8.7499999999953304E-01     0.0000000000000000E+00 
    1.8750000000070621E-01     9.3749999999975764E-01     0.0000000000000000E+00 
    2.4999999999951281E-01     6.2500000000163314E-02     0.0000000000000000E+00 
    2.4999999999961461E-01     1.2500000000033351E-01     0.0000000000000000E+00 
    2.4999999999971650E-01     1.8750000000048361E-01     0.0000000000000000E+00 
    2.4999999999981831E-01     2.5000000000063310E-01     0.0000000000000000E+00 
    2.4999999999992020E-01     3.1250000000078260E-01     0.0000000000000000E+00 
    2.5000000000002198E-01     3.7500000000093209E-01     0.0000000000000000E+00 
    2.5000000000012390E-01     4.3750000000108180E-01     0.0000000000000000E+00 
    2.5000000000022571E-01     5.0000000000121769E-01     0.0000000000000000E+00 
    2.5000000000032763E-01     5.6250000000094724E-01     0.0000000000000000E+00 
    2.5000000000042938E-01     6.2500000000066314E-01     0.0000000000000000E+00 
    2.5000000000053119E-01     6.8750000000037925E-01     0.0000000000000000E+00 
[...]
CELL_DATA 256 
SCALARS Pressure double 1 
LOOKUP_TABLE default 

    1.0979995528452400E+00 
    1.0398628292212890E+00 
    9.9596305971989763E-01 
    9.5142761750874738E-01 
    9.0289629085946832E-01 
    8.4986792039434078E-01 
    7.8908066209261607E-01 
    7.1402978999649147E-01 
    6.3704637077733461E-01 
    5.7011935715791184E-01 
    5.0708336436390045E-01 
    4.4879552244361054E-01 
    3.9751229942360111E-01 
    3.5686971409565477E-01 
    3.3060578214567160E-01 
    3.1985208443619134E-01 
    1.0840609984540921E+00 
    1.0418666439534834E+00 
    9.9935463224316834E-01 
    9.5535941464699015E-01 
    9.0743777482356647E-01 
    8.5503809242888495E-01 
    7.9497924105686424E-01 
    7.2076753264940119E-01 
    6.4386419086845936E-01 
    5.7633527489334757E-01 
    5.1273495102546141E-01 
    4.5363731372845451E-01 
    4.0116884117562868E-01 
    3.5898628654389220E-01 
    3.3114713389700923E-01 
    3.1942802589635455E-01 
    1.0729612463699587E+00 
    1.0413081727469660E+00 
    1.0015815182877237E+00 
    9.5851310354113628E-01 
    9.1137300736193738E-01 
    8.5965754354805313E-01 
    8.0006613724340114E-01 
    7.2664726006493130E-01 
    6.5036627389533308E-01 
    5.8232908874580680E-01 
    5.1804600091856445E-01 
    4.5793003805705612E-01 
    4.0399117356122421E-01 
    3.5996670712133200E-01 
    3.3038530630209845E-01 
    3.1785523952679018E-01 
    1.0634735097671753E+00 
    1.0391180908735795E+00 
    1.0026578300615105E+00 
    9.6091511192879520E-01 
    9.1471474379279660E-01 
    8.6375619234227319E-01 
    8.0440855486313356E-01 
    7.3175343060767362E-01 
    6.5655727804087261E-01 
    5.8811749009154402E-01 
    5.2308324764157987E-01 
    4.6177052452235329E-01 
    4.0607722928355566E-01 
    3.5985306655686816E-01 
    3.2824044064610092E-01 
    3.1491301669939203E-01 
    1.0550239615253019E+00 
    1.0358477945621019E+00 
    1.0027242967521393E+00 
    9.6264740614815647E-01 
    9.1752661439713057E-01 
    8.6736977126498860E-01 
    8.0807143668155013E-01 
    7.3617815633845785E-01 
    6.6245566265186384E-01 
    5.9372759245957396E-01 
    5.2791596148557274E-01 
    4.6526397999549612E-01 
    4.0753969947228857E-01 
    3.5870024800312739E-01 
    3.2462844053460232E-01 
    3.1037256575671285E-01 
    1.0475161755668776E+00 
    1.0320288266318978E+00 
    1.0020455670368704E+00 
    9.6383553877922301E-01 
    9.1989183484513726E-01 
    8.7046863842076105E-01 
    8.1108799165539658E-01 
    7.4007310748347355E-01 
    6.6807287723144870E-01 
    5.9919383192695697E-01 
    5.3261638295968661E-01 
    4.6852502499078469E-01 
    4.0851144578738091E-01 
    3.5658608196457375E-01 
    3.1946502663982379E-01 
    3.0397367030375183E-01 
    1.0408893630417480E+00 
    1.0280449070478324E+00 
    1.0008787198664457E+00 
    9.6460122998732567E-01 
    9.2188339120727392E-01 
    8.7294027178873257E-01 
    8.1345522796950409E-01 
    7.4370130425990211E-01 
    6.7342559959289361E-01 
    6.0455594978127769E-01 
    5.3726169879193986E-01 
    4.7167752348348124E-01 
    4.0915099334109084E-01 
    3.5362548481993678E-01 
    3.1267687597101529E-01 
    2.9541926880150160E-01 
    1.0351266749960668E+00 
    1.0241858941512687E+00 
    9.9946294614359821E-01 
    9.6506583371217602E-01 
    9.2353019466876418E-01 
    8.7468840625086730E-01 
    8.1527249822824821E-01 
    7.4738798755639935E-01 
    6.7857258522195119E-01 
    6.0986062872015356E-01 
    5.4192861191218555E-01 
    4.7485372179905028E-01 
    4.0964546290466880E-01 
    3.4998293796188534E-01 
    3.0421084582047281E-01 
    2.8434397219580937E-01 
    1.0302296059588019E+00 
    1.0206631362933234E+00 
    9.9800119557241240E-01 
    9.6531771077383066E-01 
    9.2466978755387019E-01 
    8.7570550929411639E-01 
    8.1692768271861493E-01 
    7.5129990478448250E-01 
    6.8361965939230851E-01 
    6.1516179915342717E-01 
    5.4669411403398915E-01 
    4.7819024919966013E-01 
    4.1021316567309712E-01 
    3.4589349348801379E-01 
    2.9406096487988376E-01 
    2.7029340414484138E-01 
    1.0260619420232244E+00 
    1.0175133372233944E+00 
    9.9653083168246248E-01 
    9.6516351966809022E-01 
    9.2504505470880949E-01 
    8.7629576953874655E-01 
    8.1893519349849131E-01 
    7.5535849220472839E-01 
    6.8865985100936744E-01 
    6.2051545797529517E-01 
    5.5162941023008949E-01 
    4.8182263711311324E-01 
    4.1110137162120663E-01 
    3.4168314375267095E-01 
    2.8230493896683706E-01 
    2.5267534960755583E-01 
    1.0218799668886873E+00 
    1.0141341777187620E+00 
    9.9451022077340501E-01 
    9.6428304772321149E-01 
    9.2494198670690519E-01 
    8.7723546621386539E-01 
    8.2152058875363865E-01 
    7.5950873529978447E-01 
    6.9375816500772269E-01 
    6.2597309691540159E-01 
    5.5679808447046863E-01 
    4.8587709063466528E-01 
    4.1257955265493268E-01 
    3.3779468963145631E-01 
    2.6917711073486661E-01 
    2.3070994341085485E-01 
    1.0180297520883699E+00 
    1.0107405186740490E+00 
    9.9229574123222219E-01 
    9.6338728047022792E-01 
    9.2532056537137297E-01 
    8.7890591979730426E-01 
    8.2455338363206543E-01 
    7.6382783396256726E-01 
    6.9896784625893915E-01 
    6.3157846093665171E-01 
    5.6224963717967524E-01 
    4.9046010226718817E-01 
    4.1492090996020664E-01 
    3.3480302722217475E-01 
    2.5518199784198764E-01 
    2.0334016438454211E-01 
    1.0153421673296812E+00 
    1.0083907915687367E+00 
    9.9100031986872017E-01 
    9.6338106849708705E-01 
    9.2650051452706139E-01 
    8.8116266111616948E-01 
    8.2798070507291888E-01 
    7.6837999977230365E-01 
    7.0433764391464371E-01 
    6.3736657523771867E-01 
    5.6801784000356148E-01 
    4.9564646917788047E-01 
    4.1837338052563672E-01 
    3.3341587711796256E-01 
    2.4129327032027315E-01 
    1.6911165551019483E-01 
    1.0135988648419241E+00 
    1.0069755618725624E+00 
    9.9053097673260315E-01 
    9.6406681707279152E-01 
    9.2829347772301085E-01 
    8.8397560080084869E-01 
    8.3183771674104945E-01 
    7.7321608678916309E-01 
    7.0990977726996896E-01 
    6.4336381432623280E-01 
    5.7411791476498275E-01 
    5.0146905438137435E-01 
    4.2311560941645321E-01 
    3.3442328731404175E-01 
    2.2928058922767747E-01 
    1.2598242700311474E-01 
    1.0126601137751061E+00 
    1.0064165385402803E+00 
    9.9086111827159273E-01 
    9.6546025477009478E-01 
    9.3072188839119963E-01 
    8.8736218049813764E-01 
    8.3615665155578112E-01 
    7.7838069412578781E-01 
    7.1572112051356940E-01 
    6.4958902772717408E-01 
    5.8054786956590843E-01 
    5.0791349085595261E-01 
    4.2920532488101565E-01 
    3.3854444511255261E-01 
    2.2226348626944106E-01 
    7.1034951196188287E-02 
    1.0123992708778824E+00 
    1.0066573622018928E+00 
    9.9198433227129246E-01 
    9.6757940608823645E-01 
    9.3380650284326738E-01 
    8.9134320293636760E-01 
    8.4096974294368332E-01 
    7.8391441733836031E-01 
    7.2180444359550833E-01 
    6.5605498930444162E-01 
    5.8729168550370026E-01 
    5.1492224865158376E-01 
    4.3654131952362396E-01 
    3.4605813208606467E-01 
    2.2563905501051704E-01 
    0.0000000000000000E+00 

SCALARS Saturarion double 1 
LOOKUP_TABLE default 

    1.0000000000003852E+00 
    9.3019096059692563E-01 
    8.3373285093747684E-01 
    7.1501069654273830E-01 
    6.3671345779044786E-01 
    5.7098529205739079E-01 
    4.7680442111355853E-01 
    1.6874217420247584E-01 
    2.6063620749576097E-06 
    1.0000000000005459E-06 
    9.9999999999999974E-07 
    9.9999999999999995E-07 
    9.9999999999999995E-07 
    9.9999999999999995E-07 
    9.9999999999999995E-07 
    9.9999999999999995E-07 
    9.6542883978420746E-01 
    9.0169819868319467E-01 
    8.0571871895810887E-01 
    7.0548618967489218E-01 
    6.2845528324411182E-01 
    5.6464714589257226E-01 
    4.7000304908627638E-01 
    1.5462804748559647E-01 
    3.5285978366563207E-06 
    1.0000030173290075E-06 
    1.0000000000024678E-06 
    9.9999999999999995E-07 
    9.9999999999999995E-07 
    9.9999999999999995E-07 
    9.9999999999999995E-07 
    9.9999999999999995E-07 
    9.0783460771759061E-01 
    8.5716387748707368E-01 
    7.6665879787954760E-01 
    6.8623956112258622E-01 
    6.1431083766160222E-01 
    5.5340798382570322E-01 
    4.5961776584051650E-01 
    1.3666831496128390E-01 
    8.3660739905476188E-06 
    1.0000150295670483E-06 
    1.0000000000107458E-06 
    9.9999999999999995E-07 
    9.9999999999999995E-07 
    9.9999999999999995E-07 
    9.9999999999999995E-07 
    9.9999999999999995E-07 
    8.2606521591616044E-01 
    7.8794260347901779E-01 
    7.1763536105868841E-01 
    6.5700461542907085E-01 
    6.0005383256229494E-01 
    5.4399547618672195E-01 
    4.4747514811046268E-01 
    1.1654559692290593E-01 
    1.1513793762020959E-05 
    1.0000284050917555E-06 
    1.0000000000126146E-06 
    9.9999999999999995E-07 
    9.9999999999999995E-07 
    9.9999999999999995E-07 
    9.9999999999999995E-07 
    9.9999999999999995E-07 
    7.5499423998427206E-01 
    7.2673878908002110E-01 
    6.7407624131871668E-01 
    6.2630874143700221E-01 
    5.8202360954691035E-01 
    5.3100229423756462E-01 
    4.2629978999482077E-01 
    8.3244734047668759E-02 
    2.8723667196185489E-05 
    1.0000773196053088E-06 
    1.0000000000182825E-06 
    9.9999999999999995E-07 
    9.9999999999999995E-07 
    9.9999999999999995E-07 
    9.9999999999999995E-07 
    9.9999999999999995E-07 
    6.9193995143056486E-01 
    6.7280235347969841E-01 
    6.3408871621513563E-01 
    5.9566957457254610E-01 
    5.5957583037300496E-01 
    5.1177822698157549E-01 
    3.7769350864431955E-01 
    3.6177071485438986E-02 
    3.0224364831010323E-05 
    1.0001153182154753E-06 
    9.9999999999999995E-07 
    9.9999999999999995E-07 
    9.9999999999999995E-07 
    9.9999999999999995E-07 
    9.9999999999999995E-07 
    9.9999999999999995E-07 
    6.3578539389313671E-01 
    6.2474723385686193E-01 
    5.9741977883865638E-01 
    5.6502360814544794E-01 
    5.3354298012860202E-01 
    4.8485556560938642E-01 
    2.9039091713620269E-01 
    6.0364257013741625E-03 
    2.2516227214019649E-06 
    1.0000004375997122E-06 
    1.0000000000000010E-06 
    9.9999999999999995E-07 
    9.9999999999999995E-07 
    9.9999999999999995E-07 
    9.9999999999999995E-07 
    9.9999999999999995E-07 
    5.8717131813144396E-01 
    5.8262773185960348E-01 
    5.6358287010301089E-01 
    5.3611602810505399E-01 
    5.0552003579389082E-01 
    4.3603557839535650E-01 
    1.5515015939945545E-01 
    2.7628949185754730E-04 
    1.0222604808826536E-06 
    1.0000000003513774E-06 
    9.9999999999999995E-07 
    9.9999999999999995E-07 
    9.9999999999999995E-07 
    9.9999999999999995E-07 
    9.9999999999999995E-07 
    9.9999999999999995E-07 
    5.4596884766430442E-01 
    5.4450533091679176E-01 
    5.2999606850270831E-01 
    5.0690089036737773E-01 
    4.6408313310200477E-01 
    3.0763317342923435E-01 
    2.4680037819250884E-02 
    2.9601620424890652E-05 
    1.0000785753309792E-06 
    1.0000000000000019E-06 
    9.9999999999999995E-07 
    9.9999999999999995E-07 
    9.9999999999999995E-07 
    9.9999999999999995E-07 
    9.9999999999999995E-07 
    9.9999999999999995E-07 
    4.9452033787774768E-01 
    4.9495357608721241E-01 
    4.8472850697623837E-01 
    4.4841245147317171E-01 
    3.2850116712252148E-01 
    7.7421653619818148E-02 
    2.6580911249507542E-04 
    1.0121632411617020E-06 
    1.0000000000096585E-06 
    9.9999999999999995E-07 
    9.9999999999999995E-07 
    9.9999999999999995E-07 
    9.9999999999999995E-07 
    9.9999999999999995E-07 
    9.9999999999999995E-07 
    9.9999999999999995E-07 
    3.2856010129625535E-01 
    3.6000384614883646E-01 
    3.2206141103773217E-01 
    1.9541817026584063E-01 
    4.5733386136010544E-02 
    3.0142236409894726E-04 
    1.0197212467629647E-06 
    1.0000000030844065E-06 
    1.0000000000000002E-06 
    9.9999999999999995E-07 
    9.9999999999999995E-07 
    9.9999999999999995E-07 
    9.9999999999999995E-07 
    9.9999999999999995E-07 
    9.9999999999999995E-07 
    9.9999999999999995E-07 
    8.2675315255604162E-03 
    2.4865575163007744E-02 
    1.1819543778398878E-02 
    5.2597272660474999E-04 
    7.6821536692963266E-05 
    1.0086506954162082E-06 
    1.0000000033395951E-06 
    1.0000000000000002E-06 
    9.9999999999999995E-07 
    9.9999999999999995E-07 
    9.9999999999999995E-07 
    9.9999999999999995E-07 
    9.9999999999999995E-07 
    9.9999999999999995E-07 
    9.9999999999999995E-07 
    9.9999999999999995E-07 
    1.0000006766793269E-06 
    2.0803931807560424E-06 
    3.2784487570012265E-06 
    1.0218894257633526E-06 
    1.0003677162143696E-06 
    1.0000000001178320E-06 
    1.0000000000000002E-06 
    9.9999999999999995E-07 
    9.9999999999999995E-07 
    9.9999999999999995E-07 
    9.9999999999999995E-07 
    9.9999999999999995E-07 
    9.9999999999999995E-07 
    9.9999999999999995E-07 
    9.9999999999999995E-07 
    9.9999999999999995E-07 
    1.0000000000000997E-06 
    1.0000002796311636E-06 
    1.0000002373168169E-06 
    1.0000000010617202E-06 
    1.0000000000000014E-06 
    9.9999999999999995E-07 
    9.9999999999999995E-07 
    9.9999999999999995E-07 
    9.9999999999999995E-07 
    9.9999999999999995E-07 
    9.9999999999999995E-07 
    9.9999999999999995E-07 
    9.9999999999999995E-07 
    9.9999999999999995E-07 
    9.9999999999999995E-07 
    9.9999999999999995E-07 
    9.9999999999999995E-07 
    1.0000000000000004E-06 
    1.0000000000000076E-06 
    9.9999999999999995E-07 
    9.9999999999999995E-07 
    9.9999999999999995E-07 
    9.9999999999999995E-07 
    9.9999999999999995E-07 
    9.9999999999999995E-07 
    9.9999999999999995E-07 
    9.9999999999999995E-07 
    9.9999999999999995E-07 
    9.9999999999999995E-07 
    9.9999999999999995E-07 
    9.9999999999999995E-07 
    9.9999999999999995E-07 
    9.9999999999999995E-07 
    9.9999999999999995E-07 
    9.9999999999999995E-07 
    9.9999999999999995E-07 
    9.9999999999999995E-07 
    9.9999999999999995E-07 
    9.9999999999999995E-07 
    9.9999999999999995E-07 
    9.9999999999999995E-07 
    9.9999999999999995E-07 
    9.9999999999999995E-07 
    9.9999999999999995E-07 
    9.9999999999999995E-07 
    9.9999999999999995E-07 
    9.9999999999999995E-07 
    1.0000002025213215E-06 
