# vtk DataFile Version 2.0
Pressure Field Data 
ASCII 
DATASET UNSTRUCTURED_GRID 

POINTS 289 double 

    0.0000000000000000E+00     0.0000000000000000E+00     0.0000000000000000E+00 
    1.0000000000000000E+00     0.0000000000000000E+00     0.0000000000000000E+00 
    1.0000000000000000E+00     1.0000000000000000E+00     0.0000000000000000E+00 
    0.0000000000000000E+00     1.0000000000000000E+00     0.0000000000000000E+00 
    6.2499999999872928E-02     0.0000000000000000E+00     0.0000000000000000E+00 
    1.2499999999977310E-01     0.0000000000000000E+00     0.0000000000000000E+00 
    1.8749999999959341E-01     0.0000000000000000E+00     0.0000000000000000E+00 
    2.4999999999941089E-01     0.0000000000000000E+00     0.0000000000000000E+00 
    3.1249999999922851E-01     0.0000000000000000E+00     0.0000000000000000E+00 
    3.7499999999904610E-01     0.0000000000000000E+00     0.0000000000000000E+00 
    4.3749999999886358E-01     0.0000000000000000E+00     0.0000000000000000E+00 
    4.9999999999869210E-01     0.0000000000000000E+00     0.0000000000000000E+00 
    5.6249999999884603E-01     0.0000000000000000E+00     0.0000000000000000E+00 
    6.2499999999901090E-01     0.0000000000000000E+00     0.0000000000000000E+00 
    6.8749999999917577E-01     0.0000000000000000E+00     0.0000000000000000E+00 
    7.4999999999934064E-01     0.0000000000000000E+00     0.0000000000000000E+00 
    8.1249999999950551E-01     0.0000000000000000E+00     0.0000000000000000E+00 
    8.7499999999967026E-01     0.0000000000000000E+00     0.0000000000000000E+00 
    9.3749999999983513E-01     0.0000000000000000E+00     0.0000000000000000E+00 
    1.0000000000000000E+00     6.2499999999872928E-02     0.0000000000000000E+00 
    1.0000000000000000E+00     1.2499999999977310E-01     0.0000000000000000E+00 
    1.0000000000000000E+00     1.8749999999959341E-01     0.0000000000000000E+00 
    1.0000000000000000E+00     2.4999999999941089E-01     0.0000000000000000E+00 
    1.0000000000000000E+00     3.1249999999922851E-01     0.0000000000000000E+00 
    1.0000000000000000E+00     3.7499999999904610E-01     0.0000000000000000E+00 
    1.0000000000000000E+00     4.3749999999886358E-01     0.0000000000000000E+00 
    1.0000000000000000E+00     4.9999999999869210E-01     0.0000000000000000E+00 
    1.0000000000000000E+00     5.6249999999884603E-01     0.0000000000000000E+00 
    1.0000000000000000E+00     6.2499999999901090E-01     0.0000000000000000E+00 
    1.0000000000000000E+00     6.8749999999917577E-01     0.0000000000000000E+00 
    1.0000000000000000E+00     7.4999999999934064E-01     0.0000000000000000E+00 
    1.0000000000000000E+00     8.1249999999950551E-01     0.0000000000000000E+00 
    1.0000000000000000E+00     8.7499999999967026E-01     0.0000000000000000E+00 
    1.0000000000000000E+00     9.3749999999983513E-01     0.0000000000000000E+00 
    9.3749999999973976E-01     1.0000000000000000E+00     0.0000000000000000E+00 
    8.7499999999950118E-01     1.0000000000000000E+00     0.0000000000000000E+00 
    8.1249999999991318E-01     1.0000000000000000E+00     0.0000000000000000E+00 
    7.5000000000034706E-01     1.0000000000000000E+00     0.0000000000000000E+00 
    6.8750000000078049E-01     1.0000000000000000E+00     0.0000000000000000E+00 
    6.2500000000121403E-01     1.0000000000000000E+00     0.0000000000000000E+00 
    5.6250000000164757E-01     1.0000000000000000E+00     0.0000000000000000E+00 
    5.0000000000205946E-01     1.0000000000000000E+00     0.0000000000000000E+00 
    4.3750000000182099E-01     1.0000000000000000E+00     0.0000000000000000E+00 
    3.7500000000156092E-01     1.0000000000000000E+00     0.0000000000000000E+00 
    3.1250000000130068E-01     1.0000000000000000E+00     0.0000000000000000E+00 
    2.5000000000104050E-01     1.0000000000000000E+00     0.0000000000000000E+00 
    1.8750000000078040E-01     1.0000000000000000E+00     0.0000000000000000E+00 
    1.2500000000052031E-01     1.0000000000000000E+00     0.0000000000000000E+00 
    6.2500000000260125E-02     1.0000000000000000E+00     0.0000000000000000E+00 
    0.0000000000000000E+00     9.3749999999973976E-01     0.0000000000000000E+00 
    0.0000000000000000E+00     8.7499999999950118E-01     0.0000000000000000E+00 
    0.0000000000000000E+00     8.1249999999991318E-01     0.0000000000000000E+00 
    0.0000000000000000E+00     7.5000000000034706E-01     0.0000000000000000E+00 
    0.0000000000000000E+00     6.8750000000078049E-01     0.0000000000000000E+00 
    0.0000000000000000E+00     6.2500000000121403E-01     0.0000000000000000E+00 
    0.0000000000000000E+00     5.6250000000164757E-01     0.0000000000000000E+00 
    0.0000000000000000E+00     5.0000000000205946E-01     0.0000000000000000E+00 
    0.0000000000000000E+00     4.3750000000182099E-01     0.0000000000000000E+00 
    0.0000000000000000E+00     3.7500000000156092E-01     0.0000000000000000E+00 
    0.0000000000000000E+00     3.1250000000130068E-01     0.0000000000000000E+00 
    0.0000000000000000E+00     2.5000000000104050E-01     0.0000000000000000E+00 
    0.0000000000000000E+00     1.8750000000078040E-01     0.0000000000000000E+00 
    0.0000000000000000E+00     1.2500000000052031E-01     0.0000000000000000E+00 
    0.0000000000000000E+00     6.2500000000260125E-02     0.0000000000000000E+00 
    6.2499999999897131E-02     6.2500000000235922E-02     0.0000000000000000E+00 
    6.2499999999921327E-02     1.2500000000047351E-01     0.0000000000000000E+00 
    6.2499999999945530E-02     1.8750000000070621E-01     0.0000000000000000E+00 
    6.2499999999969733E-02     2.5000000000093858E-01     0.0000000000000000E+00 
    6.2499999999993928E-02     3.1250000000117117E-01     0.0000000000000000E+00 
    6.2500000000018124E-02     3.7500000000140382E-01     0.0000000000000000E+00 
    6.2500000000042327E-02     4.3750000000163619E-01     0.0000000000000000E+00 
    6.2500000000066530E-02     5.0000000000184897E-01     0.0000000000000000E+00 
    6.2500000000090733E-02     5.6250000000147260E-01     0.0000000000000000E+00 
    6.2500000000114922E-02     6.2500000000107636E-01     0.0000000000000000E+00 
    6.2500000000139125E-02     6.8750000000068034E-01     0.0000000000000000E+00 
    6.2500000000163328E-02     7.5000000000028411E-01     0.0000000000000000E+00 
    6.2500000000187531E-02     8.1249999999988787E-01     0.0000000000000000E+00 
    6.2500000000211720E-02     8.7499999999951172E-01     0.0000000000000000E+00 
    6.2500000000235922E-02     9.3749999999974565E-01     0.0000000000000000E+00 
    1.2499999999981980E-01     6.2500000000211733E-02     0.0000000000000000E+00 
    1.2499999999986650E-01     1.2500000000042691E-01     0.0000000000000000E+00 
    1.2499999999991319E-01     1.8750000000063199E-01     0.0000000000000000E+00 
    1.2499999999995989E-01     2.5000000000083678E-01     0.0000000000000000E+00 
    1.2500000000000661E-01     3.1250000000104172E-01     0.0000000000000000E+00 
    1.2500000000005329E-01     3.7500000000124661E-01     0.0000000000000000E+00 
    1.2500000000010000E-01     4.3750000000145117E-01     0.0000000000000000E+00 
    1.2500000000014669E-01     5.0000000000163858E-01     0.0000000000000000E+00 
    1.2500000000019340E-01     5.6250000000129741E-01     0.0000000000000000E+00 
    1.2500000000024011E-01     6.2500000000093847E-01     0.0000000000000000E+00 
    1.2500000000028680E-01     6.8750000000057998E-01     0.0000000000000000E+00 
    1.2500000000033351E-01     7.5000000000022127E-01     0.0000000000000000E+00 
    1.2500000000038020E-01     8.1249999999986211E-01     0.0000000000000000E+00 
    1.2500000000042691E-01     8.7499999999952238E-01     0.0000000000000000E+00 
    1.2500000000047359E-01     9.3749999999975164E-01     0.0000000000000000E+00 
    1.8749999999966760E-01     6.2500000000187531E-02     0.0000000000000000E+00 
    1.8749999999974179E-01     1.2500000000038020E-01     0.0000000000000000E+00 
    1.8749999999981601E-01     1.8750000000055780E-01     0.0000000000000000E+00 
    1.8749999999989009E-01     2.5000000000073502E-01     0.0000000000000000E+00 
    1.8749999999996431E-01     3.1250000000091221E-01     0.0000000000000000E+00 
    1.8750000000003850E-01     3.7500000000108941E-01     0.0000000000000000E+00 
    1.8750000000011269E-01     4.3750000000126649E-01     0.0000000000000000E+00 
    1.8750000000018691E-01     5.0000000000142808E-01     0.0000000000000000E+00 
    1.8750000000026110E-01     5.6250000000112244E-01     0.0000000000000000E+00 
    1.8750000000033529E-01     6.2500000000080080E-01     0.0000000000000000E+00 
    1.8750000000040951E-01     6.8750000000047962E-01     0.0000000000000000E+00 
    1.8750000000048361E-01     7.5000000000015843E-01     0.0000000000000000E+00 
    1.8750000000055780E-01     8.1249999999983680E-01     0.0000000000000000E+00 
    1.8750000000063199E-01     8.7499999999953304E-01     0.0000000000000000E+00 
    1.8750000000070621E-01     9.3749999999975764E-01     0.0000000000000000E+00 
    2.4999999999951281E-01     6.2500000000163314E-02     0.0000000000000000E+00 
    2.4999999999961461E-01     1.2500000000033351E-01     0.0000000000000000E+00 
    2.4999999999971650E-01     1.8750000000048361E-01     0.0000000000000000E+00 
    2.4999999999981831E-01     2.5000000000063310E-01     0.0000000000000000E+00 
    2.4999999999992020E-01     3.1250000000078260E-01     0.0000000000000000E+00 
    2.5000000000002198E-01     3.7500000000093209E-01     0.0000000000000000E+00 
    2.5000000000012390E-01     4.3750000000108180E-01     0.0000000000000000E+00 
    2.5000000000022571E-01     5.0000000000121769E-01     0.0000000000000000E+00 
    2.5000000000032763E-01     5.6250000000094724E-01     0.0000000000000000E+00 
    2.5000000000042938E-01     6.2500000000066314E-01     0.0000000000000000E+00 
    2.5000000000053119E-01     6.8750000000037925E-01     0.0000000000000000E+00 
[...]
CELL_DATA 256 
SCALARS Pressure double 1 
LOOKUP_TABLE default 

    6.5595150389806756E-01 
    6.0651138725924658E-01 
    5.7538398008487779E-01 
    5.4747973040687758E-01 
    5.1926665941145911E-01 
    4.8978818389374296E-01 
    4.5882748404889129E-01 
    4.2665353132031530E-01 
    3.9373026605323447E-01 
    3.6061865528866610E-01 
    3.2795655467272083E-01 
    2.9671216412087370E-01 
    2.6858313081347490E-01 
    2.4598489198435639E-01 
    2.3126125379156845E-01 
    2.2408868385322334E-01 
    6.4195674026578486E-01 
    6.0774305611747170E-01 
    5.7769662847240344E-01 
    5.5001019550021857E-01 
    5.2198682868312696E-01 
    4.9268802900279984E-01 
    4.6187499935896692E-01 
    4.2979432887291347E-01 
    3.9689174210098527E-01 
    3.6371118368658922E-01 
    3.3085746187587978E-01 
    2.9923223803621535E-01 
    2.7047036369473570E-01 
    2.4701326738569601E-01 
    2.3143373530649691E-01 
    2.2370648932158682E-01 
    6.3122758162008852E-01 
    6.0685373338087145E-01 
    5.7926796135330483E-01 
    5.5221325441772195E-01 
    5.2451337687099764E-01 
    4.9545209796951395E-01 
    4.6481737566246717E-01 
    4.3284180595947841E-01 
    3.9994757683080401E-01 
    3.6664774515188908E-01 
    3.3350772576696497E-01 
    3.0135752736056731E-01 
    2.7177280381791452E-01 
    2.4725600215536653E-01 
    2.3069249299749051E-01 
    2.2246607866245624E-01 
    6.2282191105051876E-01 
    6.0490508695617673E-01 
    5.8014218605659207E-01 
    5.5406806068687064E-01 
    5.2683940895863568E-01 
    4.9808331888200319E-01 
    4.6766162130190658E-01 
    4.3580626006909229E-01 
    4.0291443817804268E-01 
    3.6945881198329250E-01 
    3.3595540644863969E-01 
    3.0315144667831495E-01 
    2.7255380040444233E-01 
    2.4674222254157452E-01 
    2.2899474930387509E-01 
    2.2023924855225127E-01 
    6.1610021630173728E-01 
    6.0249239034375068E-01 
    5.8045520552608720E-01 
    5.5558607984147934E-01 
    5.2896349924630182E-01 
    5.0058385642403758E-01 
    4.7041481007470881E-01 
    4.3869969331605912E-01 
    4.0581183339077881E-01 
    3.7217770642902454E-01 
    3.3825232769667224E-01 
    3.0468410022058545E-01 
    2.7288672714656398E-01 
    2.4550872997982151E-01 
    2.2629236267015509E-01 
    2.1688860165454424E-01 
    6.1065568619270427E-01 
    5.9995882160744340E-01 
    5.8035904683889927E-01 
    5.5680265916301674E-01 
    5.3089257961644987E-01 
    5.0295613526828198E-01 
    4.7308295913511500E-01 
    4.4153378823881201E-01 
    4.0866003293901887E-01 
    3.7483992809820971E-01 
    3.4045416345626295E-01 
    3.0603329946586139E-01 
    2.7285765582223831E-01 
    2.4360592245327656E-01 
    2.2253387523909088E-01 
    2.1224756063623770E-01 
    6.0621740632401033E-01 
    5.9750905943375432E-01 
    5.8000009978856337E-01 
    5.5777182479586385E-01 
    5.3264582100225599E-01 
    5.0520913184329908E-01 
    4.7567218446898951E-01 
    4.4431911787859180E-01 
    4.1147960657587046E-01 
    3.7748111735385176E-01 
    3.4262059492985980E-01 
    3.0728567301318166E-01 
    2.7256966911146802E-01 
    2.4110732812128535E-01 
    2.1767726586931377E-01 
    2.0612923472152195E-01 
    6.0259530945405237E-01 
    5.9526197867569619E-01 
    5.7950585256451737E-01 
    5.5855761276376381E-01 
    5.3425383831751072E-01 
    5.0735892939587801E-01 
    4.7819294654288313E-01 
    4.4706575982107638E-01 
    4.1428706600212484E-01 
    3.8013377634989676E-01 
    3.4481039295342442E-01 
    3.0853619905937940E-01 
    2.7214719857846398E-01 
    2.3811737365471644E-01 
    2.1169568768552330E-01 
    1.9831147118959375E-01 
    5.9965048799820064E-01 
    5.9328170017677806E-01 
    5.7897946423856750E-01 
    5.5922606306072398E-01 
    5.3575161891764234E-01 
    5.0942526058338533E-01 
    4.8065737909977790E-01 
    4.4978423136342044E-01 
    4.1709723170409574E-01 
    3.8282480339192748E-01 
    3.4707748377989900E-01 
    3.0988283851062376E-01 
    2.7173798500488466E-01 
    2.3478367035731243E-01 
    2.0458692715245136E-01 
    1.8851494499334179E-01 
    5.9728091483334966E-01 
    5.9160113490471111E-01 
    5.7850093847936390E-01 
    5.5983911526213204E-01 
    5.3717689035857741E-01 
    5.1143009838242415E-01 
    4.8308017619901789E-01 
    4.5248665403342458E-01 
    4.1992354771841528E-01 
    3.8557596679735012E-01 
    3.4946715819086277E-01 
    3.1142064651704077E-01 
    2.7151078995897765E-01 
    2.3131046759338714E-01 
    1.9639226260632647E-01 
    1.7636977710280136E-01 
    5.9541100039233008E-01 
    5.9023657378392191E-01 
    5.7813263973732631E-01 
    5.6045335609245428E-01 
    5.3856813123476477E-01 
    5.1339835173519321E-01 
    4.8547777601910747E-01 
    4.5518707530635105E-01 
    4.2278088320293117E-01 
    3.8840663954170157E-01 
    3.5201753907464478E-01 
    3.1323752590246606E-01 
    2.7165196302043398E-01 
    2.2797484945631860E-01 
    1.8723664280712932E-01 
    1.6138684922276958E-01 
    5.9398097543664796E-01 
    5.8919443433636043E-01 
    5.7792445363312295E-01 
    5.6112095825013419E-01 
    5.3996554198681357E-01 
    5.1535820641202879E-01 
    4.8787043297208310E-01 
    4.5790223056642160E-01 
    4.2568533142168552E-01 
    3.9133465934584782E-01 
    3.5475925773936390E-01 
    3.1540994114484017E-01 
    2.7235844051016372E-01 
    2.2514796161997772E-01 
    1.7739912721170481E-01 
    1.4288749077950189E-01 
    5.9294529749080926E-01 
    5.8847810334578166E-01 
    5.7791869611604985E-01 
    5.6189168711175586E-01 
    5.4141047179623325E-01 
    5.1734130269605672E-01 
    4.9028169488038426E-01 
    4.6065269975301520E-01 
    4.2865600869834064E-01 
    3.9437686402698541E-01 
    3.5771602191405377E-01 
    3.1799680817853976E-01 
    2.7382108329390875E-01 
    2.2330675579246284E-01 
    1.6742957479755627E-01 
    1.1986602877790939E-01 
    5.9227603509539262E-01 
    5.8810101473401399E-01 
    5.7816165947002407E-01 
    5.6281955797179217E-01 
    5.4294929762497146E-01 
    5.1938241354017778E-01 
    4.9273569536337780E-01 
    4.6345891641542220E-01 
    4.3171096939091957E-01 
    3.9754003402838262E-01 
    3.6088967606839817E-01 
    3.2102019646646573E-01 
    2.7618678570506267E-01 
    2.2301902090975961E-01 
    1.5841069261853929E-01 
    9.0813858933474267E-02 
    5.9187181351387763E-01 
    5.8801318089963506E-01 
    5.7865287664704990E-01 
    5.6392260056823007E-01 
    5.4459553289055507E-01 
    5.2147940017335515E-01 
    4.9520808285124007E-01 
    4.6627298116401844E-01 
    4.3479280433779982E-01 
    4.0076285001272161E-01 
    3.6418966028405841E-01 
    3.2435708843767908E-01 
    2.7938544863728226E-01 
    2.2464942075160385E-01 
    1.5211550023615325E-01 
    5.3281579996239940E-02 
    5.9173308205589525E-01 
    5.8821159611023366E-01 
    5.7939412412419000E-01 
    5.6521417496949200E-01 
    5.4636788776600842E-01 
    5.2365371775492542E-01 
    4.9771231154855383E-01 
    4.6908296179488529E-01 
    4.3788021646043251E-01 
    4.0407346703618641E-01 
    3.6769416838710917E-01 
    3.2810812174182385E-01 
    2.8354822085934439E-01 
    2.2861959581109481E-01 
    1.5160463300913504E-01 
    0.0000000000000000E+00 

SCALARS Saturarion double 1 
LOOKUP_TABLE default 

    1.0000000000000002E+00 
    9.7884028805570911E-01 
    9.3994628488214416E-01 
    8.8624005701274322E-01 
    8.4137066880709988E-01 
    8.0164223210428798E-01 
    7.6669914321389943E-01 
    7.3610164098716535E-01 
    7.0899024176611092E-01 
    6.8444227371075572E-01 
    6.6140244958207084E-01 
    6.3861788240817974E-01 
    6.1412996053526603E-01 
    5.8410615987866465E-01 
    5.3828018007277945E-01 
    3.1444966133184910E-01 
    9.9219627142837818E-01 
    9.7218758504500813E-01 
    9.3139274432893793E-01 
    8.8014123568480607E-01 
    8.3635522727325251E-01 
    7.9791521267200116E-01 
    7.6399653871583872E-01 
    7.3403831771867234E-01 
    7.0738739734606226E-01 
    6.8320747312512509E-01 
    6.6067116183762298E-01 
    6.3866222435169118E-01 
    6.1520047134790024E-01 
    5.8620284343770068E-01 
    5.4226445678069923E-01 
    3.3586010468591027E-01 
    9.7984374151662823E-01 
    9.5972136585218748E-01 
    9.1864741377499914E-01 
    8.6898210508021634E-01 
    8.2644584422176037E-01 
    7.9015638659089238E-01 
    7.5835047308523040E-01 
    7.2979270517230799E-01 
    7.0395960652128953E-01 
    6.8031917173792988E-01 
    6.5835731050573032E-01 
    6.3721801264769429E-01 
    6.1530404202320965E-01 
    5.8858171556556138E-01 
    5.4769623147606417E-01 
    3.5565918194242785E-01 
    9.5831677623179468E-01 
    9.4131347330881854E-01 
    9.0292508225918311E-01 
    8.5723030129018896E-01 
    8.1544335700344639E-01 
    7.7999061772190403E-01 
    7.4947744440186959E-01 
    7.2256018950892154E-01 
    6.9821629803934415E-01 
    6.7597429865319614E-01 
    6.5520606079981525E-01 
    6.3520267940201902E-01 
    6.1470729579020189E-01 
    5.9042872153111214E-01 
    5.5307117601158950E-01 
    3.7499909374206492E-01 
    9.3164767626745670E-01 
    9.1639564044252819E-01 
    8.8184150614642864E-01 
    8.4065405597059528E-01 
    8.0097790986805484E-01 
    7.6633969926509327E-01 
    7.3685164843068029E-01 
    7.1136414361938050E-01 
    6.8885665710492361E-01 
    6.6864035567134872E-01 
    6.5012205616639607E-01 
    6.3235672365528817E-01 
    6.1381551195052453E-01 
    5.9170864844816662E-01 
    5.5765575240261511E-01 
    3.9139573586013060E-01 
    9.0116216540286664E-01 
    8.8832573151597005E-01 
    8.5813800706639309E-01 
    8.2064929600050240E-01 
    7.8385736934752237E-01 
    7.5092154957046719E-01 
    7.2226963811602696E-01 
    6.9772348284249819E-01 
    6.7659204420502639E-01 
    6.5823910768315574E-01 
    6.4213451387555875E-01 
    6.2744947607069312E-01 
    6.1212493497532072E-01 
    5.9263749609353411E-01 
    5.6172504309950366E-01 
    4.0629386806993928E-01 
    8.6779246919446151E-01 
    8.5800335662272809E-01 
    8.3247183178397921E-01 
    7.9886978627832406E-01 
    7.6529313570410884E-01 
    7.3470168803296632E-01 
    7.0767356457888619E-01 
    6.8387024415900211E-01 
    6.6337194937225341E-01 
    6.4608378202996120E-01 
    6.3184691364013679E-01 
    6.2003366919609959E-01 
    6.0872635266006203E-01 
    5.9316780862491691E-01 
    5.6571219635253189E-01 
    4.2097280579256424E-01 
    8.3136687576270984E-01 
    8.2505771425589691E-01 
    8.0492563895815650E-01 
    7.7586843399191041E-01 
    7.4535740089075897E-01 
    7.1699244047113309E-01 
    6.9147080751510870E-01 
    6.6897730253461607E-01 
    6.4944556982777912E-01 
    6.3306244329042338E-01 
    6.1998336056350811E-01 
    6.1035604215152828E-01 
    6.0293070834029650E-01 
    5.9259841306557004E-01 
    5.6946817716456377E-01 
    4.3578428141297892E-01 
    7.9194147316213281E-01 
    7.8910211592382851E-01 
    7.7437191678311412E-01 
    7.5028717425685709E-01 
    7.2338361949290608E-01 
    6.9728572337421180E-01 
    6.7347169432566611E-01 
    6.5221895475473912E-01 
    6.3368029944802462E-01 
    6.1809161362447174E-01 
    6.0604860583773079E-01 
    5.9822702730672406E-01 
    5.9436750430903618E-01 
    5.8997650034203419E-01 
    5.7271907737011807E-01 
    4.5017438190425973E-01 
    7.4959532859445221E-01 
    7.5005507589240217E-01 
    7.4045675156204094E-01 
    7.2113189436006586E-01 
    6.9805860094844630E-01 
    6.7467195070913488E-01 
    6.5260187613658083E-01 
    6.3291597441678682E-01 
    6.1578533630360810E-01 
    6.0127497621906856E-01 
    5.8993181507250703E-01 
    5.8322273064249397E-01 
    5.8237047407851028E-01 
    5.8436178457430710E-01 
    5.7466162972584500E-01 
    4.6440963495840126E-01 
    7.0400870421552830E-01 
    7.0757333161863067E-01 
    7.0281598782408961E-01 
    6.8793846180336538E-01 
    6.6870707227855575E-01 
    6.4851819095923846E-01 
    6.2909464676468640E-01 
    6.1110593993771778E-01 
    5.9535509168218226E-01 
    5.8214019130891659E-01 
    5.7190231296090910E-01 
    5.6584327076748653E-01 
    5.6654087128125874E-01 
    5.7450716270693247E-01 
    5.7410501365052835E-01 
    4.7880106351589430E-01 
    6.5377063331977014E-01 
    6.6039872988727299E-01 
    6.6063907733972238E-01 
    6.5032539534516398E-01 
    6.3472680039235607E-01 
    6.1754825809114711E-01 
    6.0075239011071535E-01 
    5.8533805088805346E-01 
    5.7164516313559277E-01 
    5.6006566682921011E-01 
    5.5123408560072695E-01 
    5.4640623235579389E-01 
    5.4773681809754349E-01 
    5.5927518335057835E-01 
    5.7010034372692175E-01 
    4.9222823589524128E-01 
    5.9891302585909023E-01 
    6.0791176926429624E-01 
    6.1255606495925241E-01 
    6.0698683201551951E-01 
    5.9575206173433615E-01 
    5.8207253329342645E-01 
    5.6835414632522441E-01 
    5.5528025285604943E-01 
    5.4353464048920097E-01 
    5.3359245598065075E-01 
    5.2647920540533344E-01 
    5.2328097201161616E-01 
    5.2599136090179943E-01 
    5.3898145580360146E-01 
    5.5980064339353164E-01 
    5.0310951482283117E-01 
    5.4180736614200053E-01 
    5.5293531729891621E-01 
    5.6057778380599010E-01 
    5.5927245980547191E-01 
    5.5182609618001532E-01 
    5.4089533815538116E-01 
    5.2849321908456848E-01 
    5.1651822256869806E-01 
    5.0520970994343239E-01 
    4.9567041160050729E-01 
    4.8656358338511796E-01 
    4.8386236359178547E-01 
    4.9184456701240026E-01 
    5.1132400745254358E-01 
    5.4395196847783989E-01 
    5.0994511470556159E-01 
    3.8127100189558810E-01 
    4.2355497985806939E-01 
    4.5070813813739813E-01 
    4.5912562613205166E-01 
    4.5442118175519330E-01 
    4.4081345725125887E-01 
    4.1828795578617844E-01 
    3.8561265794561578E-01 
    3.2584283805927333E-01 
    2.7284116758156329E-01 
    2.7559929091532420E-01 
    2.8131540611986239E-01 
    3.2594388908147875E-01 
    4.0338608346481653E-01 
    5.0196486553109554E-01 
    5.1173538461211932E-01 
    1.1734694164409986E-02 
    5.9105389053958089E-02 
    8.5435908259141713E-02 
    1.0270738936626250E-01 
    7.3450767854412541E-02 
    5.9499048652814190E-02 
    3.2389622072721676E-02 
    1.2163890958177596E-02 
    5.2728598325935683E-03 
    4.5408315569612151E-04 
    1.5963608520085462E-03 
    6.3054416801449915E-04 
    9.3554083662448061E-03 
    1.6377010790566335E-01 
    3.2842320159731953E-01 
    4.6060378766883403E-01 
