# vtk DataFile Version 2.0
Pressure Field Data 
ASCII 
DATASET UNSTRUCTURED_GRID 

POINTS 289 double 

    0.0000000000000000E+00     0.0000000000000000E+00     0.0000000000000000E+00 
    1.0000000000000000E+00     0.0000000000000000E+00     0.0000000000000000E+00 
    1.0000000000000000E+00     1.0000000000000000E+00     0.0000000000000000E+00 
    0.0000000000000000E+00     1.0000000000000000E+00     0.0000000000000000E+00 
    6.2499999999872928E-02     0.0000000000000000E+00     0.0000000000000000E+00 
    1.2499999999977310E-01     0.0000000000000000E+00     0.0000000000000000E+00 
    1.8749999999959341E-01     0.0000000000000000E+00     0.0000000000000000E+00 
    2.4999999999941089E-01     0.0000000000000000E+00     0.0000000000000000E+00 
    3.1249999999922851E-01     0.0000000000000000E+00     0.0000000000000000E+00 
    3.7499999999904610E-01     0.0000000000000000E+00     0.0000000000000000E+00 
    4.3749999999886358E-01     0.0000000000000000E+00     0.0000000000000000E+00 
    4.9999999999869210E-01     0.0000000000000000E+00     0.0000000000000000E+00 
    5.6249999999884603E-01     0.0000000000000000E+00     0.0000000000000000E+00 
    6.2499999999901090E-01     0.0000000000000000E+00     0.0000000000000000E+00 
    6.8749999999917577E-01     0.0000000000000000E+00     0.0000000000000000E+00 
    7.4999999999934064E-01     0.0000000000000000E+00     0.0000000000000000E+00 
    8.1249999999950551E-01     0.0000000000000000E+00     0.0000000000000000E+00 
    8.7499999999967026E-01     0.0000000000000000E+00     0.0000000000000000E+00 
    9.3749999999983513E-01     0.0000000000000000E+00     0.0000000000000000E+00 
    1.0000000000000000E+00     6.2499999999872928E-02     0.0000000000000000E+00 
    1.0000000000000000E+00     1.2499999999977310E-01     0.0000000000000000E+00 
    1.0000000000000000E+00     1.8749999999959341E-01     0.0000000000000000E+00 
    1.0000000000000000E+00     2.4999999999941089E-01     0.0000000000000000E+00 
    1.0000000000000000E+00     3.1249999999922851E-01     0.0000000000000000E+00 
    1.0000000000000000E+00     3.7499999999904610E-01     0.0000000000000000E+00 
    1.0000000000000000E+00     4.3749999999886358E-01     0.0000000000000000E+00 
    1.0000000000000000E+00     4.9999999999869210E-01     0.0000000000000000E+00 
    1.0000000000000000E+00     5.6249999999884603E-01     0.0000000000000000E+00 
    1.0000000000000000E+00     6.2499999999901090E-01     0.0000000000000000E+00 
    1.0000000000000000E+00     6.8749999999917577E-01     0.0000000000000000E+00 
    1.0000000000000000E+00     7.4999999999934064E-01     0.0000000000000000E+00 
    1.0000000000000000E+00     8.1249999999950551E-01     0.0000000000000000E+00 
    1.0000000000000000E+00     8.7499999999967026E-01     0.0000000000000000E+00 
    1.0000000000000000E+00     9.3749999999983513E-01     0.0000000000000000E+00 
    9.3749999999973976E-01     1.0000000000000000E+00     0.0000000000000000E+00 
    8.7499999999950118E-01     1.0000000000000000E+00     0.0000000000000000E+00 
    8.1249999999991318E-01     1.0000000000000000E+00     0.0000000000000000E+00 
    7.5000000000034706E-01     1.0000000000000000E+00     0.0000000000000000E+00 
    6.8750000000078049E-01     1.0000000000000000E+00     0.0000000000000000E+00 
    6.2500000000121403E-01     1.0000000000000000E+00     0.0000000000000000E+00 
    5.6250000000164757E-01     1.0000000000000000E+00     0.0000000000000000E+00 
    5.0000000000205946E-01     1.0000000000000000E+00     0.0000000000000000E+00 
    4.3750000000182099E-01     1.0000000000000000E+00     0.0000000000000000E+00 
    3.7500000000156092E-01     1.0000000000000000E+00     0.0000000000000000E+00 
    3.1250000000130068E-01     1.0000000000000000E+00     0.0000000000000000E+00 
    2.5000000000104050E-01     1.0000000000000000E+00     0.0000000000000000E+00 
    1.8750000000078040E-01     1.0000000000000000E+00     0.0000000000000000E+00 
    1.2500000000052031E-01     1.0000000000000000E+00     0.0000000000000000E+00 
    6.2500000000260125E-02     1.0000000000000000E+00     0.0000000000000000E+00 
    0.0000000000000000E+00     9.3749999999973976E-01     0.0000000000000000E+00 
    0.0000000000000000E+00     8.7499999999950118E-01     0.0000000000000000E+00 
    0.0000000000000000E+00     8.1249999999991318E-01     0.0000000000000000E+00 
    0.0000000000000000E+00     7.5000000000034706E-01     0.0000000000000000E+00 
    0.0000000000000000E+00     6.8750000000078049E-01     0.0000000000000000E+00 
    0.0000000000000000E+00     6.2500000000121403E-01     0.0000000000000000E+00 
    0.0000000000000000E+00     5.6250000000164757E-01     0.0000000000000000E+00 
    0.0000000000000000E+00     5.0000000000205946E-01     0.0000000000000000E+00 
    0.0000000000000000E+00     4.3750000000182099E-01     0.0000000000000000E+00 
    0.0000000000000000E+00     3.7500000000156092E-01     0.0000000000000000E+00 
    0.0000000000000000E+00     3.1250000000130068E-01     0.0000000000000000E+00 
    0.0000000000000000E+00     2.5000000000104050E-01     0.0000000000000000E+00 
    0.0000000000000000E+00     1.8750000000078040E-01     0.0000000000000000E+00 
    0.0000000000000000E+00     1.2500000000052031E-01     0.0000000000000000E+00 
    0.0000000000000000E+00     6.2500000000260125E-02     0.0000000000000000E+00 
    6.2499999999897131E-02     6.2500000000235922E-02     0.0000000000000000E+00 
    6.2499999999921327E-02     1.2500000000047351E-01     0.0000000000000000E+00 
    6.2499999999945530E-02     1.8750000000070621E-01     0.0000000000000000E+00 
    6.2499999999969733E-02     2.5000000000093858E-01     0.0000000000000000E+00 
    6.2499999999993928E-02     3.1250000000117117E-01     0.0000000000000000E+00 
    6.2500000000018124E-02     3.7500000000140382E-01     0.0000000000000000E+00 
    6.2500000000042327E-02     4.3750000000163619E-01     0.0000000000000000E+00 
    6.2500000000066530E-02     5.0000000000184897E-01     0.0000000000000000E+00 
    6.2500000000090733E-02     5.6250000000147260E-01     0.0000000000000000E+00 
    6.2500000000114922E-02     6.2500000000107636E-01     0.0000000000000000E+00 
    6.2500000000139125E-02     6.8750000000068034E-01     0.0000000000000000E+00 
    6.2500000000163328E-02     7.5000000000028411E-01     0.0000000000000000E+00 
    6.2500000000187531E-02     8.1249999999988787E-01     0.0000000000000000E+00 
    6.2500000000211720E-02     8.7499999999951172E-01     0.0000000000000000E+00 
    6.2500000000235922E-02     9.3749999999974565E-01     0.0000000000000000E+00 
    1.2499999999981980E-01     6.2500000000211733E-02     0.0000000000000000E+00 
    1.2499999999986650E-01     1.2500000000042691E-01     0.0000000000000000E+00 
    1.2499999999991319E-01     1.8750000000063199E-01     0.0000000000000000E+00 
    1.2499999999995989E-01     2.5000000000083678E-01     0.0000000000000000E+00 
    1.2500000000000661E-01     3.1250000000104172E-01     0.0000000000000000E+00 
    1.2500000000005329E-01     3.7500000000124661E-01     0.0000000000000000E+00 
    1.2500000000010000E-01     4.3750000000145117E-01     0.0000000000000000E+00 
    1.2500000000014669E-01     5.0000000000163858E-01     0.0000000000000000E+00 
    1.2500000000019340E-01     5.6250000000129741E-01     0.0000000000000000E+00 
    1.2500000000024011E-01     6.2500000000093847E-01     0.0000000000000000E+00 
    1.2500000000028680E-01     6.8750000000057998E-01     0.0000000000000000E+00 
    1.2500000000033351E-01     7.5000000000022127E-01     0.0000000000000000E+00 
    1.2500000000038020E-01     8.1249999999986211E-01     0.0000000000000000E+00 
    1.2500000000042691E-01     8.7499999999952238E-01     0.0000000000000000E+00 
    1.2500000000047359E-01     9.3749999999975164E-01     0.0000000000000000E+00 
    1.8749999999966760E-01     6.2500000000187531E-02     0.0000000000000000E+00 
    1.8749999999974179E-01     1.2500000000038020E-01     0.0000000000000000E+00 
    1.8749999999981601E-01     1.8750000000055780E-01     0.0000000000000000E+00 
    1.8749999999989009E-01     2.5000000000073502E-01     0.0000000000000000E+00 
    1.8749999999996431E-01     3.1250000000091221E-01     0.0000000000000000E+00 
    1.8750000000003850E-01     3.7500000000108941E-01     0.0000000000000000E+00 
    1.8750000000011269E-01     4.3750000000126649E-01     0.0000000000000000E+00 
    1.8750000000018691E-01     5.0000000000142808E-01     0.0000000000000000E+00 
    1.8750000000026110E-01     5.6250000000112244E-01     0.0000000000000000E+00 
    1.8750000000033529E-01     6.2500000000080080E-01     0.0000000000000000E+00 
    1.8750000000040951E-01     6.8750000000047962E-01     0.0000000000000000E+00 
    1.8750000000048361E-01     7.5000000000015843E-01     0.0000000000000000E+00 
    1.8750000000055780E-01     8.1249999999983680E-01     0.0000000000000000E+00 
    1.8750000000063199E-01     8.7499999999953304E-01     0.0000000000000000E+00 
    1.8750000000070621E-01     9.3749999999975764E-01     0.0000000000000000E+00 
    2.4999999999951281E-01     6.2500000000163314E-02     0.0000000000000000E+00 
    2.4999999999961461E-01     1.2500000000033351E-01     0.0000000000000000E+00 
    2.4999999999971650E-01     1.8750000000048361E-01     0.0000000000000000E+00 
    2.4999999999981831E-01     2.5000000000063310E-01     0.0000000000000000E+00 
    2.4999999999992020E-01     3.1250000000078260E-01     0.0000000000000000E+00 
    2.5000000000002198E-01     3.7500000000093209E-01     0.0000000000000000E+00 
    2.5000000000012390E-01     4.3750000000108180E-01     0.0000000000000000E+00 
    2.5000000000022571E-01     5.0000000000121769E-01     0.0000000000000000E+00 
    2.5000000000032763E-01     5.6250000000094724E-01     0.0000000000000000E+00 
    2.5000000000042938E-01     6.2500000000066314E-01     0.0000000000000000E+00 
    2.5000000000053119E-01     6.8750000000037925E-01     0.0000000000000000E+00 
[...]
CELL_DATA 256 
SCALARS Pressure double 1 
LOOKUP_TABLE default 

    8.2896123015312728E-01 
    7.7765180354904295E-01 
    7.4358861759274353E-01 
    7.1177269982954294E-01 
    6.7876011215659526E-01 
    6.4367757243937318E-01 
    6.0643303644734137E-01 
    5.6749921477301024E-01 
    5.2755221967988508E-01 
    4.8734760730097798E-01 
    4.4767590433214460E-01 
    4.0970288980019054E-01 
    3.7557798424062644E-01 
    3.4793980176528411E-01 
    3.2671974273753634E-01 
    3.1649695868325850E-01 
    8.1501377208952241E-01 
    7.7908556134989670E-01 
    7.4619452099641481E-01 
    7.1467375757691776E-01 
    6.8193071342574674E-01 
    6.4710893246768209E-01 
    6.1007826376091712E-01 
    5.7127789830123188E-01 
    5.3136247238678125E-01 
    4.9107224167084784E-01 
    4.5116295953848912E-01 
    4.1271572770092124E-01 
    3.7781056407197877E-01 
    3.4921633911286332E-01 
    3.2709815825767408E-01 
    3.1612917217626513E-01 
    8.0430026725156478E-01 
    7.7833706654716495E-01 
    7.4799890705407024E-01 
    7.1718436624900972E-01 
    6.8483963050939267E-01 
    6.5033817552475492E-01 
    6.1356023807379023E-01 
    5.7491324770789298E-01 
    5.3501873451697102E-01 
    4.9458064881086750E-01 
    4.5431106447521369E-01 
    4.1520005384657843E-01 
    3.7925471365830965E-01 
    3.4939965535795053E-01 
    3.2627760629892155E-01 
    3.1473690585805586E-01 
    7.9582066430462151E-01 
    7.7645256140855368E-01 
    7.4903873516510411E-01 
    7.1928947930210352E-01 
    6.8749205673511526E-01 
    6.5337538852072086E-01 
    6.1688552703646105E-01 
    5.7841229541926376E-01 
    5.3853787109138507E-01 
    4.9791212931606754E-01 
    4.5718600770517359E-01 
    4.1724175667717101E-01 
    3.7999588615096563E-01 
    3.4854099624064855E-01 
    3.2421360694379631E-01 
    3.1212875451167515E-01 
    7.8891900367013779E-01 
    7.7401152185740230E-01 
    7.4944355174051591E-01 
    7.2099997400860549E-01 
    6.8989499012320943E-01 
    6.5623483706133323E-01 
    6.2007005650166336E-01 
    5.8179151864188983E-01 
    5.4194338665603392E-01 
    5.0110956005624918E-01 
    4.5985828465132728E-01 
    4.1893786218790324E-01 
    3.8013674491097632E-01 
    3.4670211963905884E-01 
    3.2083198345980324E-01 
    3.0806528293821089E-01 
    7.8322500983927346E-01 
    7.7136949296826218E-01 
    7.4936940441881361E-01 
    7.2235408110186028E-01 
    6.9206253151536790E-01 
    6.5893178441730427E-01 
    6.2313508934667816E-01 
    5.8507537485731398E-01 
    5.4526461648886015E-01 
    5.0421820014067187E-01 
    4.6239983696548170E-01 
    4.2039369570320223E-01 
    3.7979730766220687E-01 
    3.4395439645388809E-01 
    3.1602326631527355E-01 
    3.0222177995733490E-01 
    7.7849969472785230E-01 
    7.6875427356210380E-01 
    7.4897756713719821E-01 
    7.2341626997025599E-01 
    6.9402112281346484E-01 
    6.6148435983037923E-01 
    6.2609961841629291E-01 
    5.8828934535684096E-01 
    5.4853587683647653E-01 
    5.0728558727844830E-01 
    4.6488624204018913E-01 
    4.2172200838921325E-01 
    3.7911720541635946E-01 
    3.4039206880905382E-01 
    3.0967205095392547E-01 
    2.9420203249382909E-01 
    7.7457438608023477E-01 
    7.6630655374483503E-01 
    7.4841251364630823E-01 
    7.2426160934462891E-01 
    6.9580805005708990E-01 
    6.6391488135967902E-01 
    6.2898311080956104E-01 
    5.9145539507056610E-01 
    5.5178766331602191E-01 
    5.1036015164492776E-01 
    4.6739553804569350E-01 
    4.2304650886144390E-01 
    3.7826402973337342E-01 
    3.3615758361132608E-01 
    3.0170272521527142E-01 
    2.8356928840847101E-01 
    7.7132683399811275E-01 
    7.6410870537793196E-01 
    7.4779221796381812E-01 
    7.2496644328361426E-01 
    6.9746548073640913E-01 
    6.6624942534187293E-01 
    6.3180346606671123E-01 
    5.9459072049349093E-01 
    5.5504584032903026E-01 
    5.1348600823610346E-01 
    4.7000610248956803E-01 
    4.2449946105024799E-01 
    3.7743739913649310E-01 
    3.3145932234750358E-01 
    2.9212198798717304E-01 
    2.6991540052746582E-01 
    7.6866783129271121E-01 
    7.6220851739719697E-01 
    7.4720963723070266E-01 
    7.2560355878504024E-01 
    6.9904087451509300E-01 
    6.6851836354071903E-01 
    6.3458142168747389E-01 
    5.9771151506187725E-01 
    5.5833131593528662E-01 
    5.1670119827682470E-01 
    4.7279058781666267E-01 
    4.2621706041918500E-01 
    3.7686843156035676E-01 
    3.2658646975782180E-01 
    2.8101430502261904E-01 
    2.5276830964069152E-01 
    7.6653417931217160E-01 
    7.6063725175100672E-01 
    7.4674185920149849E-01 
    7.2624352844614926E-01 
    7.0058595600608720E-01 
    6.7075923063999299E-01 
    6.3734337843489686E-01 
    6.0083805772510890E-01 
    5.6166547433288749E-01 
    5.2003697555784179E-01 
    4.7581067056025944E-01 
    4.2833122923519268E-01 
    3.7681773497414139E-01 
    3.2194174471552972E-01 
    2.6861004072077538E-01 
    2.3149139386490578E-01 
    7.6488760646033949E-01 
    7.5942534847386567E-01 
    7.4646180669482920E-01 
    7.2695899805889130E-01 
    7.0215862013320329E-01 
    6.7301799603876800E-01 
    6.4012691052998272E-01 
    6.0399583474930107E-01 
    5.6506351143778155E-01 
    5.2350523561084916E-01 
    4.7909584100390140E-01 
    4.3094528475709598E-01 
    3.7755331123606861E-01 
    3.1804542833094041E-01 
    2.5535224010803820E-01 
    2.0520350329400203E-01 
    7.6369985705354926E-01 
    7.5860312657528561E-01 
    7.4643832285291467E-01 
    7.2781990692284004E-01 
    7.0381152952906356E-01 
    6.7533651846045606E-01 
    6.4296569772124945E-01 
    6.0719711759721817E-01 
    5.6848921340893044E-01 
    5.2701191135539327E-01 
    4.8252020962639003E-01 
    4.3397267117969401E-01 
    3.7916250024112153E-01 
    3.1536067232443793E-01 
    2.4187309903229412E-01 
    1.7254027239121023E-01 
    7.6280915949629025E-01 
    7.5808941152125309E-01 
    7.4665923411073643E-01 
    7.2882991580478496E-01 
    7.0551497337120128E-01 
    6.7763215333265714E-01 
    6.4575823978697589E-01 
    6.1034218308669852E-01 
    5.7183940148881129E-01 
    5.3045189429382267E-01 
    4.8598557163065204E-01 
    4.3730064085307457E-01 
    3.8162354344883936E-01 
    3.1424265739696289E-01 
    2.2894964845079183E-01 
    1.3094782659339518E-01 
    7.6219392491724802E-01 
    7.5780247538059387E-01 
    7.4703780228459915E-01 
    7.2992987436450907E-01 
    7.0724281386992827E-01 
    6.7988672648615878E-01 
    6.4849156737811031E-01 
    6.1347187859859043E-01 
    5.7525554259851164E-01 
    5.3407628194510814E-01 
    4.8977513476765921E-01 
    4.4119645627308129E-01 
    3.8540003845715815E-01 
    3.1612994028640790E-01 
    2.1928929917767587E-01 
    7.5893709634710135E-02 
    7.6201221083389947E-01 
    7.5797732580163424E-01 
    7.4781627302676235E-01 
    7.3135714834789778E-01 
    7.0925256169854678E-01 
    6.8238897166027601E-01 
    6.5143763790295606E-01 
    6.1681764247372606E-01 
    5.7893651070693375E-01 
    5.3804867183000649E-01 
    4.9401715634185472E-01 
    4.4575393331730639E-01 
    3.9046107932154150E-01 
    3.2181004224838333E-01 
    2.2000901634999612E-01 
    0.0000000000000000E+00 

SCALARS Saturarion double 1 
LOOKUP_TABLE default 

    1.0000000000000011E+00 
    9.6885119730091784E-01 
    9.1417514670606215E-01 
    8.4636470206781123E-01 
    7.8875758266745555E-01 
    7.4004316250983304E-01 
    6.9965570218403683E-01 
    6.6572432513942981E-01 
    6.3607707054094331E-01 
    6.0891762432243934E-01 
    5.8278654019411336E-01 
    5.5658118989647287E-01 
    5.2901561291495525E-01 
    4.8250977091820385E-01 
    2.4542958377962171E-01 
    6.5749074203479675E-05 
    9.8746363543923110E-01 
    9.5793701366455652E-01 
    9.0069907762582113E-01 
    8.3731285997371407E-01 
    7.8333232792138430E-01 
    7.3673088081259852E-01 
    6.9703721990635836E-01 
    6.6317621015347572E-01 
    6.3370015578042072E-01 
    6.0702703533778390E-01 
    5.8176614460306131E-01 
    5.5661356864941114E-01 
    5.3007173661342544E-01 
    4.8560631471167265E-01 
    2.7386830981010396E-01 
    5.7835489421299824E-04 
    9.6776688159570978E-01 
    9.3887720146526110E-01 
    8.8203420828008250E-01 
    8.2200343116580088E-01 
    7.7248070163863913E-01 
    7.2953337930079087E-01 
    6.9154359903580220E-01 
    6.5797568332608614E-01 
    6.2858772344671587E-01 
    6.0254007868121751E-01 
    5.7865246081155464E-01 
    5.5523579270551293E-01 
    5.3044148840729632E-01 
    4.9014336724816404E-01 
    3.0983233915669101E-01 
    3.2733000535174550E-03 
    9.3321071083598162E-01 
    9.0972177715303215E-01 
    8.5952938369680210E-01 
    8.0396883311920164E-01 
    7.5666653771565096E-01 
    7.1729740807958287E-01 
    6.8247870924721210E-01 
    6.5115024470527372E-01 
    6.2306918562638991E-01 
    5.9808033858915477E-01 
    5.7525919373346157E-01 
    5.5329865013584278E-01 
    5.3043309870963462E-01 
    4.9485101610097992E-01 
    3.4534804207989844E-01 
    1.2934377186608476E-02 
    8.9358272585355936E-01 
    8.7373808794445074E-01 
    8.3012996855205112E-01 
    7.8078330095212811E-01 
    7.3700432654450432E-01 
    7.0038333279814691E-01 
    6.6897022970450837E-01 
    6.4102235734736479E-01 
    6.1577306153172595E-01 
    5.9284129700987787E-01 
    5.7171171372886265E-01 
    5.5137536449582092E-01 
    5.3030692657805145E-01 
    4.9893143465869216E-01 
    3.7253875847845597E-01 
    3.1040233430060234E-02 
    8.5200242768823298E-01 
    8.3587626921483082E-01 
    7.9903469515928494E-01 
    7.5588406949366338E-01 
    7.1611565498261676E-01 
    6.8179878993820298E-01 
    6.5240300213665781E-01 
    6.2723634712538578E-01 
    6.0503808318302732E-01 
    5.8482134178278466E-01 
    5.6606759026506048E-01 
    5.4821111018615754E-01 
    5.2977843781137957E-01 
    5.0250014443731039E-01 
    3.9483368540207248E-01 
    5.8792099199855820E-02 
    8.0867534750190861E-01 
    7.9701851115431444E-01 
    7.6732972740338989E-01 
    7.2999472192786397E-01 
    6.9420161902524868E-01 
    6.6255240729769838E-01 
    6.3535884571019863E-01 
    6.1189841932388711E-01 
    5.9170928146843249E-01 
    5.7398047950630005E-01 
    5.5800476715604708E-01 
    5.4302647755703026E-01 
    5.2785977029324715E-01 
    5.0513462641971374E-01 
    4.1224539713927832E-01 
    9.6725776247271869E-02 
    7.6369427611715068E-01 
    7.5676231698754504E-01 
    7.3457994650317271E-01 
    7.0317271937387649E-01 
    6.7102249669046232E-01 
    6.4201632223805360E-01 
    6.1670205752840102E-01 
    5.9495163649118366E-01 
    5.7639257157702972E-01 
    5.6082119644384210E-01 
    5.4757490126425112E-01 
    5.3580521356721633E-01 
    5.2420833132395550E-01 
    5.0712081324437341E-01 
    4.2897109938656114E-01 
    1.4201156589550185E-01 
    7.1721050531104280E-01 
    7.1451372018994097E-01 
    6.9911258945041665E-01 
    6.7390737273295176E-01 
    6.4622466945481327E-01 
    6.2006312849923151E-01 
    5.9662691988133687E-01 
    5.7592264788758907E-01 
    5.5838067251223233E-01 
    5.4440379890462320E-01 
    5.3387536356222010E-01 
    5.2577473029689747E-01 
    5.1841590356493650E-01 
    5.0695330201274680E-01 
    4.4331731910404598E-01 
    1.8183411451008816E-01 
    6.6921077068294343E-01 
    6.7021893708011759E-01 
    6.6083103020548895E-01 
    6.4144008950285403E-01 
    6.1864773936759920E-01 
    5.9603070391907809E-01 
    5.7469389672973814E-01 
    5.5545134691287967E-01 
    5.3919671907607736E-01 
    5.2664226271205128E-01 
    5.1761314748652409E-01 
    5.1227015212058691E-01 
    5.0962321638964081E-01 
    5.0478724758622628E-01 
    4.5563462292310708E-01 
    2.1802193601105693E-01 
    6.1993977253941634E-01 
    6.2405847982853835E-01 
    6.2006398047763500E-01 
    6.0617947602675348E-01 
    5.8830950790068692E-01 
    5.6974175600182597E-01 
    5.5177636295355892E-01 
    5.3487478097284435E-01 
    5.2013902717682170E-01 
    5.0829235704281883E-01 
    4.9949698751598859E-01 
    4.9515977500112551E-01 
    4.9662364610627774E-01 
    4.9942095243809681E-01 
    4.6629312420896019E-01 
    2.5279021885900305E-01 
    5.7148996422404164E-01 
    5.7769793333349240E-01 
    5.7852483012995137E-01 
    5.6984662488948756E-01 
    5.5593644919628182E-01 
    5.4065712090490092E-01 
    5.2640081281112694E-01 
    5.1294936199178798E-01 
    4.9901564962785033E-01 
    4.8595452801582678E-01 
    4.7507684949166035E-01 
    4.7066323171717805E-01 
    4.7654215827456109E-01 
    4.8836100307161129E-01 
    4.7298192554785778E-01 
    2.8586459541835385E-01 
    5.2085078358296477E-01 
    5.3049345359200129E-01 
    5.3474271496693337E-01 
    5.3033691629885793E-01 
    5.1884218111105640E-01 
    5.0474723129031540E-01 
    4.9130984816662404E-01 
    4.7760637011082113E-01 
    4.5874232909227536E-01 
    4.2359147567773403E-01 
    3.8525794396814655E-01 
    3.6869199306491462E-01 
    3.9685047168496657E-01 
    4.4996029910382140E-01 
    4.6687865488197816E-01 
    3.1643979410459910E-01 
    3.7139683364437931E-01 
    4.1946722327621017E-01 
    4.4501846689404534E-01 
    4.4864742475943886E-01 
    4.3372152498707078E-01 
    3.9445551623458208E-01 
    3.2374846992898543E-01 
    2.5894340397608839E-01 
    1.9243717442666003E-01 
    9.1528878090596080E-02 
    3.8890322074017450E-02 
    3.8365776771966308E-02 
    1.2137694094170969E-01 
    3.1235716121827589E-01 
    4.2877171882877607E-01 
    3.3581981005750272E-01 
    1.6370626044683496E-02 
    8.0270931347150590E-02 
    1.0930632342653766E-01 
    1.1739257361263754E-01 
    8.6279701221675040E-02 
    3.3987259115384270E-02 
    5.9547164485205389E-03 
    5.1047582811790902E-04 
    1.3093403563652363E-04 
    2.3673193498524693E-05 
    5.1608322168131353E-06 
    3.3778604301815714E-06 
    9.7043021315845366E-04 
    7.4167961630972293E-02 
    3.3450711449316950E-01 
    3.4274772058106334E-01 
    1.0001990658853818E-06 
    4.8911815570333741E-05 
    4.0098318036533847E-06 
    3.4172723018954062E-06 
    1.8153175122454167E-05 
    7.9506626717404878E-06 
    1.1591798744475655E-06 
    1.0025484177365787E-06 
    1.0002026781878564E-06 
    1.0000371420100666E-06 
    1.0000007523663205E-06 
    1.0000008784010703E-06 
    1.1617629332143147E-06 
    1.3992444719532664E-03 
    1.9442372845296321E-01 
    3.0825436301309550E-01 
