# vtk DataFile Version 2.0
Pressure Field Data 
ASCII 
DATASET UNSTRUCTURED_GRID 

POINTS 289 double 

    0.0000000000000000E+00     0.0000000000000000E+00     0.0000000000000000E+00 
    1.0000000000000000E+00     0.0000000000000000E+00     0.0000000000000000E+00 
    1.0000000000000000E+00     1.0000000000000000E+00     0.0000000000000000E+00 
    0.0000000000000000E+00     1.0000000000000000E+00     0.0000000000000000E+00 
    6.2499999999872928E-02     0.0000000000000000E+00     0.0000000000000000E+00 
    1.2499999999977310E-01     0.0000000000000000E+00     0.0000000000000000E+00 
    1.8749999999959341E-01     0.0000000000000000E+00     0.0000000000000000E+00 
    2.4999999999941089E-01     0.0000000000000000E+00     0.0000000000000000E+00 
    3.1249999999922851E-01     0.0000000000000000E+00     0.0000000000000000E+00 
    3.7499999999904610E-01     0.0000000000000000E+00     0.0000000000000000E+00 
    4.3749999999886358E-01     0.0000000000000000E+00     0.0000000000000000E+00 
    4.9999999999869210E-01     0.0000000000000000E+00     0.0000000000000000E+00 
    5.6249999999884603E-01     0.0000000000000000E+00     0.0000000000000000E+00 
    6.2499999999901090E-01     0.0000000000000000E+00     0.0000000000000000E+00 
    6.8749999999917577E-01     0.0000000000000000E+00     0.0000000000000000E+00 
    7.4999999999934064E-01     0.0000000000000000E+00     0.0000000000000000E+00 
    8.1249999999950551E-01     0.0000000000000000E+00     0.0000000000000000E+00 
    8.7499999999967026E-01     0.0000000000000000E+00     0.0000000000000000E+00 
    9.3749999999983513E-01     0.0000000000000000E+00     0.0000000000000000E+00 
    1.0000000000000000E+00     6.2499999999872928E-02     0.0000000000000000E+00 
    1.0000000000000000E+00     1.2499999999977310E-01     0.0000000000000000E+00 
    1.0000000000000000E+00     1.8749999999959341E-01     0.0000000000000000E+00 
    1.0000000000000000E+00     2.4999999999941089E-01     0.0000000000000000E+00 
    1.0000000000000000E+00     3.1249999999922851E-01     0.0000000000000000E+00 
    1.0000000000000000E+00     3.7499999999904610E-01     0.0000000000000000E+00 
    1.0000000000000000E+00     4.3749999999886358E-01     0.0000000000000000E+00 
    1.0000000000000000E+00     4.9999999999869210E-01     0.0000000000000000E+00 
    1.0000000000000000E+00     5.6249999999884603E-01     0.0000000000000000E+00 
    1.0000000000000000E+00     6.2499999999901090E-01     0.0000000000000000E+00 
    1.0000000000000000E+00     6.8749999999917577E-01     0.0000000000000000E+00 
    1.0000000000000000E+00     7.4999999999934064E-01     0.0000000000000000E+00 
    1.0000000000000000E+00     8.1249999999950551E-01     0.0000000000000000E+00 
    1.0000000000000000E+00     8.7499999999967026E-01     0.0000000000000000E+00 
    1.0000000000000000E+00     9.3749999999983513E-01     0.0000000000000000E+00 
    9.3749999999973976E-01     1.0000000000000000E+00     0.0000000000000000E+00 
    8.7499999999950118E-01     1.0000000000000000E+00     0.0000000000000000E+00 
    8.1249999999991318E-01     1.0000000000000000E+00     0.0000000000000000E+00 
    7.5000000000034706E-01     1.0000000000000000E+00     0.0000000000000000E+00 
    6.8750000000078049E-01     1.0000000000000000E+00     0.0000000000000000E+00 
    6.2500000000121403E-01     1.0000000000000000E+00     0.0000000000000000E+00 
    5.6250000000164757E-01     1.0000000000000000E+00     0.0000000000000000E+00 
    5.0000000000205946E-01     1.0000000000000000E+00     0.0000000000000000E+00 
    4.3750000000182099E-01     1.0000000000000000E+00     0.0000000000000000E+00 
    3.7500000000156092E-01     1.0000000000000000E+00     0.0000000000000000E+00 
    3.1250000000130068E-01     1.0000000000000000E+00     0.0000000000000000E+00 
    2.5000000000104050E-01     1.0000000000000000E+00     0.0000000000000000E+00 
    1.8750000000078040E-01     1.0000000000000000E+00     0.0000000000000000E+00 
    1.2500000000052031E-01     1.0000000000000000E+00     0.0000000000000000E+00 
    6.2500000000260125E-02     1.0000000000000000E+00     0.0000000000000000E+00 
    0.0000000000000000E+00     9.3749999999973976E-01     0.0000000000000000E+00 
    0.0000000000000000E+00     8.7499999999950118E-01     0.0000000000000000E+00 
    0.0000000000000000E+00     8.1249999999991318E-01     0.0000000000000000E+00 
    0.0000000000000000E+00     7.5000000000034706E-01     0.0000000000000000E+00 
    0.0000000000000000E+00     6.8750000000078049E-01     0.0000000000000000E+00 
    0.0000000000000000E+00     6.2500000000121403E-01     0.0000000000000000E+00 
    0.0000000000000000E+00     5.6250000000164757E-01     0.0000000000000000E+00 
    0.0000000000000000E+00     5.0000000000205946E-01     0.0000000000000000E+00 
    0.0000000000000000E+00     4.3750000000182099E-01     0.0000000000000000E+00 
    0.0000000000000000E+00     3.7500000000156092E-01     0.0000000000000000E+00 
    0.0000000000000000E+00     3.1250000000130068E-01     0.0000000000000000E+00 
    0.0000000000000000E+00     2.5000000000104050E-01     0.0000000000000000E+00 
    0.0000000000000000E+00     1.8750000000078040E-01     0.0000000000000000E+00 
    0.0000000000000000E+00     1.2500000000052031E-01     0.0000000000000000E+00 
    0.0000000000000000E+00     6.2500000000260125E-02     0.0000000000000000E+00 
    6.2499999999897131E-02     6.2500000000235922E-02     0.0000000000000000E+00 
    6.2499999999921327E-02     1.2500000000047351E-01     0.0000000000000000E+00 
    6.2499999999945530E-02     1.8750000000070621E-01     0.0000000000000000E+00 
    6.2499999999969733E-02     2.5000000000093858E-01     0.0000000000000000E+00 
    6.2499999999993928E-02     3.1250000000117117E-01     0.0000000000000000E+00 
    6.2500000000018124E-02     3.7500000000140382E-01     0.0000000000000000E+00 
    6.2500000000042327E-02     4.3750000000163619E-01     0.0000000000000000E+00 
    6.2500000000066530E-02     5.0000000000184897E-01     0.0000000000000000E+00 
    6.2500000000090733E-02     5.6250000000147260E-01     0.0000000000000000E+00 
    6.2500000000114922E-02     6.2500000000107636E-01     0.0000000000000000E+00 
    6.2500000000139125E-02     6.8750000000068034E-01     0.0000000000000000E+00 
    6.2500000000163328E-02     7.5000000000028411E-01     0.0000000000000000E+00 
    6.2500000000187531E-02     8.1249999999988787E-01     0.0000000000000000E+00 
    6.2500000000211720E-02     8.7499999999951172E-01     0.0000000000000000E+00 
    6.2500000000235922E-02     9.3749999999974565E-01     0.0000000000000000E+00 
    1.2499999999981980E-01     6.2500000000211733E-02     0.0000000000000000E+00 
    1.2499999999986650E-01     1.2500000000042691E-01     0.0000000000000000E+00 
    1.2499999999991319E-01     1.8750000000063199E-01     0.0000000000000000E+00 
    1.2499999999995989E-01     2.5000000000083678E-01     0.0000000000000000E+00 
    1.2500000000000661E-01     3.1250000000104172E-01     0.0000000000000000E+00 
    1.2500000000005329E-01     3.7500000000124661E-01     0.0000000000000000E+00 
    1.2500000000010000E-01     4.3750000000145117E-01     0.0000000000000000E+00 
    1.2500000000014669E-01     5.0000000000163858E-01     0.0000000000000000E+00 
    1.2500000000019340E-01     5.6250000000129741E-01     0.0000000000000000E+00 
    1.2500000000024011E-01     6.2500000000093847E-01     0.0000000000000000E+00 
    1.2500000000028680E-01     6.8750000000057998E-01     0.0000000000000000E+00 
    1.2500000000033351E-01     7.5000000000022127E-01     0.0000000000000000E+00 
    1.2500000000038020E-01     8.1249999999986211E-01     0.0000000000000000E+00 
    1.2500000000042691E-01     8.7499999999952238E-01     0.0000000000000000E+00 
    1.2500000000047359E-01     9.3749999999975164E-01     0.0000000000000000E+00 
    1.8749999999966760E-01     6.2500000000187531E-02     0.0000000000000000E+00 
    1.8749999999974179E-01     1.2500000000038020E-01     0.0000000000000000E+00 
    1.8749999999981601E-01     1.8750000000055780E-01     0.0000000000000000E+00 
    1.8749999999989009E-01     2.5000000000073502E-01     0.0000000000000000E+00 
    1.8749999999996431E-01     3.1250000000091221E-01     0.0000000000000000E+00 
    1.8750000000003850E-01     3.7500000000108941E-01     0.0000000000000000E+00 
    1.8750000000011269E-01     4.3750000000126649E-01     0.0000000000000000E+00 
    1.8750000000018691E-01     5.0000000000142808E-01     0.0000000000000000E+00 
    1.8750000000026110E-01     5.6250000000112244E-01     0.0000000000000000E+00 
    1.8750000000033529E-01     6.2500000000080080E-01     0.0000000000000000E+00 
    1.8750000000040951E-01     6.8750000000047962E-01     0.0000000000000000E+00 
    1.8750000000048361E-01     7.5000000000015843E-01     0.0000000000000000E+00 
    1.8750000000055780E-01     8.1249999999983680E-01     0.0000000000000000E+00 
    1.8750000000063199E-01     8.7499999999953304E-01     0.0000000000000000E+00 
    1.8750000000070621E-01     9.3749999999975764E-01     0.0000000000000000E+00 
    2.4999999999951281E-01     6.2500000000163314E-02     0.0000000000000000E+00 
    2.4999999999961461E-01     1.2500000000033351E-01     0.0000000000000000E+00 
    2.4999999999971650E-01     1.8750000000048361E-01     0.0000000000000000E+00 
    2.4999999999981831E-01     2.5000000000063310E-01     0.0000000000000000E+00 
    2.4999999999992020E-01     3.1250000000078260E-01     0.0000000000000000E+00 
    2.5000000000002198E-01     3.7500000000093209E-01     0.0000000000000000E+00 
    2.5000000000012390E-01     4.3750000000108180E-01     0.0000000000000000E+00 
    2.5000000000022571E-01     5.0000000000121769E-01     0.0000000000000000E+00 
    2.5000000000032763E-01     5.6250000000094724E-01     0.0000000000000000E+00 
    2.5000000000042938E-01     6.2500000000066314E-01     0.0000000000000000E+00 
    2.5000000000053119E-01     6.8750000000037925E-01     0.0000000000000000E+00 
[...]
CELL_DATA 256 
SCALARS Pressure double 1 
LOOKUP_TABLE default 

    9.4676588517919347E-01 
    8.9342461902912884E-01 
    8.5628199527788473E-01 
    8.2042837323484930E-01 
    7.8249475526708057E-01 
    7.4176811036540746E-01 
    6.9836898317816853E-01 
    6.5292312999694024E-01 
    6.0616301764890079E-01 
    5.5879241491216614E-01 
    5.1118020962211930E-01 
    4.6195183954975899E-01 
    4.0756832090144673E-01 
    3.6116144378051168E-01 
    3.3414338144451400E-01 
    3.2316272014309505E-01 
    9.3284898234621882E-01 
    8.9505809130846958E-01 
    8.5916806622813990E-01 
    8.2368011804331331E-01 
    7.8610590223817078E-01 
    7.4572078037048184E-01 
    7.0258585503561033E-01 
    6.5730336676332257E-01 
    6.1060430047887337E-01 
    5.6320099663949363E-01 
    5.1551162179152465E-01 
    4.6626403435193597E-01 
    4.1139747720971215E-01 
    3.6339054629026524E-01 
    3.3468727639426599E-01 
    3.2272404550088235E-01 
    9.2209908629590520E-01 
    8.9442359380150471E-01 
    8.6117072022882191E-01 
    8.2645119478107243E-01 
    7.8936405733836001E-01 
    7.4939236467084369E-01 
    7.0657304322759751E-01 
    6.6147868155640077E-01 
    6.1482616545700031E-01 
    5.6731144829872338E-01 
    5.1936597966321107E-01 
    4.6979251826458213E-01 
    4.1408903100129457E-01 
    3.6429073035437193E-01 
    3.3386654689608075E-01 
    3.2110104862570499E-01 
    9.1344515531469517E-01 
    8.9254235248132707E-01 
    8.6231928853253292E-01 
    8.2873940299483617E-01 
    7.9228310027100934E-01 
    7.5278996353994165E-01 
    7.1033450254398689E-01 
    6.6546151888267735E-01 
    6.1885512536313370E-01 
    5.7117081449960416E-01 
    5.2281463672886896E-01 
    4.7262684336916733E-01 
    4.1575632725284190E-01 
    3.6391503562060828E-01 
    3.3158739747805199E-01 
    3.1806614062625288E-01 
    9.0623282218076207E-01 
    8.8997677951587395E-01 
    8.6273595928430225E-01 
    8.3056364500836954E-01 
    7.9488766280286083E-01 
    7.5594038852513057E-01 
    7.1389204090297764E-01 
    6.6927352451985134E-01 
    6.2272226108063200E-01 
    5.7483231929336320E-01 
    5.2594226535730704E-01 
    4.7485714858054456E-01 
    4.1650350283747167E-01 
    3.6233371537390274E-01 
    3.2776084872229810E-01 
    3.1338581081051958E-01 
    9.0015156052345191E-01 
    8.8711316024737841E-01 
    8.6259222711852679E-01 
    8.3197521334729596E-01 
    7.9721301488188656E-01 
    7.5888161509426300E-01 
    7.1727994895420366E-01 
    6.7294260110807869E-01 
    6.2645822402183660E-01 
    5.7834555409934008E-01 
    5.2883235756423497E-01 
    4.7656581631116973E-01 
    4.1643134339754134E-01 
    3.5964593551568153E-01 
    3.2230506828621414E-01 
    3.0679842991385470E-01 
    8.9500192974246673E-01 
    8.8421378738777656E-01 
    8.6207245066932403E-01 
    8.3305191802535150E-01 
    7.9930083341820024E-01 
    7.6165283502356318E-01 
    7.2053406912591200E-01 
    6.7650164023256742E-01 
    6.3009963419280024E-01 
    5.8176041955757940E-01 
    5.3156918622403171E-01 
    4.7783111411167556E-01 
    4.1565566621582051E-01 
    3.5599519002056362E-01 
    3.1515546763599417E-01 
    2.9800915537263700E-01 
    8.9064342475473812E-01 
    8.8144763975963925E-01 
    8.6134076722915331E-01 
    8.3388091354845384E-01 
    8.0119996292310103E-01 
    7.6429181819184144E-01 
    7.2369158234517972E-01 
    6.7998870124458388E-01 
    6.3368700067101125E-01 
    5.8513073000388338E-01 
    5.3423450337891187E-01 
    4.7873614586692181E-01 
    4.1433972483503806E-01 
    3.5159354398680287E-01 
    3.0627363981805217E-01 
    2.8665846365962355E-01 
    8.8697372269836761E-01 
    8.7892004409924862E-01 
    8.6053514903606809E-01 
    8.3455425067173594E-01 
    8.0296432614626589E-01 
    7.6683627716020608E-01 
    7.2678736368463992E-01 
    6.8344421946942291E-01 
    6.3726471076549340E-01 
    5.8850404286703062E-01 
    5.3686011535063971E-01 
    4.7937023013325197E-01 
    4.1276154256396064E-01 
    3.4675941916002179E-01 
    2.9567426917050654E-01 
    2.7230121782829581E-01 
    8.8392749967700612E-01 
    8.7670605830044601E-01 
    8.5977383289204923E-01 
    8.3516503421827315E-01 
    8.0465654931829300E-01 
    7.6933005308441693E-01 
    7.2985685966945169E-01 
    6.8690406791165115E-01 
    6.4086361379729873E-01 
    5.9188280337297672E-01 
    5.3928505008448258E-01 
    4.7976721320726812E-01 
    4.1134375684470342E-01 
    3.4188252941607972E-01 
    2.8345734342324713E-01 
    2.5435665664525153E-01 
    8.8147795543224916E-01 
    8.7487702889054253E-01 
    8.5916666756348581E-01 
    8.3580761117794611E-01 
    8.0634825058123560E-01 
    7.7182396380397811E-01 
    7.3292261858941721E-01 
    6.9037029862443000E-01 
    6.4443572146240391E-01 
    5.9505728951806947E-01 
    5.4132254362388088E-01 
    4.8029853376768328E-01 
    4.1069410341177404E-01 
    3.3732476417374335E-01 
    2.6986848180402095E-01 
    2.3205648462601713E-01 
    8.7958502853637666E-01 
    8.7347536377122292E-01 
    8.5879625000142057E-01 
    8.3655837145825007E-01 
    8.0809379332500830E-01 
    7.7431926533870021E-01 
    7.3588285546135968E-01 
    6.9363284170969974E-01 
    6.4775267175001749E-01 
    5.9792213549719864E-01 
    5.4341422375092296E-01 
    4.8181262064482849E-01 
    4.1132061280477356E-01 
    3.3358203573940176E-01 
    2.5541499133790729E-01 
    2.0435500017514704E-01 
    8.7799283570006215E-01 
    8.7235763353199491E-01 
    8.5859458620204987E-01 
    8.3733039914939511E-01 
    8.0972655791365900E-01 
    7.7661752571875009E-01 
    7.3859669068631606E-01 
    6.9662136822537235E-01 
    6.5093977850491436E-01 
    6.0106349562807726E-01 
    5.4634106315155473E-01 
    4.8459545283883915E-01 
    4.1329307466986798E-01 
    3.3142866584162783E-01 
    2.4108020337082331E-01 
    1.6980954358157946E-01 
    8.7666837859749736E-01 
    8.7137874578450114E-01 
    8.5842597282483257E-01 
    8.3805381203739615E-01 
    8.1123689950063815E-01 
    7.7880172523117552E-01 
    7.4136581339167795E-01 
    6.9981769265566063E-01 
    6.5447562459694175E-01 
    6.0485008852148914E-01 
    5.5017199200272016E-01 
    4.8841784284634432E-01 
    4.1671963989233685E-01 
    3.3171223774408770E-01 
    2.2865142151238002E-01 
    1.2639192044818928E-01 
    8.7592144118683535E-01 
    8.7093011806840726E-01 
    8.5867548366823421E-01 
    8.3912651429858431E-01 
    8.1307778295658129E-01 
    7.8132781312726751E-01 
    7.4452108126044092E-01 
    7.0343489272825988E-01 
    6.5842292352758736E-01 
    6.0910826318666611E-01 
    5.5468283278802299E-01 
    4.9322140487489263E-01 
    4.2169986605317877E-01 
    3.3519575450561850E-01 
    2.2126878788105594E-01 
    7.1200798754369646E-02 
    8.7571843092780988E-01 
    8.7113254443777599E-01 
    8.5957631574477655E-01 
    8.4077897986817451E-01 
    8.1541570408128528E-01 
    7.8426875185791678E-01 
    7.4800145074592339E-01 
    7.0736172784092466E-01 
    6.6273139506049250E-01 
    6.1381192140381668E-01 
    5.5982121613578051E-01 
    4.9893426417914838E-01 
    4.2816388190895283E-01 
    3.4219502786069433E-01 
    2.2434985313955513E-01 
    0.0000000000000000E+00 

SCALARS Saturarion double 1 
LOOKUP_TABLE default 

    1.0000000000000469E+00 
    9.5803838964229027E-01 
    8.8929764851106441E-01 
    8.0628451865746242E-01 
    7.3766087788993562E-01 
    6.8420000545681103E-01 
    6.4161530602073336E-01 
    6.0521077830647496E-01 
    5.7209113043801374E-01 
    5.4075840752225424E-01 
    5.0631769143101657E-01 
    4.3804600342893102E-01 
    1.5257941839547307E-01 
    1.0000000450681703E-06 
    1.0000000000000152E-06 
    9.9999999999999995E-07 
    9.8181638366370283E-01 
    9.4222793877180278E-01 
    8.7043336557210038E-01 
    7.9612123222113707E-01 
    7.3276729630761173E-01 
    6.8049549443809343E-01 
    6.3779171703928916E-01 
    6.0164164593918223E-01 
    5.6937500347745029E-01 
    5.3885634106197389E-01 
    5.0513436605676376E-01 
    4.3861762315730207E-01 
    1.6051840957975497E-01 
    1.4731091812073491E-06 
    1.0000000190019898E-06 
    1.0000000000000008E-06 
    9.5308614367833289E-01 
    9.1606667338677839E-01 
    8.4568936825825880E-01 
    7.7863780271137528E-01 
    7.2216456416564656E-01 
    6.7250065412286886E-01 
    6.3024885971253519E-01 
    5.9471589151794857E-01 
    5.6389747211492447E-01 
    5.3489280308454823E-01 
    5.0273531803440374E-01 
    4.3939547226116882E-01 
    1.6951585256690296E-01 
    4.6624168339905246E-06 
    1.0000001942413589E-06 
    1.0000000000000093E-06 
    9.0363196243404342E-01 
    8.7529784189041737E-01 
    8.1483902030912336E-01 
    7.5410662576920051E-01 
    7.0415956091572629E-01 
    6.6064364533188902E-01 
    6.2198875182482272E-01 
    5.8855955485056966E-01 
    5.5902824411551078E-01 
    5.3142401156905750E-01 
    5.0116241342272450E-01 
    4.4136814761400828E-01 
    1.8394928724243156E-01 
    3.2144258316583783E-05 
    1.0000082985354883E-06 
    1.0000000000004781E-06 
    8.5279844031307717E-01 
    8.2899877732787630E-01 
    7.7853727970703612E-01 
    7.2622053810867315E-01 
    6.8196142695486095E-01 
    6.4424362677593094E-01 
    6.1094213803964614E-01 
    5.8089457943653255E-01 
    5.5337721885558588E-01 
    5.2708090604269608E-01 
    4.9818266926823773E-01 
    4.4237021835033746E-01 
    1.9832455215202027E-01 
    8.4545321426574062E-05 
    1.0000258168523993E-06 
    1.0000000000011814E-06 
    8.0195976431622296E-01 
    7.8352356343772345E-01 
    7.4302794423812524E-01 
    6.9824116903818756E-01 
    6.5857780157525581E-01 
    6.2514654154596372E-01 
    5.9594474933568364E-01 
    5.6937582141469423E-01 
    5.4451054276658317E-01 
    5.2036064249084690E-01 
    4.9271783492340637E-01 
    4.3958618999264704E-01 
    2.0229301118540738E-01 
    1.1512592850007153E-04 
    1.0000315237165129E-06 
    1.0000000000110762E-06 
    7.5165954983116434E-01 
    7.3905788864731414E-01 
    7.0768326213508803E-01 
    6.6949539403413150E-01 
    6.3444267850963487E-01 
    6.0465839062526539E-01 
    5.7903815915812384E-01 
    5.5561655688796863E-01 
    5.3335669400002339E-01 
    5.1133754859613556E-01 
    4.8559294155787858E-01 
    4.3261731530366648E-01 
    1.9157308310592008E-01 
    1.1279815747275220E-04 
    1.0002319857946715E-06 
    1.0000000000447426E-06 
    7.0150980403197005E-01 
    6.9447248973681164E-01 
    6.7187349708910482E-01 
    6.4059250817428237E-01 
    6.0975429141882109E-01 
    5.8264400741274858E-01 
    5.5939220567212034E-01 
    5.3940344681659214E-01 
    5.2058942667428776E-01 
    5.0080973931611616E-01 
    4.7635750820945205E-01 
    4.2075771179160409E-01 
    1.6304313016157324E-01 
    6.3894138290766800E-05 
    1.0002887370001113E-06 
    1.0000000001359634E-06 
    6.5160783350011620E-01 
    6.4922411955280879E-01 
    6.3439168589122963E-01 
    6.1041615296866025E-01 
    5.8437665812463313E-01 
    5.5969451215214960E-01 
    5.3863055333711984E-01 
    5.2116329315776555E-01 
    5.0515396190602069E-01 
    4.8761586000463059E-01 
    4.6248476089341989E-01 
    3.9192716736756400E-01 
    1.0419515236117491E-01 
    1.0244990831849013E-04 
    1.0012277328346526E-06 
    1.0000000001243120E-06 
    6.0317669144445840E-01 
    6.0451351509013007E-01 
    5.9640845564598366E-01 
    5.7879583958531877E-01 
    5.5776028488443097E-01 
    5.3674990819722201E-01 
    5.1793994245519082E-01 
    5.0145805472402116E-01 
    4.8573495072371187E-01 
    4.6601240171284769E-01 
    4.2946872020966093E-01 
    2.9246543628029459E-01 
    2.1707673096136117E-02 
    2.1707507199039791E-05 
    1.0000376146214567E-06 
    1.0000000000000010E-06 
    5.5912978289213333E-01 
    5.6292885622130018E-01 
    5.5959756839188524E-01 
    5.4636624387010158E-01 
    5.3018704912201509E-01 
    5.1351335838921175E-01 
    4.9547674176236178E-01 
    4.7529476655187902E-01 
    4.5201252339351533E-01 
    4.1076496096473386E-01 
    2.9777284707966367E-01 
    7.6436738577218624E-02 
    2.8020688117304113E-04 
    1.0128095296869077E-06 
    1.0000000000268797E-06 
    9.9999999999999995E-07 
    5.1134106650050148E-01 
    5.1863959649440561E-01 
    5.1858838626274040E-01 
    5.0935454588855755E-01 
    4.9570429920947751E-01 
    4.7575491230096278E-01 
    4.4032233750868793E-01 
    3.8092597624418967E-01 
    2.7087286673633254E-01 
    1.4135009830492354E-01 
    2.4714048286220376E-02 
    2.2122234626221376E-04 
    1.0274598287814919E-06 
    1.0000000112108634E-06 
    1.0000000000000016E-06 
    9.9999999999999995E-07 
    3.7304238675091739E-01 
    4.1435958111621113E-01 
    4.3317600568361703E-01 
    4.2151019256079708E-01 
    3.8040721355534984E-01 
    2.8055440236742607E-01 
    1.5002974111838563E-01 
    3.8860636429982810E-02 
    3.9475546345514017E-03 
    1.6067201656440249E-04 
    1.5835173925146763E-05 
    1.0043441961598068E-06 
    1.0000000033776510E-06 
    1.0000000000000014E-06 
    9.9999999999999995E-07 
    9.9999999999999995E-07 
    2.2170003488641267E-02 
    8.6555138386992539E-02 
    1.0952507212984106E-01 
    7.8987455814027885E-02 
    3.8425999366754650E-02 
    4.9534887906810404E-03 
    5.5967254590180089E-05 
    1.7624563017054608E-05 
    1.1855531416952380E-06 
    1.0053323508905634E-06 
    1.0000098812337446E-06 
    1.0000000000049917E-06 
    1.0000000000000002E-06 
    9.9999999999999995E-07 
    9.9999999999999995E-07 
    9.9999999999999995E-07 
    1.0003243696855838E-06 
    5.3251160768197558E-05 
    1.4706605488462767E-06 
    2.3029247419173273E-05 
    1.3470039367983874E-05 
    1.3802220798761208E-06 
    1.0002361259934780E-06 
    1.0000113396670612E-06 
    1.0000000137569185E-06 
    1.0000000000016934E-06 
    1.0000000000000008E-06 
    9.9999999999999995E-07 
    9.9999999999999995E-07 
    9.9999999999999995E-07 
    9.9999999999999995E-07 
    9.9999999999999995E-07 
    1.0000000000335437E-06 
    1.0000763352417796E-06 
    1.0000001838108954E-06 
    1.0000139531751400E-06 
    1.0000077384340477E-06 
    1.0000000213425716E-06 
    1.0000000000008241E-06 
    9.9999999999999995E-07 
    9.9999999999999995E-07 
    9.9999999999999995E-07 
    9.9999999999999995E-07 
    9.9999999999999995E-07 
    9.9999999999999995E-07 
    9.9999999999999995E-07 
    9.9999999999999995E-07 
    1.0000004302941748E-06 
