# vtk DataFile Version 2.0
Pressure Field Data 
ASCII 
DATASET UNSTRUCTURED_GRID 

POINTS 289 double 

    0.0000000000000000E+00     0.0000000000000000E+00     0.0000000000000000E+00 
    1.0000000000000000E+00     0.0000000000000000E+00     0.0000000000000000E+00 
    1.0000000000000000E+00     1.0000000000000000E+00     0.0000000000000000E+00 
    0.0000000000000000E+00     1.0000000000000000E+00     0.0000000000000000E+00 
    6.2499999999872928E-02     0.0000000000000000E+00     0.0000000000000000E+00 
    1.2499999999977310E-01     0.0000000000000000E+00     0.0000000000000000E+00 
    1.8749999999959341E-01     0.0000000000000000E+00     0.0000000000000000E+00 
    2.4999999999941089E-01     0.0000000000000000E+00     0.0000000000000000E+00 
    3.1249999999922851E-01     0.0000000000000000E+00     0.0000000000000000E+00 
    3.7499999999904610E-01     0.0000000000000000E+00     0.0000000000000000E+00 
    4.3749999999886358E-01     0.0000000000000000E+00     0.0000000000000000E+00 
    4.9999999999869210E-01     0.0000000000000000E+00     0.0000000000000000E+00 
    5.6249999999884603E-01     0.0000000000000000E+00     0.0000000000000000E+00 
    6.2499999999901090E-01     0.0000000000000000E+00     0.0000000000000000E+00 
    6.8749999999917577E-01     0.0000000000000000E+00     0.0000000000000000E+00 
    7.4999999999934064E-01     0.0000000000000000E+00     0.0000000000000000E+00 
    8.1249999999950551E-01     0.0000000000000000E+00     0.0000000000000000E+00 
    8.7499999999967026E-01     0.0000000000000000E+00     0.0000000000000000E+00 
    9.3749999999983513E-01     0.0000000000000000E+00     0.0000000000000000E+00 
    1.0000000000000000E+00     6.2499999999872928E-02     0.0000000000000000E+00 
    1.0000000000000000E+00     1.2499999999977310E-01     0.0000000000000000E+00 
    1.0000000000000000E+00     1.8749999999959341E-01     0.0000000000000000E+00 
    1.0000000000000000E+00     2.4999999999941089E-01     0.0000000000000000E+00 
    1.0000000000000000E+00     3.1249999999922851E-01     0.0000000000000000E+00 
    1.0000000000000000E+00     3.7499999999904610E-01     0.0000000000000000E+00 
    1.0000000000000000E+00     4.3749999999886358E-01     0.0000000000000000E+00 
    1.0000000000000000E+00     4.9999999999869210E-01     0.0000000000000000E+00 
    1.0000000000000000E+00     5.6249999999884603E-01     0.0000000000000000E+00 
    1.0000000000000000E+00     6.2499999999901090E-01     0.0000000000000000E+00 
    1.0000000000000000E+00     6.8749999999917577E-01     0.0000000000000000E+00 
    1.0000000000000000E+00     7.4999999999934064E-01     0.0000000000000000E+00 
    1.0000000000000000E+00     8.1249999999950551E-01     0.0000000000000000E+00 
    1.0000000000000000E+00     8.7499999999967026E-01     0.0000000000000000E+00 
    1.0000000000000000E+00     9.3749999999983513E-01     0.0000000000000000E+00 
    9.3749999999973976E-01     1.0000000000000000E+00     0.0000000000000000E+00 
    8.7499999999950118E-01     1.0000000000000000E+00     0.0000000000000000E+00 
    8.1249999999991318E-01     1.0000000000000000E+00     0.0000000000000000E+00 
    7.5000000000034706E-01     1.0000000000000000E+00     0.0000000000000000E+00 
    6.8750000000078049E-01     1.0000000000000000E+00     0.0000000000000000E+00 
    6.2500000000121403E-01     1.0000000000000000E+00     0.0000000000000000E+00 
    5.6250000000164757E-01     1.0000000000000000E+00     0.0000000000000000E+00 
    5.0000000000205946E-01     1.0000000000000000E+00     0.0000000000000000E+00 
    4.3750000000182099E-01     1.0000000000000000E+00     0.0000000000000000E+00 
    3.7500000000156092E-01     1.0000000000000000E+00     0.0000000000000000E+00 
    3.1250000000130068E-01     1.0000000000000000E+00     0.0000000000000000E+00 
    2.5000000000104050E-01     1.0000000000000000E+00     0.0000000000000000E+00 
    1.8750000000078040E-01     1.0000000000000000E+00     0.0000000000000000E+00 
    1.2500000000052031E-01     1.0000000000000000E+00     0.0000000000000000E+00 
    6.2500000000260125E-02     1.0000000000000000E+00     0.0000000000000000E+00 
    0.0000000000000000E+00     9.3749999999973976E-01     0.0000000000000000E+00 
    0.0000000000000000E+00     8.7499999999950118E-01     0.0000000000000000E+00 
    0.0000000000000000E+00     8.1249999999991318E-01     0.0000000000000000E+00 
    0.0000000000000000E+00     7.5000000000034706E-01     0.0000000000000000E+00 
    0.0000000000000000E+00     6.8750000000078049E-01     0.0000000000000000E+00 
    0.0000000000000000E+00     6.2500000000121403E-01     0.0000000000000000E+00 
    0.0000000000000000E+00     5.6250000000164757E-01     0.0000000000000000E+00 
    0.0000000000000000E+00     5.0000000000205946E-01     0.0000000000000000E+00 
    0.0000000000000000E+00     4.3750000000182099E-01     0.0000000000000000E+00 
    0.0000000000000000E+00     3.7500000000156092E-01     0.0000000000000000E+00 
    0.0000000000000000E+00     3.1250000000130068E-01     0.0000000000000000E+00 
    0.0000000000000000E+00     2.5000000000104050E-01     0.0000000000000000E+00 
    0.0000000000000000E+00     1.8750000000078040E-01     0.0000000000000000E+00 
    0.0000000000000000E+00     1.2500000000052031E-01     0.0000000000000000E+00 
    0.0000000000000000E+00     6.2500000000260125E-02     0.0000000000000000E+00 
    6.2499999999897131E-02     6.2500000000235922E-02     0.0000000000000000E+00 
    6.2499999999921327E-02     1.2500000000047351E-01     0.0000000000000000E+00 
    6.2499999999945530E-02     1.8750000000070621E-01     0.0000000000000000E+00 
    6.2499999999969733E-02     2.5000000000093858E-01     0.0000000000000000E+00 
    6.2499999999993928E-02     3.1250000000117117E-01     0.0000000000000000E+00 
    6.2500000000018124E-02     3.7500000000140382E-01     0.0000000000000000E+00 
    6.2500000000042327E-02     4.3750000000163619E-01     0.0000000000000000E+00 
    6.2500000000066530E-02     5.0000000000184897E-01     0.0000000000000000E+00 
    6.2500000000090733E-02     5.6250000000147260E-01     0.0000000000000000E+00 
    6.2500000000114922E-02     6.2500000000107636E-01     0.0000000000000000E+00 
    6.2500000000139125E-02     6.8750000000068034E-01     0.0000000000000000E+00 
    6.2500000000163328E-02     7.5000000000028411E-01     0.0000000000000000E+00 
    6.2500000000187531E-02     8.1249999999988787E-01     0.0000000000000000E+00 
    6.2500000000211720E-02     8.7499999999951172E-01     0.0000000000000000E+00 
    6.2500000000235922E-02     9.3749999999974565E-01     0.0000000000000000E+00 
    1.2499999999981980E-01     6.2500000000211733E-02     0.0000000000000000E+00 
    1.2499999999986650E-01     1.2500000000042691E-01     0.0000000000000000E+00 
    1.2499999999991319E-01     1.8750000000063199E-01     0.0000000000000000E+00 
    1.2499999999995989E-01     2.5000000000083678E-01     0.0000000000000000E+00 
    1.2500000000000661E-01     3.1250000000104172E-01     0.0000000000000000E+00 
    1.2500000000005329E-01     3.7500000000124661E-01     0.0000000000000000E+00 
    1.2500000000010000E-01     4.3750000000145117E-01     0.0000000000000000E+00 
    1.2500000000014669E-01     5.0000000000163858E-01     0.0000000000000000E+00 
    1.2500000000019340E-01     5.6250000000129741E-01     0.0000000000000000E+00 
    1.2500000000024011E-01     6.2500000000093847E-01     0.0000000000000000E+00 
    1.2500000000028680E-01     6.8750000000057998E-01     0.0000000000000000E+00 
    1.2500000000033351E-01     7.5000000000022127E-01     0.0000000000000000E+00 
    1.2500000000038020E-01     8.1249999999986211E-01     0.0000000000000000E+00 
    1.2500000000042691E-01     8.7499999999952238E-01     0.0000000000000000E+00 
    1.2500000000047359E-01     9.3749999999975164E-01     0.0000000000000000E+00 
    1.8749999999966760E-01     6.2500000000187531E-02     0.0000000000000000E+00 
    1.8749999999974179E-01     1.2500000000038020E-01     0.0000000000000000E+00 
    1.8749999999981601E-01     1.8750000000055780E-01     0.0000000000000000E+00 
    1.8749999999989009E-01     2.5000000000073502E-01     0.0000000000000000E+00 
    1.8749999999996431E-01     3.1250000000091221E-01     0.0000000000000000E+00 
    1.8750000000003850E-01     3.7500000000108941E-01     0.0000000000000000E+00 
    1.8750000000011269E-01     4.3750000000126649E-01     0.0000000000000000E+00 
    1.8750000000018691E-01     5.0000000000142808E-01     0.0000000000000000E+00 
    1.8750000000026110E-01     5.6250000000112244E-01     0.0000000000000000E+00 
    1.8750000000033529E-01     6.2500000000080080E-01     0.0000000000000000E+00 
    1.8750000000040951E-01     6.8750000000047962E-01     0.0000000000000000E+00 
    1.8750000000048361E-01     7.5000000000015843E-01     0.0000000000000000E+00 
    1.8750000000055780E-01     8.1249999999983680E-01     0.0000000000000000E+00 
    1.8750000000063199E-01     8.7499999999953304E-01     0.0000000000000000E+00 
    1.8750000000070621E-01     9.3749999999975764E-01     0.0000000000000000E+00 
    2.4999999999951281E-01     6.2500000000163314E-02     0.0000000000000000E+00 
    2.4999999999961461E-01     1.2500000000033351E-01     0.0000000000000000E+00 
    2.4999999999971650E-01     1.8750000000048361E-01     0.0000000000000000E+00 
    2.4999999999981831E-01     2.5000000000063310E-01     0.0000000000000000E+00 
    2.4999999999992020E-01     3.1250000000078260E-01     0.0000000000000000E+00 
    2.5000000000002198E-01     3.7500000000093209E-01     0.0000000000000000E+00 
    2.5000000000012390E-01     4.3750000000108180E-01     0.0000000000000000E+00 
    2.5000000000022571E-01     5.0000000000121769E-01     0.0000000000000000E+00 
    2.5000000000032763E-01     5.6250000000094724E-01     0.0000000000000000E+00 
    2.5000000000042938E-01     6.2500000000066314E-01     0.0000000000000000E+00 
    2.5000000000053119E-01     6.8750000000037925E-01     0.0000000000000000E+00 
[...]
CELL_DATA 256 
SCALARS Pressure double 1 
LOOKUP_TABLE default 

    8.9822805839534237E-01 
    8.4609575376579715E-01 
    8.1075218404191762E-01 
    7.7730597928013112E-01 
    7.4247357012311976E-01 
    7.0555154706993872E-01 
    6.6643573637900688E-01 
    6.2532779776098379E-01 
    5.8266025232375851E-01 
    5.3915621325725027E-01 
    4.9599803651896801E-01 
    4.5503762604742931E-01 
    4.1850253556919154E-01 
    3.8647909351437676E-01 
    3.6185083728752682E-01 
    3.5140059048124700E-01 
    8.8429616928525023E-01 
    8.4761598219044576E-01 
    8.1348068423121145E-01 
    7.8034956034706171E-01 
    7.4579772264075472E-01 
    7.0914467147512616E-01 
    6.7026444659560469E-01 
    6.2933036295054823E-01 
    5.8674345723235011E-01 
    5.4318163307692013E-01 
    4.9975746525465131E-01 
    4.5825444817919825E-01 
    4.2095222466695759E-01 
    3.8814641027548702E-01 
    3.6232026086247066E-01 
    3.5093858128956867E-01 
    8.7356902075695209E-01 
    8.4692099877877558E-01 
    8.1538324138169771E-01 
    7.8298328620301161E-01 
    7.4884483189817164E-01 
    7.1251776412091972E-01 
    6.7390211028300118E-01 
    6.3314877120655011E-01 
    5.9062180492735850E-01 
    5.4694395366754034E-01 
    5.0314178838812296E-01 
    4.6090362632309412E-01 
    4.2253753084008905E-01 
    3.8870025641796019E-01 
    3.6148052420644666E-01 
    3.4926709218813656E-01 
    8.6502411507191967E-01 
    8.4504964258219206E-01 
    8.1649270785756745E-01 
    7.8519393458093856E-01 
    7.5162097518337345E-01 
    7.1568034419351545E-01 
    6.7735679981340202E-01 
    6.3679566694432588E-01 
    5.9432132201892662E-01 
    5.5048861573437624E-01 
    5.0621837849344176E-01 
    4.6307106597630321E-01 
    4.2334749689474915E-01 
    3.8815307211075667E-01 
    3.5923490669872837E-01 
    3.4615613470862333E-01 
    8.5800689911660866E-01 
    8.4257491776017912E-01 
    8.1693368172942005E-01 
    7.8699088505660952E-01 
    7.5413498092798303E-01 
    7.1865029829403071E-01 
    6.8064918639848027E-01 
    6.4029443580251000E-01 
    5.9787407777623858E-01 
    5.5386554289152135E-01 
    5.0906223222127900E-01 
    4.6485654282930106E-01 
    4.2348693394723808E-01 
    3.8652394311639987E-01 
    3.5547740315784965E-01 
    3.4136565670602553E-01 
    8.5216658066242701E-01 
    8.3986086305706376E-01 
    8.1686471126189253E-01 
    7.8841316651353943E-01 
    7.5640326137200864E-01 
    7.2144902927469678E-01 
    6.8380763490649110E-01 
    6.4367749157248733E-01 
    6.0131735880979853E-01 
    5.5712537816148866E-01 
    5.1174986681685330E-01 
    4.6636854328301697E-01 
    4.2307422924571170E-01 
    3.8384720556889868E-01 
    3.5010885506796458E-01 
    3.3464461947092761E-01 
    8.4727931445349769E-01 
    8.3714717517290060E-01 
    8.1645483205397096E-01 
    7.8952842367960729E-01 
    7.5845509764845487E-01 
    7.2409963689612633E-01 
    6.8686063193205460E-01 
    6.4697970194489596E-01 
    6.0469183171933150E-01 
    5.6032054982789337E-01 
    5.1435943915553972E-01 
    4.6772378104916473E-01 
    4.2224813111360598E-01 
    3.8018369921146905E-01 
    3.4303691285398019E-01 
    3.2570778427846847E-01 
    8.4318592833551032E-01 
    8.3458554058018330E-01 
    8.1585532192042021E-01 
    7.9041433257267568E-01 
    7.6032837015973465E-01 
    7.2662706441541802E-01 
    6.8983393578871133E-01 
    6.5023359833872973E-01 
    6.0803933986606074E-01 
    5.6350685222515084E-01 
    5.1697436134944907E-01 
    4.6905243630181059E-01 
    4.2118557287741010E-01 
    3.7565777725863242E-01 
    3.3422292596835196E-01 
    3.1422595552024851E-01 
    8.3977386614979177E-01 
    8.3226851034741445E-01 
    8.1519056739828222E-01 
    7.9115130452416293E-01 
    7.6206787568557277E-01 
    7.2905775710024567E-01 
    6.9274923321459780E-01 
    6.5346750169307311E-01 
    6.1140007215886094E-01 
    5.6674053096901744E-01 
    5.1968013943185654E-01 
    4.7049501825707246E-01 
    4.2010340476717456E-01 
    3.7049240943670209E-01 
    3.2373243830612919E-01 
    2.9981350615228952E-01 
    8.3696190428011241E-01 
    8.3024983270053687E-01 
    8.1455788884347125E-01 
    7.9181740614330898E-01 
    7.6372492355770838E-01 
    7.3142205584866138E-01 
    6.9562788349854676E-01 
    6.5670841993743456E-01 
    6.1481245361676096E-01 
    5.7007425544172141E-01 
    5.2255872706561779E-01 
    4.7219644159061092E-01 
    4.1925345534215247E-01 
    3.6502880405527965E-01 
    3.1170019842980035E-01 
    2.8185869766974014E-01 
    8.3469737045841319E-01 
    8.2856955897083506E-01 
    8.1404369810375643E-01 
    7.9249327899028355E-01 
    7.6536007161415898E-01 
    7.3376028314751351E-01 
    6.9849730937535170E-01 
    6.5998290286907046E-01 
    6.1830691452405717E-01 
    5.7354568855667853E-01 
    5.2567471721711190E-01 
    4.7428953932424756E-01 
    4.1890327290959134E-01 
    3.5969266696984853E-01 
    2.9820434857605421E-01 
    2.5915365167988230E-01 
    8.3295421672977243E-01 
    8.2727396111184337E-01 
    8.1373375836466422E-01 
    7.9326155753647198E-01 
    7.6704069820875098E-01 
    7.3612157758153152E-01 
    7.0138602510470027E-01 
    6.6330210377870780E-01 
    6.2187492842425574E-01 
    5.7712640815751814E-01 
    5.2899953087148732E-01 
    4.7680211878825612E-01 
    4.1924015263013664E-01 
    3.5495271757862540E-01 
    2.8344058514237164E-01 
    2.2992127478692306E-01 
    8.3167224717436528E-01 
    8.2637293022928826E-01 
    8.1368261559594324E-01 
    7.9418204880387477E-01 
    7.6881266603872700E-01 
    7.3852335322249818E-01 
    7.0422922832154122E-01 
    6.6650323173849868E-01 
    6.2532442760884210E-01 
    5.8061399394796620E-01 
    5.3229381541257204E-01 
    4.7944573118751965E-01 
    4.2011723827901648E-01 
    3.5098464662266698E-01 
    2.6763156095454510E-01 
    1.9204630377776133E-01 
    8.3057860343013701E-01 
    8.2566060508673167E-01 
    8.1375630138775035E-01 
    7.9513028076430292E-01 
    7.7054177700892701E-01 
    7.4084517514573867E-01 
    7.0693602171702419E-01 
    6.6950207751112301E-01 
    6.2863921011967394E-01 
    5.8415156393344281E-01 
    5.3584982780733337E-01 
    4.8268989882706448E-01 
    4.2215264722001239E-01 
    3.4864903330067837E-01 
    2.5163517048324746E-01 
    1.4257565373982253E-01 
    8.2985412768705036E-01 
    8.2525209908028108E-01 
    8.1404615068402386E-01 
    7.9618849162180683E-01 
    7.7230909867779174E-01 
    7.4321201518177149E-01 
    7.0976364046257345E-01 
    6.7268426849273377E-01 
    6.3218913673107413E-01 
    5.8805454959128545E-01 
    5.3998510265576893E-01 
    4.8690838820585264E-01 
    4.2603793639252302E-01 
    3.5018319739582887E-01 
    2.4009278478635973E-01 
    7.7807515438953798E-02 
    8.2966532580700791E-01 
    8.2543993694721740E-01 
    8.1486644627379068E-01 
    7.9768805646023155E-01 
    7.7444699166960862E-01 
    7.4591445082857344E-01 
    7.1293595457232195E-01 
    6.7623409118242273E-01 
    6.3607573726275024E-01 
    5.9229073819384359E-01 
    5.4456945527953071E-01 
    4.9187129885444836E-01 
    4.3144309692900246E-01 
    3.5594840641887937E-01 
    2.4208574014766340E-01 
    0.0000000000000000E+00 

SCALARS Saturarion double 1 
LOOKUP_TABLE default 

    1.0000000000000029E+00 
    9.6480755658097272E-01 
    9.0454658088826212E-01 
    8.3110241151988207E-01 
    7.6893764639395712E-01 
    7.1800633605906594E-01 
    6.7667769464564465E-01 
    6.4203664076067657E-01 
    6.1132368838093376E-01 
    5.8271301426930344E-01 
    5.5522658216052601E-01 
    5.2779169634845413E-01 
    4.9044952855709861E-01 
    3.6085160230501157E-01 
    1.9791760678920845E-02 
    1.0000001965323998E-06 
    9.8542548843250288E-01 
    9.5209933664185253E-01 
    8.8901603152448394E-01 
    8.2139071356489979E-01 
    7.6372810415961945E-01 
    7.1472290747820511E-01 
    6.7371274111701673E-01 
    6.3899978316288397E-01 
    6.0862193154638788E-01 
    5.8076016510485895E-01 
    5.5420101198072846E-01 
    5.2767290655025212E-01 
    4.9165539467704306E-01 
    3.7504991474188987E-01 
    3.3031850524645134E-02 
    1.7796128392760370E-06 
    9.6253111233368693E-01 
    9.3038551131449854E-01 
    8.6804364560393366E-01 
    8.0502154195404363E-01 
    7.5295902573491535E-01 
    7.0745544611467159E-01 
    6.6756525889601082E-01 
    6.3290913431885076E-01 
    6.0296195115376972E-01 
    5.7631478640030176E-01 
    5.5139944891662218E-01 
    5.2644661627157097E-01 
    4.9339917212945733E-01 
    3.9063006446143905E-01 
    5.2721750903482634E-02 
    3.7425853881178688E-06 
    9.2242600739635783E-01 
    8.9692996172724659E-01 
    8.4254773475308797E-01 
    7.8431269854284036E-01 
    7.3583237321550099E-01 
    6.9504448845620270E-01 
    6.5866153229722724E-01 
    6.2625625351742731E-01 
    5.9756300056910827E-01 
    5.7202758453986713E-01 
    5.4830442272770652E-01 
    5.2493189361094339E-01 
    4.9518221207390123E-01 
    4.0594724902829615E-01 
    8.1318925443614312E-02 
    1.0576008325024453E-05 
    8.7842048773667936E-01 
    8.5698203641535409E-01 
    8.1031566386673337E-01 
    7.5910695530592354E-01 
    7.1480060211344476E-01 
    6.7768805896030315E-01 
    6.4557669227113945E-01 
    6.1693169509478474E-01 
    5.9104065814587137E-01 
    5.6738512817192777E-01 
    5.4527384346823515E-01 
    5.2367295030192018E-01 
    4.9661883505399368E-01 
    4.2022556893277735E-01 
    1.0899158863276159E-01 
    9.9934852903537624E-06 
    8.3314716067289218E-01 
    8.1597019330810472E-01 
    7.7727999335604636E-01 
    7.3301604985154456E-01 
    6.9282783175505636E-01 
    6.5849129695153996E-01 
    6.2924699005629736E-01 
    6.0396172748897270E-01 
    5.8114205028754085E-01 
    5.5991457840059666E-01 
    5.3992520968409852E-01 
    5.2063718089630917E-01 
    4.9736306668824420E-01 
    4.3119630702308037E-01 
    1.3911559290351169E-01 
    2.9704794330199241E-05 
    7.8689374255896227E-01 
    7.7471348804996698E-01 
    7.4403043488029019E-01 
    7.0593208637377414E-01 
    6.6986637488222978E-01 
    6.3852807912557819E-01 
    6.1198054803194768E-01 
    5.8899942979293951E-01 
    5.6868441009203052E-01 
    5.5005675613582827E-01 
    5.3264428349243809E-01 
    5.1578572946960244E-01 
    4.9632161959726800E-01 
    4.4105397422972642E-01 
    1.7489996674093672E-01 
    1.5904791212188060E-04 
    7.3970192838961490E-01 
    7.3257846484212230E-01 
    7.0990996837375220E-01 
    6.7804135643601027E-01 
    6.4588560162345299E-01 
    6.1732516176134022E-01 
    5.9271098308421322E-01 
    5.7182055243503205E-01 
    5.5397023261678158E-01 
    5.3818948608352846E-01 
    5.2339481096645302E-01 
    5.0925794345688402E-01 
    4.9351055966708324E-01 
    4.4974355800165305E-01 
    2.1921233176994620E-01 
    8.6157929832303285E-04 
    6.9160986921887035E-01 
    6.8888198961725478E-01 
    6.7332374889101876E-01 
    6.4806652382684016E-01 
    6.2066871290026604E-01 
    5.9481465865565586E-01 
    5.7173358019084530E-01 
    5.5210367276872296E-01 
    5.3635213874943843E-01 
    5.2335785608693386E-01 
    5.1182781371173780E-01 
    5.0079764266799975E-01 
    4.8886939017700215E-01 
    4.5537730914561186E-01 
    2.7242625863289482E-01 
    3.7176229521488097E-03 
    6.4275071393014527E-01 
    6.4375997635972648E-01 
    6.3450322980142360E-01 
    6.1549563316251366E-01 
    5.9328970733141406E-01 
    5.7097569071909371E-01 
    5.4986477495579877E-01 
    5.3179773683347642E-01 
    5.1772538996841289E-01 
    5.0639985969097090E-01 
    4.9687125567323298E-01 
    4.8922299971077543E-01 
    4.8187187961549882E-01 
    4.5812515810352078E-01 
    3.1958004769015241E-01 
    1.8259647475746387E-02 
    5.9438217684354544E-01 
    5.9827705249075458E-01 
    5.9454730629479713E-01 
    5.8127601949099028E-01 
    5.6390109340300476E-01 
    5.4585956291123416E-01 
    5.2849021963628307E-01 
    5.1206802103073279E-01 
    4.9774511015949213E-01 
    4.8573876261880283E-01 
    4.7651427265504565E-01 
    4.7101388533053828E-01 
    4.6916854713683087E-01 
    4.5619656508871409E-01 
    3.5193123952894939E-01 
    5.4500205842269292E-02 
    5.4931145755507449E-01 
    5.5509629286665463E-01 
    5.5551070794392288E-01 
    5.4636850015261085E-01 
    5.3241870147600701E-01 
    5.1833390070853425E-01 
    5.0377316500782643E-01 
    4.8648491123253107E-01 
    4.6700240676141008E-01 
    4.4532707025592821E-01 
    4.2701351990922171E-01 
    4.1843633355809201E-01 
    4.3025015027015445E-01 
    4.4171162082493098E-01 
    3.7524336655611312E-01 
    1.0587708977033386E-01 
    4.8567842849292286E-01 
    4.9844406968460542E-01 
    5.0518542044426962E-01 
    5.0158756995804143E-01 
    4.8836596000662730E-01 
    4.7191431092312341E-01 
    4.4793383218856220E-01 
    3.8382400349477463E-01 
    2.7886372548357008E-01 
    2.0644469362258080E-01 
    1.5002051163854283E-01 
    1.4549184194077214E-01 
    2.4605272013191601E-01 
    3.7205335964001518E-01 
    3.6268666604040528E-01 
    1.5625412025302884E-01 
    2.1998957531553273E-01 
    3.1338269503028948E-01 
    3.5810657858013367E-01 
    3.5076172286483370E-01 
    2.9472973947931008E-01 
    2.2099891413020498E-01 
    1.5532806828371287E-01 
    3.9063579823382523E-02 
    2.9817749451219139E-03 
    2.7089168563386218E-04 
    2.7702263233054335E-05 
    2.7859597958777307E-05 
    8.4733352719934853E-03 
    1.2950390445511487E-01 
    3.0841757731121699E-01 
    1.7444035621237000E-01 
    4.9675998155547705E-05 
    8.1338625088796003E-03 
    1.7166829527203005E-02 
    1.1485832019626718E-02 
    3.6642854749907349E-03 
    2.5981520509995979E-04 
    6.1123031843836708E-05 
    1.3462558495040882E-05 
    1.0862094563626496E-06 
    1.0022475316446787E-06 
    1.0000463303463580E-06 
    1.0000492272481933E-06 
    4.0044243873882441E-06 
    1.8071122694006492E-04 
    1.0846717562518476E-01 
    1.5961321231269984E-01 
    1.0000000555282206E-06 
    1.7086879775771983E-06 
    1.2305237317829497E-06 
    1.3629309464055551E-06 
    1.1257244623958950E-06 
    1.0016197983103712E-06 
    1.0002707858473997E-06 
    1.0000028682790738E-06 
    1.0000000062634770E-06 
    1.0000000001385551E-06 
    1.0000000000004103E-06 
    1.0000000000000756E-06 
    1.0000006105929489E-06 
    1.0123761752552319E-06 
    2.6701652750347164E-04 
    2.0967968212987183E-02 
