# vtk DataFile Version 2.0
Pressure Field Data 
ASCII 
DATASET UNSTRUCTURED_GRID 

POINTS 289 double 

    0.0000000000000000E+00     0.0000000000000000E+00     0.0000000000000000E+00 
    1.0000000000000000E+00     0.0000000000000000E+00     0.0000000000000000E+00 
    1.0000000000000000E+00     1.0000000000000000E+00     0.0000000000000000E+00 
    0.0000000000000000E+00     1.0000000000000000E+00     0.0000000000000000E+00 
    6.2499999999872928E-02     0.0000000000000000E+00     0.0000000000000000E+00 
    1.2499999999977310E-01     0.0000000000000000E+00     0.0000000000000000E+00 
    1.8749999999959341E-01     0.0000000000000000E+00     0.0000000000000000E+00 
    2.4999999999941089E-01     0.0000000000000000E+00     0.0000000000000000E+00 
    3.1249999999922851E-01     0.0000000000000000E+00     0.0000000000000000E+00 
    3.7499999999904610E-01     0.0000000000000000E+00     0.0000000000000000E+00 
    4.3749999999886358E-01     0.0000000000000000E+00     0.0000000000000000E+00 
    4.9999999999869210E-01     0.0000000000000000E+00     0.0000000000000000E+00 
    5.6249999999884603E-01     0.0000000000000000E+00     0.0000000000000000E+00 
    6.2499999999901090E-01     0.0000000000000000E+00     0.0000000000000000E+00 
    6.8749999999917577E-01     0.0000000000000000E+00     0.0000000000000000E+00 
    7.4999999999934064E-01     0.0000000000000000E+00     0.0000000000000000E+00 
    8.1249999999950551E-01     0.0000000000000000E+00     0.0000000000000000E+00 
    8.7499999999967026E-01     0.0000000000000000E+00     0.0000000000000000E+00 
    9.3749999999983513E-01     0.0000000000000000E+00     0.0000000000000000E+00 
    1.0000000000000000E+00     6.2499999999872928E-02     0.0000000000000000E+00 
    1.0000000000000000E+00     1.2499999999977310E-01     0.0000000000000000E+00 
    1.0000000000000000E+00     1.8749999999959341E-01     0.0000000000000000E+00 
    1.0000000000000000E+00     2.4999999999941089E-01     0.0000000000000000E+00 
    1.0000000000000000E+00     3.1249999999922851E-01     0.0000000000000000E+00 
    1.0000000000000000E+00     3.7499999999904610E-01     0.0000000000000000E+00 
    1.0000000000000000E+00     4.3749999999886358E-01     0.0000000000000000E+00 
    1.0000000000000000E+00     4.9999999999869210E-01     0.0000000000000000E+00 
    1.0000000000000000E+00     5.6249999999884603E-01     0.0000000000000000E+00 
    1.0000000000000000E+00     6.2499999999901090E-01     0.0000000000000000E+00 
    1.0000000000000000E+00     6.8749999999917577E-01     0.0000000000000000E+00 
    1.0000000000000000E+00     7.4999999999934064E-01     0.0000000000000000E+00 
    1.0000000000000000E+00     8.1249999999950551E-01     0.0000000000000000E+00 
    1.0000000000000000E+00     8.7499999999967026E-01     0.0000000000000000E+00 
    1.0000000000000000E+00     9.3749999999983513E-01     0.0000000000000000E+00 
    9.3749999999973976E-01     1.0000000000000000E+00     0.0000000000000000E+00 
    8.7499999999950118E-01     1.0000000000000000E+00     0.0000000000000000E+00 
    8.1249999999991318E-01     1.0000000000000000E+00     0.0000000000000000E+00 
    7.5000000000034706E-01     1.0000000000000000E+00     0.0000000000000000E+00 
    6.8750000000078049E-01     1.0000000000000000E+00     0.0000000000000000E+00 
    6.2500000000121403E-01     1.0000000000000000E+00     0.0000000000000000E+00 
    5.6250000000164757E-01     1.0000000000000000E+00     0.0000000000000000E+00 
    5.0000000000205946E-01     1.0000000000000000E+00     0.0000000000000000E+00 
    4.3750000000182099E-01     1.0000000000000000E+00     0.0000000000000000E+00 
    3.7500000000156092E-01     1.0000000000000000E+00     0.0000000000000000E+00 
    3.1250000000130068E-01     1.0000000000000000E+00     0.0000000000000000E+00 
    2.5000000000104050E-01     1.0000000000000000E+00     0.0000000000000000E+00 
    1.8750000000078040E-01     1.0000000000000000E+00     0.0000000000000000E+00 
    1.2500000000052031E-01     1.0000000000000000E+00     0.0000000000000000E+00 
    6.2500000000260125E-02     1.0000000000000000E+00     0.0000000000000000E+00 
    0.0000000000000000E+00     9.3749999999973976E-01     0.0000000000000000E+00 
    0.0000000000000000E+00     8.7499999999950118E-01     0.0000000000000000E+00 
    0.0000000000000000E+00     8.1249999999991318E-01     0.0000000000000000E+00 
    0.0000000000000000E+00     7.5000000000034706E-01     0.0000000000000000E+00 
    0.0000000000000000E+00     6.8750000000078049E-01     0.0000000000000000E+00 
    0.0000000000000000E+00     6.2500000000121403E-01     0.0000000000000000E+00 
    0.0000000000000000E+00     5.6250000000164757E-01     0.0000000000000000E+00 
    0.0000000000000000E+00     5.0000000000205946E-01     0.0000000000000000E+00 
    0.0000000000000000E+00     4.3750000000182099E-01     0.0000000000000000E+00 
    0.0000000000000000E+00     3.7500000000156092E-01     0.0000000000000000E+00 
    0.0000000000000000E+00     3.1250000000130068E-01     0.0000000000000000E+00 
    0.0000000000000000E+00     2.5000000000104050E-01     0.0000000000000000E+00 
    0.0000000000000000E+00     1.8750000000078040E-01     0.0000000000000000E+00 
    0.0000000000000000E+00     1.2500000000052031E-01     0.0000000000000000E+00 
    0.0000000000000000E+00     6.2500000000260125E-02     0.0000000000000000E+00 
    6.2499999999897131E-02     6.2500000000235922E-02     0.0000000000000000E+00 
    6.2499999999921327E-02     1.2500000000047351E-01     0.0000000000000000E+00 
    6.2499999999945530E-02     1.8750000000070621E-01     0.0000000000000000E+00 
    6.2499999999969733E-02     2.5000000000093858E-01     0.0000000000000000E+00 
    6.2499999999993928E-02     3.1250000000117117E-01     0.0000000000000000E+00 
    6.2500000000018124E-02     3.7500000000140382E-01     0.0000000000000000E+00 
    6.2500000000042327E-02     4.3750000000163619E-01     0.0000000000000000E+00 
    6.2500000000066530E-02     5.0000000000184897E-01     0.0000000000000000E+00 
    6.2500000000090733E-02     5.6250000000147260E-01     0.0000000000000000E+00 
    6.2500000000114922E-02     6.2500000000107636E-01     0.0000000000000000E+00 
    6.2500000000139125E-02     6.8750000000068034E-01     0.0000000000000000E+00 
    6.2500000000163328E-02     7.5000000000028411E-01     0.0000000000000000E+00 
    6.2500000000187531E-02     8.1249999999988787E-01     0.0000000000000000E+00 
    6.2500000000211720E-02     8.7499999999951172E-01     0.0000000000000000E+00 
    6.2500000000235922E-02     9.3749999999974565E-01     0.0000000000000000E+00 
    1.2499999999981980E-01     6.2500000000211733E-02     0.0000000000000000E+00 
    1.2499999999986650E-01     1.2500000000042691E-01     0.0000000000000000E+00 
    1.2499999999991319E-01     1.8750000000063199E-01     0.0000000000000000E+00 
    1.2499999999995989E-01     2.5000000000083678E-01     0.0000000000000000E+00 
    1.2500000000000661E-01     3.1250000000104172E-01     0.0000000000000000E+00 
    1.2500000000005329E-01     3.7500000000124661E-01     0.0000000000000000E+00 
    1.2500000000010000E-01     4.3750000000145117E-01     0.0000000000000000E+00 
    1.2500000000014669E-01     5.0000000000163858E-01     0.0000000000000000E+00 
    1.2500000000019340E-01     5.6250000000129741E-01     0.0000000000000000E+00 
    1.2500000000024011E-01     6.2500000000093847E-01     0.0000000000000000E+00 
    1.2500000000028680E-01     6.8750000000057998E-01     0.0000000000000000E+00 
    1.2500000000033351E-01     7.5000000000022127E-01     0.0000000000000000E+00 
    1.2500000000038020E-01     8.1249999999986211E-01     0.0000000000000000E+00 
    1.2500000000042691E-01     8.7499999999952238E-01     0.0000000000000000E+00 
    1.2500000000047359E-01     9.3749999999975164E-01     0.0000000000000000E+00 
    1.8749999999966760E-01     6.2500000000187531E-02     0.0000000000000000E+00 
    1.8749999999974179E-01     1.2500000000038020E-01     0.0000000000000000E+00 
    1.8749999999981601E-01     1.8750000000055780E-01     0.0000000000000000E+00 
    1.8749999999989009E-01     2.5000000000073502E-01     0.0000000000000000E+00 
    1.8749999999996431E-01     3.1250000000091221E-01     0.0000000000000000E+00 
    1.8750000000003850E-01     3.7500000000108941E-01     0.0000000000000000E+00 
    1.8750000000011269E-01     4.3750000000126649E-01     0.0000000000000000E+00 
    1.8750000000018691E-01     5.0000000000142808E-01     0.0000000000000000E+00 
    1.8750000000026110E-01     5.6250000000112244E-01     0.0000000000000000E+00 
    1.8750000000033529E-01     6.2500000000080080E-01     0.0000000000000000E+00 
    1.8750000000040951E-01     6.8750000000047962E-01     0.0000000000000000E+00 
    1.8750000000048361E-01     7.5000000000015843E-01     0.0000000000000000E+00 
    1.8750000000055780E-01     8.1249999999983680E-01     0.0000000000000000E+00 
    1.8750000000063199E-01     8.7499999999953304E-01     0.0000000000000000E+00 
    1.8750000000070621E-01     9.3749999999975764E-01     0.0000000000000000E+00 
    2.4999999999951281E-01     6.2500000000163314E-02     0.0000000000000000E+00 
    2.4999999999961461E-01     1.2500000000033351E-01     0.0000000000000000E+00 
    2.4999999999971650E-01     1.8750000000048361E-01     0.0000000000000000E+00 
    2.4999999999981831E-01     2.5000000000063310E-01     0.0000000000000000E+00 
    2.4999999999992020E-01     3.1250000000078260E-01     0.0000000000000000E+00 
    2.5000000000002198E-01     3.7500000000093209E-01     0.0000000000000000E+00 
    2.5000000000012390E-01     4.3750000000108180E-01     0.0000000000000000E+00 
    2.5000000000022571E-01     5.0000000000121769E-01     0.0000000000000000E+00 
    2.5000000000032763E-01     5.6250000000094724E-01     0.0000000000000000E+00 
    2.5000000000042938E-01     6.2500000000066314E-01     0.0000000000000000E+00 
    2.5000000000053119E-01     6.8750000000037925E-01     0.0000000000000000E+00 
[...]
CELL_DATA 256 
SCALARS Pressure double 1 
LOOKUP_TABLE default 

    1.0976926029311718E+00 
    1.0394281997945751E+00 
    9.9533532783889134E-01 
    9.5063149403729674E-01 
    9.0210687932721589E-01 
    8.4940590829055063E-01 
    7.8915196470594906E-01 
    7.1456344565344343E-01 
    6.3745527439587757E-01 
    5.6961184802831000E-01 
    5.0539319847386999E-01 
    4.4646962847566407E-01 
    3.9556081928218428E-01 
    3.5614747338443947E-01 
    3.3126699458712677E-01 
    3.2128545834128602E-01 
    1.0837605455172103E+00 
    1.0414465241165534E+00 
    9.9874287401529327E-01 
    9.5456963642579140E-01 
    9.0663038578368038E-01 
    8.5453321875344490E-01 
    7.9500548713637298E-01 
    7.2129071538860934E-01 
    6.4433056823357293E-01 
    5.7592824035540313E-01 
    5.1112124132381154E-01 
    4.5130804296195953E-01 
    3.9912740443437328E-01 
    3.5813751541704636E-01 
    3.3171679534297993E-01 
    3.2083653039767751E-01 
    1.0726580027557251E+00 
    1.0408969381968580E+00 
    1.0009851667759169E+00 
    9.5773542770111608E-01 
    9.1056148699490647E-01 
    8.5911813082244581E-01 
    8.0004129806351731E-01 
    7.2713660182625350E-01 
    6.5085900120839102E-01 
    5.8199985431536505E-01 
    5.1651255070255642E-01 
    4.5562384470561168E-01 
    4.0189083118019570E-01 
    3.5900893653018978E-01 
    3.3086072904434349E-01 
    3.1922404937992049E-01 
    1.0631625757034930E+00 
    1.0387128728960617E+00 
    1.0020769976570232E+00 
    9.6015376763787563E-01 
    9.1390808860590000E-01 
    8.6319015984179648E-01 
    8.0433040608884665E-01 
    7.3219010811072216E-01 
    6.5704658012976103E-01 
    5.8784124130240556E-01 
    5.2162731959475439E-01 
    4.5950647500337505E-01 
    4.0394385859309889E-01 
    3.5880086610291612E-01 
    3.2861530687597318E-01 
    3.1622078241757789E-01 
    1.0547058000547098E+00 
    1.0354471401309666E+00 
    1.0021584162994939E+00 
    9.6190534052060916E-01 
    9.1673103377926790E-01 
    8.6678353358013838E-01 
    8.0794235377887547E-01 
    7.3655268120438322E-01 
    6.6291771859106896E-01 
    5.9348444674650158E-01 
    5.2653498026972134E-01 
    4.6305833398286850E-01 
    4.0539761679610070E-01 
    3.5756923762145421E-01 
    3.2489813092846309E-01 
    3.1159573122433676E-01 
    1.0471896492968464E+00 
    1.0316291384476566E+00 
    1.0014916983600750E+00 
    9.6311357184525126E-01 
    9.1911045704447236E-01 
    8.6986185531854521E-01 
    8.1090924270777121E-01 
    7.4038816711381961E-01 
    6.6849346655841446E-01 
    5.9897081354725645E-01 
    5.3131000356654368E-01 
    4.6639258120293953E-01 
    4.0638457491527108E-01 
    3.5539496373344820E-01 
    3.1963170722067069E-01 
    3.0510026987559857E-01 
    1.0405549285833546E+00 
    1.0276414124503028E+00 
    1.0003339608895705E+00 
    9.6389895137031933E-01 
    9.2111745242113663E-01 
    8.7230778289342070E-01 
    8.1322813122564896E-01 
    7.4396777071458342E-01 
    6.7379479168789380E-01 
    6.0434081260271999E-01 
    5.3602542662577135E-01 
    4.6962803581956675E-01 
    4.0705835715897176E-01 
    3.5239040499668844E-01 
    3.1274319413211144E-01 
    2.9643502140882666E-01 
    1.0347805260209022E+00 
    1.0237753610975131E+00 
    9.9892589328835268E-01 
    9.6438141682481582E-01 
    9.2277407757503260E-01 
    8.7403113771104923E-01 
    8.1500936170764682E-01 
    7.4761373290218169E-01 
    6.7888329297222505E-01 
    6.0964173737072580E-01 
    5.4075616704030816E-01 
    4.7289215647667981E-01 
    4.0760058255037557E-01 
    3.4871721258238964E-01 
    3.0418088847040453E-01 
    2.8524274505428965E-01 
    1.0298719672374952E+00 
    1.0202504994627768E+00 
    9.9747450462068898E-01 
    9.6464892773312583E-01 
    9.2391415930226883E-01 
    8.7503160407792702E-01 
    8.1664923833194925E-01 
    7.5148154208942575E-01 
    6.8387328368641120E-01 
    6.1493383438993721E-01 
    5.4557920531607396E-01 
    4.7631547249936862E-01 
    4.0822200170014528E-01 
    3.4460433146282687E-01 
    2.9393486098905852E-01 
    2.7106774561249758E-01 
    1.0256986908825156E+00 
    1.0171033874681334E+00 
    9.9601126245147986E-01 
    9.6450025870814782E-01 
    9.2428706381109438E-01 
    8.7562819299603289E-01 
    8.1865532698508570E-01 
    7.5549199892045815E-01 
    6.8886252804861636E-01 
    6.2027771035785040E-01 
    5.5056898298095192E-01 
    4.8003513481520443E-01 
    4.0917155901912977E-01 
    3.4038128043754629E-01 
    2.8208835339794175E-01 
    2.5332201589631781E-01 
    1.0215231608509368E+00 
    1.0137273131648912E+00 
    9.9399098520848916E-01 
    9.6362115489585565E-01 
    9.2419506201063095E-01 
    8.7659101863829347E-01 
    8.2123543434060065E-01 
    7.5959597419585068E-01 
    6.9391309368096576E-01 
    6.2572459979552830E-01 
    5.5578841219129294E-01 
    4.8417595634732641E-01 
    4.1071564131792793E-01 
    3.3648876086720325E-01 
    2.6887696499164843E-01 
    2.3122516386587197E-01 
    1.0176755178958963E+00 
    1.0103289144329515E+00 
    9.9177318088987965E-01 
    9.6273189476553145E-01 
    9.2459142388191384E-01 
    8.7827860767913746E-01 
    8.2425231035195690E-01 
    7.6387081858237393E-01 
    6.9907692703689972E-01 
    6.3131895624892109E-01 
    5.6128685623311203E-01 
    4.8884021428480962E-01 
    4.1312038251186012E-01 
    3.3349610635850685E-01 
    2.5480531949464807E-01 
    2.0372922456008530E-01 
    1.0149834405040519E+00 
    1.0079744172125544E+00 
    9.9048030766549222E-01 
    9.6273518033499772E-01 
    9.2578404922036028E-01 
    8.8054510345629478E-01 
    8.2766453888523994E-01 
    7.6838378676003716E-01 
    7.0440917009128390E-01 
    6.3710168525702016E-01 
    5.6709918659325864E-01 
    4.9409837507622539E-01 
    4.1662673311508486E-01 
    3.3210379393939449E-01 
    2.4084319162925136E-01 
    1.6938429870938118E-01 
    1.0132393217904332E+00 
    1.0065635751596760E+00 
    9.9001952412263894E-01 
    9.6343121796695630E-01 
    9.2758746341030629E-01 
    8.8336425214838232E-01 
    8.3150699270262496E-01 
    7.7318789068398175E-01 
    7.0995513714478309E-01 
    6.4310207736453540E-01 
    5.7324364022998664E-01 
    4.9998695002850391E-01 
    4.2141605353319389E-01 
    3.3310298629259910E-01 
    2.2876092290350411E-01 
    1.2614792952806309E-01 
    1.0123033603485578E+00 
    1.0060120508749788E+00 
    9.9035689816428074E-01 
    9.6483207536158810E-01 
    9.3002269126629900E-01 
    8.8675124512194581E-01 
    8.3580828475897351E-01 
    7.7832370445881915E-01 
    7.1574783744742543E-01 
    6.4933792789917610E-01 
    5.7972023686245622E-01 
    5.0649447571581740E-01 
    4.2754713294345742E-01 
    3.3721181931438671E-01 
    2.2167631700998547E-01 
    7.1099450920541901E-02 
    1.0120449064675734E+00 
    1.0062590327960286E+00 
    9.9148567961960443E-01 
    9.6695758264918275E-01 
    9.3311245192982117E-01 
    8.9072624534900202E-01 
    8.4059817207171594E-01 
    7.8382804961303343E-01 
    7.2181736410870123E-01 
    6.5582278695155016E-01 
    5.8651505681418159E-01 
    5.1356330471181089E-01 
    4.3491549032097770E-01 
    3.4470385738840542E-01 
    2.2498235730903476E-01 
    0.0000000000000000E+00 

SCALARS Saturarion double 1 
LOOKUP_TABLE default 

    1.0000000000003872E+00 
    9.3005505072140204E-01 
    8.3347834414951660E-01 
    7.1459079987157337E-01 
    6.3628162338296390E-01 
    5.7053008792312876E-01 
    4.7607563365499289E-01 
    1.6699260062082691E-01 
    2.0659528897864535E-06 
    1.0000000000022154E-06 
    9.9999999999999974E-07 
    9.9999999999999995E-07 
    9.9999999999999995E-07 
    9.9999999999999995E-07 
    9.9999999999999995E-07 
    9.9999999999999995E-07 
    9.6537329512445513E-01 
    9.0153556311581151E-01 
    8.0549542391205431E-01 
    7.0507334249508757E-01 
    6.2793773229765881E-01 
    5.6409082858065507E-01 
    4.6918787723138972E-01 
    1.5289872859043852E-01 
    3.5305756918896393E-06 
    1.0000029799094064E-06 
    1.0000000000023892E-06 
    9.9999999999999995E-07 
    9.9999999999999995E-07 
    9.9999999999999995E-07 
    9.9999999999999995E-07 
    9.9999999999999995E-07 
    9.0767262825041672E-01 
    8.5695566282876290E-01 
    7.6639113962694627E-01 
    6.8579643880664243E-01 
    6.1372885414392964E-01 
    5.5277076179509377E-01 
    4.5868793688978071E-01 
    1.3485217428924151E-01 
    8.5226096495717558E-06 
    1.0000152147087579E-06 
    1.0000000000106525E-06 
    9.9999999999999995E-07 
    9.9999999999999995E-07 
    9.9999999999999995E-07 
    9.9999999999999995E-07 
    9.9999999999999995E-07 
    8.2586290883375602E-01 
    7.8768927495881680E-01 
    7.1730083996998761E-01 
    6.5656282929607845E-01 
    5.9950692077194034E-01 
    5.4335435525849363E-01 
    4.4630687980518624E-01 
    1.1444580216780396E-01 
    1.1802929145999033E-05 
    1.0000287678255855E-06 
    1.0000000000125036E-06 
    9.9999999999999995E-07 
    9.9999999999999995E-07 
    9.9999999999999995E-07 
    9.9999999999999995E-07 
    9.9999999999999995E-07 
    7.5480997129415239E-01 
    7.2651909238619583E-01 
    6.7377515419716216E-01 
    6.2592006578316006E-01 
    5.8151393776379900E-01 
    5.3023726099270219E-01 
    4.2412394955232047E-01 
    7.9848374252282264E-02 
    3.0141138836040326E-05 
    1.0000802959195328E-06 
    1.0000000000172314E-06 
    9.9999999999999995E-07 
    9.9999999999999995E-07 
    9.9999999999999995E-07 
    9.9999999999999995E-07 
    9.9999999999999995E-07 
    6.9182319239364465E-01 
    6.7264590418003556E-01 
    6.3384266306546899E-01 
    5.9532878834633562E-01 
    5.5907267170187347E-01 
    5.1081443081231059E-01 
    3.7333239055191664E-01 
    3.3165080512412043E-02 
    2.6734648532107098E-05 
    1.0000867861563670E-06 
    9.9999999999999974E-07 
    9.9999999999999995E-07 
    9.9999999999999995E-07 
    9.9999999999999995E-07 
    9.9999999999999995E-07 
    9.9999999999999995E-07 
    6.3574500108336585E-01 
    6.2465217845659182E-01 
    5.9720741489992080E-01 
    5.6468929643519927E-01 
    5.3301480092897968E-01 
    4.8346016644655887E-01 
    2.8384168029949447E-01 
    5.2214116862993052E-03 
    1.9414940167116071E-06 
    1.0000003055660045E-06 
    1.0000000000000008E-06 
    9.9999999999999995E-07 
    9.9999999999999995E-07 
    9.9999999999999995E-07 
    9.9999999999999995E-07 
    9.9999999999999995E-07 
    5.8719275673887206E-01 
    5.8258584717932160E-01 
    5.6339917920049387E-01 
    5.3580307762328150E-01 
    5.0484852881733855E-01 
    4.3309114867243298E-01 
    1.4807925536304503E-01 
    2.4560929182794390E-04 
    1.0225863306984201E-06 
    1.0000000000197996E-06 
    9.9999999999999995E-07 
    9.9999999999999995E-07 
    9.9999999999999995E-07 
    9.9999999999999995E-07 
    9.9999999999999995E-07 
    9.9999999999999995E-07 
    5.4605469475918966E-01 
    5.4452597262491997E-01 
    5.2987318679282669E-01 
    5.0654657799282365E-01 
    4.6262673471620724E-01 
    3.0020608531557752E-01 
    2.1560709352957775E-02 
    2.2437943131031391E-05 
    1.0000433759148547E-06 
    1.0000000000000016E-06 
    9.9999999999999995E-07 
    9.9999999999999995E-07 
    9.9999999999999995E-07 
    9.9999999999999995E-07 
    9.9999999999999995E-07 
    9.9999999999999995E-07 
    4.9485842827731608E-01 
    4.9518164750625615E-01 
    4.8471430954757483E-01 
    4.4743851987626571E-01 
    3.2343594642228191E-01 
    7.2020896508892901E-02 
    2.3845404871982443E-04 
    1.0089280024868385E-06 
    1.0000000000051798E-06 
    9.9999999999999995E-07 
    9.9999999999999995E-07 
    9.9999999999999995E-07 
    9.9999999999999995E-07 
    9.9999999999999995E-07 
    9.9999999999999995E-07 
    9.9999999999999995E-07 
    3.3065758303530052E-01 
    3.6119058489851591E-01 
    3.2190257425412649E-01 
    1.9308198041103386E-01 
    4.3109389298675707E-02 
    2.6867409420919703E-04 
    1.0141047634873567E-06 
    1.0000000021172958E-06 
    9.9999999999999995E-07 
    9.9999999999999995E-07 
    9.9999999999999995E-07 
    9.9999999999999995E-07 
    9.9999999999999995E-07 
    9.9999999999999995E-07 
    9.9999999999999995E-07 
    9.9999999999999995E-07 
    8.7753374576805612E-03 
    2.5500308034627113E-02 
    1.1880504003755826E-02 
    5.0443845275667054E-04 
    6.7691291384763079E-05 
    1.0062711131472054E-06 
    1.0000000023069490E-06 
    1.0000000000000004E-06 
    9.9999999999999995E-07 
    9.9999999999999995E-07 
    9.9999999999999995E-07 
    9.9999999999999995E-07 
    9.9999999999999995E-07 
    9.9999999999999995E-07 
    9.9999999999999995E-07 
    9.9999999999999995E-07 
    1.0000006535863375E-06 
    2.0560411307671275E-06 
    3.3617039764365590E-06 
    1.0217575229962193E-06 
    1.0002730090693045E-06 
    1.0000000000837150E-06 
    9.9999999999999995E-07 
    9.9999999999999995E-07 
    9.9999999999999995E-07 
    9.9999999999999995E-07 
    9.9999999999999995E-07 
    9.9999999999999995E-07 
    9.9999999999999995E-07 
    9.9999999999999995E-07 
    9.9999999999999995E-07 
    9.9999999999999995E-07 
    1.0000000000000948E-06 
    1.0000002737680583E-06 
    1.0000002444324690E-06 
    1.0000000009410021E-06 
    1.0000000000000029E-06 
    9.9999999999999995E-07 
    9.9999999999999995E-07 
    9.9999999999999995E-07 
    9.9999999999999995E-07 
    9.9999999999999995E-07 
    9.9999999999999995E-07 
    9.9999999999999995E-07 
    9.9999999999999995E-07 
    9.9999999999999995E-07 
    9.9999999999999995E-07 
    9.9999999999999995E-07 
    9.9999999999999995E-07 
    1.0000000000000002E-06 
    1.0000000000000080E-06 
    9.9999999999999974E-07 
    9.9999999999999995E-07 
    9.9999999999999995E-07 
    9.9999999999999995E-07 
    9.9999999999999995E-07 
    9.9999999999999995E-07 
    9.9999999999999995E-07 
    9.9999999999999995E-07 
    9.9999999999999995E-07 
    9.9999999999999995E-07 
    9.9999999999999995E-07 
    9.9999999999999995E-07 
    9.9999999999999995E-07 
    9.9999999999999995E-07 
    9.9999999999999995E-07 
    9.9999999999999995E-07 
    9.9999999999999995E-07 
    9.9999999999999995E-07 
    9.9999999999999995E-07 
    9.9999999999999995E-07 
    9.9999999999999995E-07 
    9.9999999999999995E-07 
    9.9999999999999995E-07 
    9.9999999999999995E-07 
    9.9999999999999995E-07 
    9.9999999999999995E-07 
    9.9999999999999995E-07 
    9.9999999999999995E-07 
    1.0000002021095619E-06 
