# vtk DataFile Version 2.0
Pressure Field Data 
ASCII 
DATASET UNSTRUCTURED_GRID 

POINTS 289 double 

    0.0000000000000000E+00     0.0000000000000000E+00     0.0000000000000000E+00 
    1.0000000000000000E+00     0.0000000000000000E+00     0.0000000000000000E+00 
    1.0000000000000000E+00     1.0000000000000000E+00     0.0000000000000000E+00 
    0.0000000000000000E+00     1.0000000000000000E+00     0.0000000000000000E+00 
    6.2499999999872928E-02     0.0000000000000000E+00     0.0000000000000000E+00 
    1.2499999999977310E-01     0.0000000000000000E+00     0.0000000000000000E+00 
    1.8749999999959341E-01     0.0000000000000000E+00     0.0000000000000000E+00 
    2.4999999999941089E-01     0.0000000000000000E+00     0.0000000000000000E+00 
    3.1249999999922851E-01     0.0000000000000000E+00     0.0000000000000000E+00 
    3.7499999999904610E-01     0.0000000000000000E+00     0.0000000000000000E+00 
    4.3749999999886358E-01     0.0000000000000000E+00     0.0000000000000000E+00 
    4.9999999999869210E-01     0.0000000000000000E+00     0.0000000000000000E+00 
    5.6249999999884603E-01     0.0000000000000000E+00     0.0000000000000000E+00 
    6.2499999999901090E-01     0.0000000000000000E+00     0.0000000000000000E+00 
    6.8749999999917577E-01     0.0000000000000000E+00     0.0000000000000000E+00 
    7.4999999999934064E-01     0.0000000000000000E+00     0.0000000000000000E+00 
    8.1249999999950551E-01     0.0000000000000000E+00     0.0000000000000000E+00 
    8.7499999999967026E-01     0.0000000000000000E+00     0.0000000000000000E+00 
    9.3749999999983513E-01     0.0000000000000000E+00     0.0000000000000000E+00 
    1.0000000000000000E+00     6.2499999999872928E-02     0.0000000000000000E+00 
    1.0000000000000000E+00     1.2499999999977310E-01     0.0000000000000000E+00 
    1.0000000000000000E+00     1.8749999999959341E-01     0.0000000000000000E+00 
    1.0000000000000000E+00     2.4999999999941089E-01     0.0000000000000000E+00 
    1.0000000000000000E+00     3.1249999999922851E-01     0.0000000000000000E+00 
    1.0000000000000000E+00     3.7499999999904610E-01     0.0000000000000000E+00 
    1.0000000000000000E+00     4.3749999999886358E-01     0.0000000000000000E+00 
    1.0000000000000000E+00     4.9999999999869210E-01     0.0000000000000000E+00 
    1.0000000000000000E+00     5.6249999999884603E-01     0.0000000000000000E+00 
    1.0000000000000000E+00     6.2499999999901090E-01     0.0000000000000000E+00 
    1.0000000000000000E+00     6.8749999999917577E-01     0.0000000000000000E+00 
    1.0000000000000000E+00     7.4999999999934064E-01     0.0000000000000000E+00 
    1.0000000000000000E+00     8.1249999999950551E-01     0.0000000000000000E+00 
    1.0000000000000000E+00     8.7499999999967026E-01     0.0000000000000000E+00 
    1.0000000000000000E+00     9.3749999999983513E-01     0.0000000000000000E+00 
    9.3749999999973976E-01     1.0000000000000000E+00     0.0000000000000000E+00 
    8.7499999999950118E-01     1.0000000000000000E+00     0.0000000000000000E+00 
    8.1249999999991318E-01     1.0000000000000000E+00     0.0000000000000000E+00 
    7.5000000000034706E-01     1.0000000000000000E+00     0.0000000000000000E+00 
    6.8750000000078049E-01     1.0000000000000000E+00     0.0000000000000000E+00 
    6.2500000000121403E-01     1.0000000000000000E+00     0.0000000000000000E+00 
    5.6250000000164757E-01     1.0000000000000000E+00     0.0000000000000000E+00 
    5.0000000000205946E-01     1.0000000000000000E+00     0.0000000000000000E+00 
    4.3750000000182099E-01     1.0000000000000000E+00     0.0000000000000000E+00 
    3.7500000000156092E-01     1.0000000000000000E+00     0.0000000000000000E+00 
    3.1250000000130068E-01     1.0000000000000000E+00     0.0000000000000000E+00 
    2.5000000000104050E-01     1.0000000000000000E+00     0.0000000000000000E+00 
    1.8750000000078040E-01     1.0000000000000000E+00     0.0000000000000000E+00 
    1.2500000000052031E-01     1.0000000000000000E+00     0.0000000000000000E+00 
    6.2500000000260125E-02     1.0000000000000000E+00     0.0000000000000000E+00 
    0.0000000000000000E+00     9.3749999999973976E-01     0.0000000000000000E+00 
    0.0000000000000000E+00     8.7499999999950118E-01     0.0000000000000000E+00 
    0.0000000000000000E+00     8.1249999999991318E-01     0.0000000000000000E+00 
    0.0000000000000000E+00     7.5000000000034706E-01     0.0000000000000000E+00 
    0.0000000000000000E+00     6.8750000000078049E-01     0.0000000000000000E+00 
    0.0000000000000000E+00     6.2500000000121403E-01     0.0000000000000000E+00 
    0.0000000000000000E+00     5.6250000000164757E-01     0.0000000000000000E+00 
    0.0000000000000000E+00     5.0000000000205946E-01     0.0000000000000000E+00 
    0.0000000000000000E+00     4.3750000000182099E-01     0.0000000000000000E+00 
    0.0000000000000000E+00     3.7500000000156092E-01     0.0000000000000000E+00 
    0.0000000000000000E+00     3.1250000000130068E-01     0.0000000000000000E+00 
    0.0000000000000000E+00     2.5000000000104050E-01     0.0000000000000000E+00 
    0.0000000000000000E+00     1.8750000000078040E-01     0.0000000000000000E+00 
    0.0000000000000000E+00     1.2500000000052031E-01     0.0000000000000000E+00 
    0.0000000000000000E+00     6.2500000000260125E-02     0.0000000000000000E+00 
    6.2499999999897131E-02     6.2500000000235922E-02     0.0000000000000000E+00 
    6.2499999999921327E-02     1.2500000000047351E-01     0.0000000000000000E+00 
    6.2499999999945530E-02     1.8750000000070621E-01     0.0000000000000000E+00 
    6.2499999999969733E-02     2.5000000000093858E-01     0.0000000000000000E+00 
    6.2499999999993928E-02     3.1250000000117117E-01     0.0000000000000000E+00 
    6.2500000000018124E-02     3.7500000000140382E-01     0.0000000000000000E+00 
    6.2500000000042327E-02     4.3750000000163619E-01     0.0000000000000000E+00 
    6.2500000000066530E-02     5.0000000000184897E-01     0.0000000000000000E+00 
    6.2500000000090733E-02     5.6250000000147260E-01     0.0000000000000000E+00 
    6.2500000000114922E-02     6.2500000000107636E-01     0.0000000000000000E+00 
    6.2500000000139125E-02     6.8750000000068034E-01     0.0000000000000000E+00 
    6.2500000000163328E-02     7.5000000000028411E-01     0.0000000000000000E+00 
    6.2500000000187531E-02     8.1249999999988787E-01     0.0000000000000000E+00 
    6.2500000000211720E-02     8.7499999999951172E-01     0.0000000000000000E+00 
    6.2500000000235922E-02     9.3749999999974565E-01     0.0000000000000000E+00 
    1.2499999999981980E-01     6.2500000000211733E-02     0.0000000000000000E+00 
    1.2499999999986650E-01     1.2500000000042691E-01     0.0000000000000000E+00 
    1.2499999999991319E-01     1.8750000000063199E-01     0.0000000000000000E+00 
    1.2499999999995989E-01     2.5000000000083678E-01     0.0000000000000000E+00 
    1.2500000000000661E-01     3.1250000000104172E-01     0.0000000000000000E+00 
    1.2500000000005329E-01     3.7500000000124661E-01     0.0000000000000000E+00 
    1.2500000000010000E-01     4.3750000000145117E-01     0.0000000000000000E+00 
    1.2500000000014669E-01     5.0000000000163858E-01     0.0000000000000000E+00 
    1.2500000000019340E-01     5.6250000000129741E-01     0.0000000000000000E+00 
    1.2500000000024011E-01     6.2500000000093847E-01     0.0000000000000000E+00 
    1.2500000000028680E-01     6.8750000000057998E-01     0.0000000000000000E+00 
    1.2500000000033351E-01     7.5000000000022127E-01     0.0000000000000000E+00 
    1.2500000000038020E-01     8.1249999999986211E-01     0.0000000000000000E+00 
    1.2500000000042691E-01     8.7499999999952238E-01     0.0000000000000000E+00 
    1.2500000000047359E-01     9.3749999999975164E-01     0.0000000000000000E+00 
    1.8749999999966760E-01     6.2500000000187531E-02     0.0000000000000000E+00 
    1.8749999999974179E-01     1.2500000000038020E-01     0.0000000000000000E+00 
    1.8749999999981601E-01     1.8750000000055780E-01     0.0000000000000000E+00 
    1.8749999999989009E-01     2.5000000000073502E-01     0.0000000000000000E+00 
    1.8749999999996431E-01     3.1250000000091221E-01     0.0000000000000000E+00 
    1.8750000000003850E-01     3.7500000000108941E-01     0.0000000000000000E+00 
    1.8750000000011269E-01     4.3750000000126649E-01     0.0000000000000000E+00 
    1.8750000000018691E-01     5.0000000000142808E-01     0.0000000000000000E+00 
    1.8750000000026110E-01     5.6250000000112244E-01     0.0000000000000000E+00 
    1.8750000000033529E-01     6.2500000000080080E-01     0.0000000000000000E+00 
    1.8750000000040951E-01     6.8750000000047962E-01     0.0000000000000000E+00 
    1.8750000000048361E-01     7.5000000000015843E-01     0.0000000000000000E+00 
    1.8750000000055780E-01     8.1249999999983680E-01     0.0000000000000000E+00 
    1.8750000000063199E-01     8.7499999999953304E-01     0.0000000000000000E+00 
    1.8750000000070621E-01     9.3749999999975764E-01     0.0000000000000000E+00 
    2.4999999999951281E-01     6.2500000000163314E-02     0.0000000000000000E+00 
    2.4999999999961461E-01     1.2500000000033351E-01     0.0000000000000000E+00 
    2.4999999999971650E-01     1.8750000000048361E-01     0.0000000000000000E+00 
    2.4999999999981831E-01     2.5000000000063310E-01     0.0000000000000000E+00 
    2.4999999999992020E-01     3.1250000000078260E-01     0.0000000000000000E+00 
    2.5000000000002198E-01     3.7500000000093209E-01     0.0000000000000000E+00 
    2.5000000000012390E-01     4.3750000000108180E-01     0.0000000000000000E+00 
    2.5000000000022571E-01     5.0000000000121769E-01     0.0000000000000000E+00 
    2.5000000000032763E-01     5.6250000000094724E-01     0.0000000000000000E+00 
    2.5000000000042938E-01     6.2500000000066314E-01     0.0000000000000000E+00 
    2.5000000000053119E-01     6.8750000000037925E-01     0.0000000000000000E+00 
[...]
CELL_DATA 256 
SCALARS Pressure double 1 
LOOKUP_TABLE default 

    7.8476261330588126E-01 
    7.3381625798044403E-01 
    7.0030222852359136E-01 
    6.6927188778352631E-01 
    6.3738547503166110E-01 
    6.0386443751854213E-01 
    5.6850977682314585E-01 
    5.3142975864695874E-01 
    4.9296972019430196E-01 
    4.5376167705734383E-01 
    4.1485752016928334E-01 
    3.7791556455477121E-01 
    3.4533818745378630E-01 
    3.1996160628572540E-01 
    3.0263679757072931E-01 
    2.9440507944526334E-01 
    7.7080796366088489E-01 
    7.3521463125023701E-01 
    7.0285651617275013E-01 
    6.7209739160569792E-01 
    6.4044125793468376E-01 
    6.0713907932492828E-01 
    5.7198264451319536E-01 
    5.3505578341986904E-01 
    4.9667077765353174E-01 
    4.5741321812505104E-01 
    4.1826993662942891E-01 
    3.8082230012363627E-01 
    3.4742791557451103E-01 
    3.2103598498918318E-01 
    3.0283563504911154E-01 
    2.9399389726302311E-01 
    7.6008882280931922E-01 
    7.3444317616696375E-01 
    7.0462780911308531E-01 
    6.7455882616919216E-01 
    6.4326779023674341E-01 
    6.1023760171388230E-01 
    5.7530248871411904E-01 
    5.3853314384195405E-01 
    5.0020534185848642E-01 
    4.6084838361772779E-01 
    4.2136859840067098E-01 
    3.8325295872825726E-01 
    3.4880746354541747E-01 
    3.2112273979279721E-01 
    3.0190902300634598E-01 
    2.9254402142749797E-01 
    7.5162362413640726E-01 
    7.3255339602498992E-01 
    7.0565381673991967E-01 
    6.7663700036823782E-01 
    6.4586435140233556E-01 
    6.1316883909141218E-01 
    5.7847986675962404E-01 
    5.4187442559761301E-01 
    5.0359423048978036E-01 
    4.6410397401429593E-01 
    4.2421198855033398E-01 
    3.8528529624829633E-01 
    3.4955463933809422E-01 
    3.2026154289096331E-01 
    2.9977162390696105E-01 
    2.8981778804666780E-01 
    7.4476153860539218E-01 
    7.3012870990840928E-01 
    7.0606405663160809E-01 
    6.7833945691342734E-01 
    6.4823124794940090E-01 
    6.1594243561564055E-01 
    5.8153075283518241E-01 
    5.4509980891914500E-01 
    5.0686480070734419E-01 
    4.6722164318288500E-01 
    4.2686388057677799E-01 
    3.8700637550911365E-01 
    3.4976156387033180E-01 
    3.1850084469353124E-01 
    2.9633824774782275E-01 
    2.8557295948662170E-01 
    7.3912171455633280E-01 
    7.2752010500525244E-01 
    7.0601138568579658E-01 
    6.7970041456616082E-01 
    6.5037602602196909E-01 
    6.1856755816601561E-01 
    5.8447232833660379E-01 
    5.4823456859879849E-01 
    5.1005042021060287E-01 
    4.7024713331452833E-01 
    4.2939143982564015E-01 
    3.8851094250478690E-01 
    3.4953651011785453E-01 
    3.1590560026518394E-01 
    2.9153490612568644E-01 
    2.7958044166540902E-01 
    7.3445901936840041E-01 
    7.2494963308712590E-01 
    7.0565270557803439E-01 
    6.8078015423687044E-01 
    6.5232181481343998E-01 
    6.2105766910212734E-01 
    5.8732075861663313E-01 
    5.5130344033976930E-01 
    5.1318617381456411E-01 
    4.7322915529274312E-01 
    4.3186532362507929E-01 
    3.8990159937454066E-01 
    3.4900726459521797E-01 
    3.1257194847441283E-01 
    2.8530975490772670E-01 
    2.7159128941993327E-01 
    7.3059849830351653E-01 
    7.2255338378004796E-01 
    7.0512829647382691E-01 
    6.8164996391179122E-01 
    6.5410200993275680E-01 
    6.2343142914225613E-01 
    5.9009258817818122E-01 
    5.5432797149825608E-01 
    5.1630463356715162E-01 
    4.7621609760899009E-01 
    4.3435948091680099E-01 
    3.9129115073071474E-01 
    3.4832592399447437E-01 
    3.0863585523510484E-01 
    2.7763960450962466E-01 
    2.6132765600562441E-01 
    7.2741682216018133E-01 
    7.2041252028458791E-01 
    7.0455350517641813E-01 
    6.8238290572817284E-01 
    6.5575530344842148E-01 
    6.2571100747196762E-01 
    5.9280407163801274E-01 
    5.5732586588257427E-01 
    5.1943124369454463E-01 
    4.7925011279043006E-01 
    4.3694599277435592E-01 
    3.9280057624742942E-01 
    3.4767388018959139E-01 
    3.0428812646595643E-01 
    2.6853604825206212E-01 
    2.4844338950319156E-01 
    7.2482361519326977E-01 
    7.1857062535025118E-01 
    7.0401592577248884E-01 
    6.8304686646096091E-01 
    6.5732427900216983E-01 
    6.2792226965919362E-01 
    5.9547222706784741E-01 
    5.6031261727497528E-01 
    5.2258647202431252E-01 
    4.8236593232663610E-01 
    4.3969049787454806E-01 
    3.9455315857876894E-01 
    3.4726079650023678E-01 
    2.9979338421363655E-01 
    2.5806896297693677E-01 
    2.3246981977691261E-01 
    7.2275189547187701E-01 
    7.1705263615816472E-01 
    7.0358769610151684E-01 
    6.8370833548704435E-01 
    6.5885705643868331E-01 
    6.3009739645099405E-01 
    5.9811869084229652E-01 
    5.6330692330204279E-01 
    5.2579198303512187E-01 
    4.8559444567212473E-01 
    4.4265013277021970E-01 
    3.9666927535298591E-01 
    3.4732293275164172E-01 
    2.9551331219683108E-01 
    2.4642769414447138E-01 
    2.1279106983608537E-01 
    7.2115247632102630E-01 
    7.1588046623423285E-01 
    7.0333576911686468E-01 
    6.8443528838711509E-01 
    6.6040741245933565E-01 
    6.3227558951991769E-01 
    6.0077330084066749E-01 
    5.6633525457223011E-01 
    5.2907322283419178E-01 
    4.8895999234881882E-01 
    4.4586392496122745E-01 
    3.9925006002026070E-01 
    3.4811136015025601E-01 
    2.9192827302234481E-01 
    2.3400596527112230E-01 
    1.8857510653488865E-01 
    7.2000140002381385E-01 
    7.1508786435973404E-01 
    7.0332954781323909E-01 
    6.8529839265256387E-01 
    6.6203117608542494E-01 
    6.3449692165015403E-01 
    6.0346512799493990E-01 
    5.6942147213501482E-01 
    5.3244566389427317E-01 
    4.9245839478896375E-01 
    4.4931644698317791E-01 
    4.0231899041584279E-01 
    3.4981141291392687E-01 
    2.8958245306768565E-01 
    2.2147224837977567E-01 
    1.5856900072525343E-01 
    7.1920487654774634E-01 
    7.1464467566327083E-01 
    7.0359031280721929E-01 
    6.8633417780434069E-01 
    6.6375305174415178E-01 
    6.3675444692948324E-01 
    6.0614090266832499E-01 
    5.7247196531934585E-01 
    5.3579218752948643E-01 
    4.9595244717239878E-01 
    4.5282249604395369E-01 
    4.0563267143887932E-01 
    3.5230363026716044E-01 
    2.8883733542044543E-01 
    2.0976436268715157E-01 
    1.2057316986860932E-01 
    7.1863857463604441E-01 
    7.1440111160597364E-01 
    7.0399008196916057E-01 
    6.8744912974007544E-01 
    6.6550631043440034E-01 
    6.3900571784619442E-01 
    6.0877171339723335E-01 
    5.7544608882069959E-01 
    5.3908403022917351E-01 
    4.9949179617643363E-01 
    4.5652834853746543E-01 
    4.0941889864609937E-01 
    3.5593552512676863E-01 
    2.9057192167081969E-01 
    2.0085685529380801E-01 
    7.0399914786371642E-02 
    7.1845413400377178E-01 
    7.1455442896415566E-01 
    7.0473076045326233E-01 
    6.8882915786416699E-01 
    6.6746735757270181E-01 
    6.4144720818492751E-01 
    6.1159486088681325E-01 
    5.7859645607060217E-01 
    5.4255934351325730E-01 
    5.0329141991927462E-01 
    4.6063966406415879E-01 
    4.1386547434928733E-01 
    3.6084864539899109E-01 
    2.9585900143226235E-01 
    2.0093191838813368E-01 
    0.0000000000000000E+00 

SCALARS Saturarion double 1 
LOOKUP_TABLE default 

    1.0000000000000009E+00 
    9.7123134976133474E-01 
    9.2004365572684832E-01 
    8.5551676405973232E-01 
    8.0085534463043739E-01 
    7.5402949323509572E-01 
    7.1466839947597838E-01 
    6.8134201063384181E-01 
    6.5225571210783706E-01 
    6.2572397668685775E-01 
    6.0028648987710909E-01 
    5.7461336669184893E-01 
    5.4731791973282995E-01 
    5.1285520843665522E-01 
    3.8269270697343855E-01 
    1.8481481848167013E-02 
    9.8865199939691950E-01 
    9.6137705542935337E-01 
    9.0777769665144015E-01 
    8.4699856019400921E-01 
    7.9536783163140889E-01 
    7.5060880720177403E-01 
    7.1213353098036203E-01 
    6.7902618631395006E-01 
    6.5009351174055874E-01 
    6.2393995578417305E-01 
    5.9927372048331740E-01 
    5.7467863545152031E-01 
    5.4849703942528572E-01 
    5.1536211411694910E-01 
    3.9779103498902252E-01 
    3.5235579606043517E-02 
    9.7080994360039885E-01 
    9.4391515743842602E-01 
    8.9049451254219603E-01 
    8.3245790060488944E-01 
    7.8449874519055629E-01 
    7.4324374116376379E-01 
    7.0678193347174378E-01 
    6.7428355735566692E-01 
    6.4546006294460623E-01 
    6.1968264186037780E-01 
    5.9607504455365745E-01 
    5.7313654306914308E-01 
    5.4890822468837419E-01 
    5.1822174237170771E-01 
    4.1542824464406286E-01 
    6.2467795387405267E-02 
    9.3954720809278114E-01 
    9.1736795963503426E-01 
    8.6967611393273914E-01 
    8.1594721668145231E-01 
    7.6953118603454818E-01 
    7.3106684306500891E-01 
    6.9749418294136212E-01 
    6.6730366988223522E-01 
    6.3990589122822805E-01 
    6.1522012428799455E-01 
    5.9259700115612024E-01 
    5.7103062083686984E-01 
    5.4872523874406076E-01 
    5.2123425527365730E-01 
    4.3199709337113712E-01 
    1.0201654578273429E-01 
    9.0287130284030315E-01 
    8.8397431252886471E-01 
    8.4225390596211047E-01 
    7.9422593158099264E-01 
    7.5079798173827406E-01 
    7.1438211942901486E-01 
    6.8349508171072215E-01 
    6.5631291312523843E-01 
    6.3183823075181800E-01 
    6.0951849100340472E-01 
    5.8885982638922862E-01 
    5.6896819404824228E-01 
    5.4832773704634630E-01 
    5.2343726788645129E-01 
    4.4522307279735979E-01 
    1.3681689475112682E-01 
    8.6379003772071561E-01 
    8.4832008737299325E-01 
    8.1270247228825576E-01 
    7.7031195331397451E-01 
    7.3072757159231627E-01 
    6.9639408531560631E-01 
    6.6700929814385979E-01 
    6.4204517406546213E-01 
    6.2035798891333627E-01 
    6.0084914039583837E-01 
    5.8282176585576895E-01 
    5.6567358780548616E-01 
    5.4767588885157048E-01 
    5.2540995259323586E-01 
    4.5698188486734265E-01 
    1.7052477127490687E-01 
    8.2261681930190622E-01 
    8.1123714758800280E-01 
    7.8214922920664021E-01 
    7.4522157967581548E-01 
    7.0953899032907453E-01 
    6.7776533100562608E-01 
    6.5035239333814321E-01 
    6.2677654957261231E-01 
    6.0675625016763379E-01 
    5.8952829935655016E-01 
    5.7424317313520135E-01 
    5.6007182808897538E-01 
    5.4566273049160863E-01 
    5.2719750472516591E-01 
    4.6774195023476844E-01 
    2.0388182036682967E-01 
    7.7938503378144386E-01 
    7.7244107147059160E-01 
    7.5040232354092729E-01 
    7.1914962680377081E-01 
    6.8696772677531204E-01 
    6.5770477320517495E-01 
    6.3210594323147629E-01 
    6.1018762757156852E-01 
    5.9156904567003232E-01 
    5.7608477941808278E-01 
    5.6322318048626363E-01 
    5.5222433411234917E-01 
    5.4160860946188760E-01 
    5.2783094146889908E-01 
    4.7795197253986976E-01 
    2.3694894534694716E-01 
    7.3432917110165297E-01 
    7.3144577864470295E-01 
    7.1590838591572770E-01 
    6.9056351080079181E-01 
    6.6257175386838785E-01 
    6.3598000266793897E-01 
    6.1227570110333351E-01 
    5.9152968166978148E-01 
    5.7386350319205015E-01 
    5.5959709046862649E-01 
    5.4896450990245604E-01 
    5.4141963086136191E-01 
    5.3520293229972393E-01 
    5.2670339782005771E-01 
    4.8707399007468993E-01 
    2.6628725463347180E-01 
    6.8737517373969681E-01 
    6.8811773414463917E-01 
    6.7841726216872877E-01 
    6.5862650061263428E-01 
    6.3523699922578258E-01 
    6.1200782022945499E-01 
    5.9038863127982733E-01 
    5.7112316403414809E-01 
    5.5453363896108754E-01 
    5.4126097159304798E-01 
    5.3187584493455353E-01 
    5.2686000273517697E-01 
    5.2542122731376328E-01 
    5.2322362520872667E-01 
    4.9444260126706802E-01 
    2.9394156317458026E-01 
    6.3837249070300339E-01 
    6.4228926735463732E-01 
    6.3786855296350731E-01 
    6.2331331289480230E-01 
    6.0468061505065451E-01 
    5.8543647893178630E-01 
    5.6700478870942184E-01 
    5.4984255148843175E-01 
    5.3490008438742698E-01 
    5.2281035016088029E-01 
    5.1405208010231540E-01 
    5.0961371179570825E-01 
    5.1129151740083334E-01 
    5.1625941244982987E-01 
    4.9979696361981862E-01 
    3.2120269433682086E-01 
    5.8808841068273388E-01 
    5.9442964874534221E-01 
    5.9502809248128063E-01 
    5.8584897916257361E-01 
    5.7166281135988894E-01 
    5.5578808347850295E-01 
    5.4042521686706391E-01 
    5.2676473407561641E-01 
    5.1439042681227720E-01 
    5.0314176118090215E-01 
    4.9414395772342878E-01 
    4.8944283591775523E-01 
    4.9251260929505958E-01 
    5.0410852042936483E-01 
    5.0157193132046241E-01 
    3.4766667749536934E-01 
    5.3926649252268954E-01 
    5.4756559799559490E-01 
    5.5161786460698481E-01 
    5.4663903029874061E-01 
    5.3583469448623022E-01 
    5.2203393430539935E-01 
    5.0854205664241425E-01 
    4.9609895732200826E-01 
    4.8314762222982449E-01 
    4.7036482440375160E-01 
    4.5619149479913840E-01 
    4.4785809175996483E-01 
    4.5402561368457506E-01 
    4.7846578163717807E-01 
    4.9411972806593385E-01 
    3.7149396726843303E-01 
    4.3687223776517758E-01 
    4.6259851380812678E-01 
    4.8020608615104871E-01 
    4.8266190165769440E-01 
    4.7406845505985351E-01 
    4.5552443319945479E-01 
    4.2566095010521560E-01 
    3.7773086470793416E-01 
    3.0898267822988534E-01 
    2.2862443085140366E-01 
    1.9725980201549537E-01 
    1.9260800333723885E-01 
    2.5235604209073226E-01 
    3.8743391332572469E-01 
    4.6413712945902913E-01 
    3.8722729378477549E-01 
    7.5570072399044397E-02 
    1.5332024634617253E-01 
    1.8847569389325572E-01 
    2.0149982932926422E-01 
    1.8524810247599871E-01 
    1.3596177764682130E-01 
    6.5603319431333046E-02 
    1.6905421224997653E-02 
    6.2038070754575105E-03 
    6.6701113083602703E-04 
    9.6509089924124388E-05 
    3.9914953062953350E-05 
    1.2199870126445770E-02 
    1.2008103542204687E-01 
    3.7014973374545179E-01 
    3.9108405241321875E-01 
    1.0007389280165809E-06 
    7.2130529113887296E-05 
    4.6645532922547141E-05 
    4.7534369114730737E-06 
    8.3617384800253045E-05 
    1.7081566588559962E-05 
    9.6488573270022573E-06 
    2.0640408275251651E-06 
    1.0617284752581778E-06 
    1.0036703476029974E-06 
    1.0001016389834842E-06 
    1.0000772399123153E-06 
    1.1299776305464193E-05 
    6.7851787486897892E-03 
    2.1619846862734687E-01 
    3.4847786515157458E-01 
