# vtk DataFile Version 2.0
Pressure Field Data 
ASCII 
DATASET UNSTRUCTURED_GRID 

POINTS 289 double 

    0.0000000000000000E+00     0.0000000000000000E+00     0.0000000000000000E+00 
    1.0000000000000000E+00     0.0000000000000000E+00     0.0000000000000000E+00 
    1.0000000000000000E+00     1.0000000000000000E+00     0.0000000000000000E+00 
    0.0000000000000000E+00     1.0000000000000000E+00     0.0000000000000000E+00 
    6.2499999999872928E-02     0.0000000000000000E+00     0.0000000000000000E+00 
    1.2499999999977310E-01     0.0000000000000000E+00     0.0000000000000000E+00 
    1.8749999999959341E-01     0.0000000000000000E+00     0.0000000000000000E+00 
    2.4999999999941089E-01     0.0000000000000000E+00     0.0000000000000000E+00 
    3.1249999999922851E-01     0.0000000000000000E+00     0.0000000000000000E+00 
    3.7499999999904610E-01     0.0000000000000000E+00     0.0000000000000000E+00 
    4.3749999999886358E-01     0.0000000000000000E+00     0.0000000000000000E+00 
    4.9999999999869210E-01     0.0000000000000000E+00     0.0000000000000000E+00 
    5.6249999999884603E-01     0.0000000000000000E+00     0.0000000000000000E+00 
    6.2499999999901090E-01     0.0000000000000000E+00     0.0000000000000000E+00 
    6.8749999999917577E-01     0.0000000000000000E+00     0.0000000000000000E+00 
    7.4999999999934064E-01     0.0000000000000000E+00     0.0000000000000000E+00 
    8.1249999999950551E-01     0.0000000000000000E+00     0.0000000000000000E+00 
    8.7499999999967026E-01     0.0000000000000000E+00     0.0000000000000000E+00 
    9.3749999999983513E-01     0.0000000000000000E+00     0.0000000000000000E+00 
    1.0000000000000000E+00     6.2499999999872928E-02     0.0000000000000000E+00 
    1.0000000000000000E+00     1.2499999999977310E-01     0.0000000000000000E+00 
    1.0000000000000000E+00     1.8749999999959341E-01     0.0000000000000000E+00 
    1.0000000000000000E+00     2.4999999999941089E-01     0.0000000000000000E+00 
    1.0000000000000000E+00     3.1249999999922851E-01     0.0000000000000000E+00 
    1.0000000000000000E+00     3.7499999999904610E-01     0.0000000000000000E+00 
    1.0000000000000000E+00     4.3749999999886358E-01     0.0000000000000000E+00 
    1.0000000000000000E+00     4.9999999999869210E-01     0.0000000000000000E+00 
    1.0000000000000000E+00     5.6249999999884603E-01     0.0000000000000000E+00 
    1.0000000000000000E+00     6.2499999999901090E-01     0.0000000000000000E+00 
    1.0000000000000000E+00     6.8749999999917577E-01     0.0000000000000000E+00 
    1.0000000000000000E+00     7.4999999999934064E-01     0.0000000000000000E+00 
    1.0000000000000000E+00     8.1249999999950551E-01     0.0000000000000000E+00 
    1.0000000000000000E+00     8.7499999999967026E-01     0.0000000000000000E+00 
    1.0000000000000000E+00     9.3749999999983513E-01     0.0000000000000000E+00 
    9.3749999999973976E-01     1.0000000000000000E+00     0.0000000000000000E+00 
    8.7499999999950118E-01     1.0000000000000000E+00     0.0000000000000000E+00 
    8.1249999999991318E-01     1.0000000000000000E+00     0.0000000000000000E+00 
    7.5000000000034706E-01     1.0000000000000000E+00     0.0000000000000000E+00 
    6.8750000000078049E-01     1.0000000000000000E+00     0.0000000000000000E+00 
    6.2500000000121403E-01     1.0000000000000000E+00     0.0000000000000000E+00 
    5.6250000000164757E-01     1.0000000000000000E+00     0.0000000000000000E+00 
    5.0000000000205946E-01     1.0000000000000000E+00     0.0000000000000000E+00 
    4.3750000000182099E-01     1.0000000000000000E+00     0.0000000000000000E+00 
    3.7500000000156092E-01     1.0000000000000000E+00     0.0000000000000000E+00 
    3.1250000000130068E-01     1.0000000000000000E+00     0.0000000000000000E+00 
    2.5000000000104050E-01     1.0000000000000000E+00     0.0000000000000000E+00 
    1.8750000000078040E-01     1.0000000000000000E+00     0.0000000000000000E+00 
    1.2500000000052031E-01     1.0000000000000000E+00     0.0000000000000000E+00 
    6.2500000000260125E-02     1.0000000000000000E+00     0.0000000000000000E+00 
    0.0000000000000000E+00     9.3749999999973976E-01     0.0000000000000000E+00 
    0.0000000000000000E+00     8.7499999999950118E-01     0.0000000000000000E+00 
    0.0000000000000000E+00     8.1249999999991318E-01     0.0000000000000000E+00 
    0.0000000000000000E+00     7.5000000000034706E-01     0.0000000000000000E+00 
    0.0000000000000000E+00     6.8750000000078049E-01     0.0000000000000000E+00 
    0.0000000000000000E+00     6.2500000000121403E-01     0.0000000000000000E+00 
    0.0000000000000000E+00     5.6250000000164757E-01     0.0000000000000000E+00 
    0.0000000000000000E+00     5.0000000000205946E-01     0.0000000000000000E+00 
    0.0000000000000000E+00     4.3750000000182099E-01     0.0000000000000000E+00 
    0.0000000000000000E+00     3.7500000000156092E-01     0.0000000000000000E+00 
    0.0000000000000000E+00     3.1250000000130068E-01     0.0000000000000000E+00 
    0.0000000000000000E+00     2.5000000000104050E-01     0.0000000000000000E+00 
    0.0000000000000000E+00     1.8750000000078040E-01     0.0000000000000000E+00 
    0.0000000000000000E+00     1.2500000000052031E-01     0.0000000000000000E+00 
    0.0000000000000000E+00     6.2500000000260125E-02     0.0000000000000000E+00 
    6.2499999999897131E-02     6.2500000000235922E-02     0.0000000000000000E+00 
    6.2499999999921327E-02     1.2500000000047351E-01     0.0000000000000000E+00 
    6.2499999999945530E-02     1.8750000000070621E-01     0.0000000000000000E+00 
    6.2499999999969733E-02     2.5000000000093858E-01     0.0000000000000000E+00 
    6.2499999999993928E-02     3.1250000000117117E-01     0.0000000000000000E+00 
    6.2500000000018124E-02     3.7500000000140382E-01     0.0000000000000000E+00 
    6.2500000000042327E-02     4.3750000000163619E-01     0.0000000000000000E+00 
    6.2500000000066530E-02     5.0000000000184897E-01     0.0000000000000000E+00 
    6.2500000000090733E-02     5.6250000000147260E-01     0.0000000000000000E+00 
    6.2500000000114922E-02     6.2500000000107636E-01     0.0000000000000000E+00 
    6.2500000000139125E-02     6.8750000000068034E-01     0.0000000000000000E+00 
    6.2500000000163328E-02     7.5000000000028411E-01     0.0000000000000000E+00 
    6.2500000000187531E-02     8.1249999999988787E-01     0.0000000000000000E+00 
    6.2500000000211720E-02     8.7499999999951172E-01     0.0000000000000000E+00 
    6.2500000000235922E-02     9.3749999999974565E-01     0.0000000000000000E+00 
    1.2499999999981980E-01     6.2500000000211733E-02     0.0000000000000000E+00 
    1.2499999999986650E-01     1.2500000000042691E-01     0.0000000000000000E+00 
    1.2499999999991319E-01     1.8750000000063199E-01     0.0000000000000000E+00 
    1.2499999999995989E-01     2.5000000000083678E-01     0.0000000000000000E+00 
    1.2500000000000661E-01     3.1250000000104172E-01     0.0000000000000000E+00 
    1.2500000000005329E-01     3.7500000000124661E-01     0.0000000000000000E+00 
    1.2500000000010000E-01     4.3750000000145117E-01     0.0000000000000000E+00 
    1.2500000000014669E-01     5.0000000000163858E-01     0.0000000000000000E+00 
    1.2500000000019340E-01     5.6250000000129741E-01     0.0000000000000000E+00 
    1.2500000000024011E-01     6.2500000000093847E-01     0.0000000000000000E+00 
    1.2500000000028680E-01     6.8750000000057998E-01     0.0000000000000000E+00 
    1.2500000000033351E-01     7.5000000000022127E-01     0.0000000000000000E+00 
    1.2500000000038020E-01     8.1249999999986211E-01     0.0000000000000000E+00 
    1.2500000000042691E-01     8.7499999999952238E-01     0.0000000000000000E+00 
    1.2500000000047359E-01     9.3749999999975164E-01     0.0000000000000000E+00 
    1.8749999999966760E-01     6.2500000000187531E-02     0.0000000000000000E+00 
    1.8749999999974179E-01     1.2500000000038020E-01     0.0000000000000000E+00 
    1.8749999999981601E-01     1.8750000000055780E-01     0.0000000000000000E+00 
    1.8749999999989009E-01     2.5000000000073502E-01     0.0000000000000000E+00 
    1.8749999999996431E-01     3.1250000000091221E-01     0.0000000000000000E+00 
    1.8750000000003850E-01     3.7500000000108941E-01     0.0000000000000000E+00 
    1.8750000000011269E-01     4.3750000000126649E-01     0.0000000000000000E+00 
    1.8750000000018691E-01     5.0000000000142808E-01     0.0000000000000000E+00 
    1.8750000000026110E-01     5.6250000000112244E-01     0.0000000000000000E+00 
    1.8750000000033529E-01     6.2500000000080080E-01     0.0000000000000000E+00 
    1.8750000000040951E-01     6.8750000000047962E-01     0.0000000000000000E+00 
    1.8750000000048361E-01     7.5000000000015843E-01     0.0000000000000000E+00 
    1.8750000000055780E-01     8.1249999999983680E-01     0.0000000000000000E+00 
    1.8750000000063199E-01     8.7499999999953304E-01     0.0000000000000000E+00 
    1.8750000000070621E-01     9.3749999999975764E-01     0.0000000000000000E+00 
    2.4999999999951281E-01     6.2500000000163314E-02     0.0000000000000000E+00 
    2.4999999999961461E-01     1.2500000000033351E-01     0.0000000000000000E+00 
    2.4999999999971650E-01     1.8750000000048361E-01     0.0000000000000000E+00 
    2.4999999999981831E-01     2.5000000000063310E-01     0.0000000000000000E+00 
    2.4999999999992020E-01     3.1250000000078260E-01     0.0000000000000000E+00 
    2.5000000000002198E-01     3.7500000000093209E-01     0.0000000000000000E+00 
    2.5000000000012390E-01     4.3750000000108180E-01     0.0000000000000000E+00 
    2.5000000000022571E-01     5.0000000000121769E-01     0.0000000000000000E+00 
    2.5000000000032763E-01     5.6250000000094724E-01     0.0000000000000000E+00 
    2.5000000000042938E-01     6.2500000000066314E-01     0.0000000000000000E+00 
    2.5000000000053119E-01     6.8750000000037925E-01     0.0000000000000000E+00 
[...]
CELL_DATA 256 
SCALARS Pressure double 1 
LOOKUP_TABLE default 

    8.4668617008591140E-01 
    7.9513195574393036E-01 
    7.6067551931037891E-01 
    7.2839799991063769E-01 
    6.9498927092266727E-01 
    6.5970698414669016E-01 
    6.2239978771239890E-01 
    5.8322767218737492E-01 
    5.4258400732748957E-01 
    5.0114462550491923E-01 
    4.6002132985069683E-01 
    4.2099327101322320E-01 
    3.8662653257787855E-01 
    3.5924726223021713E-01 
    3.3821518218853502E-01 
    3.2839078919490677E-01 
    8.3274354707535969E-01 
    7.9659334194360520E-01 
    7.6332059758520798E-01 
    7.3133747245734659E-01 
    6.9818457476742668E-01 
    6.6314668579649094E-01 
    6.2605717119997784E-01 
    5.8704949482870861E-01 
    5.4648459408009431E-01 
    5.0499211965196944E-01 
    4.6361454280861747E-01 
    4.2404758592387848E-01 
    3.8883188185970374E-01 
    3.6049729325481433E-01 
    3.3853972517252034E-01 
    3.2797952650829654E-01 
    8.2202152095236825E-01 
    7.9586202538964490E-01 
    7.6516115454627953E-01 
    7.3389039317083749E-01 
    7.0112708232083776E-01 
    6.6638798666843269E-01 
    6.2954153051486039E-01 
    5.9070387834010507E-01 
    5.5019929935437595E-01 
    5.0860058289833099E-01 
    4.6686454892372725E-01 
    4.2658285306159205E-01 
    3.9025296100833734E-01 
    3.6064273886858622E-01 
    3.3760726100839233E-01 
    3.2647607853252164E-01 
    8.1351776663709208E-01 
    7.9398328902709991E-01 
    7.6623229069629151E-01 
    7.3604027337014932E-01 
    7.0381984633922789E-01 
    6.6944074610960591E-01 
    6.3286222517384494E-01 
    5.9420256140958028E-01 
    5.5375052570025696E-01 
    5.1201112800129545E-01 
    4.6983564042287174E-01 
    4.2868280700056349E-01 
    3.9097458084955361E-01 
    3.5971972808038449E-01 
    3.3537297050451109E-01 
    3.2369858555539360E-01 
    8.0657867590278520E-01 
    7.9153518806985923E-01 
    7.6666093623711939E-01 
    7.3779510933016068E-01 
    7.0626726819413810E-01 
    6.7231915548395149E-01 
    6.3603783700547545E-01 
    5.9756694207884631E-01 
    5.5716729468458381E-01 
    5.1526942351577243E-01 
    4.7259804771935815E-01 
    4.3044293875962852E-01 
    3.9110006365903588E-01 
    3.5779271935600448E-01 
    3.3179770877307824E-01 
    3.1945225844974040E-01 
    8.0083810489743745E-01 
    7.8887460536460130E-01 
    7.6660224203332772E-01 
    7.3919105052360279E-01 
    7.0848098498065692E-01 
    6.7503858722211185E-01 
    6.3909153503962657E-01 
    6.0082620153443911E-01 
    5.6048502986372195E-01 
    5.1842375388249895E-01 
    4.7522424767091714E-01 
    4.3196727582362032E-01 
    3.9074972536115804E-01 
    3.5493990403376091E-01 
    3.2680611944819488E-01 
    3.1346703253449104E-01 
    7.9606162408802172E-01 
    7.8623215990361017E-01 
    7.6621890075191090E-01 
    7.4029197394435287E-01 
    7.1048708268073868E-01 
    6.7761729133376525E-01 
    6.4204589070262119E-01 
    6.0401041587121196E-01 
    5.6374177770802891E-01 
    5.2152467956789494E-01 
    4.7778890366274690E-01 
    4.3336694224593619E-01 
    3.9006247333025118E-01 
    3.5126041453099638E-01 
    3.2028360780627330E-01 
    3.0533899040211965E-01 
    7.9208214969191904E-01 
    7.8375171288582601E-01 
    7.6565671722224071E-01 
    7.4117221116421894E-01 
    7.1232108628582358E-01 
    6.8007738294133391E-01 
    6.4492210971956754E-01 
    6.0714585017177680E-01 
    5.6697386562416519E-01 
    5.2462427151228574E-01 
    4.8037101831472184E-01 
    4.3476425795192758E-01 
    3.8920597584883376E-01 
    3.4689892856489857E-01 
    3.1212212730328048E-01 
    2.9453408354004507E-01 
    7.8878185726701255E-01 
    7.8152021697457408E-01 
    7.6503538149165951E-01 
    7.4190787808895609E-01 
    7.1402470786049788E-01 
    6.8244425814372067E-01 
    6.4773942965731357E-01 
    6.1025343797157716E-01 
    5.7021179827013480E-01 
    5.2777168956837905E-01 
    4.8305019826062290E-01 
    4.3629045881258616E-01 
    3.8838115233396675E-01 
    3.4206607630324432E-01 
    3.0229085527072758E-01 
    2.8051047327254330E-01 
    7.8607470036796390E-01 
    7.7958608158095544E-01 
    7.6444678002464328E-01 
    7.4257087727921955E-01 
    7.1564480024708721E-01 
    6.8474776369692825E-01 
    6.5051774521952321E-01 
    6.1335171458000937E-01 
    5.7348193146845627E-01 
    5.3101111716682137E-01 
    4.8590227085147242E-01 
    4.3808093445623686E-01 
    3.8782220408064844E-01 
    3.3706028696492302E-01 
    2.9087523269875770E-01 
    2.6277588419304354E-01 
    7.8389968082958905E-01 
    7.7798061050970480E-01 
    7.6396907177486284E-01 
    7.4323325524824857E-01 
    7.1723516921559205E-01 
    6.8702633221918741E-01 
    6.5328394400738909E-01 
    6.1646237254431480E-01 
    5.7680834771821332E-01 
    5.3437828905372764E-01 
    4.8899125931863213E-01 
    4.4026671834122094E-01 
    3.8779131203900036E-01 
    3.3229192314192546E-01 
    2.7810779490053283E-01 
    2.4068283608493543E-01 
    7.8221967063496511E-01 
    7.7673789425453166E-01 
    7.6367930458758226E-01 
    7.4396966311945467E-01 
    7.1885530414902199E-01 
    6.8932814980176726E-01 
    6.5607555666594197E-01 
    6.1960950112253921E-01 
    5.8020422943172045E-01 
    5.3788394439554810E-01 
    4.9234492873325586E-01 
    4.4294401300690150E-01 
    3.8854713818012299E-01 
    3.2828442195318019E-01 
    2.6444976968541672E-01 
    2.1334300667213324E-01 
    7.8100424108553645E-01 
    7.7589017789468917E-01 
    7.6364741090547639E-01 
    7.4484834023082935E-01 
    7.2055732399919337E-01 
    6.9169529604202473E-01 
    6.5892109130634646E-01 
    6.2278556497256798E-01 
    5.8359125038277804E-01 
    5.4138473188680925E-01 
    4.9579422538012413E-01 
    4.4598429032025216E-01 
    3.9014374649523559E-01 
    3.2548214468877068E-01 
    2.5053158962805233E-01 
    1.7935621415749167E-01 
    7.8006720112872119E-01 
    7.7533538965900473E-01 
    7.6384224617506169E-01 
    7.4584969407051926E-01 
    7.2227830503869916E-01 
    6.9402566009409172E-01 
    6.6171572873483564E-01 
    6.2588804045434954E-01 
    5.8687431058949135E-01 
    5.4479739166135166E-01 
    4.9931210779041890E-01 
    4.4939259764354728E-01 
    3.9265763582531810E-01 
    3.2427065728126098E-01 
    2.3706849536690866E-01 
    1.3598261137488168E-01 
    7.7942816810012250E-01 
    7.7502208043462151E-01 
    7.6420149980880092E-01 
    7.4693947354772683E-01 
    7.2400992657084318E-01 
    6.9631290349023423E-01 
    6.6448365830193712E-01 
    6.2902232034187455E-01 
    5.9028856067831492E-01 
    5.4844575112561800E-01 
    5.0319605604498729E-01 
    4.5342861539619045E-01 
    3.9655109463862909E-01 
    3.2621477710538871E-01 
    2.2702148386583254E-01 
    7.8506806234732357E-02 
    7.7924601023064177E-01 
    7.7519708462155967E-01 
    7.6498269663049245E-01 
    7.4837784077660707E-01 
    7.2604092825631750E-01 
    6.9885566525285781E-01 
    6.6748489570580827E-01 
    6.3241397834055590E-01 
    5.9401797296697723E-01 
    5.5247612441107308E-01 
    5.0752222000180502E-01 
    4.5809893784972705E-01 
    4.0170417059992797E-01 
    3.3199613056820487E-01 
    2.2793677981233784E-01 
    0.0000000000000000E+00 

SCALARS Saturarion double 1 
LOOKUP_TABLE default 

    1.0000000000000013E+00 
    9.6792369606757811E-01 
    9.1192674766995918E-01 
    8.4282306899918402E-01 
    7.8416429598762594E-01 
    7.3498798910666652E-01 
    6.9444301965297139E-01 
    6.6040617469202534E-01 
    6.3055711404211334E-01 
    6.0300102944025469E-01 
    5.7642032316202885E-01 
    5.4990997676858433E-01 
    5.2166078352973244E-01 
    4.6627414945687135E-01 
    1.8871499772706171E-01 
    1.0652416218126626E-06 
    9.8701450265994661E-01 
    9.5661195541269883E-01 
    8.9797904494926828E-01 
    8.3358748211120648E-01 
    7.7878246936540507E-01 
    7.3169106610504020E-01 
    6.9176029043171416E-01 
    6.5774405501504618E-01 
    6.2807165279218791E-01 
    6.0107616560383814E-01 
    5.7540972463688300E-01 
    5.4993491471386158E-01 
    5.2273826446678984E-01 
    4.7006021450911711E-01 
    2.1348476874251435E-01 
    4.3293513062200899E-05 
    9.6662071974652353E-01 
    9.3695781773597042E-01 
    8.7877903345138120E-01 
    8.1799639976589733E-01 
    7.6791877957898802E-01 
    7.2446515663545075E-01 
    6.8612274969845244E-01 
    6.5233232176269851E-01 
    6.2278652110156185E-01 
    5.9655231883925031E-01 
    5.7236271532982308E-01 
    5.4860801522179514E-01 
    5.2317325859526542E-01 
    4.7599036118946730E-01 
    2.4723170785260951E-01 
    3.6942485575485996E-04 
    9.3084208657887735E-01 
    9.0684784969089816E-01 
    8.5560898779436301E-01 
    7.9930071885778808E-01 
    7.5167972328874844E-01 
    7.1205273394770074E-01 
    6.7700603088947342E-01 
    6.4551617704733388E-01 
    6.1728291339014019E-01 
    5.9211507997054913E-01 
    5.6901985799336618E-01 
    5.4673469797737917E-01 
    5.2340704932288118E-01 
    4.8177893643040243E-01 
    2.8887806159244750E-01 
    2.3106178847310073E-03 
    8.9025142910200705E-01 
    8.7001306179794091E-01 
    8.2560738837734060E-01 
    7.7565771751541912E-01 
    7.3161677331632924E-01 
    6.9483323822499887E-01 
    6.6331268479727001E-01 
    6.3533038965888355E-01 
    6.1007125907783355E-01 
    5.8704706247419858E-01 
    5.6569197732949394E-01 
    5.4502570363494995E-01 
    5.2353635579618674E-01 
    4.8711643673757687E-01 
    3.2793231980550930E-01 
    8.4894878829776897E-03 
    8.4787355529181541E-01 
    8.3146129334665964E-01 
    7.9408788541531716E-01 
    7.5052976139912275E-01 
    7.1051150971388188E-01 
    6.7607423486722351E-01 
    6.4670876705144209E-01 
    6.2163088214431583E-01 
    5.9946283908704023E-01 
    5.7912974741979983E-01 
    5.6013313157961420E-01 
    5.4200629630433039E-01 
    5.2323516945033788E-01 
    4.9150428000877100E-01 
    3.5700392195962000E-01 
    2.4160645088561448E-02 
    8.0390551544702860E-01 
    7.9206374956123615E-01 
    7.6202218101073049E-01 
    7.2436050817458530E-01 
    6.8834414005679856E-01 
    6.5664611606633905E-01 
    6.2960237301658872E-01 
    6.0637232935595164E-01 
    5.8635151522237272E-01 
    5.6856783614723194E-01 
    5.5226274479475423E-01 
    5.3686309356445627E-01 
    5.2137991756663826E-01 
    4.9516409342999801E-01 
    3.8235023470926710E-01 
    5.3311826587358162E-02 
    7.5846494192059721E-01 
    7.5140077709005948E-01 
    7.2895457543106246E-01 
    6.9726082493382047E-01 
    6.6493243659676393E-01 
    6.3592069148676034E-01 
    6.1078354653575184E-01 
    5.8935167776423614E-01 
    5.7115535117485983E-01 
    5.5575058054015236E-01 
    5.4222044212790466E-01 
    5.2985604995110391E-01 
    5.1775155967309705E-01 
    4.9787784385365652E-01 
    4.0362633258287933E-01 
    9.9511532864949653E-02 
    7.1167599993745834E-01 
    7.0886547575440484E-01 
    6.9324874865379782E-01 
    6.6780325450874811E-01 
    6.3997465164789302E-01 
    6.1375998231593676E-01 
    5.9037333363778655E-01 
    5.6997452935510184E-01 
    5.5307000670077089E-01 
    5.3967123864920274E-01 
    5.2914131960115196E-01 
    5.2032146259029932E-01 
    5.1208575046689886E-01 
    4.9848402282710724E-01 
    4.2226846703007526E-01 
    1.4335709512584358E-01 
    6.6350127824877547E-01 
    6.6439931056685086E-01 
    6.5484709971519373E-01 
    6.3529969723130997E-01 
    6.1242640326495890E-01 
    5.8976388779000932E-01 
    5.6840539385312083E-01 
    5.4939989449443694E-01 
    5.3384220077030153E-01 
    5.2200401365842386E-01 
    5.1319768729549209E-01 
    5.0745641535765618E-01 
    5.0378914893223536E-01 
    4.9708691694188700E-01 
    4.3756345192759566E-01 
    1.8381918699632810E-01 
    6.1433409141741624E-01 
    6.1831185767636521E-01 
    6.1418624745892514E-01 
    6.0023131109243000E-01 
    5.8230973415107468E-01 
    5.6374021462068813E-01 
    5.4587239740563376E-01 
    5.2920087502379465E-01 
    5.1485513833862462E-01 
    5.0336201901908273E-01 
    4.9469735088451505E-01 
    4.9031889866270928E-01 
    4.9126574863242300E-01 
    4.9230213103205900E-01 
    4.5030762016403231E-01 
    2.2229933638908431E-01 
    5.6662748711069288E-01 
    5.7262999526899827E-01 
    5.7324743198279726E-01 
    5.6434681772426476E-01 
    5.5019322474017440E-01 
    5.3505131787097160E-01 
    5.2105513631197664E-01 
    5.0733036763864947E-01 
    4.9273656161947965E-01 
    4.7915882578768432E-01 
    4.6764848425198696E-01 
    4.6333338182127154E-01 
    4.6933904370321466E-01 
    4.8063355086494242E-01 
    4.5933767470753478E-01 
    2.5875163918803418E-01 
    5.1452039013800654E-01 
    5.2454942343481981E-01 
    5.2874899027003464E-01 
    5.2429867819120002E-01 
    5.1217627737002813E-01 
    4.9780280483883538E-01 
    4.8396020119174216E-01 
    4.6819440673346785E-01 
    4.3990272094696481E-01 
    3.8949452142630064E-01 
    3.3978477190420447E-01 
    3.3042881388564799E-01 
    3.7394185216405823E-01 
    4.3936016915149095E-01 
    4.5346105041202045E-01 
    2.9232842959534339E-01 
    3.4385469010392966E-01 
    4.0260201325169159E-01 
    4.3112409079027819E-01 
    4.3374922359685414E-01 
    4.1195933033544752E-01 
    3.5325727766344062E-01 
    2.8094446391894923E-01 
    2.1991829974767318E-01 
    1.3173362546012013E-01 
    4.0935368014753837E-02 
    1.3668020581820929E-02 
    1.3320547291830079E-02 
    9.4951326523351462E-02 
    2.8790630116484228E-01 
    4.1027868211971591E-01 
    3.1270889430164717E-01 
    7.5097211108675378E-03 
    5.9570569003274509E-02 
    8.6364658596279231E-02 
    8.7450101967915042E-02 
    5.4872232237794721E-02 
    1.3477371262112754E-02 
    1.7078764806572344E-03 
    1.4593452569535545E-04 
    2.9757877895249162E-05 
    1.3077103071665944E-05 
    1.4696610297385133E-06 
    1.4709965140174110E-06 
    4.7075936881317868E-04 
    6.3195002440829789E-02 
    3.1311637186524216E-01 
    3.2002527138526388E-01 
    1.0000632719372115E-06 
    3.0152323306840547E-05 
    3.5371105458730729E-06 
    3.6578128394158716E-06 
    1.4027191435332911E-05 
    2.6546819868475715E-06 
    1.0210312695954077E-06 
    1.0003623973595492E-06 
    1.0000638758887407E-06 
    1.0000052978019975E-06 
    1.0000000395668895E-06 
    1.0000000745274163E-06 
    1.0916360731321485E-06 
    5.9794313857296482E-04 
    1.8007305834106815E-01 
    2.8808088324290304E-01 
