# vtk DataFile Version 2.0
Pressure Field Data 
ASCII 
DATASET UNSTRUCTURED_GRID 

POINTS 289 double 

    0.0000000000000000E+00     0.0000000000000000E+00     0.0000000000000000E+00 
    1.0000000000000000E+00     0.0000000000000000E+00     0.0000000000000000E+00 
    1.0000000000000000E+00     1.0000000000000000E+00     0.0000000000000000E+00 
    0.0000000000000000E+00     1.0000000000000000E+00     0.0000000000000000E+00 
    6.2499999999872928E-02     0.0000000000000000E+00     0.0000000000000000E+00 
    1.2499999999977310E-01     0.0000000000000000E+00     0.0000000000000000E+00 
    1.8749999999959341E-01     0.0000000000000000E+00     0.0000000000000000E+00 
    2.4999999999941089E-01     0.0000000000000000E+00     0.0000000000000000E+00 
    3.1249999999922851E-01     0.0000000000000000E+00     0.0000000000000000E+00 
    3.7499999999904610E-01     0.0000000000000000E+00     0.0000000000000000E+00 
    4.3749999999886358E-01     0.0000000000000000E+00     0.0000000000000000E+00 
    4.9999999999869210E-01     0.0000000000000000E+00     0.0000000000000000E+00 
    5.6249999999884603E-01     0.0000000000000000E+00     0.0000000000000000E+00 
    6.2499999999901090E-01     0.0000000000000000E+00     0.0000000000000000E+00 
    6.8749999999917577E-01     0.0000000000000000E+00     0.0000000000000000E+00 
    7.4999999999934064E-01     0.0000000000000000E+00     0.0000000000000000E+00 
    8.1249999999950551E-01     0.0000000000000000E+00     0.0000000000000000E+00 
    8.7499999999967026E-01     0.0000000000000000E+00     0.0000000000000000E+00 
    9.3749999999983513E-01     0.0000000000000000E+00     0.0000000000000000E+00 
    1.0000000000000000E+00     6.2499999999872928E-02     0.0000000000000000E+00 
    1.0000000000000000E+00     1.2499999999977310E-01     0.0000000000000000E+00 
    1.0000000000000000E+00     1.8749999999959341E-01     0.0000000000000000E+00 
    1.0000000000000000E+00     2.4999999999941089E-01     0.0000000000000000E+00 
    1.0000000000000000E+00     3.1249999999922851E-01     0.0000000000000000E+00 
    1.0000000000000000E+00     3.7499999999904610E-01     0.0000000000000000E+00 
    1.0000000000000000E+00     4.3749999999886358E-01     0.0000000000000000E+00 
    1.0000000000000000E+00     4.9999999999869210E-01     0.0000000000000000E+00 
    1.0000000000000000E+00     5.6249999999884603E-01     0.0000000000000000E+00 
    1.0000000000000000E+00     6.2499999999901090E-01     0.0000000000000000E+00 
    1.0000000000000000E+00     6.8749999999917577E-01     0.0000000000000000E+00 
    1.0000000000000000E+00     7.4999999999934064E-01     0.0000000000000000E+00 
    1.0000000000000000E+00     8.1249999999950551E-01     0.0000000000000000E+00 
    1.0000000000000000E+00     8.7499999999967026E-01     0.0000000000000000E+00 
    1.0000000000000000E+00     9.3749999999983513E-01     0.0000000000000000E+00 
    9.3749999999973976E-01     1.0000000000000000E+00     0.0000000000000000E+00 
    8.7499999999950118E-01     1.0000000000000000E+00     0.0000000000000000E+00 
    8.1249999999991318E-01     1.0000000000000000E+00     0.0000000000000000E+00 
    7.5000000000034706E-01     1.0000000000000000E+00     0.0000000000000000E+00 
    6.8750000000078049E-01     1.0000000000000000E+00     0.0000000000000000E+00 
    6.2500000000121403E-01     1.0000000000000000E+00     0.0000000000000000E+00 
    5.6250000000164757E-01     1.0000000000000000E+00     0.0000000000000000E+00 
    5.0000000000205946E-01     1.0000000000000000E+00     0.0000000000000000E+00 
    4.3750000000182099E-01     1.0000000000000000E+00     0.0000000000000000E+00 
    3.7500000000156092E-01     1.0000000000000000E+00     0.0000000000000000E+00 
    3.1250000000130068E-01     1.0000000000000000E+00     0.0000000000000000E+00 
    2.5000000000104050E-01     1.0000000000000000E+00     0.0000000000000000E+00 
    1.8750000000078040E-01     1.0000000000000000E+00     0.0000000000000000E+00 
    1.2500000000052031E-01     1.0000000000000000E+00     0.0000000000000000E+00 
    6.2500000000260125E-02     1.0000000000000000E+00     0.0000000000000000E+00 
    0.0000000000000000E+00     9.3749999999973976E-01     0.0000000000000000E+00 
    0.0000000000000000E+00     8.7499999999950118E-01     0.0000000000000000E+00 
    0.0000000000000000E+00     8.1249999999991318E-01     0.0000000000000000E+00 
    0.0000000000000000E+00     7.5000000000034706E-01     0.0000000000000000E+00 
    0.0000000000000000E+00     6.8750000000078049E-01     0.0000000000000000E+00 
    0.0000000000000000E+00     6.2500000000121403E-01     0.0000000000000000E+00 
    0.0000000000000000E+00     5.6250000000164757E-01     0.0000000000000000E+00 
    0.0000000000000000E+00     5.0000000000205946E-01     0.0000000000000000E+00 
    0.0000000000000000E+00     4.3750000000182099E-01     0.0000000000000000E+00 
    0.0000000000000000E+00     3.7500000000156092E-01     0.0000000000000000E+00 
    0.0000000000000000E+00     3.1250000000130068E-01     0.0000000000000000E+00 
    0.0000000000000000E+00     2.5000000000104050E-01     0.0000000000000000E+00 
    0.0000000000000000E+00     1.8750000000078040E-01     0.0000000000000000E+00 
    0.0000000000000000E+00     1.2500000000052031E-01     0.0000000000000000E+00 
    0.0000000000000000E+00     6.2500000000260125E-02     0.0000000000000000E+00 
    6.2499999999897131E-02     6.2500000000235922E-02     0.0000000000000000E+00 
    6.2499999999921327E-02     1.2500000000047351E-01     0.0000000000000000E+00 
    6.2499999999945530E-02     1.8750000000070621E-01     0.0000000000000000E+00 
    6.2499999999969733E-02     2.5000000000093858E-01     0.0000000000000000E+00 
    6.2499999999993928E-02     3.1250000000117117E-01     0.0000000000000000E+00 
    6.2500000000018124E-02     3.7500000000140382E-01     0.0000000000000000E+00 
    6.2500000000042327E-02     4.3750000000163619E-01     0.0000000000000000E+00 
    6.2500000000066530E-02     5.0000000000184897E-01     0.0000000000000000E+00 
    6.2500000000090733E-02     5.6250000000147260E-01     0.0000000000000000E+00 
    6.2500000000114922E-02     6.2500000000107636E-01     0.0000000000000000E+00 
    6.2500000000139125E-02     6.8750000000068034E-01     0.0000000000000000E+00 
    6.2500000000163328E-02     7.5000000000028411E-01     0.0000000000000000E+00 
    6.2500000000187531E-02     8.1249999999988787E-01     0.0000000000000000E+00 
    6.2500000000211720E-02     8.7499999999951172E-01     0.0000000000000000E+00 
    6.2500000000235922E-02     9.3749999999974565E-01     0.0000000000000000E+00 
    1.2499999999981980E-01     6.2500000000211733E-02     0.0000000000000000E+00 
    1.2499999999986650E-01     1.2500000000042691E-01     0.0000000000000000E+00 
    1.2499999999991319E-01     1.8750000000063199E-01     0.0000000000000000E+00 
    1.2499999999995989E-01     2.5000000000083678E-01     0.0000000000000000E+00 
    1.2500000000000661E-01     3.1250000000104172E-01     0.0000000000000000E+00 
    1.2500000000005329E-01     3.7500000000124661E-01     0.0000000000000000E+00 
    1.2500000000010000E-01     4.3750000000145117E-01     0.0000000000000000E+00 
    1.2500000000014669E-01     5.0000000000163858E-01     0.0000000000000000E+00 
    1.2500000000019340E-01     5.6250000000129741E-01     0.0000000000000000E+00 
    1.2500000000024011E-01     6.2500000000093847E-01     0.0000000000000000E+00 
    1.2500000000028680E-01     6.8750000000057998E-01     0.0000000000000000E+00 
    1.2500000000033351E-01     7.5000000000022127E-01     0.0000000000000000E+00 
    1.2500000000038020E-01     8.1249999999986211E-01     0.0000000000000000E+00 
    1.2500000000042691E-01     8.7499999999952238E-01     0.0000000000000000E+00 
    1.2500000000047359E-01     9.3749999999975164E-01     0.0000000000000000E+00 
    1.8749999999966760E-01     6.2500000000187531E-02     0.0000000000000000E+00 
    1.8749999999974179E-01     1.2500000000038020E-01     0.0000000000000000E+00 
    1.8749999999981601E-01     1.8750000000055780E-01     0.0000000000000000E+00 
    1.8749999999989009E-01     2.5000000000073502E-01     0.0000000000000000E+00 
    1.8749999999996431E-01     3.1250000000091221E-01     0.0000000000000000E+00 
    1.8750000000003850E-01     3.7500000000108941E-01     0.0000000000000000E+00 
    1.8750000000011269E-01     4.3750000000126649E-01     0.0000000000000000E+00 
    1.8750000000018691E-01     5.0000000000142808E-01     0.0000000000000000E+00 
    1.8750000000026110E-01     5.6250000000112244E-01     0.0000000000000000E+00 
    1.8750000000033529E-01     6.2500000000080080E-01     0.0000000000000000E+00 
    1.8750000000040951E-01     6.8750000000047962E-01     0.0000000000000000E+00 
    1.8750000000048361E-01     7.5000000000015843E-01     0.0000000000000000E+00 
    1.8750000000055780E-01     8.1249999999983680E-01     0.0000000000000000E+00 
    1.8750000000063199E-01     8.7499999999953304E-01     0.0000000000000000E+00 
    1.8750000000070621E-01     9.3749999999975764E-01     0.0000000000000000E+00 
    2.4999999999951281E-01     6.2500000000163314E-02     0.0000000000000000E+00 
    2.4999999999961461E-01     1.2500000000033351E-01     0.0000000000000000E+00 
    2.4999999999971650E-01     1.8750000000048361E-01     0.0000000000000000E+00 
    2.4999999999981831E-01     2.5000000000063310E-01     0.0000000000000000E+00 
    2.4999999999992020E-01     3.1250000000078260E-01     0.0000000000000000E+00 
    2.5000000000002198E-01     3.7500000000093209E-01     0.0000000000000000E+00 
    2.5000000000012390E-01     4.3750000000108180E-01     0.0000000000000000E+00 
    2.5000000000022571E-01     5.0000000000121769E-01     0.0000000000000000E+00 
    2.5000000000032763E-01     5.6250000000094724E-01     0.0000000000000000E+00 
    2.5000000000042938E-01     6.2500000000066314E-01     0.0000000000000000E+00 
    2.5000000000053119E-01     6.8750000000037925E-01     0.0000000000000000E+00 
[...]
CELL_DATA 256 
SCALARS Pressure double 1 
LOOKUP_TABLE default 

    7.3237724636653756E-01 
    6.8198261414820738E-01 
    6.4933045703471493E-01 
    6.1943914025622016E-01 
    5.8893479567196205E-01 
    5.5700878654208208E-01 
    5.2343517162577446E-01 
    4.8829450378088107E-01 
    4.5189653541480140E-01 
    4.1482211764898552E-01 
    3.7804903233133885E-01 
    3.4312221718303704E-01 
    3.1226095928424891E-01 
    2.8817851378237480E-01 
    2.7261679475417749E-01 
    2.6504831915520721E-01 
    7.1840900541755259E-01 
    6.8332198082988749E-01 
    6.5179993246260270E-01 
    6.2215881455457400E-01 
    5.9186298719840091E-01 
    5.6013278905279795E-01 
    5.2673654296976002E-01 
    4.9173376102429084E-01 
    4.5540364307849485E-01 
    4.1828255254207292E-01 
    3.8128584110947356E-01 
    3.4588635238674031E-01 
    3.1426020877962468E-01 
    2.8919733997939068E-01 
    2.7274358660496134E-01 
    2.6460198219586051E-01 
    7.0768660265012440E-01 
    6.8251020188503264E-01 
    6.5350457153829000E-01 
    6.2453335896782958E-01 
    5.9458198847413413E-01 
    5.6309978578751618E-01 
    5.2990143627489783E-01 
    4.9503894853403452E-01 
    4.5875934753604075E-01 
    4.2154555911582231E-01 
    3.8423536682738590E-01 
    3.4821253040211014E-01 
    3.1560607306908750E-01 
    2.8931454244776184E-01 
    2.7180741185445945E-01 
    2.6313195036945120E-01 
    6.9924563239715953E-01 
    6.8060332103312260E-01 
    6.5448417303151263E-01 
    6.2654175532068568E-01 
    5.9708774256034247E-01 
    5.6591696073695952E-01 
    5.3294081014732653E-01 
    4.9822342223345972E-01 
    4.6198370802425998E-01 
    4.2464457835580943E-01 
    3.8695048665160864E-01 
    3.5017225145490954E-01 
    3.1637088948639247E-01 
    2.8856456363476718E-01 
    2.6975028454316230E-01 
    2.6047253650397223E-01 
    6.9243939140483901E-01 
    6.7818938679229468E-01 
    6.5487032626490882E-01 
    6.2819187944721666E-01 
    5.9937815389156179E-01 
    5.6859051635232150E-01 
    5.3586805463264853E-01 
    5.0130563801329930E-01 
    4.6510212300694093E-01 
    4.2761775576340905E-01 
    3.8948909161696071E-01 
    3.5184502770802284E-01 
    3.1663943106221970E-01 
    2.8699308354746367E-01 
    2.6651762121202499E-01 
    2.5646088330115208E-01 
    6.8687565418611507E-01 
    6.7561537989805587E-01 
    6.5481458599017817E-01 
    6.2951715867155078E-01 
    6.0145882933151729E-01 
    5.7112591148799352E-01 
    5.3869567088320891E-01 
    5.0430635001076241E-01 
    4.6814436260699049E-01 
    4.3050768621571994E-01 
    3.9191368816455696E-01 
    3.5331799548376985E-01 
    3.1651083907382405E-01 
    2.8466157888410626E-01 
    2.6205386010927112E-01 
    2.5090817219763384E-01 
    6.8229977066481617E-01 
    6.7309619602910198E-01 
    6.5446902968149623E-01 
    6.3057478190207950E-01 
    6.0335117917445114E-01 
    5.7353436035433536E-01 
    5.4143569660952118E-01 
    5.0724482563440165E-01 
    4.7114051182555955E-01 
    4.3335947503971484E-01 
    3.9429114854734487E-01 
    3.5468695323009375E-01 
    3.1610200842137126E-01 
    2.8165697642677373E-01 
    2.5631254180932589E-01 
    2.4359644407683176E-01 
    6.7853045092120934E-01 
    6.7076101811936706E-01 
    6.5396856150378890E-01 
    6.3143297054267544E-01 
    6.0508737247821986E-01 
    5.7583339175986126E-01 
    5.4410203362864140E-01 
    5.1013795153641472E-01 
    4.7411739248030460E-01 
    4.3621619628733527E-01 
    3.9669034458528302E-01 
    3.5605737948676253E-01 
    3.1555312747624387E-01 
    2.7810293879621983E-01 
    2.4927085763803422E-01 
    2.3427506788565838E-01 
    6.7543901862309130E-01 
    6.6868500818262089E-01 
    6.5342382140979482E-01 
    6.3216184829651145E-01 
    6.0670457033270220E-01 
    5.7804426690807809E-01 
    5.4670968775810180E-01 
    5.1300046636452878E-01 
    4.7709525896625649E-01 
    4.3911343256781132E-01 
    3.9917601985748796E-01 
    3.5754108530901663E-01 
    3.1503152817464963E-01 
    2.7417200827636978E-01 
    2.4093383190228179E-01 
    2.2262436248752723E-01 
    6.7293138445077794E-01 
    6.6690736559712838E-01 
    6.5291849796289425E-01 
    6.3282614273670457E-01 
    6.0824309565122492E-01 
    5.8019169302071660E-01 
    5.4927516754706396E-01 
    5.1584606297277447E-01 
    4.8009004437568559E-01 
    4.4207866403513196E-01 
    4.0180416862182206E-01 
    3.5924947870973872E-01 
    3.1473016000422971E-01 
    2.7010162540904259E-01 
    2.3135599947830837E-01 
    2.0821478504398766E-01 
    6.7093712545013318E-01 
    6.6544859602870576E-01 
    6.5251974567642612E-01 
    6.3348768218780127E-01 
    6.0974753709918816E-01 
    5.8230594174350958E-01 
    5.5181910565658243E-01 
    5.1869078121703838E-01 
    4.8311810691137508E-01 
    4.4513578286024880E-01 
    4.0462264187408109E-01 
    3.6128966967212672E-01 
    3.1486663252797592E-01 
    2.6621646304277669E-01 
    2.2069590459322902E-01 
    1.9048589268735180E-01 
    6.6940052133915906E-01 
    6.6432232294542615E-01 
    6.5228573583307659E-01 
    6.3420682069742018E-01 
    6.1126677641896732E-01 
    5.8442376497374082E-01 
    5.5436883035628348E-01 
    5.2155607362286549E-01 
    4.8619984029446389E-01 
    4.4830780844632084E-01 
    4.0767006210348089E-01 
    3.6375584769833103E-01 
    3.1567645570595848E-01 
    2.6294218870322256E-01 
    2.0927127400356982E-01 
    1.6865787932703874E-01 
    6.6829143273985170E-01 
    6.6355137630948346E-01 
    6.5227491331779341E-01 
    6.3504646292057132E-01 
    6.1285415122960962E-01 
    5.8658679301356575E-01 
    5.5695550767515911E-01 
    5.2446542908448535E-01 
    4.8935242536069534E-01 
    4.5160962221589951E-01 
    4.1096822992995452E-01 
    3.6671102426725816E-01 
    3.1738312483022668E-01 
    2.6083921885633571E-01 
    1.9774246267344037E-01 
    1.4160220421547426E-01 
    6.6756273712715897E-01 
    6.6313856155761464E-01 
    6.5252787466161977E-01 
    6.3605793226301777E-01 
    6.1455531260906215E-01 
    5.8882700550294431E-01 
    5.5959523997853911E-01 
    5.2740833818004085E-01 
    4.9252624003759848E-01 
    4.5495573551907126E-01 
    4.1441485160685476E-01 
    3.7006473922084404E-01 
    3.2002911102105824E-01 
    2.6041663322156616E-01 
    1.8722609143638741E-01 
    1.0754623770231873E-01 
    6.6704455128029561E-01 
    6.6293612832818627E-01 
    6.5294572693170261E-01 
    6.3717368979824363E-01 
    6.1630823091992604E-01 
    5.9108858635414774E-01 
    5.6223719544002948E-01 
    5.3033640828109530E-01 
    4.9566938344546785E-01 
    4.5829724077162509E-01 
    4.1796941429510465E-01 
    3.7378759339751300E-01 
    3.2359639464412887E-01 
    2.6206221782746891E-01 
    1.7939707203351918E-01 
    6.3107037959558701E-02 
    6.6686159624725339E-01 
    6.6308214300743007E-01 
    6.5366398286826444E-01 
    6.3850991823210845E-01 
    6.1820495371117412E-01 
    5.9345585627740849E-01 
    5.6498116609575255E-01 
    5.3338373352888258E-01 
    4.9897111857595744E-01 
    4.6185062433251861E-01 
    4.2180866243962478E-01 
    3.7798077389476364E-01 
    3.2826048588780132E-01 
    2.6680346588186782E-01 
    1.7896095389770816E-01 
    0.0000000000000000E+00 

SCALARS Saturarion double 1 
LOOKUP_TABLE default 

    1.0000000000000007E+00 
    9.7415998254488134E-01 
    9.2749306771625994E-01 
    8.6704016319919308E-01 
    8.1608773443363869E-01 
    7.7175728099540231E-01 
    7.3382119620043784E-01 
    7.0132296176542364E-01 
    6.7288433090917188E-01 
    6.4711292101149731E-01 
    6.2265852642195374E-01 
    5.9806810866399007E-01 
    5.7138008428305487E-01 
    5.4014036330669546E-01 
    4.6616929532299423E-01 
    1.2112795276563386E-01 
    9.9005670268424428E-01 
    9.6556850033156838E-01 
    9.1669363721111263E-01 
    8.5933479572596883E-01 
    8.1063352191541860E-01 
    7.6818239802460797E-01 
    7.3128633324071868E-01 
    6.9920546056560962E-01 
    6.7100728675170662E-01 
    6.4554423192509292E-01 
    6.2170964963323694E-01 
    5.9810757906962053E-01 
    5.7259036452956935E-01 
    5.4231004133830008E-01 
    4.7216097704258642E-01 
    1.5513888563534811E-01 
    9.7439285264756648E-01 
    9.5004468901736649E-01 
    9.0113829848577720E-01 
    8.4593208527158503E-01 
    7.9992492223770895E-01 
    7.6061078346905475E-01 
    7.2594475502180911E-01 
    6.9486044076971853E-01 
    6.6698714879489318E-01 
    6.4180084154126715E-01 
    6.1867212307743435E-01 
    5.9641292280150382E-01 
    5.7290709184676303E-01 
    5.4480654588186372E-01 
    4.8104877244780248E-01 
    1.9109491116865199E-01 
    9.4700969737089247E-01 
    9.2665605039697019E-01 
    8.8231369265308834E-01 
    8.3131934429450072E-01 
    7.8633617607796313E-01 
    7.4892156980168545E-01 
    7.1660847659490789E-01 
    6.8772736384894539E-01 
    6.6139040640004743E-01 
    6.3740586647497510E-01 
    6.1524545518041063E-01 
    5.9417731582376621E-01 
    5.7251986256772458E-01 
    5.4695136413822198E-01 
    4.8998951806814467E-01 
    2.2705511449431556E-01 
    9.1405819379858400E-01 
    8.9643791328404221E-01 
    8.5730240040868577E-01 
    8.1149889523544028E-01 
    7.6904759733173822E-01 
    7.3306737482071560E-01 
    7.0270817729089552E-01 
    6.7625979656439883E-01 
    6.5259309304158253E-01 
    6.3104040628633939E-01 
    6.1106778867845557E-01 
    5.9184211932874198E-01 
    5.7191078558514175E-01 
    5.4857921068357440E-01 
    4.9835666135044598E-01 
    2.5461601261998823E-01 
    8.7810808470340640E-01 
    8.6357324667661062E-01 
    8.2981345079243840E-01 
    7.8889724361441982E-01 
    7.5000550333194005E-01 
    7.1596775880618913E-01 
    6.8671835701915573E-01 
    6.6185832122341681E-01 
    6.4045523827084316E-01 
    6.2153849767009295E-01 
    6.0433888088556220E-01 
    5.8809341406679294E-01 
    5.7095117144821017E-01 
    5.4987067194359984E-01 
    5.0547151265465129E-01 
    2.7871013136588579E-01 
    8.3973521012634533E-01 
    8.2886573834861021E-01 
    8.0088669086641717E-01 
    7.6490065251553863E-01 
    7.2975860259356351E-01 
    6.9821373689388366E-01 
    6.7072772938053660E-01 
    6.4690473042246566E-01 
    6.2670615674567542E-01 
    6.0965416921421034E-01 
    5.9504492110058793E-01 
    5.8192034756084798E-01 
    5.6858794981059657E-01 
    5.5097594013617723E-01 
    5.1210480859930119E-01 
    3.0206739764355561E-01 
    7.9882703347112083E-01 
    7.9204454250672485E-01 
    7.7052852475921840E-01 
    7.3986884462460889E-01 
    7.0809789066891171E-01 
    6.7893496366333950E-01 
    6.5313949664961357E-01 
    6.3085751228490716E-01 
    6.1184649464072516E-01 
    5.9610231015595416E-01 
    5.8341145384801929E-01 
    5.7327796022136657E-01 
    5.6399060135201717E-01 
    5.5122444934926562E-01 
    5.1846660842212633E-01 
    3.2549975988036361E-01 
    7.5565054642687945E-01 
    7.5272357122065681E-01 
    7.3734330568094930E-01 
    7.1227527298490600E-01 
    6.8445127798308270E-01 
    6.5778104086803690E-01 
    6.3385301209798628E-01 
    6.1285384332492943E-01 
    5.9482254589670625E-01 
    5.7998994406939164E-01 
    5.6887094410390093E-01 
    5.6157268193561449E-01 
    5.5669077573934123E-01 
    5.4964054534690765E-01 
    5.2409195036525569E-01 
    3.4725601815443635E-01 
    7.1017570479927206E-01 
    7.1076833640270043E-01 
    7.0099585626578487E-01 
    6.8118977791910018E-01 
    6.5765389396416585E-01 
    6.3410880976353079E-01 
    6.1220856787174815E-01 
    5.9279848814459291E-01 
    5.7591138297706690E-01 
    5.6183831651290872E-01 
    5.5146771950508910E-01 
    5.4609079943498917E-01 
    5.4563783884843897E-01 
    5.4539725573684494E-01 
    5.2825295205980782E-01 
    3.6833363200723490E-01 
    6.6206108786908169E-01 
    6.6583930414215953E-01 
    6.6119624528078758E-01 
    6.4629260973086855E-01 
    6.2715881797885542E-01 
    6.0739054687011251E-01 
    5.8858021470257160E-01 
    5.7107193335987971E-01 
    5.5561446637100309E-01 
    5.4277067504613907E-01 
    5.3323050017888085E-01 
    5.2829662170796099E-01 
    5.3015031664384049E-01 
    5.3713822282117463E-01 
    5.3043912783213909E-01 
    3.8942426112634720E-01 
    6.1072604861631186E-01 
    6.1729583479472250E-01 
    6.1774582292533908E-01 
    6.0793699792221567E-01 
    5.9318563768497534E-01 
    5.7704863864443612E-01 
    5.6118304629339588E-01 
    5.4651878092921602E-01 
    5.3357594233828476E-01 
    5.2273208188786102E-01 
    5.1431186236140614E-01 
    5.0968176652929720E-01 
    5.1159459316343503E-01 
    5.2329961940954206E-01 
    5.2709914667146573E-01 
    4.0980337084317514E-01 
    5.5994724479125180E-01 
    5.6798152441720273E-01 
    5.7223910145963408E-01 
    5.6719735957923423E-01 
    5.5669536282925391E-01 
    5.4353205346988576E-01 
    5.3037405284911476E-01 
    5.1798984410090787E-01 
    5.0604311173414107E-01 
    4.9515183816861702E-01 
    4.8804957687819567E-01 
    4.8551418990823086E-01 
    4.8894223326031705E-01 
    5.0359004335444246E-01 
    5.2046768857399883E-01 
    4.2764741189118310E-01 
    4.8686317726615563E-01 
    5.0293678136103015E-01 
    5.1344108081754980E-01 
    5.1489602274735247E-01 
    5.0673412137541474E-01 
    4.9471190723800701E-01 
    4.8006030157277457E-01 
    4.6442590464804190E-01 
    4.3723952244957109E-01 
    4.0120131047222390E-01 
    3.6695314026193260E-01 
    3.6018869545499771E-01 
    3.9397621921896203E-01 
    4.5053820958717317E-01 
    5.0079719871167594E-01 
    4.4015012658832375E-01 
    1.7848339711823552E-01 
    2.5985597742447031E-01 
    3.0949825679225901E-01 
    3.1941801019450933E-01 
    3.0103150188733635E-01 
    2.4818252243789052E-01 
    2.1945783637181945E-01 
    1.5939639545519710E-01 
    9.8337668445748747E-02 
    4.9958940021466551E-02 
    1.8155431952666772E-02 
    2.8155765185757502E-02 
    7.8795107929709729E-02 
    2.2256396174639326E-01 
    4.3123241132611501E-01 
    4.4359063046850006E-01 
    1.0088093933493815E-06 
    1.2383153908576078E-03 
    3.0296126410329876E-03 
    2.1954608829120215E-03 
    2.7815128787356150E-03 
    1.3063829068900621E-04 
    2.2428993970261663E-04 
    7.8526008808553879E-06 
    6.5479259590982137E-06 
    9.4486809612452979E-06 
    1.7905602272414593E-06 
    4.2747797260343172E-06 
    1.1952137661883716E-04 
    4.1736876532378266E-02 
    2.5484782750894780E-01 
    3.9423495147017212E-01 
