# vtk DataFile Version 2.0
Pressure Field Data 
ASCII 
DATASET UNSTRUCTURED_GRID 

POINTS 289 double 

    0.0000000000000000E+00     0.0000000000000000E+00     0.0000000000000000E+00 
    1.0000000000000000E+00     0.0000000000000000E+00     0.0000000000000000E+00 
    1.0000000000000000E+00     1.0000000000000000E+00     0.0000000000000000E+00 
    0.0000000000000000E+00     1.0000000000000000E+00     0.0000000000000000E+00 
    6.2499999999872928E-02     0.0000000000000000E+00     0.0000000000000000E+00 
    1.2499999999977310E-01     0.0000000000000000E+00     0.0000000000000000E+00 
    1.8749999999959341E-01     0.0000000000000000E+00     0.0000000000000000E+00 
    2.4999999999941089E-01     0.0000000000000000E+00     0.0000000000000000E+00 
    3.1249999999922851E-01     0.0000000000000000E+00     0.0000000000000000E+00 
    3.7499999999904610E-01     0.0000000000000000E+00     0.0000000000000000E+00 
    4.3749999999886358E-01     0.0000000000000000E+00     0.0000000000000000E+00 
    4.9999999999869210E-01     0.0000000000000000E+00     0.0000000000000000E+00 
    5.6249999999884603E-01     0.0000000000000000E+00     0.0000000000000000E+00 
    6.2499999999901090E-01     0.0000000000000000E+00     0.0000000000000000E+00 
    6.8749999999917577E-01     0.0000000000000000E+00     0.0000000000000000E+00 
    7.4999999999934064E-01     0.0000000000000000E+00     0.0000000000000000E+00 
    8.1249999999950551E-01     0.0000000000000000E+00     0.0000000000000000E+00 
    8.7499999999967026E-01     0.0000000000000000E+00     0.0000000000000000E+00 
    9.3749999999983513E-01     0.0000000000000000E+00     0.0000000000000000E+00 
    1.0000000000000000E+00     6.2499999999872928E-02     0.0000000000000000E+00 
    1.0000000000000000E+00     1.2499999999977310E-01     0.0000000000000000E+00 
    1.0000000000000000E+00     1.8749999999959341E-01     0.0000000000000000E+00 
    1.0000000000000000E+00     2.4999999999941089E-01     0.0000000000000000E+00 
    1.0000000000000000E+00     3.1249999999922851E-01     0.0000000000000000E+00 
    1.0000000000000000E+00     3.7499999999904610E-01     0.0000000000000000E+00 
    1.0000000000000000E+00     4.3749999999886358E-01     0.0000000000000000E+00 
    1.0000000000000000E+00     4.9999999999869210E-01     0.0000000000000000E+00 
    1.0000000000000000E+00     5.6249999999884603E-01     0.0000000000000000E+00 
    1.0000000000000000E+00     6.2499999999901090E-01     0.0000000000000000E+00 
    1.0000000000000000E+00     6.8749999999917577E-01     0.0000000000000000E+00 
    1.0000000000000000E+00     7.4999999999934064E-01     0.0000000000000000E+00 
    1.0000000000000000E+00     8.1249999999950551E-01     0.0000000000000000E+00 
    1.0000000000000000E+00     8.7499999999967026E-01     0.0000000000000000E+00 
    1.0000000000000000E+00     9.3749999999983513E-01     0.0000000000000000E+00 
    9.3749999999973976E-01     1.0000000000000000E+00     0.0000000000000000E+00 
    8.7499999999950118E-01     1.0000000000000000E+00     0.0000000000000000E+00 
    8.1249999999991318E-01     1.0000000000000000E+00     0.0000000000000000E+00 
    7.5000000000034706E-01     1.0000000000000000E+00     0.0000000000000000E+00 
    6.8750000000078049E-01     1.0000000000000000E+00     0.0000000000000000E+00 
    6.2500000000121403E-01     1.0000000000000000E+00     0.0000000000000000E+00 
    5.6250000000164757E-01     1.0000000000000000E+00     0.0000000000000000E+00 
    5.0000000000205946E-01     1.0000000000000000E+00     0.0000000000000000E+00 
    4.3750000000182099E-01     1.0000000000000000E+00     0.0000000000000000E+00 
    3.7500000000156092E-01     1.0000000000000000E+00     0.0000000000000000E+00 
    3.1250000000130068E-01     1.0000000000000000E+00     0.0000000000000000E+00 
    2.5000000000104050E-01     1.0000000000000000E+00     0.0000000000000000E+00 
    1.8750000000078040E-01     1.0000000000000000E+00     0.0000000000000000E+00 
    1.2500000000052031E-01     1.0000000000000000E+00     0.0000000000000000E+00 
    6.2500000000260125E-02     1.0000000000000000E+00     0.0000000000000000E+00 
    0.0000000000000000E+00     9.3749999999973976E-01     0.0000000000000000E+00 
    0.0000000000000000E+00     8.7499999999950118E-01     0.0000000000000000E+00 
    0.0000000000000000E+00     8.1249999999991318E-01     0.0000000000000000E+00 
    0.0000000000000000E+00     7.5000000000034706E-01     0.0000000000000000E+00 
    0.0000000000000000E+00     6.8750000000078049E-01     0.0000000000000000E+00 
    0.0000000000000000E+00     6.2500000000121403E-01     0.0000000000000000E+00 
    0.0000000000000000E+00     5.6250000000164757E-01     0.0000000000000000E+00 
    0.0000000000000000E+00     5.0000000000205946E-01     0.0000000000000000E+00 
    0.0000000000000000E+00     4.3750000000182099E-01     0.0000000000000000E+00 
    0.0000000000000000E+00     3.7500000000156092E-01     0.0000000000000000E+00 
    0.0000000000000000E+00     3.1250000000130068E-01     0.0000000000000000E+00 
    0.0000000000000000E+00     2.5000000000104050E-01     0.0000000000000000E+00 
    0.0000000000000000E+00     1.8750000000078040E-01     0.0000000000000000E+00 
    0.0000000000000000E+00     1.2500000000052031E-01     0.0000000000000000E+00 
    0.0000000000000000E+00     6.2500000000260125E-02     0.0000000000000000E+00 
    6.2499999999897131E-02     6.2500000000235922E-02     0.0000000000000000E+00 
    6.2499999999921327E-02     1.2500000000047351E-01     0.0000000000000000E+00 
    6.2499999999945530E-02     1.8750000000070621E-01     0.0000000000000000E+00 
    6.2499999999969733E-02     2.5000000000093858E-01     0.0000000000000000E+00 
    6.2499999999993928E-02     3.1250000000117117E-01     0.0000000000000000E+00 
    6.2500000000018124E-02     3.7500000000140382E-01     0.0000000000000000E+00 
    6.2500000000042327E-02     4.3750000000163619E-01     0.0000000000000000E+00 
    6.2500000000066530E-02     5.0000000000184897E-01     0.0000000000000000E+00 
    6.2500000000090733E-02     5.6250000000147260E-01     0.0000000000000000E+00 
    6.2500000000114922E-02     6.2500000000107636E-01     0.0000000000000000E+00 
    6.2500000000139125E-02     6.8750000000068034E-01     0.0000000000000000E+00 
    6.2500000000163328E-02     7.5000000000028411E-01     0.0000000000000000E+00 
    6.2500000000187531E-02     8.1249999999988787E-01     0.0000000000000000E+00 
    6.2500000000211720E-02     8.7499999999951172E-01     0.0000000000000000E+00 
    6.2500000000235922E-02     9.3749999999974565E-01     0.0000000000000000E+00 
    1.2499999999981980E-01     6.2500000000211733E-02     0.0000000000000000E+00 
    1.2499999999986650E-01     1.2500000000042691E-01     0.0000000000000000E+00 
    1.2499999999991319E-01     1.8750000000063199E-01     0.0000000000000000E+00 
    1.2499999999995989E-01     2.5000000000083678E-01     0.0000000000000000E+00 
    1.2500000000000661E-01     3.1250000000104172E-01     0.0000000000000000E+00 
    1.2500000000005329E-01     3.7500000000124661E-01     0.0000000000000000E+00 
    1.2500000000010000E-01     4.3750000000145117E-01     0.0000000000000000E+00 
    1.2500000000014669E-01     5.0000000000163858E-01     0.0000000000000000E+00 
    1.2500000000019340E-01     5.6250000000129741E-01     0.0000000000000000E+00 
    1.2500000000024011E-01     6.2500000000093847E-01     0.0000000000000000E+00 
    1.2500000000028680E-01     6.8750000000057998E-01     0.0000000000000000E+00 
    1.2500000000033351E-01     7.5000000000022127E-01     0.0000000000000000E+00 
    1.2500000000038020E-01     8.1249999999986211E-01     0.0000000000000000E+00 
    1.2500000000042691E-01     8.7499999999952238E-01     0.0000000000000000E+00 
    1.2500000000047359E-01     9.3749999999975164E-01     0.0000000000000000E+00 
    1.8749999999966760E-01     6.2500000000187531E-02     0.0000000000000000E+00 
    1.8749999999974179E-01     1.2500000000038020E-01     0.0000000000000000E+00 
    1.8749999999981601E-01     1.8750000000055780E-01     0.0000000000000000E+00 
    1.8749999999989009E-01     2.5000000000073502E-01     0.0000000000000000E+00 
    1.8749999999996431E-01     3.1250000000091221E-01     0.0000000000000000E+00 
    1.8750000000003850E-01     3.7500000000108941E-01     0.0000000000000000E+00 
    1.8750000000011269E-01     4.3750000000126649E-01     0.0000000000000000E+00 
    1.8750000000018691E-01     5.0000000000142808E-01     0.0000000000000000E+00 
    1.8750000000026110E-01     5.6250000000112244E-01     0.0000000000000000E+00 
    1.8750000000033529E-01     6.2500000000080080E-01     0.0000000000000000E+00 
    1.8750000000040951E-01     6.8750000000047962E-01     0.0000000000000000E+00 
    1.8750000000048361E-01     7.5000000000015843E-01     0.0000000000000000E+00 
    1.8750000000055780E-01     8.1249999999983680E-01     0.0000000000000000E+00 
    1.8750000000063199E-01     8.7499999999953304E-01     0.0000000000000000E+00 
    1.8750000000070621E-01     9.3749999999975764E-01     0.0000000000000000E+00 
    2.4999999999951281E-01     6.2500000000163314E-02     0.0000000000000000E+00 
    2.4999999999961461E-01     1.2500000000033351E-01     0.0000000000000000E+00 
    2.4999999999971650E-01     1.8750000000048361E-01     0.0000000000000000E+00 
    2.4999999999981831E-01     2.5000000000063310E-01     0.0000000000000000E+00 
    2.4999999999992020E-01     3.1250000000078260E-01     0.0000000000000000E+00 
    2.5000000000002198E-01     3.7500000000093209E-01     0.0000000000000000E+00 
    2.5000000000012390E-01     4.3750000000108180E-01     0.0000000000000000E+00 
    2.5000000000022571E-01     5.0000000000121769E-01     0.0000000000000000E+00 
    2.5000000000032763E-01     5.6250000000094724E-01     0.0000000000000000E+00 
    2.5000000000042938E-01     6.2500000000066314E-01     0.0000000000000000E+00 
    2.5000000000053119E-01     6.8750000000037925E-01     0.0000000000000000E+00 
[...]
CELL_DATA 256 
SCALARS Pressure double 1 
LOOKUP_TABLE default 

    8.1319774886221075E-01 
    7.6196299291907710E-01 
    7.2800073833746537E-01 
    6.9637695487542239E-01 
    6.6376620225691363E-01 
    6.2940555754848593E-01 
    5.9311625520026590E-01 
    5.5503072020908606E-01 
    5.1551918915521100E-01 
    4.7523649474812940E-01 
    4.3526236809321073E-01 
    3.9731000879068706E-01 
    3.6388018521771082E-01 
    3.3771223003433853E-01 
    3.1881589407959482E-01 
    3.0992785327962530E-01 
    7.9924904835370936E-01 
    7.6339146470913799E-01 
    7.3059847406811684E-01 
    6.9925704415192791E-01 
    6.6688872775601105E-01 
    6.3275929711238266E-01 
    5.9667789210004174E-01 
    5.5875121869672972E-01 
    5.1931665961338369E-01 
    4.7898281761923484E-01 
    4.3876245877420966E-01 
    4.0028778841578716E-01 
    3.6601755325463686E-01 
    3.3883557033008543E-01 
    3.1906726890938703E-01 
    3.0953151224803688E-01 
    7.8852911572772411E-01 
    7.6263944656175564E-01 
    7.3240314789294536E-01 
    7.0176262924635069E-01 
    6.6977112077092305E-01 
    6.3592663306557851E-01 
    6.0007723599514273E-01 
    5.6231420594646098E-01 
    5.2293843227348580E-01 
    4.8250207805172513E-01 
    4.4193506910998709E-01 
    4.0276987103478057E-01 
    3.6741180411624680E-01 
    3.3891613144358695E-01 
    3.1815394808976294E-01 
    3.0810607757186892E-01 
    7.8004671841958295E-01 
    7.6075562856957335E-01 
    7.3345124025458708E-01 
    7.0387568779782206E-01 
    6.7241445869306882E-01 
    6.3891707560193967E-01 
    6.0332442534389397E-01 
    5.6573178488715081E-01 
    5.2640579814772470E-01 
    4.8583296619562560E-01 
    4.4484154456653041E-01 
    4.0483711232518405E-01 
    3.6814466077452440E-01 
    3.3800195311732134E-01 
    3.1600884488199543E-01 
    3.0543115729582326E-01 
    7.7314948359307323E-01 
    7.5832091034716076E-01 
    7.3387105275866416E-01 
    7.0560383368702639E-01 
    6.7482083709219265E-01 
    6.4174247296991116E-01 
    6.0643685120462687E-01 
    5.6902479595751798E-01 
    5.2974683940799483E-01 
    4.8901894243335153E-01 
    4.4754879195942232E-01 
    4.0658067403292936E-01 
    3.6831314506200175E-01 
    3.3614877296704004E-01 
    3.1254203432466848E-01 
    3.0123762673889481E-01 
    7.6746328756628024E-01 
    7.5568886593609619E-01 
    7.3381637607521533E-01 
    7.0698201266629668E-01 
    6.7699948148102473E-01 
    6.4441480212000335E-01 
    6.0943467778601446E-01 
    5.7222058758614625E-01 
    5.3299600889326915E-01 
    4.9210687086923732E-01 
    4.5012645633141135E-01 
    4.0809984907185259E-01 
    3.6803161450417854E-01 
    3.3342332768554744E-01 
    3.0765080831301472E-01 
    2.9522136685325090E-01 
    7.6274804051817646E-01 
    7.5308550930135998E-01 
    7.3344677042278872E-01 
    7.0807212187585855E-01 
    6.7897470040016028E-01 
    6.4694961143221341E-01 
    6.1233720327516483E-01 
    5.7534662488470367E-01 
    5.3618987737380164E-01 
    4.9514621654046642E-01 
    4.5264694598345961E-01 
    4.0950138896356025E-01 
    3.6743308695984900E-01 
    3.2991896467437198E-01 
    3.0124576265058145E-01 
    2.8704384077797290E-01 
    7.5883241045632988E-01 
    7.5065060069608747E-01 
    7.3290517802456201E-01 
    7.0894683884129184E-01 
    6.8078065573178403E-01 
    6.4936706497703700E-01 
    6.1516339672287135E-01 
    5.7842683100061609E-01 
    5.3936274492631386E-01 
    4.9818695533253954E-01 
    4.5518649422554197E-01 
    4.1090275939071763E-01 
    3.6667686960069495E-01 
    3.2577590594581646E-01 
    2.9328996386255368E-01 
    2.7637410756550834E-01 
    7.5559571215389565E-01 
    7.4846817128016019E-01 
    7.3230909778954345E-01 
    7.0968056961790948E-01 
    6.8245710858088093E-01 
    6.5169077537920772E-01 
    6.1793138628581090E-01 
    5.8148056777112878E-01 
    5.4254211236350358E-01 
    5.0127412557284845E-01 
    4.5782063637998843E-01 
    4.1243025134150596E-01 
    3.6595406893937921E-01 
    3.2119540517132017E-01 
    2.8379776477437385E-01 
    2.6285275832820598E-01 
    7.5294956105582977E-01 
    7.4658409783582802E-01 
    7.3174813915979764E-01 
    7.1034289027877817E-01 
    6.8404809367527342E-01 
    6.5394830963893202E-01 
    6.2066023725876385E-01 
    5.8452483018954149E-01 
    5.4575049211262860E-01 
    5.0444619691155457E-01 
    4.6061973646555987E-01 
    4.1421378748911536E-01 
    3.6548544282756401E-01 
    3.1645668944573385E-01 
    2.7285019950109146E-01 
    2.4600856351070946E-01 
    7.5082943743079955E-01 
    7.4502608157101058E-01 
    7.3129717615763501E-01 
    7.1100272304926559E-01 
    6.8560359703067886E-01 
    6.5617425933658258E-01 
    6.2337504684626710E-01 
    5.8758026005007424E-01 
    5.4901046790623242E-01 
    5.0773599116687496E-01 
    4.6364393449486535E-01 
    4.1638017504388480E-01 
    3.6552043559305292E-01 
    3.1194411522644971E-01 
    2.6065644086502593E-01 
    2.2520363992045989E-01 
    7.4919133724627418E-01 
    7.4382149643150641E-01 
    7.3102809252639367E-01 
    7.1173152670885642E-01 
    6.8717904977815392E-01 
    6.5841092220054565E-01 
    6.2611146320382305E-01 
    5.9067477247646416E-01 
    5.5234334590266676E-01 
    5.1116266424435086E-01 
    4.6692744496773569E-01 
    4.1903242790186723E-01 
    3.6632238312702953E-01 
    3.0816677860717112E-01 
    2.4764550049710773E-01 
    1.9957085827754190E-01 
    7.4801064825978958E-01 
    7.4300590878806294E-01 
    7.3101270737696622E-01 
    7.1260076008330286E-01 
    6.8882787724353389E-01 
    6.6069781939786598E-01 
    6.2890308764985359E-01 
    5.9382932729731031E-01 
    5.5573992972602448E-01 
    5.1467775855318132E-01 
    4.7039673693640494E-01 
    4.2213090722402508E-01 
    3.6801778688966130E-01 
    3.0561715941217688E-01 
    2.3446539937037109E-01 
    1.6779322005598277E-01 
    7.4715603041227963E-01 
    7.4252060062894376E-01 
    7.3125251734376040E-01 
    7.1362843472196802E-01 
    6.9054410012980105E-01 
    6.6297668449794012E-01 
    6.3165442737966915E-01 
    5.9694272836110929E-01 
    5.5908616622713170E-01 
    5.1814995011556497E-01 
    4.7389598749280809E-01 
    4.2546878201889132E-01 
    3.7048949246081209E-01 
    3.0460310402043261E-01 
    2.2190551713810447E-01 
    1.2741881968987195E-01 
    7.4656067669220227E-01 
    7.4224952910088238E-01 
    7.3163698648043152E-01 
    7.1473603604323555E-01 
    6.9228419524561380E-01 
    6.6522203621021714E-01 
    6.3433682122443968E-01 
    6.0001488284620397E-01 
    5.6245579835056025E-01 
    5.2174649536734263E-01 
    4.7766633994911778E-01 
    4.2932886926614888E-01 
    3.7420134077984196E-01 
    3.0641106504462068E-01 
    2.1242637465800426E-01 
    7.4003994740306736E-02 
    7.4637826633334536E-01 
    7.4241311971822688E-01 
    7.3239595224424658E-01 
    7.1614362898194994E-01 
    6.9427805509150808E-01 
    6.6769886133565326E-01 
    6.3722392026609054E-01 
    6.0328335919406773E-01 
    5.6606472853810330E-01 
    5.2566426697908553E-01 
    4.8188511407460077E-01 
    4.3387373249170696E-01 
    3.7922348254214594E-01 
    3.1195389422693826E-01 
    2.1289581772551330E-01 
    0.0000000000000000E+00 

SCALARS Saturarion double 1 
LOOKUP_TABLE default 

    1.0000000000000009E+00 
    9.6966634902420612E-01 
    9.1616520245037569E-01 
    8.4947382605318023E-01 
    7.9289089967609894E-01 
    7.4488995421994442E-01 
    7.0491634906307155E-01 
    6.7123263773614317E-01 
    6.4179819028927831E-01 
    6.1480165598858094E-01 
    5.8881077035613050E-01 
    5.6267572793191445E-01 
    5.3522889025004050E-01 
    4.9425171857311651E-01 
    2.9747161659340299E-01 
    9.7209781150085675E-04 
    9.8788378141831079E-01 
    9.5912614048783984E-01 
    9.0310515396015678E-01 
    8.4058886416828360E-01 
    7.8743881895958623E-01 
    7.4153878349803026E-01 
    7.0233229311643852E-01 
    6.6876587896194839E-01 
    6.3947698816328835E-01 
    6.1293504590445014E-01 
    5.8779415431498350E-01 
    5.6273843085192987E-01 
    5.3635764966535382E-01 
    4.9711040965890974E-01 
    3.2606243152199016E-01 
    4.5984513404439386E-03 
    9.6884698139752412E-01 
    9.4062685913478272E-01 
    8.8491031094725225E-01 
    8.2552090472297857E-01 
    7.7655377103244783E-01 
    7.3425863542708503E-01 
    6.9688237437882472E-01 
    6.6372680785584370E-01 
    6.3451500097994185E-01 
    6.0850277703345756E-01 
    5.8463418238004805E-01 
    5.6131140061646545E-01 
    5.3675996452745545E-01 
    5.0091613886870012E-01 
    3.5609418747698007E-01 
    1.4072126242210067E-02 
    9.3546208908500939E-01 
    9.1239264465542835E-01 
    8.6299403670020836E-01 
    8.0797629343093125E-01 
    7.6094334839515632E-01 
    7.2193413950094609E-01 
    6.8766654403809779E-01 
    6.5682631065992458E-01 
    6.2898076424198490E-01 
    6.0403515890427850E-01 
    5.8119872948894191E-01 
    5.5931544830493041E-01 
    5.3667746090826607E-01 
    5.0497232175674867E-01 
    3.8200134871727998E-01 
    3.5947754435478256E-02 
    8.9689499671202544E-01 
    8.7735308366974896E-01 
    8.3432846428931418E-01 
    7.8531301906162598E-01 
    7.4154094379542135E-01 
    7.0494479709911229E-01 
    6.7376319204390234E-01 
    6.4619309546063552E-01 
    6.2132625746863834E-01 
    5.9865473727978513E-01 
    5.7766698508171033E-01 
    5.5741057177535347E-01 
    5.3645057128653828E-01 
    5.0820888596985259E-01 
    4.0408985535671726E-01 
    6.3996209390644709E-02 
    8.5622524423252344E-01 
    8.4029309615994419E-01 
    8.0379813237669129E-01 
    7.6079408379765301E-01 
    7.2096606766352189E-01 
    6.8655666941668170E-01 
    6.5716451821216848E-01 
    6.3215461802419337E-01 
    6.1026252450095042E-01 
    5.9037793608192690E-01 
    5.7189389183572559E-01 
    5.5427866666293590E-01 
    5.3596006881513025E-01 
    5.1135647605740719E-01 
    4.2023059146440622E-01 
    9.8695575644401817E-02 
    8.1368133143555854E-01 
    8.0206860954074333E-01 
    7.7249140781235159E-01 
    7.3517704456802135E-01 
    6.9930013656761525E-01 
    6.6752025060533660E-01 
    6.4025681241865307E-01 
    6.1684993978480784E-01 
    5.9686152768719059E-01 
    5.7941185344993484E-01 
    5.6366340524403657E-01 
    5.4891270765554634E-01 
    5.3403489279238714E-01 
    5.1352793792979090E-01 
    4.3499132401326424E-01 
    1.3835615200386597E-01 
    7.6935555827983404E-01 
    7.6234657914843951E-01 
    7.4009151752330582E-01 
    7.0859819049939665E-01 
    6.7630125792478946E-01 
    6.4711696357513460E-01 
    6.2172458303065459E-01 
    6.0003706412353708E-01 
    5.8161757648528201E-01 
    5.6620058414723251E-01 
    5.5308850523246611E-01 
    5.4148750951089464E-01 
    5.3019300292978988E-01 
    5.1489664898708543E-01 
    4.4882174483345327E-01 
    1.7912979793788267E-01 
    7.2343316360196075E-01 
    7.2058135919667088E-01 
    7.0499094422722430E-01 
    6.7956295479493245E-01 
    6.5159829324573859E-01 
    6.2516320650582446E-01 
    6.0162636213680110E-01 
    5.8103307550694927E-01 
    5.6365326935608318E-01 
    5.4977873294701163E-01 
    5.3929215097363892E-01 
    5.3128708622059595E-01 
    5.2417820418215522E-01 
    5.1434130493805741E-01 
    4.6087723776489342E-01 
    2.1437366045087577E-01 
    6.7584295902682778E-01 
    6.7666217324580380E-01 
    6.6701670006447156E-01 
    6.4730030883910217E-01 
    6.2410592569228973E-01 
    6.0113845783089770E-01 
    5.7968045367992360E-01 
    5.6051395504791812E-01 
    5.4428332306873939E-01 
    5.3168088802512115E-01 
    5.2270331670234293E-01 
    5.1748619141689600E-01 
    5.1510853239009935E-01 
    5.1131533475822089E-01 
    4.7131049413814097E-01 
    2.4688241780187467E-01 
    6.2664169763253807E-01 
    6.3060420820152596E-01 
    6.2631034505488703E-01 
    6.1200765722209938E-01 
    5.9369844243464109E-01 
    5.7476535348977831E-01 
    5.5661382674121207E-01 
    5.3972452910985158E-01 
    5.2508203520458319E-01 
    5.1337707482315997E-01 
    5.0476261086520724E-01 
    5.0033900122684638E-01 
    5.0176756523299959E-01 
    5.0532740694486500E-01 
    4.7932376310328673E-01 
    2.7842493550648006E-01 
    5.7744631959888271E-01 
    5.8362838824484831E-01 
    5.8425765122868745E-01 
    5.7529290387309839E-01 
    5.6115970650238556E-01 
    5.4548140269599710E-01 
    5.3081046827579448E-01 
    5.1756406488776052E-01 
    5.0454560731233211E-01 
    4.9247211555743070E-01 
    4.8266974384657535E-01 
    4.7790274911278835E-01 
    4.8244547306128804E-01 
    4.9424252563713822E-01 
    4.8418062275605633E-01 
    3.0886476513555627E-01 
    5.2804887725556537E-01 
    5.3698839775054152E-01 
    5.4096036152225835E-01 
    5.3612006422846126E-01 
    5.2476577290768500E-01 
    5.1056095624585940E-01 
    4.9706541916341762E-01 
    4.8427441255806120E-01 
    4.6936946268464208E-01 
    4.4651239357256706E-01 
    4.2056132163421006E-01 
    4.0689779467208326E-01 
    4.1961126314852309E-01 
    4.6012432006386528E-01 
    4.7743529512159050E-01 
    3.3679176619129181E-01 
    4.0017350450469147E-01 
    4.3697480375484926E-01 
    4.5907307323992130E-01 
    4.6197706576611258E-01 
    4.5031733679957314E-01 
    4.2054297856895778E-01 
    3.6305751906898692E-01 
    2.9383156649724557E-01 
    2.3596154106832443E-01 
    1.4986197538332119E-01 
    9.3925950767024285E-02 
    8.5744347933145296E-02 
    1.5470120594831269E-01 
    3.3282057921292052E-01 
    4.4092179938770604E-01 
    3.5465461537762694E-01 
    3.3902221086602492E-02 
    1.0680460012486886E-01 
    1.3598416469720251E-01 
    1.4770609283722835E-01 
    1.1981097629241999E-01 
    6.3190925276456852E-02 
    1.4988657593765451E-02 
    1.6748033020522377E-03 
    5.1540733799994006E-04 
    2.9099081682150183E-05 
    1.0045908798703167E-05 
    2.7817627928981521E-06 
    2.6480006647437047E-03 
    8.1189205568737891E-02 
    3.4457007921678751E-01 
    3.6048734256347847E-01 
    1.0004616084907621E-06 
    6.4853543452827035E-05 
    6.1121574311477276E-06 
    3.7110015965884888E-06 
    1.9465660052153793E-05 
    1.4219583119463205E-05 
    2.0676418107511045E-06 
    1.0230685627909705E-06 
    1.0020321860974213E-06 
    1.0000747313763457E-06 
    1.0000081264671903E-06 
    1.0000013806780822E-06 
    1.4352576069658147E-06 
    2.6027365705578679E-03 
    2.0331075032438320E-01 
    3.2357924818872458E-01 
