# vtk DataFile Version 2.0
Pressure Field Data 
ASCII 
DATASET UNSTRUCTURED_GRID 

POINTS 289 double 

    0.0000000000000000E+00     0.0000000000000000E+00     0.0000000000000000E+00 
    1.0000000000000000E+00     0.0000000000000000E+00     0.0000000000000000E+00 
    1.0000000000000000E+00     1.0000000000000000E+00     0.0000000000000000E+00 
    0.0000000000000000E+00     1.0000000000000000E+00     0.0000000000000000E+00 
    6.2499999999872928E-02     0.0000000000000000E+00     0.0000000000000000E+00 
    1.2499999999977310E-01     0.0000000000000000E+00     0.0000000000000000E+00 
    1.8749999999959341E-01     0.0000000000000000E+00     0.0000000000000000E+00 
    2.4999999999941089E-01     0.0000000000000000E+00     0.0000000000000000E+00 
    3.1249999999922851E-01     0.0000000000000000E+00     0.0000000000000000E+00 
    3.7499999999904610E-01     0.0000000000000000E+00     0.0000000000000000E+00 
    4.3749999999886358E-01     0.0000000000000000E+00     0.0000000000000000E+00 
    4.9999999999869210E-01     0.0000000000000000E+00     0.0000000000000000E+00 
    5.6249999999884603E-01     0.0000000000000000E+00     0.0000000000000000E+00 
    6.2499999999901090E-01     0.0000000000000000E+00     0.0000000000000000E+00 
    6.8749999999917577E-01     0.0000000000000000E+00     0.0000000000000000E+00 
    7.4999999999934064E-01     0.0000000000000000E+00     0.0000000000000000E+00 
    8.1249999999950551E-01     0.0000000000000000E+00     0.0000000000000000E+00 
    8.7499999999967026E-01     0.0000000000000000E+00     0.0000000000000000E+00 
    9.3749999999983513E-01     0.0000000000000000E+00     0.0000000000000000E+00 
    1.0000000000000000E+00     6.2499999999872928E-02     0.0000000000000000E+00 
    1.0000000000000000E+00     1.2499999999977310E-01     0.0000000000000000E+00 
    1.0000000000000000E+00     1.8749999999959341E-01     0.0000000000000000E+00 
    1.0000000000000000E+00     2.4999999999941089E-01     0.0000000000000000E+00 
    1.0000000000000000E+00     3.1249999999922851E-01     0.0000000000000000E+00 
    1.0000000000000000E+00     3.7499999999904610E-01     0.0000000000000000E+00 
    1.0000000000000000E+00     4.3749999999886358E-01     0.0000000000000000E+00 
    1.0000000000000000E+00     4.9999999999869210E-01     0.0000000000000000E+00 
    1.0000000000000000E+00     5.6249999999884603E-01     0.0000000000000000E+00 
    1.0000000000000000E+00     6.2499999999901090E-01     0.0000000000000000E+00 
    1.0000000000000000E+00     6.8749999999917577E-01     0.0000000000000000E+00 
    1.0000000000000000E+00     7.4999999999934064E-01     0.0000000000000000E+00 
    1.0000000000000000E+00     8.1249999999950551E-01     0.0000000000000000E+00 
    1.0000000000000000E+00     8.7499999999967026E-01     0.0000000000000000E+00 
    1.0000000000000000E+00     9.3749999999983513E-01     0.0000000000000000E+00 
    9.3749999999973976E-01     1.0000000000000000E+00     0.0000000000000000E+00 
    8.7499999999950118E-01     1.0000000000000000E+00     0.0000000000000000E+00 
    8.1249999999991318E-01     1.0000000000000000E+00     0.0000000000000000E+00 
    7.5000000000034706E-01     1.0000000000000000E+00     0.0000000000000000E+00 
    6.8750000000078049E-01     1.0000000000000000E+00     0.0000000000000000E+00 
    6.2500000000121403E-01     1.0000000000000000E+00     0.0000000000000000E+00 
    5.6250000000164757E-01     1.0000000000000000E+00     0.0000000000000000E+00 
    5.0000000000205946E-01     1.0000000000000000E+00     0.0000000000000000E+00 
    4.3750000000182099E-01     1.0000000000000000E+00     0.0000000000000000E+00 
    3.7500000000156092E-01     1.0000000000000000E+00     0.0000000000000000E+00 
    3.1250000000130068E-01     1.0000000000000000E+00     0.0000000000000000E+00 
    2.5000000000104050E-01     1.0000000000000000E+00     0.0000000000000000E+00 
    1.8750000000078040E-01     1.0000000000000000E+00     0.0000000000000000E+00 
    1.2500000000052031E-01     1.0000000000000000E+00     0.0000000000000000E+00 
    6.2500000000260125E-02     1.0000000000000000E+00     0.0000000000000000E+00 
    0.0000000000000000E+00     9.3749999999973976E-01     0.0000000000000000E+00 
    0.0000000000000000E+00     8.7499999999950118E-01     0.0000000000000000E+00 
    0.0000000000000000E+00     8.1249999999991318E-01     0.0000000000000000E+00 
    0.0000000000000000E+00     7.5000000000034706E-01     0.0000000000000000E+00 
    0.0000000000000000E+00     6.8750000000078049E-01     0.0000000000000000E+00 
    0.0000000000000000E+00     6.2500000000121403E-01     0.0000000000000000E+00 
    0.0000000000000000E+00     5.6250000000164757E-01     0.0000000000000000E+00 
    0.0000000000000000E+00     5.0000000000205946E-01     0.0000000000000000E+00 
    0.0000000000000000E+00     4.3750000000182099E-01     0.0000000000000000E+00 
    0.0000000000000000E+00     3.7500000000156092E-01     0.0000000000000000E+00 
    0.0000000000000000E+00     3.1250000000130068E-01     0.0000000000000000E+00 
    0.0000000000000000E+00     2.5000000000104050E-01     0.0000000000000000E+00 
    0.0000000000000000E+00     1.8750000000078040E-01     0.0000000000000000E+00 
    0.0000000000000000E+00     1.2500000000052031E-01     0.0000000000000000E+00 
    0.0000000000000000E+00     6.2500000000260125E-02     0.0000000000000000E+00 
    6.2499999999897131E-02     6.2500000000235922E-02     0.0000000000000000E+00 
    6.2499999999921327E-02     1.2500000000047351E-01     0.0000000000000000E+00 
    6.2499999999945530E-02     1.8750000000070621E-01     0.0000000000000000E+00 
    6.2499999999969733E-02     2.5000000000093858E-01     0.0000000000000000E+00 
    6.2499999999993928E-02     3.1250000000117117E-01     0.0000000000000000E+00 
    6.2500000000018124E-02     3.7500000000140382E-01     0.0000000000000000E+00 
    6.2500000000042327E-02     4.3750000000163619E-01     0.0000000000000000E+00 
    6.2500000000066530E-02     5.0000000000184897E-01     0.0000000000000000E+00 
    6.2500000000090733E-02     5.6250000000147260E-01     0.0000000000000000E+00 
    6.2500000000114922E-02     6.2500000000107636E-01     0.0000000000000000E+00 
    6.2500000000139125E-02     6.8750000000068034E-01     0.0000000000000000E+00 
    6.2500000000163328E-02     7.5000000000028411E-01     0.0000000000000000E+00 
    6.2500000000187531E-02     8.1249999999988787E-01     0.0000000000000000E+00 
    6.2500000000211720E-02     8.7499999999951172E-01     0.0000000000000000E+00 
    6.2500000000235922E-02     9.3749999999974565E-01     0.0000000000000000E+00 
    1.2499999999981980E-01     6.2500000000211733E-02     0.0000000000000000E+00 
    1.2499999999986650E-01     1.2500000000042691E-01     0.0000000000000000E+00 
    1.2499999999991319E-01     1.8750000000063199E-01     0.0000000000000000E+00 
    1.2499999999995989E-01     2.5000000000083678E-01     0.0000000000000000E+00 
    1.2500000000000661E-01     3.1250000000104172E-01     0.0000000000000000E+00 
    1.2500000000005329E-01     3.7500000000124661E-01     0.0000000000000000E+00 
    1.2500000000010000E-01     4.3750000000145117E-01     0.0000000000000000E+00 
    1.2500000000014669E-01     5.0000000000163858E-01     0.0000000000000000E+00 
    1.2500000000019340E-01     5.6250000000129741E-01     0.0000000000000000E+00 
    1.2500000000024011E-01     6.2500000000093847E-01     0.0000000000000000E+00 
    1.2500000000028680E-01     6.8750000000057998E-01     0.0000000000000000E+00 
    1.2500000000033351E-01     7.5000000000022127E-01     0.0000000000000000E+00 
    1.2500000000038020E-01     8.1249999999986211E-01     0.0000000000000000E+00 
    1.2500000000042691E-01     8.7499999999952238E-01     0.0000000000000000E+00 
    1.2500000000047359E-01     9.3749999999975164E-01     0.0000000000000000E+00 
    1.8749999999966760E-01     6.2500000000187531E-02     0.0000000000000000E+00 
    1.8749999999974179E-01     1.2500000000038020E-01     0.0000000000000000E+00 
    1.8749999999981601E-01     1.8750000000055780E-01     0.0000000000000000E+00 
    1.8749999999989009E-01     2.5000000000073502E-01     0.0000000000000000E+00 
    1.8749999999996431E-01     3.1250000000091221E-01     0.0000000000000000E+00 
    1.8750000000003850E-01     3.7500000000108941E-01     0.0000000000000000E+00 
    1.8750000000011269E-01     4.3750000000126649E-01     0.0000000000000000E+00 
    1.8750000000018691E-01     5.0000000000142808E-01     0.0000000000000000E+00 
    1.8750000000026110E-01     5.6250000000112244E-01     0.0000000000000000E+00 
    1.8750000000033529E-01     6.2500000000080080E-01     0.0000000000000000E+00 
    1.8750000000040951E-01     6.8750000000047962E-01     0.0000000000000000E+00 
    1.8750000000048361E-01     7.5000000000015843E-01     0.0000000000000000E+00 
    1.8750000000055780E-01     8.1249999999983680E-01     0.0000000000000000E+00 
    1.8750000000063199E-01     8.7499999999953304E-01     0.0000000000000000E+00 
    1.8750000000070621E-01     9.3749999999975764E-01     0.0000000000000000E+00 
    2.4999999999951281E-01     6.2500000000163314E-02     0.0000000000000000E+00 
    2.4999999999961461E-01     1.2500000000033351E-01     0.0000000000000000E+00 
    2.4999999999971650E-01     1.8750000000048361E-01     0.0000000000000000E+00 
    2.4999999999981831E-01     2.5000000000063310E-01     0.0000000000000000E+00 
    2.4999999999992020E-01     3.1250000000078260E-01     0.0000000000000000E+00 
    2.5000000000002198E-01     3.7500000000093209E-01     0.0000000000000000E+00 
    2.5000000000012390E-01     4.3750000000108180E-01     0.0000000000000000E+00 
    2.5000000000022571E-01     5.0000000000121769E-01     0.0000000000000000E+00 
    2.5000000000032763E-01     5.6250000000094724E-01     0.0000000000000000E+00 
    2.5000000000042938E-01     6.2500000000066314E-01     0.0000000000000000E+00 
    2.5000000000053119E-01     6.8750000000037925E-01     0.0000000000000000E+00 
[...]
CELL_DATA 256 
SCALARS Pressure double 1 
LOOKUP_TABLE default 

    1.0191411386623459E+00 
    9.6389881104165387E-01 
    9.2396675062079869E-01 
    8.8455137320525323E-01 
    8.4246571757691746E-01 
    7.9740752069597975E-01 
    7.4953289081629515E-01 
    6.9881748692643364E-01 
    6.4438791576306709E-01 
    5.8114765455261419E-01 
    5.1125848220373760E-01 
    4.4900136081348302E-01 
    3.9714766066136586E-01 
    3.5726222866973151E-01 
    3.3216604557582674E-01 
    3.2211203221997053E-01 
    1.0052354608162402E+00 
    9.6570191208917366E-01 
    9.2708325996006113E-01 
    8.8808726068856614E-01 
    8.4642349486102209E-01 
    8.0173809378703997E-01 
    7.5418001741369201E-01 
    7.0378985803818306E-01 
    6.4982821503442412E-01 
    5.8703060194533130E-01 
    5.1702314908832703E-01 
    4.5394184991104852E-01 
    4.0074467667799835E-01 
    3.5926372590133188E-01 
    3.3261737604685132E-01 
    3.2165974457675428E-01 
    9.9439336695047953E-01 
    9.6513860877167690E-01 
    9.2922777602585094E-01 
    8.9105128013731894E-01 
    8.4995368723461306E-01 
    8.0572569664240157E-01 
    7.5852841589680542E-01 
    7.0845705175008833E-01 
    6.5485015859720574E-01 
    5.9221772586522825E-01 
    5.2204112682532378E-01 
    4.5823003482150110E-01 
    4.0348976173068435E-01 
    3.6012125683048052E-01 
    3.3174880013922270E-01 
    3.2003542022035125E-01 
    9.8548928951852799E-01 
    9.6320225215935529E-01 
    9.3042340097505960E-01 
    8.9345193474804929E-01 
    8.5306557406702677E-01 
    8.0937502205612255E-01 
    7.6259060281596736E-01 
    7.1283559615485503E-01 
    6.5947967639759453E-01 
    5.9679980745637451E-01 
    5.2643197259873675E-01 
    4.6194160312614646E-01 
    4.0546663826257007E-01 
    3.5987182482641428E-01 
    3.2947685063958126E-01 
    3.1701295783755906E-01 
    9.7788632071936843E-01 
    9.6044365181477953E-01 
    9.3078900553009691E-01 
    8.9532287701690527E-01 
    8.5579849216760473E-01 
    8.1272004274306919E-01 
    7.6639484637499733E-01 
    7.1695456426845083E-01 
    6.6374046311616608E-01 
    6.0084662265993183E-01 
    5.3031474457036332E-01 
    4.6518025082980774E-01 
    4.0677963861393035E-01 
    3.5856712969853910E-01 
    3.2571586682866466E-01 
    3.1235772808492629E-01 
    9.7133957334783783E-01 
    9.5728978390091635E-01 
    9.3051928374541593E-01 
    8.9673587838066515E-01 
    8.5821137926966573E-01 
    8.1580920134736501E-01 
    7.6997495402053562E-01 
    7.2084581417324212E-01 
    6.6760950965228383E-01 
    6.0438901451718163E-01 
    5.3383562029649057E-01 
    4.6807198049129500E-01 
    4.0756019356354800E-01 
    3.5628593997050939E-01 
    3.2038609606603885E-01 
    3.0581792891355197E-01 
    9.6569483181593418E-01 
    9.5404085724364884E-01 
    9.2982230259738807E-01 
    8.9778344099380525E-01 
    8.6036493538908521E-01 
    8.1869389491712008E-01 
    7.7336852073494833E-01 
    7.2453978280930709E-01 
    6.7101372681118998E-01 
    6.0744119534649432E-01 
    5.3720911016139572E-01 
    4.7075656557978851E-01 
    4.0796809601956796E-01 
    3.5314305506273852E-01 
    3.1341669239154918E-01 
    2.9709678733321027E-01 
    9.6084023719299438E-01 
    9.5089975793923498E-01 
    9.2888614297438277E-01 
    8.9856615366952819E-01 
    8.6231950836810556E-01 
    8.2142804969463257E-01 
    7.7661890232350039E-01 
    7.2804090330091631E-01 
    6.7391035958982004E-01 
    6.1010602762090127E-01 
    5.4068177285655616E-01 
    4.7339545813188549E-01 
    4.0819520283733984E-01 
    3.4930409654796601E-01 
    3.0475791713201172E-01 
    2.8583638655845006E-01 
    9.5671130665835535E-01 
    9.4801418024096906E-01 
    9.2787912834166375E-01 
    8.9919308247860863E-01 
    8.6414315606427050E-01 
    8.2406526125098201E-01 
    7.7976129472902267E-01 
    7.3123549972638968E-01 
    6.7633706563937479E-01 
    6.1267579919457960E-01 
    5.4438876552285598E-01 
    4.7615940029162579E-01 
    4.0846621989586912E-01 
    3.4500389672034348E-01 
    2.9440344396390816E-01 
    2.7158435383890983E-01 
    9.5328628011888950E-01 
    9.4550086650409093E-01 
    9.2694574039258881E-01 
    8.9977429948564414E-01 
    8.6590658023350875E-01 
    8.2663299095965814E-01 
    7.8271934329753101E-01 
    7.3391384627580114E-01 
    6.7844731854481644E-01 
    6.1554265305294042E-01 
    5.4830351268651256E-01 
    4.7920888771813347E-01 
    4.0904136511127087E-01 
    3.4057560847929635E-01 
    2.8243784379974080E-01 
    2.5375534725346999E-01 
    9.5052471498442281E-01 
    9.4342596484548735E-01 
    9.2619217243149898E-01 
    9.0039276625462039E-01 
    8.6762518142811340E-01 
    8.2898068234044142E-01 
    7.8522211651276885E-01 
    7.3611830539782552E-01 
    6.8075873367788586E-01 
    6.1897988921775771E-01 
    5.5243114442949182E-01 
    4.8268239892323361E-01 
    4.1020106752672747E-01 
    3.3646797755816682E-01 
    2.6910141663983894E-01 
    2.3157312539677388E-01 
    9.4813593855711442E-01 
    9.4163735924886338E-01 
    9.2552864478874608E-01 
    9.0086852061602896E-01 
    8.6901912787904767E-01 
    8.3089148093467768E-01 
    7.8734504720456500E-01 
    7.3849040445228298E-01 
    6.8374640473816584E-01 
    6.2291612367851867E-01 
    5.5687399363330325E-01 
    4.8669889414003314E-01 
    4.1222643705208517E-01 
    3.3326010541500339E-01 
    2.5490416357379125E-01 
    2.0399036498911874E-01 
    9.4590312403379850E-01 
    9.3982563356350368E-01 
    9.2470947111089519E-01 
    9.0109937621650393E-01 
    8.7015055615272086E-01 
    8.3276856677194966E-01 
    7.8979646494024192E-01 
    7.4149786432577380E-01 
    6.8737010881672034E-01 
    6.2724344803658449E-01 
    5.6171002130882197E-01 
    4.9134884089163006E-01 
    4.1537271018779920E-01 
    3.3166197411849940E-01 
    2.4082201097577272E-01 
    1.6956114433709837E-01 
    9.4432688253164765E-01 
    9.3851914009153037E-01 
    9.2424484782980487E-01 
    9.0166270172243679E-01 
    8.7168284248605443E-01 
    8.3516088739236172E-01 
    7.9283772048772583E-01 
    7.4503676525646789E-01 
    6.9146984625523300E-01 
    6.3199324525390232E-01 
    5.6698330157755528E-01 
    4.9668521974289737E-01 
    4.1983111031604825E-01 
    3.3247044216497473E-01 
    2.2862939903516458E-01 
    1.2624923734362120E-01 
    9.4351677220449504E-01 
    9.3805518863425219E-01 
    9.2457470107234740E-01 
    9.0290623645316603E-01 
    8.7377695928259058E-01 
    8.3800594206552670E-01 
    7.9631099016877849E-01 
    7.4904435463625929E-01 
    6.9604053501871610E-01 
    6.3717887517442118E-01 
    5.7271390348036555E-01 
    5.0271365846488369E-01 
    4.2567249732563500E-01 
    3.3641171539392267E-01 
    2.2144982111411748E-01 
    7.1140240676894950E-02 
    9.4329244057231776E-01 
    9.3827155630580816E-01 
    9.2555599066213001E-01 
    9.0472719417760228E-01 
    8.7638166037068221E-01 
    8.4130838736226288E-01 
    8.0022402310325613E-01 
    7.5351333953242450E-01 
    7.0107850019718487E-01 
    6.4280856684735610E-01 
    5.7890374802854028E-01 
    5.0939405451871278E-01 
    4.3280649708620600E-01 
    3.4376919514559262E-01 
    2.2468212507911800E-01 
    0.0000000000000000E+00 

SCALARS Saturarion double 1 
LOOKUP_TABLE default 

    1.0000000000001290E+00 
    9.4787019770839298E-01 
    8.6799778274056183E-01 
    7.7059139574848556E-01 
    6.9596038376482094E-01 
    6.4120288980654172E-01 
    5.9599815421879243E-01 
    5.5401086549434819E-01 
    5.0573525147327525E-01 
    3.9567798037561436E-01 
    5.5587930491447626E-02 
    1.0000001305364397E-06 
    1.0000000000000902E-06 
    9.9999999999999995E-07 
    9.9999999999999995E-07 
    9.9999999999999995E-07 
    9.7612636124230023E-01 
    9.2740080489589083E-01 
    8.4480559247387543E-01 
    7.6077485008345580E-01 
    6.9075460980809200E-01 
    6.3596052330012587E-01 
    5.9131571696008745E-01 
    5.5046591961660585E-01 
    5.0275004051578709E-01 
    3.8891866425598165E-01 
    4.9431427221245709E-02 
    1.5232587099202819E-06 
    1.0000001080847009E-06 
    1.0000000000000298E-06 
    9.9999999999999995E-07 
    9.9999999999999995E-07 
    9.3758022662514318E-01 
    8.9475520485296700E-01 
    8.1456487419060886E-01 
    7.4254402200854275E-01 
    6.7940598541203545E-01 
    6.2585327893894549E-01 
    5.8267885821201182E-01 
    5.4387140799053768E-01 
    4.9705765852940742E-01 
    3.7962213632560171E-01 
    4.0933210649370930E-02 
    2.1091300352982543E-06 
    1.0000002434907723E-06 
    1.0000000000000648E-06 
    9.9999999999999995E-07 
    9.9999999999999995E-07 
    8.7548537025762574E-01 
    8.4307102503568165E-01 
    7.7575522565035682E-01 
    7.1418499202238417E-01 
    6.6170528169853782E-01 
    6.1533182915668416E-01 
    5.7550508131834377E-01 
    5.3870751353648882E-01 
    4.9255725259013611E-01 
    3.7334018216292542E-01 
    3.7145738071611596E-02 
    1.4456823741444873E-06 
    1.0000002468258323E-06 
    9.9999999999999995E-07 
    9.9999999999999995E-07 
    9.9999999999999995E-07 
    8.1581024433593241E-01 
    7.8927611049766344E-01 
    7.3581302770892731E-01 
    6.8381606771210379E-01 
    6.3994314233405147E-01 
    6.0134163547828379E-01 
    5.6596079660735543E-01 
    5.3132530943625000E-01 
    4.8620931237367521E-01 
    3.5720289374755254E-01 
    2.6546536728207181E-02 
    3.6300847276972398E-06 
    1.0000006236196093E-06 
    1.0000000000001310E-06 
    9.9999999999999995E-07 
    9.9999999999999995E-07 
    7.5893137638678709E-01 
    7.3941710340481193E-01 
    6.9790194371397940E-01 
    6.5390117911626811E-01 
    6.1637959489522576E-01 
    5.8380370849895891E-01 
    5.5258491979313373E-01 
    5.2048467645525409E-01 
    4.7486307517159720E-01 
    3.1923372288123175E-01 
    1.1784732257935981E-02 
    3.2391677024887967E-06 
    1.0000009985879798E-06 
    9.9999999999999953E-07 
    9.9999999999999995E-07 
    9.9999999999999995E-07 
    7.0475673479533651E-01 
    6.9194677549769978E-01 
    6.6066134089282336E-01 
    6.2408694899222927E-01 
    5.9159917148332442E-01 
    5.6363789450620561E-01 
    5.3721998322485220E-01 
    5.0648167743111538E-01 
    4.5550481347688082E-01 
    2.4403575941560812E-01 
    1.9041767492430669E-03 
    1.1165449765126863E-06 
    1.0000000277559279E-06 
    9.9999999999999995E-07 
    9.9999999999999995E-07 
    9.9999999999999995E-07 
    6.5257506077384009E-01 
    6.4586281164351556E-01 
    6.2445055734206500E-01 
    5.9510993795413902E-01 
    5.6620994558519899E-01 
    5.4146718974046937E-01 
    5.1906871873829918E-01 
    4.9026244528618612E-01 
    4.2209958937739822E-01 
    1.4235319844000630E-01 
    1.3866143383380869E-04 
    1.0090055560649204E-06 
    1.0000000000000144E-06 
    9.9999999999999995E-07 
    9.9999999999999995E-07 
    9.9999999999999995E-07 
    6.0354513022212863E-01 
    6.0176160383646715E-01 
    5.8863411815285449E-01 
    5.6600883944463265E-01 
    5.4139662291887092E-01 
    5.1954039586247969E-01 
    4.9795670284237198E-01 
    4.6387520961753592E-01 
    3.3763007301913434E-01 
    3.5768161060797145E-02 
    5.9409425828784228E-05 
    1.0004179856160607E-06 
    1.0000000000000008E-06 
    9.9999999999999995E-07 
    9.9999999999999995E-07 
    9.9999999999999995E-07 
    5.6021117173587143E-01 
    5.6174712361641488E-01 
    5.5395336801412731E-01 
    5.3674127041453856E-01 
    5.1712446200882678E-01 
    4.9519403921069066E-01 
    4.6477860015426559E-01 
    3.8987313924575517E-01 
    1.4497246424955987E-01 
    5.9611001327845479E-04 
    1.0738140707327316E-06 
    1.0000000044922985E-06 
    1.0000000000000016E-06 
    9.9999999999999995E-07 
    9.9999999999999995E-07 
    9.9999999999999995E-07 
    5.1628577914153240E-01 
    5.2019145999820959E-01 
    5.1514679823742393E-01 
    5.0344328015436612E-01 
    4.8219414219914530E-01 
    4.4557239613394839E-01 
    3.5145617484975589E-01 
    1.4179871278232670E-01 
    3.3907026955638953E-03 
    1.3173809971706882E-06 
    1.0000000851003416E-06 
    1.0000000000000171E-06 
    9.9999999999999995E-07 
    9.9999999999999995E-07 
    9.9999999999999995E-07 
    9.9999999999999995E-07 
    4.0976188817493037E-01 
    4.3394499183546009E-01 
    4.4000316699347763E-01 
    4.1779079100752498E-01 
    3.3431910003018162E-01 
    1.9241440990593506E-01 
    5.2735919955748667E-02 
    4.9105100951196841E-04 
    1.1610264927602929E-06 
    1.0000001128696508E-06 
    1.0000000000000427E-06 
    9.9999999999999995E-07 
    9.9999999999999995E-07 
    9.9999999999999995E-07 
    9.9999999999999995E-07 
    9.9999999999999995E-07 
    6.0350381536229791E-02 
    1.2676335539151534E-01 
    1.3466163582515578E-01 
    8.5012406099310170E-02 
    2.0204942039805704E-02 
    4.7560469476915683E-04 
    6.1210407847167353E-05 
    1.0236542273562355E-06 
    1.0000000201993681E-06 
    1.0000000000000188E-06 
    9.9999999999999995E-07 
    9.9999999999999995E-07 
    9.9999999999999995E-07 
    9.9999999999999995E-07 
    9.9999999999999995E-07 
    9.9999999999999995E-07 
    1.0002738137833976E-06 
    3.8546386709830512E-05 
    1.2468488644560239E-05 
    4.4517743736187912E-05 
    1.0341452743541977E-05 
    1.0106270430415032E-06 
    1.0002008495869673E-06 
    1.0000000011850253E-06 
    1.0000000000000014E-06 
    9.9999999999999995E-07 
    9.9999999999999995E-07 
    9.9999999999999995E-07 
    9.9999999999999995E-07 
    9.9999999999999995E-07 
    9.9999999999999995E-07 
    9.9999999999999995E-07 
    1.0000000000852900E-06 
    1.0001198756035450E-06 
    1.0000461453157162E-06 
    1.0000850580899214E-06 
    1.0000041781523908E-06 
    1.0000000002717868E-06 
    1.0000000000000004E-06 
    9.9999999999999995E-07 
    9.9999999999999995E-07 
    9.9999999999999995E-07 
    9.9999999999999995E-07 
    9.9999999999999995E-07 
    9.9999999999999995E-07 
    9.9999999999999995E-07 
    9.9999999999999995E-07 
    9.9999999999999995E-07 
    9.9999999999999995E-07 
    1.0000000000072044E-06 
    9.9999999999999995E-07 
    1.0000000000033157E-06 
    9.9999999999999995E-07 
    9.9999999999999995E-07 
    9.9999999999999995E-07 
    9.9999999999999995E-07 
    9.9999999999999995E-07 
    9.9999999999999995E-07 
    9.9999999999999995E-07 
    9.9999999999999995E-07 
    9.9999999999999995E-07 
    9.9999999999999995E-07 
    9.9999999999999995E-07 
    1.0000003145486487E-06 
