# vtk DataFile Version 2.0
Pressure Field Data 
ASCII 
DATASET UNSTRUCTURED_GRID 

POINTS 289 double 

    0.0000000000000000E+00     0.0000000000000000E+00     0.0000000000000000E+00 
    1.0000000000000000E+00     0.0000000000000000E+00     0.0000000000000000E+00 
    1.0000000000000000E+00     1.0000000000000000E+00     0.0000000000000000E+00 
    0.0000000000000000E+00     1.0000000000000000E+00     0.0000000000000000E+00 
    6.2499999999872928E-02     0.0000000000000000E+00     0.0000000000000000E+00 
    1.2499999999977310E-01     0.0000000000000000E+00     0.0000000000000000E+00 
    1.8749999999959341E-01     0.0000000000000000E+00     0.0000000000000000E+00 
    2.4999999999941089E-01     0.0000000000000000E+00     0.0000000000000000E+00 
    3.1249999999922851E-01     0.0000000000000000E+00     0.0000000000000000E+00 
    3.7499999999904610E-01     0.0000000000000000E+00     0.0000000000000000E+00 
    4.3749999999886358E-01     0.0000000000000000E+00     0.0000000000000000E+00 
    4.9999999999869210E-01     0.0000000000000000E+00     0.0000000000000000E+00 
    5.6249999999884603E-01     0.0000000000000000E+00     0.0000000000000000E+00 
    6.2499999999901090E-01     0.0000000000000000E+00     0.0000000000000000E+00 
    6.8749999999917577E-01     0.0000000000000000E+00     0.0000000000000000E+00 
    7.4999999999934064E-01     0.0000000000000000E+00     0.0000000000000000E+00 
    8.1249999999950551E-01     0.0000000000000000E+00     0.0000000000000000E+00 
    8.7499999999967026E-01     0.0000000000000000E+00     0.0000000000000000E+00 
    9.3749999999983513E-01     0.0000000000000000E+00     0.0000000000000000E+00 
    1.0000000000000000E+00     6.2499999999872928E-02     0.0000000000000000E+00 
    1.0000000000000000E+00     1.2499999999977310E-01     0.0000000000000000E+00 
    1.0000000000000000E+00     1.8749999999959341E-01     0.0000000000000000E+00 
    1.0000000000000000E+00     2.4999999999941089E-01     0.0000000000000000E+00 
    1.0000000000000000E+00     3.1249999999922851E-01     0.0000000000000000E+00 
    1.0000000000000000E+00     3.7499999999904610E-01     0.0000000000000000E+00 
    1.0000000000000000E+00     4.3749999999886358E-01     0.0000000000000000E+00 
    1.0000000000000000E+00     4.9999999999869210E-01     0.0000000000000000E+00 
    1.0000000000000000E+00     5.6249999999884603E-01     0.0000000000000000E+00 
    1.0000000000000000E+00     6.2499999999901090E-01     0.0000000000000000E+00 
    1.0000000000000000E+00     6.8749999999917577E-01     0.0000000000000000E+00 
    1.0000000000000000E+00     7.4999999999934064E-01     0.0000000000000000E+00 
    1.0000000000000000E+00     8.1249999999950551E-01     0.0000000000000000E+00 
    1.0000000000000000E+00     8.7499999999967026E-01     0.0000000000000000E+00 
    1.0000000000000000E+00     9.3749999999983513E-01     0.0000000000000000E+00 
    9.3749999999973976E-01     1.0000000000000000E+00     0.0000000000000000E+00 
    8.7499999999950118E-01     1.0000000000000000E+00     0.0000000000000000E+00 
    8.1249999999991318E-01     1.0000000000000000E+00     0.0000000000000000E+00 
    7.5000000000034706E-01     1.0000000000000000E+00     0.0000000000000000E+00 
    6.8750000000078049E-01     1.0000000000000000E+00     0.0000000000000000E+00 
    6.2500000000121403E-01     1.0000000000000000E+00     0.0000000000000000E+00 
    5.6250000000164757E-01     1.0000000000000000E+00     0.0000000000000000E+00 
    5.0000000000205946E-01     1.0000000000000000E+00     0.0000000000000000E+00 
    4.3750000000182099E-01     1.0000000000000000E+00     0.0000000000000000E+00 
    3.7500000000156092E-01     1.0000000000000000E+00     0.0000000000000000E+00 
    3.1250000000130068E-01     1.0000000000000000E+00     0.0000000000000000E+00 
    2.5000000000104050E-01     1.0000000000000000E+00     0.0000000000000000E+00 
    1.8750000000078040E-01     1.0000000000000000E+00     0.0000000000000000E+00 
    1.2500000000052031E-01     1.0000000000000000E+00     0.0000000000000000E+00 
    6.2500000000260125E-02     1.0000000000000000E+00     0.0000000000000000E+00 
    0.0000000000000000E+00     9.3749999999973976E-01     0.0000000000000000E+00 
    0.0000000000000000E+00     8.7499999999950118E-01     0.0000000000000000E+00 
    0.0000000000000000E+00     8.1249999999991318E-01     0.0000000000000000E+00 
    0.0000000000000000E+00     7.5000000000034706E-01     0.0000000000000000E+00 
    0.0000000000000000E+00     6.8750000000078049E-01     0.0000000000000000E+00 
    0.0000000000000000E+00     6.2500000000121403E-01     0.0000000000000000E+00 
    0.0000000000000000E+00     5.6250000000164757E-01     0.0000000000000000E+00 
    0.0000000000000000E+00     5.0000000000205946E-01     0.0000000000000000E+00 
    0.0000000000000000E+00     4.3750000000182099E-01     0.0000000000000000E+00 
    0.0000000000000000E+00     3.7500000000156092E-01     0.0000000000000000E+00 
    0.0000000000000000E+00     3.1250000000130068E-01     0.0000000000000000E+00 
    0.0000000000000000E+00     2.5000000000104050E-01     0.0000000000000000E+00 
    0.0000000000000000E+00     1.8750000000078040E-01     0.0000000000000000E+00 
    0.0000000000000000E+00     1.2500000000052031E-01     0.0000000000000000E+00 
    0.0000000000000000E+00     6.2500000000260125E-02     0.0000000000000000E+00 
    6.2499999999897131E-02     6.2500000000235922E-02     0.0000000000000000E+00 
    6.2499999999921327E-02     1.2500000000047351E-01     0.0000000000000000E+00 
    6.2499999999945530E-02     1.8750000000070621E-01     0.0000000000000000E+00 
    6.2499999999969733E-02     2.5000000000093858E-01     0.0000000000000000E+00 
    6.2499999999993928E-02     3.1250000000117117E-01     0.0000000000000000E+00 
    6.2500000000018124E-02     3.7500000000140382E-01     0.0000000000000000E+00 
    6.2500000000042327E-02     4.3750000000163619E-01     0.0000000000000000E+00 
    6.2500000000066530E-02     5.0000000000184897E-01     0.0000000000000000E+00 
    6.2500000000090733E-02     5.6250000000147260E-01     0.0000000000000000E+00 
    6.2500000000114922E-02     6.2500000000107636E-01     0.0000000000000000E+00 
    6.2500000000139125E-02     6.8750000000068034E-01     0.0000000000000000E+00 
    6.2500000000163328E-02     7.5000000000028411E-01     0.0000000000000000E+00 
    6.2500000000187531E-02     8.1249999999988787E-01     0.0000000000000000E+00 
    6.2500000000211720E-02     8.7499999999951172E-01     0.0000000000000000E+00 
    6.2500000000235922E-02     9.3749999999974565E-01     0.0000000000000000E+00 
    1.2499999999981980E-01     6.2500000000211733E-02     0.0000000000000000E+00 
    1.2499999999986650E-01     1.2500000000042691E-01     0.0000000000000000E+00 
    1.2499999999991319E-01     1.8750000000063199E-01     0.0000000000000000E+00 
    1.2499999999995989E-01     2.5000000000083678E-01     0.0000000000000000E+00 
    1.2500000000000661E-01     3.1250000000104172E-01     0.0000000000000000E+00 
    1.2500000000005329E-01     3.7500000000124661E-01     0.0000000000000000E+00 
    1.2500000000010000E-01     4.3750000000145117E-01     0.0000000000000000E+00 
    1.2500000000014669E-01     5.0000000000163858E-01     0.0000000000000000E+00 
    1.2500000000019340E-01     5.6250000000129741E-01     0.0000000000000000E+00 
    1.2500000000024011E-01     6.2500000000093847E-01     0.0000000000000000E+00 
    1.2500000000028680E-01     6.8750000000057998E-01     0.0000000000000000E+00 
    1.2500000000033351E-01     7.5000000000022127E-01     0.0000000000000000E+00 
    1.2500000000038020E-01     8.1249999999986211E-01     0.0000000000000000E+00 
    1.2500000000042691E-01     8.7499999999952238E-01     0.0000000000000000E+00 
    1.2500000000047359E-01     9.3749999999975164E-01     0.0000000000000000E+00 
    1.8749999999966760E-01     6.2500000000187531E-02     0.0000000000000000E+00 
    1.8749999999974179E-01     1.2500000000038020E-01     0.0000000000000000E+00 
    1.8749999999981601E-01     1.8750000000055780E-01     0.0000000000000000E+00 
    1.8749999999989009E-01     2.5000000000073502E-01     0.0000000000000000E+00 
    1.8749999999996431E-01     3.1250000000091221E-01     0.0000000000000000E+00 
    1.8750000000003850E-01     3.7500000000108941E-01     0.0000000000000000E+00 
    1.8750000000011269E-01     4.3750000000126649E-01     0.0000000000000000E+00 
    1.8750000000018691E-01     5.0000000000142808E-01     0.0000000000000000E+00 
    1.8750000000026110E-01     5.6250000000112244E-01     0.0000000000000000E+00 
    1.8750000000033529E-01     6.2500000000080080E-01     0.0000000000000000E+00 
    1.8750000000040951E-01     6.8750000000047962E-01     0.0000000000000000E+00 
    1.8750000000048361E-01     7.5000000000015843E-01     0.0000000000000000E+00 
    1.8750000000055780E-01     8.1249999999983680E-01     0.0000000000000000E+00 
    1.8750000000063199E-01     8.7499999999953304E-01     0.0000000000000000E+00 
    1.8750000000070621E-01     9.3749999999975764E-01     0.0000000000000000E+00 
    2.4999999999951281E-01     6.2500000000163314E-02     0.0000000000000000E+00 
    2.4999999999961461E-01     1.2500000000033351E-01     0.0000000000000000E+00 
    2.4999999999971650E-01     1.8750000000048361E-01     0.0000000000000000E+00 
    2.4999999999981831E-01     2.5000000000063310E-01     0.0000000000000000E+00 
    2.4999999999992020E-01     3.1250000000078260E-01     0.0000000000000000E+00 
    2.5000000000002198E-01     3.7500000000093209E-01     0.0000000000000000E+00 
    2.5000000000012390E-01     4.3750000000108180E-01     0.0000000000000000E+00 
    2.5000000000022571E-01     5.0000000000121769E-01     0.0000000000000000E+00 
    2.5000000000032763E-01     5.6250000000094724E-01     0.0000000000000000E+00 
    2.5000000000042938E-01     6.2500000000066314E-01     0.0000000000000000E+00 
    2.5000000000053119E-01     6.8750000000037925E-01     0.0000000000000000E+00 
[...]
CELL_DATA 256 
SCALARS Pressure double 1 
LOOKUP_TABLE default 

    7.3734172503195328E-01 
    6.8689197987852513E-01 
    6.5415348671552653E-01 
    6.2414820325007980E-01 
    5.9350614249606148E-01 
    5.6142213385532880E-01 
    5.2767315213083643E-01 
    4.9234252330850392E-01 
    4.5574318909954048E-01 
    4.1846073121202321E-01 
    3.8148030851348397E-01 
    3.4635766641962440E-01 
    3.1532797734512114E-01 
    2.9112431990957455E-01 
    2.7543703377276579E-01 
    2.6781616891383536E-01 
    7.2337499439487318E-01 
    6.8823733635913342E-01 
    6.5663153859945156E-01 
    6.2687852630269347E-01 
    5.9644701454458948E-01 
    5.6456091712048406E-01 
    5.3099123144500193E-01 
    4.9579996003910454E-01 
    4.5926921867223885E-01 
    4.2193980726448871E-01 
    3.8473419826433780E-01 
    3.4913573918558577E-01 
    3.1733610629778614E-01 
    2.9214740571713271E-01 
    2.7556814299575283E-01 
    2.6737117007779226E-01 
    7.1265323802656566E-01 
    6.8742979782676372E-01 
    6.5834301735661205E-01 
    6.2926189664692811E-01 
    5.9917673436595131E-01 
    5.6754075887455313E-01 
    5.3417109587567801E-01 
    4.9912179532865175E-01 
    4.6264232793913546E-01 
    4.2521960162981137E-01 
    3.8769821256882336E-01 
    3.5147217286244264E-01 
    3.1868561595112121E-01 
    2.9226099437821196E-01 
    2.7462848501018533E-01 
    2.6589582726060706E-01 
    7.0421041538502904E-01 
    6.8552500024993002E-01 
    6.5932752907370418E-01 
    6.3127745921386980E-01 
    6.0169157898873693E-01 
    5.7036904204153216E-01 
    5.3722369270903969E-01 
    5.0232129896032829E-01 
    4.6588261021572769E-01 
    4.2833382700498596E-01 
    3.9042572660544189E-01 
    3.5343907529500579E-01 
    3.1944935844524813E-01 
    2.9149977003692923E-01 
    2.7255764511881042E-01 
    2.6321852031425053E-01 
    6.9739935068550019E-01 
    6.8311054775003233E-01 
    6.5971647852701842E-01 
    6.3293304399284989E-01 
    6.0398965311738217E-01 
    5.7305229106805389E-01 
    5.4016266035820382E-01 
    5.0541708126787843E-01 
    4.6901563970521321E-01 
    4.3132094119042119E-01 
    3.9297514461943089E-01 
    3.5511666669566627E-01 
    3.1971282804410761E-01 
    2.8990987958134573E-01 
    2.6929964701086451E-01 
    2.5917293244174078E-01 
    6.9182886555584544E-01 
    6.8053377152854189E-01 
    6.5966152867736261E-01 
    6.3426213569172862E-01 
    6.0607671616573411E-01 
    5.7559628176721689E-01 
    5.4300090663530365E-01 
    5.0843030546105927E-01 
    4.7207156521913662E-01 
    4.3422389317788901E-01 
    3.9540938846551477E-01 
    3.5659275555787012E-01 
    3.1957604006119544E-01 
    2.8755326917578106E-01 
    2.6479810569342693E-01 
    2.5356854395442907E-01 
    6.8724524880201354E-01 
    6.7801025264566939E-01 
    6.5931521514616653E-01 
    6.3532223229666807E-01 
    6.0797435545015821E-01 
    5.7801241772913170E-01 
    5.4575079051841391E-01 
    5.1138070081104159E-01 
    4.7508100005871701E-01 
    4.3708825883558922E-01 
    3.9779569152216271E-01 
    3.5796370698862723E-01 
    3.1915688551541344E-01 
    2.8451784140341058E-01 
    2.5900633199172862E-01 
    2.4618510895186016E-01 
    6.8346781189456451E-01 
    6.7566984812108843E-01 
    6.5881298248993636E-01 
    6.3618188402862696E-01 
    6.0971488546444119E-01 
    5.8031832679688011E-01 
    5.4842639439324259E-01 
    5.1428549399071377E-01 
    4.7807132872089331E-01 
    4.3995775991205288E-01 
    4.0020340527617082E-01 
    3.5933557243717168E-01 
    3.1859669640112875E-01 
    2.8092858936235487E-01 
    2.5190179704605736E-01 
    2.3676991987674417E-01 
    6.8036841834331285E-01 
    6.7358833696471154E-01 
    6.5826596277831662E-01 
    6.3691152294458186E-01 
    6.1133562792664908E-01 
    5.8253537030221969E-01 
    5.5104279024043079E-01 
    5.1715954951407150E-01 
    4.8106322092109965E-01 
    4.4286872408566763E-01 
    4.0269793428312095E-01 
    3.6082086707561711E-01 
    3.1806418176412360E-01 
    2.7696004275442926E-01 
    2.4349044146021323E-01 
    2.2500097562833141E-01 
    6.7785335525920887E-01 
    6.7180536912084043E-01 
    6.5775823921424648E-01 
    6.3757617998039129E-01 
    6.1287713095861462E-01 
    5.8468841215755296E-01 
    5.5361650281878982E-01 
    5.2001650016898482E-01 
    4.8407286487340534E-01 
    4.4584945153234601E-01 
    4.0533609094071421E-01 
    3.6253185926454545E-01 
    3.1775390444040758E-01 
    2.7285245677296061E-01 
    2.3382877408331862E-01 
    2.1044568583772760E-01 
    6.7585249916349399E-01 
    6.7034187065702522E-01 
    6.5735744603689317E-01 
    6.3823811438084432E-01 
    6.1438432999998993E-01 
    5.8680798788368960E-01 
    5.5616823590692210E-01 
    5.2287230190108935E-01 
    4.8711688681566101E-01 
    4.4892486016354571E-01 
    4.0816663167866191E-01 
    3.6457659565408551E-01 
    3.1788538508356901E-01 
    2.6893428171286010E-01 
    2.2307799252636404E-01 
    1.9253736507564809E-01 
    6.7431060646274421E-01 
    6.6921217747536432E-01 
    6.5712255383604412E-01 
    6.3895838989955822E-01 
    6.1590662420827869E-01 
    5.8893122364452344E-01 
    5.5872552632095307E-01 
    5.2574844619679550E-01 
    4.9021601774542573E-01 
    4.5211907948669766E-01 
    4.1122861393037607E-01 
    3.6704948801501719E-01 
    3.1869591391813484E-01 
    2.6563547309969671E-01 
    2.1156003686778765E-01 
    1.7048913487225356E-01 
    6.7319838970151757E-01 
    6.6844044159856386E-01 
    6.5711330142247626E-01 
    6.3980084875497600E-01 
    6.1749779681818839E-01 
    5.9109997416741844E-01 
    5.6131957270471455E-01 
    5.2866787742641619E-01 
    4.9338696228765599E-01 
    4.5544791749396107E-01 
    4.1454300847127712E-01 
    3.7001136825206182E-01 
    3.2040894208808618E-01 
    2.6352433946527165E-01 
    1.9995161241810661E-01 
    1.4317360936375112E-01 
    6.7246529815308187E-01 
    6.6802723706086709E-01 
    6.5736925642415667E-01 
    6.4081607021932729E-01 
    6.1920239240046138E-01 
    5.9334478932700718E-01 
    5.6396353545057187E-01 
    5.3161298454240358E-01 
    4.9656953563807354E-01 
    4.5881405585027907E-01 
    4.1799994666739282E-01 
    3.7336223259400569E-01 
    3.2305528228769104E-01 
    2.6309249968239368E-01 
    1.8933922411138196E-01 
    1.0876826584167934E-01 
    6.7194222831344796E-01 
    6.6782069294561608E-01 
    6.5778512711319592E-01 
    6.4193153250133117E-01 
    6.2095626408567894E-01 
    5.9560887387258310E-01 
    5.6660719341108201E-01 
    5.3453789774012861E-01 
    4.9971350035989398E-01 
    4.6216941766694386E-01 
    4.2157556115524780E-01 
    3.7710191138877369E-01 
    3.2663733337664957E-01 
    2.6474838605290418E-01 
    1.8140695450341671E-01 
    6.3797157444113281E-02 
    6.7175849106805419E-01 
    6.6796624616669753E-01 
    6.5850440295344626E-01 
    6.4327129638250502E-01 
    6.2285944127111781E-01 
    5.9798463849949124E-01 
    5.6936076219822873E-01 
    5.3759387650935020E-01 
    5.0302438837274044E-01 
    4.6573900821220188E-01 
    4.2544381108912033E-01 
    3.8132764264061447E-01 
    3.3132510838801343E-01 
    2.6954100868521830E-01 
    1.8100914626059580E-01 
    0.0000000000000000E+00 

SCALARS Saturarion double 1 
LOOKUP_TABLE default 

    1.0000000000000007E+00 
    9.7387233158621100E-01 
    9.2675005376057107E-01 
    8.6589425193738789E-01 
    8.1457212250786737E-01 
    7.6997974170431593E-01 
    7.3188645601146962E-01 
    6.9929528753582859E-01 
    6.7079023505324531E-01 
    6.4494915965469590E-01 
    6.2040397302819017E-01 
    5.9570178458125767E-01 
    5.6891789489769384E-01 
    5.3761830764949392E-01 
    4.6044714021973421E-01 
    1.0868440770634610E-01 
    9.8992067604114675E-01 
    9.6515813686854091E-01 
    9.1580816221844652E-01 
    8.5810213233681565E-01 
    8.0910785710137967E-01 
    7.6642021982012176E-01 
    7.2935644216728657E-01 
    6.9716376941769642E-01 
    6.6888757708086477E-01 
    6.4335721505478616E-01 
    6.1944515384391674E-01 
    5.9574357261323097E-01 
    5.7012976967379847E-01 
    5.3980100139274267E-01 
    4.6659621593820511E-01 
    1.4218953339915436E-01 
    9.7404609328231573E-01 
    9.4944429941473818E-01 
    9.0008194711197842E-01 
    8.4457886736359122E-01 
    7.9837439969585799E-01 
    7.5886974771994631E-01 
    7.2402333429002308E-01 
    6.9279056644909354E-01 
    6.6481132924659092E-01 
    6.3955629664518310E-01 
    6.1637781329253671E-01 
    5.9405529998210138E-01 
    5.7046163770326830E-01 
    5.4230202221429902E-01 
    4.7596638631266663E-01 
    1.7887772960480641E-01 
    9.4628783250546622E-01 
    9.2574563386308073E-01 
    8.8106437446519237E-01 
    8.2978318127729134E-01 
    7.8464149000230632E-01 
    7.4711949245780263E-01 
    7.1468509857180229E-01 
    6.8567230258399414E-01 
    6.5922004991165084E-01 
    6.3515301656879697E-01 
    6.1293876670275926E-01 
    5.9182416675750305E-01 
    5.7009782386554919E-01 
    5.4447150229851760E-01 
    4.8530996542069987E-01 
    2.1611709894391173E-01 
    9.1296030617388169E-01 
    8.9520956594635437E-01 
    8.5581234070202894E-01 
    8.0976913559901598E-01 
    7.6720033630779527E-01 
    7.3116863957134537E-01 
    7.0075809889987684E-01 
    6.7423799003415208E-01 
    6.5048869309738955E-01 
    6.2885453557469839E-01 
    6.0880769479804908E-01 
    5.8951460841050907E-01 
    5.6950985935629206E-01 
    5.4612878604401394E-01 
    4.9404232019709859E-01 
    2.4450736293424399E-01 
    8.7669226787224463E-01 
    8.6206190756167600E-01 
    8.2810774550578992E-01 
    7.8702705637114501E-01 
    7.4805159550210043E-01 
    7.1397505705650288E-01 
    6.8470426667812634E-01 
    6.5982999118557040E-01 
    6.3840263896619853E-01 
    6.1943541750649134E-01 
    6.0215738880824399E-01 
    5.8581999144119212E-01 
    5.6858283605407611E-01 
    5.4744119393044988E-01 
    5.0139646626512790E-01 
    2.6931078092852573E-01 
    8.3803070859384166E-01 
    8.2710680996788111E-01 
    7.9900742497348420E-01 
    7.6291520123384127E-01 
    7.2770972999948103E-01 
    6.9613060197034426E-01 
    6.6863786403394976E-01 
    6.4483006744887039E-01 
    6.2465169229468642E-01 
    6.0759683367515227E-01 
    5.9293655051898020E-01 
    5.7971306517523835E-01 
    5.6626363715732042E-01 
    5.4857435163959345E-01 
    5.0834753974633584E-01 
    2.9340140871010967E-01 
    7.9687654347893822E-01 
    7.9007599054081057E-01 
    7.6850164000932208E-01 
    7.3777556472374084E-01 
    7.0595457907031778E-01 
    6.7676801573623158E-01 
    6.5097766719415029E-01 
    6.2872191992225002E-01 
    6.0974737073671370E-01 
    5.9403719252932985E-01 
    5.8134870838204833E-01 
    5.7114738683306598E-01 
    5.6172800602492834E-01 
    5.4885886529317751E-01 
    5.1491823765006850E-01 
    3.1757212329533302E-01 
    7.5349863110246296E-01 
    7.5057528249278038E-01 
    7.3517670123557799E-01 
    7.1007617638117515E-01 
    6.8222537119373572E-01 
    6.5554987279089227E-01 
    6.3163433406495950E-01 
    6.1065357029301770E-01 
    5.9264948519527239E-01 
    5.7786630273332840E-01 
    5.6680483480314170E-01 
    5.5951045918897557E-01 
    5.5451868248770575E-01 
    5.4732131370614834E-01 
    5.2082267729357279E-01 
    3.4002987912931920E-01 
    7.0786062095814040E-01 
    7.0846849702035408E-01 
    6.9870275959394879E-01 
    6.7889390874409405E-01 
    6.5536221813633422E-01 
    6.3183730258487647E-01 
    6.0996002689672491E-01 
    5.9055847715011234E-01 
    5.7368173675398748E-01 
    5.5966190739944455E-01 
    5.4938885316676078E-01 
    5.4408053834285952E-01 
    5.4357690770508149E-01 
    5.4315440459655095E-01 
    5.2523791450207946E-01 
    3.6168446012238831E-01 
    6.5963066615533539E-01 
    6.6342505080363501E-01 
    6.5880495204285894E-01 
    6.4393100595860231E-01 
    6.2483975477027387E-01 
    6.0512044481481198E-01 
    5.8634442843166701E-01 
    5.6885103842254825E-01 
    5.5341963320226695E-01 
    5.4064114526497797E-01 
    5.3119898187596448E-01 
    5.2634683803317961E-01 
    5.2820713347306070E-01 
    5.3502174114898615E-01 
    5.2770066753313793E-01 
    3.8327141359290240E-01 
    6.0833457605028396E-01 
    6.1488817161853826E-01 
    6.1535920480845552E-01 
    6.0561879807849561E-01 
    5.9094664684501896E-01 
    5.7485414410675739E-01 
    5.5901168473973117E-01 
    5.4440079177308920E-01 
    5.3153547630547560E-01 
    5.2073257787628147E-01 
    5.1231854514052855E-01 
    5.0770237179598454E-01 
    5.0967309685479334E-01 
    5.2133440777753681E-01 
    5.2455341642070552E-01 
    4.0419963505565132E-01 
    5.5784872862222301E-01 
    5.6585991279375092E-01 
    5.7010375795528456E-01 
    5.6508365593924292E-01 
    5.5459451328660592E-01 
    5.4139689202917918E-01 
    5.2821939421415320E-01 
    5.1582806285207494E-01 
    5.0372894933714396E-01 
    4.9279932847566771E-01 
    4.8577732900429771E-01 
    4.8304944775338127E-01 
    4.8651722364102379E-01 
    5.0159145149872453E-01 
    5.1880682200176209E-01 
    4.2271750900202743E-01 
    4.8266636836694565E-01 
    4.9928192955030753E-01 
    5.1034159066982454E-01 
    5.1199783800971643E-01 
    5.0383841710024846E-01 
    4.9160441117707798E-01 
    4.7649058380973780E-01 
    4.5943681642150574E-01 
    4.2910748487550532E-01 
    3.8866097962668122E-01 
    3.4825857857881443E-01 
    3.4931767457882062E-01 
    3.8598587215271685E-01 
    4.4588209725289357E-01 
    4.9686609835734274E-01 
    4.3530777589670605E-01 
    1.6738978590804007E-01 
    2.4787941857389503E-01 
    2.9656769351948797E-01 
    3.0701137765037873E-01 
    2.8979335632564474E-01 
    2.3786481697108888E-01 
    2.0714947023944708E-01 
    1.4356652758398963E-01 
    8.0607338606905929E-02 
    3.7691570386773315E-02 
    1.1647156479335091E-02 
    2.0680551103764499E-02 
    7.3044626573930044E-02 
    2.1086994929093394E-01 
    4.2555992499445533E-01 
    4.3897146213840305E-01 
    1.0061303392752527E-06 
    8.9352481089154914E-04 
    2.1611401896627319E-03 
    1.3281080186376330E-03 
    1.9641938841535264E-03 
    8.6325978880376372E-05 
    1.5778290485571396E-04 
    6.4184426827420837E-06 
    6.3324512687173096E-06 
    7.5496045557706731E-06 
    1.2813427226753882E-06 
    2.8286108290686881E-06 
    1.2763419852692993E-04 
    3.6156186376789717E-02 
    2.4974030311166545E-01 
    3.8982082663638656E-01 
