# vtk DataFile Version 2.0
Pressure Field Data 
ASCII 
DATASET UNSTRUCTURED_GRID 

POINTS 289 double 

    0.0000000000000000E+00     0.0000000000000000E+00     0.0000000000000000E+00 
    1.0000000000000000E+00     0.0000000000000000E+00     0.0000000000000000E+00 
    1.0000000000000000E+00     1.0000000000000000E+00     0.0000000000000000E+00 
    0.0000000000000000E+00     1.0000000000000000E+00     0.0000000000000000E+00 
    6.2499999999872928E-02     0.0000000000000000E+00     0.0000000000000000E+00 
    1.2499999999977310E-01     0.0000000000000000E+00     0.0000000000000000E+00 
    1.8749999999959341E-01     0.0000000000000000E+00     0.0000000000000000E+00 
    2.4999999999941089E-01     0.0000000000000000E+00     0.0000000000000000E+00 
    3.1249999999922851E-01     0.0000000000000000E+00     0.0000000000000000E+00 
    3.7499999999904610E-01     0.0000000000000000E+00     0.0000000000000000E+00 
    4.3749999999886358E-01     0.0000000000000000E+00     0.0000000000000000E+00 
    4.9999999999869210E-01     0.0000000000000000E+00     0.0000000000000000E+00 
    5.6249999999884603E-01     0.0000000000000000E+00     0.0000000000000000E+00 
    6.2499999999901090E-01     0.0000000000000000E+00     0.0000000000000000E+00 
    6.8749999999917577E-01     0.0000000000000000E+00     0.0000000000000000E+00 
    7.4999999999934064E-01     0.0000000000000000E+00     0.0000000000000000E+00 
    8.1249999999950551E-01     0.0000000000000000E+00     0.0000000000000000E+00 
    8.7499999999967026E-01     0.0000000000000000E+00     0.0000000000000000E+00 
    9.3749999999983513E-01     0.0000000000000000E+00     0.0000000000000000E+00 
    1.0000000000000000E+00     6.2499999999872928E-02     0.0000000000000000E+00 
    1.0000000000000000E+00     1.2499999999977310E-01     0.0000000000000000E+00 
    1.0000000000000000E+00     1.8749999999959341E-01     0.0000000000000000E+00 
    1.0000000000000000E+00     2.4999999999941089E-01     0.0000000000000000E+00 
    1.0000000000000000E+00     3.1249999999922851E-01     0.0000000000000000E+00 
    1.0000000000000000E+00     3.7499999999904610E-01     0.0000000000000000E+00 
    1.0000000000000000E+00     4.3749999999886358E-01     0.0000000000000000E+00 
    1.0000000000000000E+00     4.9999999999869210E-01     0.0000000000000000E+00 
    1.0000000000000000E+00     5.6249999999884603E-01     0.0000000000000000E+00 
    1.0000000000000000E+00     6.2499999999901090E-01     0.0000000000000000E+00 
    1.0000000000000000E+00     6.8749999999917577E-01     0.0000000000000000E+00 
    1.0000000000000000E+00     7.4999999999934064E-01     0.0000000000000000E+00 
    1.0000000000000000E+00     8.1249999999950551E-01     0.0000000000000000E+00 
    1.0000000000000000E+00     8.7499999999967026E-01     0.0000000000000000E+00 
    1.0000000000000000E+00     9.3749999999983513E-01     0.0000000000000000E+00 
    9.3749999999973976E-01     1.0000000000000000E+00     0.0000000000000000E+00 
    8.7499999999950118E-01     1.0000000000000000E+00     0.0000000000000000E+00 
    8.1249999999991318E-01     1.0000000000000000E+00     0.0000000000000000E+00 
    7.5000000000034706E-01     1.0000000000000000E+00     0.0000000000000000E+00 
    6.8750000000078049E-01     1.0000000000000000E+00     0.0000000000000000E+00 
    6.2500000000121403E-01     1.0000000000000000E+00     0.0000000000000000E+00 
    5.6250000000164757E-01     1.0000000000000000E+00     0.0000000000000000E+00 
    5.0000000000205946E-01     1.0000000000000000E+00     0.0000000000000000E+00 
    4.3750000000182099E-01     1.0000000000000000E+00     0.0000000000000000E+00 
    3.7500000000156092E-01     1.0000000000000000E+00     0.0000000000000000E+00 
    3.1250000000130068E-01     1.0000000000000000E+00     0.0000000000000000E+00 
    2.5000000000104050E-01     1.0000000000000000E+00     0.0000000000000000E+00 
    1.8750000000078040E-01     1.0000000000000000E+00     0.0000000000000000E+00 
    1.2500000000052031E-01     1.0000000000000000E+00     0.0000000000000000E+00 
    6.2500000000260125E-02     1.0000000000000000E+00     0.0000000000000000E+00 
    0.0000000000000000E+00     9.3749999999973976E-01     0.0000000000000000E+00 
    0.0000000000000000E+00     8.7499999999950118E-01     0.0000000000000000E+00 
    0.0000000000000000E+00     8.1249999999991318E-01     0.0000000000000000E+00 
    0.0000000000000000E+00     7.5000000000034706E-01     0.0000000000000000E+00 
    0.0000000000000000E+00     6.8750000000078049E-01     0.0000000000000000E+00 
    0.0000000000000000E+00     6.2500000000121403E-01     0.0000000000000000E+00 
    0.0000000000000000E+00     5.6250000000164757E-01     0.0000000000000000E+00 
    0.0000000000000000E+00     5.0000000000205946E-01     0.0000000000000000E+00 
    0.0000000000000000E+00     4.3750000000182099E-01     0.0000000000000000E+00 
    0.0000000000000000E+00     3.7500000000156092E-01     0.0000000000000000E+00 
    0.0000000000000000E+00     3.1250000000130068E-01     0.0000000000000000E+00 
    0.0000000000000000E+00     2.5000000000104050E-01     0.0000000000000000E+00 
    0.0000000000000000E+00     1.8750000000078040E-01     0.0000000000000000E+00 
    0.0000000000000000E+00     1.2500000000052031E-01     0.0000000000000000E+00 
    0.0000000000000000E+00     6.2500000000260125E-02     0.0000000000000000E+00 
    6.2499999999897131E-02     6.2500000000235922E-02     0.0000000000000000E+00 
    6.2499999999921327E-02     1.2500000000047351E-01     0.0000000000000000E+00 
    6.2499999999945530E-02     1.8750000000070621E-01     0.0000000000000000E+00 
    6.2499999999969733E-02     2.5000000000093858E-01     0.0000000000000000E+00 
    6.2499999999993928E-02     3.1250000000117117E-01     0.0000000000000000E+00 
    6.2500000000018124E-02     3.7500000000140382E-01     0.0000000000000000E+00 
    6.2500000000042327E-02     4.3750000000163619E-01     0.0000000000000000E+00 
    6.2500000000066530E-02     5.0000000000184897E-01     0.0000000000000000E+00 
    6.2500000000090733E-02     5.6250000000147260E-01     0.0000000000000000E+00 
    6.2500000000114922E-02     6.2500000000107636E-01     0.0000000000000000E+00 
    6.2500000000139125E-02     6.8750000000068034E-01     0.0000000000000000E+00 
    6.2500000000163328E-02     7.5000000000028411E-01     0.0000000000000000E+00 
    6.2500000000187531E-02     8.1249999999988787E-01     0.0000000000000000E+00 
    6.2500000000211720E-02     8.7499999999951172E-01     0.0000000000000000E+00 
    6.2500000000235922E-02     9.3749999999974565E-01     0.0000000000000000E+00 
    1.2499999999981980E-01     6.2500000000211733E-02     0.0000000000000000E+00 
    1.2499999999986650E-01     1.2500000000042691E-01     0.0000000000000000E+00 
    1.2499999999991319E-01     1.8750000000063199E-01     0.0000000000000000E+00 
    1.2499999999995989E-01     2.5000000000083678E-01     0.0000000000000000E+00 
    1.2500000000000661E-01     3.1250000000104172E-01     0.0000000000000000E+00 
    1.2500000000005329E-01     3.7500000000124661E-01     0.0000000000000000E+00 
    1.2500000000010000E-01     4.3750000000145117E-01     0.0000000000000000E+00 
    1.2500000000014669E-01     5.0000000000163858E-01     0.0000000000000000E+00 
    1.2500000000019340E-01     5.6250000000129741E-01     0.0000000000000000E+00 
    1.2500000000024011E-01     6.2500000000093847E-01     0.0000000000000000E+00 
    1.2500000000028680E-01     6.8750000000057998E-01     0.0000000000000000E+00 
    1.2500000000033351E-01     7.5000000000022127E-01     0.0000000000000000E+00 
    1.2500000000038020E-01     8.1249999999986211E-01     0.0000000000000000E+00 
    1.2500000000042691E-01     8.7499999999952238E-01     0.0000000000000000E+00 
    1.2500000000047359E-01     9.3749999999975164E-01     0.0000000000000000E+00 
    1.8749999999966760E-01     6.2500000000187531E-02     0.0000000000000000E+00 
    1.8749999999974179E-01     1.2500000000038020E-01     0.0000000000000000E+00 
    1.8749999999981601E-01     1.8750000000055780E-01     0.0000000000000000E+00 
    1.8749999999989009E-01     2.5000000000073502E-01     0.0000000000000000E+00 
    1.8749999999996431E-01     3.1250000000091221E-01     0.0000000000000000E+00 
    1.8750000000003850E-01     3.7500000000108941E-01     0.0000000000000000E+00 
    1.8750000000011269E-01     4.3750000000126649E-01     0.0000000000000000E+00 
    1.8750000000018691E-01     5.0000000000142808E-01     0.0000000000000000E+00 
    1.8750000000026110E-01     5.6250000000112244E-01     0.0000000000000000E+00 
    1.8750000000033529E-01     6.2500000000080080E-01     0.0000000000000000E+00 
    1.8750000000040951E-01     6.8750000000047962E-01     0.0000000000000000E+00 
    1.8750000000048361E-01     7.5000000000015843E-01     0.0000000000000000E+00 
    1.8750000000055780E-01     8.1249999999983680E-01     0.0000000000000000E+00 
    1.8750000000063199E-01     8.7499999999953304E-01     0.0000000000000000E+00 
    1.8750000000070621E-01     9.3749999999975764E-01     0.0000000000000000E+00 
    2.4999999999951281E-01     6.2500000000163314E-02     0.0000000000000000E+00 
    2.4999999999961461E-01     1.2500000000033351E-01     0.0000000000000000E+00 
    2.4999999999971650E-01     1.8750000000048361E-01     0.0000000000000000E+00 
    2.4999999999981831E-01     2.5000000000063310E-01     0.0000000000000000E+00 
    2.4999999999992020E-01     3.1250000000078260E-01     0.0000000000000000E+00 
    2.5000000000002198E-01     3.7500000000093209E-01     0.0000000000000000E+00 
    2.5000000000012390E-01     4.3750000000108180E-01     0.0000000000000000E+00 
    2.5000000000022571E-01     5.0000000000121769E-01     0.0000000000000000E+00 
    2.5000000000032763E-01     5.6250000000094724E-01     0.0000000000000000E+00 
    2.5000000000042938E-01     6.2500000000066314E-01     0.0000000000000000E+00 
    2.5000000000053119E-01     6.8750000000037925E-01     0.0000000000000000E+00 
[...]
CELL_DATA 256 
SCALARS Pressure double 1 
LOOKUP_TABLE default 

    1.0080329963702874E+00 
    9.5312673065157050E-01 
    9.1367491698270975E-01 
    8.7487984827099352E-01 
    8.3354793713036412E-01 
    7.8931803240022258E-01 
    7.4235349015079133E-01 
    6.9279135161393635E-01 
    6.4042278000329889E-01 
    5.8314878404237158E-01 
    5.1526688708662938E-01 
    4.4894683663272356E-01 
    3.9719205755458137E-01 
    3.5731476279759694E-01 
    3.3221566658396190E-01 
    3.2215972824847539E-01 
    9.9412772552942197E-01 
    9.5490248065517114E-01 
    9.1675436029079971E-01 
    8.7836702233405206E-01 
    8.3744113238959084E-01 
    7.9357352258353175E-01 
    7.4690723472403953E-01 
    6.9761241501816729E-01 
    6.4554167517243188E-01 
    5.8867309771310372E-01 
    5.2108467223226895E-01 
    4.5400340980899212E-01 
    4.0079808848676779E-01 
    3.5931748963462229E-01 
    3.3266721305932578E-01 
    3.2170736651330384E-01 
    9.8330678947524230E-01 
    9.5433126610979613E-01 
    9.1888044195177265E-01 
    8.8130252310406809E-01 
    8.4092393011207933E-01 
    7.9749945008584566E-01 
    7.5117572771964314E-01 
    7.0215142113961249E-01 
    6.5030149152211580E-01 
    5.9355662560284494E-01 
    5.2606539104640682E-01 
    4.5835634236765982E-01 
    4.0356021492484467E-01 
    3.6017801121520054E-01 
    3.3179899454302630E-01 
    3.2008291746769607E-01 
    9.7445562415177445E-01 
    9.5241242918622482E-01 
    9.2007721588499891E-01 
    8.8369253021784455E-01 
    8.4400611382633617E-01 
    8.0110041857753578E-01 
    7.5517102953963999E-01 
    7.0643016440741258E-01 
    6.5474043793410530E-01 
    5.9786004488524225E-01 
    5.3031949190733618E-01 
    4.6210749439723575E-01 
    4.0555496112835088E-01 
    3.5993273693186612E-01 
    3.2952762330666913E-01 
    3.1706047798640752E-01 
    9.6693318559673114E-01 
    9.4969836764943849E-01 
    9.2046317122384280E-01 
    8.8556652210547326E-01 
    8.4672357120162001E-01 
    8.0440923547248000E-01 
    7.5892067124468132E-01 
    7.1047978432382985E-01 
    6.5891229182799060E-01 
    6.0163562192968001E-01 
    5.3393556527037267E-01 
    4.6538581092735731E-01 
    4.0688431083383464E-01 
    3.5863206941623227E-01 
    3.2576688368734946E-01 
    3.1240487807165906E-01 
    9.6048099944264076E-01 
    9.4660730244956115E-01 
    9.2022759850215818E-01 
    8.8699102759818804E-01 
    8.4913018561057918E-01 
    8.0747338691858339E-01 
    7.6245850730559261E-01 
    7.1433076334316392E-01 
    6.6285932326558894E-01 
    6.0493124375458640E-01 
    5.3700744318014215E-01 
    4.6833836654834898E-01 
    4.0767964073493834E-01 
    3.5635372661633341E-01 
    3.2043653370051328E-01 
    3.0586393412632989E-01 
    9.5493641347443792E-01 
    9.4343240153619123E-01 
    9.1957410077098378E-01 
    8.8805495089869702E-01 
    8.5128274312574703E-01 
    8.1034283732661505E-01 
    7.6582338576397258E-01 
    7.1801005082819580E-01 
    6.6656884959134111E-01 
    6.0780685638991683E-01 
    5.3969832702490717E-01 
    4.7109976437009071E-01 
    4.0809962955981210E-01 
    3.5321173599268552E-01 
    3.1346559899323628E-01 
    2.9714101370946444E-01 
    9.5018151498943559E-01 
    9.4036987978985387E-01 
    9.1868583328468667E-01 
    8.8885545111695918E-01 
    8.5323835741760812E-01 
    8.1306872911040662E-01 
    7.6906203535077022E-01 
    7.2154418143815569E-01 
    6.6992534094927025E-01 
    6.1030272143883413E-01 
    5.4226677555988334E-01 
    4.7377273391517655E-01 
    4.0832980093732024E-01 
    3.4937041565890287E-01 
    3.0480398363885342E-01 
    2.8587794110767561E-01 
    9.4614364269699325E-01 
    9.3755855400465604E-01 
    9.1772519957673715E-01 
    8.8949747813814339E-01 
    8.5506152161749593E-01 
    8.1570324537397354E-01 
    7.7221981859318345E-01 
    7.2492936955973541E-01 
    6.7278740080135879E-01 
    6.1250781772456597E-01 
    5.4505714683023332E-01 
    4.7646835794654435E-01 
    4.0858537335715184E-01 
    3.4506287358204757E-01 
    2.9444500508509691E-01 
    2.7162246438964938E-01 
    9.4279303850327079E-01 
    9.3510746669404199E-01 
    9.1683279628728909E-01 
    8.9008727508495999E-01 
    8.5682353312714366E-01 
    8.1828747180628714E-01 
    7.7529277742864633E-01 
    7.2798811044375433E-01 
    6.7513379166481324E-01 
    6.1477055929126834E-01 
    5.4833733939043794E-01 
    4.7936759995923728E-01 
    4.0912197753421620E-01 
    3.4062059762821706E-01 
    2.8247266771756424E-01 
    2.5378915454648893E-01 
    9.4010299267138786E-01 
    9.3309338228778271E-01 
    9.1612353417902381E-01 
    8.9071800849698668E-01 
    8.5857055093766399E-01 
    8.2076698712878993E-01 
    7.7804495904919191E-01 
    7.3052243373954107E-01 
    6.7731482235777996E-01 
    6.1756442107182075E-01 
    5.5207314986296041E-01 
    4.8266508868601987E-01 
    4.1022419422803064E-01 
    3.3649234490937036E-01 
    2.6912727953787519E-01 
    2.3160184089142563E-01 
    9.3786173938023709E-01 
    9.3143077486415815E-01 
    9.1557806003725661E-01 
    8.9130672537432976E-01 
    8.6007661259986290E-01 
    8.2287606697943683E-01 
    7.8035213226534939E-01 
    7.3289915651928406E-01 
    6.8002229350753762E-01 
    6.2104593999556168E-01 
    5.5618767923020795E-01 
    4.8650597648582783E-01 
    4.1218089887670190E-01 
    3.3325861689294911E-01 
    2.5491916651370677E-01 
    2.0401301169721436E-01 
    9.3570958836490026E-01 
    9.2972116981217967E-01 
    9.1486124679736192E-01 
    8.9164335230683189E-01 
    8.6127377577156805E-01 
    8.2477713689216303E-01 
    7.8279533053109518E-01 
    7.3579240335228424E-01 
    6.8343743348192687E-01 
    6.2505769806685041E-01 
    5.6074314709089690E-01 
    4.9099182826677723E-01 
    4.1525485098056486E-01 
    3.3163165027836161E-01 
    2.4082501193433400E-01 
    1.6957716509618714E-01 
    9.3412337937611711E-01 
    9.2840560102194380E-01 
    9.1438366680196936E-01 
    8.9218480487610763E-01 
    8.6276004607428369E-01 
    8.2708650963500541E-01 
    7.8578881393483058E-01 
    7.3926912979140968E-01 
    6.8736109325719164E-01 
    6.2955109690348232E-01 
    5.6578361984509862E-01 
    4.9618251887277864E-01 
    4.1964332044157798E-01 
    3.3241063945296390E-01 
    2.2862008969720776E-01 
    1.2625881567927619E-01 
    9.3332625306024386E-01 
    9.2795129526318909E-01 
    9.1470721076312733E-01 
    8.9341378010293893E-01 
    8.6483257958466009E-01 
    8.2987513848087002E-01 
    7.8919276672924854E-01 
    7.4318787812214937E-01 
    6.9177064905830765E-01 
    6.3452696416934173E-01 
    5.7132595174916423E-01 
    5.0208878516331923E-01 
    4.2542270175510793E-01 
    3.3632465457958571E-01 
    2.2142910631709276E-01 
    7.1144274697950899E-02 
    9.3310538581168723E-01 
    9.2816460097945352E-01 
    9.1567124735256589E-01 
    8.9520516197752886E-01 
    8.6739341364249811E-01 
    8.3310608851029910E-01 
    7.9301539227993545E-01 
    7.4754350892912147E-01 
    6.9665359470017096E-01 
    6.3998331662934971E-01 
    5.7736928188725456E-01 
    5.0867464575021470E-01 
    4.3250768352065178E-01 
    3.4366011613135528E-01 
    2.2465223391354833E-01 
    0.0000000000000000E+00 

SCALARS Saturarion double 1 
LOOKUP_TABLE default 

    1.0000000000001066E+00 
    9.4978459746364596E-01 
    8.7188762394367514E-01 
    7.7713647503349848E-01 
    7.0331028594096079E-01 
    6.4876049811362257E-01 
    6.0434504667403277E-01 
    5.6413168030363003E-01 
    5.2265100766783212E-01 
    4.5343199373714776E-01 
    1.8460178953215345E-01 
    2.1092525803206406E-05 
    1.0000000000312523E-06 
    9.9999999999999995E-07 
    9.9999999999999995E-07 
    9.9999999999999995E-07 
    9.7722740063861180E-01 
    9.3019553571170088E-01 
    8.4943420464413366E-01 
    7.6721211430762259E-01 
    6.9826921873773773E-01 
    6.4383156208880254E-01 
    5.9970317312183097E-01 
    5.6054011258962166E-01 
    5.1991831465258198E-01 
    4.5010992906070491E-01 
    1.7751825015215644E-01 
    1.2741521660842424E-05 
    1.0000009627544097E-06 
    1.0000000000006581E-06 
    9.9999999999999995E-07 
    9.9999999999999995E-07 
    9.4061000270817408E-01 
    8.9877403952119361E-01 
    8.2021757595137823E-01 
    7.4907627462473914E-01 
    6.8715840669628114E-01 
    6.3409473527329674E-01 
    5.9109385989269125E-01 
    5.5385193740167027E-01 
    5.1458356316571685E-01 
    4.4468678476204943E-01 
    1.6803292900276315E-01 
    7.2754640358209123E-06 
    1.0000030802152013E-06 
    1.0000000000011475E-06 
    9.9999999999999995E-07 
    9.9999999999999995E-07 
    8.8082487649937646E-01 
    8.4914976496654593E-01 
    7.8284122947232115E-01 
    7.2122943526847716E-01 
    6.6924963387537018E-01 
    6.2325742439603471E-01 
    5.8370785405529579E-01 
    5.4852985926834685E-01 
    5.1039102042161155E-01 
    4.4107659582384523E-01 
    1.6313667916444471E-01 
    3.3096919433450337E-06 
    1.0000022778374711E-06 
    1.0000000000000144E-06 
    9.9999999999999995E-07 
    9.9999999999999995E-07 
    8.2269664147705790E-01 
    7.9658805389210507E-01 
    7.4343495628970135E-01 
    6.9122347174127852E-01 
    6.4719831544239681E-01 
    6.0879439903660770E-01 
    5.7400994915927817E-01 
    5.4118728782549463E-01 
    5.0459602741412257E-01 
    4.3375548138972986E-01 
    1.4821356036241001E-01 
    1.2506335691279778E-05 
    1.0000309802109471E-06 
    1.0000000000215893E-06 
    9.9999999999999995E-07 
    9.9999999999999995E-07 
    7.6680583971496752E-01 
    7.4741261951773341E-01 
    7.0593928813810891E-01 
    6.6158412011965417E-01 
    6.2353819843031633E-01 
    5.9093021202559948E-01 
    5.6042031503753020E-01 
    5.3041521154329507E-01 
    4.9521982222844946E-01 
    4.1722246658041318E-01 
    1.1248796373065713E-01 
    3.6645605892375557E-05 
    1.0002046978630378E-06 
    1.0000000000795179E-06 
    9.9999999999999995E-07 
    9.9999999999999995E-07 
    7.1321703528224667E-01 
    7.0038714568846150E-01 
    6.6892713363109024E-01 
    6.3186161229793336E-01 
    5.9884199518729753E-01 
    5.7062818316356134E-01 
    5.4481392200358869E-01 
    5.1728709343882739E-01 
    4.8066501370489201E-01 
    3.8247652442972835E-01 
    5.8296437093952283E-02 
    5.2672716447236871E-05 
    1.0003046948219865E-06 
    1.0000000000082833E-06 
    9.9999999999999995E-07 
    9.9999999999999995E-07 
    6.6122937400948900E-01 
    6.5438704279065085E-01 
    6.3260542264053543E-01 
    6.0285170518439279E-01 
    5.7356039670161107E-01 
    5.4831013477917101E-01 
    5.2643248293801759E-01 
    5.0244725013584612E-01 
    4.6180340167785949E-01 
    3.0515744571996439E-01 
    1.1982483346492618E-02 
    6.0119756395945524E-06 
    1.0000033081997891E-06 
    1.0000000000000002E-06 
    9.9999999999999995E-07 
    9.9999999999999995E-07 
    6.1170709590850425E-01 
    6.0975226400657256E-01 
    5.9630062693127794E-01 
    5.7352099862537786E-01 
    5.4849866624460886E-01 
    5.2625503687496944E-01 
    5.0630719487715070E-01 
    4.8154983333651513E-01 
    4.2167210332508798E-01 
    1.7110200699008316E-01 
    4.7502233138823941E-04 
    1.0354081655363827E-06 
    1.0000000028307879E-06 
    1.0000000000000002E-06 
    9.9999999999999995E-07 
    9.9999999999999995E-07 
    5.6724781514429901E-01 
    5.6875325072787397E-01 
    5.6115440026051189E-01 
    5.4380515722234668E-01 
    5.2397320800034253E-01 
    5.0362495869358825E-01 
    4.7961819233399461E-01 
    4.3897557365014062E-01 
    2.9190737176172443E-01 
    2.8914458668755826E-02 
    4.5139459711244775E-05 
    1.0002105985329361E-06 
    1.0000000000000059E-06 
    9.9999999999999995E-07 
    9.9999999999999995E-07 
    9.9999999999999995E-07 
    5.2501846303552202E-01 
    5.2880813826243711E-01 
    5.2379958636440027E-01 
    5.1157960847047357E-01 
    4.9383772625210087E-01 
    4.6609346202101110E-01 
    4.1145701393372247E-01 
    2.6128342211848182E-01 
    5.4375526590464067E-02 
    1.8839033591320668E-04 
    1.0049633929317581E-06 
    1.0000000000415537E-06 
    9.9999999999999995E-07 
    9.9999999999999995E-07 
    9.9999999999999995E-07 
    9.9999999999999995E-07 
    4.3805206428489019E-01 
    4.5551035063114087E-01 
    4.6090960442530809E-01 
    4.4556329758652541E-01 
    3.9230063915073365E-01 
    2.6814239726676314E-01 
    1.3288889296162698E-01 
    1.2723002555449399E-02 
    8.9188150017018231E-05 
    1.0031284410093535E-06 
    1.0000000009969349E-06 
    9.9999999999999995E-07 
    9.9999999999999995E-07 
    9.9999999999999995E-07 
    9.9999999999999995E-07 
    9.9999999999999995E-07 
    1.0824343899324305E-01 
    1.8338777037551185E-01 
    1.9814966701511358E-01 
    1.4891997667764462E-01 
    6.2941817815003770E-02 
    4.8209812443002981E-03 
    1.3454169975459423E-04 
    3.9117354041034476E-06 
    1.0003936052785425E-06 
    1.0000000001720340E-06 
    9.9999999999999974E-07 
    9.9999999999999995E-07 
    9.9999999999999995E-07 
    9.9999999999999995E-07 
    9.9999999999999995E-07 
    9.9999999999999995E-07 
    1.0004065622376563E-06 
    7.6440620037134706E-05 
    4.3917470956017972E-05 
    5.4918655227868624E-05 
    6.3283369294340073E-05 
    1.4018896611806852E-06 
    1.0036672584794277E-06 
    1.0000004702278703E-06 
    1.0000000000001931E-06 
    9.9999999999999995E-07 
    9.9999999999999995E-07 
    9.9999999999999995E-07 
    9.9999999999999995E-07 
    9.9999999999999995E-07 
    9.9999999999999995E-07 
    9.9999999999999995E-07 
    1.0000000002050213E-06 
    1.0002236446142490E-06 
    1.0000723429369328E-06 
    1.0002132335146335E-06 
    1.0002226617557382E-06 
    1.0000000366386917E-06 
    1.0000000000004637E-06 
    1.0000000000000004E-06 
    9.9999999999999995E-07 
    9.9999999999999995E-07 
    9.9999999999999995E-07 
    9.9999999999999995E-07 
    9.9999999999999995E-07 
    9.9999999999999995E-07 
    9.9999999999999995E-07 
    9.9999999999999995E-07 
    9.9999999999999995E-07 
    1.0000000000229899E-06 
    1.0000000000000436E-06 
    1.0000000000208827E-06 
    1.0000000000006467E-06 
    9.9999999999999995E-07 
    9.9999999999999995E-07 
    9.9999999999999995E-07 
    9.9999999999999995E-07 
    9.9999999999999995E-07 
    9.9999999999999995E-07 
    9.9999999999999995E-07 
    9.9999999999999995E-07 
    9.9999999999999995E-07 
    9.9999999999999995E-07 
    1.0000003323157844E-06 
