# vtk DataFile Version 2.0
Pressure Field Data 
ASCII 
DATASET UNSTRUCTURED_GRID 

POINTS 289 double 

    0.0000000000000000E+00     0.0000000000000000E+00     0.0000000000000000E+00 
    1.0000000000000000E+00     0.0000000000000000E+00     0.0000000000000000E+00 
    1.0000000000000000E+00     1.0000000000000000E+00     0.0000000000000000E+00 
    0.0000000000000000E+00     1.0000000000000000E+00     0.0000000000000000E+00 
    6.2499999999872928E-02     0.0000000000000000E+00     0.0000000000000000E+00 
    1.2499999999977310E-01     0.0000000000000000E+00     0.0000000000000000E+00 
    1.8749999999959341E-01     0.0000000000000000E+00     0.0000000000000000E+00 
    2.4999999999941089E-01     0.0000000000000000E+00     0.0000000000000000E+00 
    3.1249999999922851E-01     0.0000000000000000E+00     0.0000000000000000E+00 
    3.7499999999904610E-01     0.0000000000000000E+00     0.0000000000000000E+00 
    4.3749999999886358E-01     0.0000000000000000E+00     0.0000000000000000E+00 
    4.9999999999869210E-01     0.0000000000000000E+00     0.0000000000000000E+00 
    5.6249999999884603E-01     0.0000000000000000E+00     0.0000000000000000E+00 
    6.2499999999901090E-01     0.0000000000000000E+00     0.0000000000000000E+00 
    6.8749999999917577E-01     0.0000000000000000E+00     0.0000000000000000E+00 
    7.4999999999934064E-01     0.0000000000000000E+00     0.0000000000000000E+00 
    8.1249999999950551E-01     0.0000000000000000E+00     0.0000000000000000E+00 
    8.7499999999967026E-01     0.0000000000000000E+00     0.0000000000000000E+00 
    9.3749999999983513E-01     0.0000000000000000E+00     0.0000000000000000E+00 
    1.0000000000000000E+00     6.2499999999872928E-02     0.0000000000000000E+00 
    1.0000000000000000E+00     1.2499999999977310E-01     0.0000000000000000E+00 
    1.0000000000000000E+00     1.8749999999959341E-01     0.0000000000000000E+00 
    1.0000000000000000E+00     2.4999999999941089E-01     0.0000000000000000E+00 
    1.0000000000000000E+00     3.1249999999922851E-01     0.0000000000000000E+00 
    1.0000000000000000E+00     3.7499999999904610E-01     0.0000000000000000E+00 
    1.0000000000000000E+00     4.3749999999886358E-01     0.0000000000000000E+00 
    1.0000000000000000E+00     4.9999999999869210E-01     0.0000000000000000E+00 
    1.0000000000000000E+00     5.6249999999884603E-01     0.0000000000000000E+00 
    1.0000000000000000E+00     6.2499999999901090E-01     0.0000000000000000E+00 
    1.0000000000000000E+00     6.8749999999917577E-01     0.0000000000000000E+00 
    1.0000000000000000E+00     7.4999999999934064E-01     0.0000000000000000E+00 
    1.0000000000000000E+00     8.1249999999950551E-01     0.0000000000000000E+00 
    1.0000000000000000E+00     8.7499999999967026E-01     0.0000000000000000E+00 
    1.0000000000000000E+00     9.3749999999983513E-01     0.0000000000000000E+00 
    9.3749999999973976E-01     1.0000000000000000E+00     0.0000000000000000E+00 
    8.7499999999950118E-01     1.0000000000000000E+00     0.0000000000000000E+00 
    8.1249999999991318E-01     1.0000000000000000E+00     0.0000000000000000E+00 
    7.5000000000034706E-01     1.0000000000000000E+00     0.0000000000000000E+00 
    6.8750000000078049E-01     1.0000000000000000E+00     0.0000000000000000E+00 
    6.2500000000121403E-01     1.0000000000000000E+00     0.0000000000000000E+00 
    5.6250000000164757E-01     1.0000000000000000E+00     0.0000000000000000E+00 
    5.0000000000205946E-01     1.0000000000000000E+00     0.0000000000000000E+00 
    4.3750000000182099E-01     1.0000000000000000E+00     0.0000000000000000E+00 
    3.7500000000156092E-01     1.0000000000000000E+00     0.0000000000000000E+00 
    3.1250000000130068E-01     1.0000000000000000E+00     0.0000000000000000E+00 
    2.5000000000104050E-01     1.0000000000000000E+00     0.0000000000000000E+00 
    1.8750000000078040E-01     1.0000000000000000E+00     0.0000000000000000E+00 
    1.2500000000052031E-01     1.0000000000000000E+00     0.0000000000000000E+00 
    6.2500000000260125E-02     1.0000000000000000E+00     0.0000000000000000E+00 
    0.0000000000000000E+00     9.3749999999973976E-01     0.0000000000000000E+00 
    0.0000000000000000E+00     8.7499999999950118E-01     0.0000000000000000E+00 
    0.0000000000000000E+00     8.1249999999991318E-01     0.0000000000000000E+00 
    0.0000000000000000E+00     7.5000000000034706E-01     0.0000000000000000E+00 
    0.0000000000000000E+00     6.8750000000078049E-01     0.0000000000000000E+00 
    0.0000000000000000E+00     6.2500000000121403E-01     0.0000000000000000E+00 
    0.0000000000000000E+00     5.6250000000164757E-01     0.0000000000000000E+00 
    0.0000000000000000E+00     5.0000000000205946E-01     0.0000000000000000E+00 
    0.0000000000000000E+00     4.3750000000182099E-01     0.0000000000000000E+00 
    0.0000000000000000E+00     3.7500000000156092E-01     0.0000000000000000E+00 
    0.0000000000000000E+00     3.1250000000130068E-01     0.0000000000000000E+00 
    0.0000000000000000E+00     2.5000000000104050E-01     0.0000000000000000E+00 
    0.0000000000000000E+00     1.8750000000078040E-01     0.0000000000000000E+00 
    0.0000000000000000E+00     1.2500000000052031E-01     0.0000000000000000E+00 
    0.0000000000000000E+00     6.2500000000260125E-02     0.0000000000000000E+00 
    6.2499999999897131E-02     6.2500000000235922E-02     0.0000000000000000E+00 
    6.2499999999921327E-02     1.2500000000047351E-01     0.0000000000000000E+00 
    6.2499999999945530E-02     1.8750000000070621E-01     0.0000000000000000E+00 
    6.2499999999969733E-02     2.5000000000093858E-01     0.0000000000000000E+00 
    6.2499999999993928E-02     3.1250000000117117E-01     0.0000000000000000E+00 
    6.2500000000018124E-02     3.7500000000140382E-01     0.0000000000000000E+00 
    6.2500000000042327E-02     4.3750000000163619E-01     0.0000000000000000E+00 
    6.2500000000066530E-02     5.0000000000184897E-01     0.0000000000000000E+00 
    6.2500000000090733E-02     5.6250000000147260E-01     0.0000000000000000E+00 
    6.2500000000114922E-02     6.2500000000107636E-01     0.0000000000000000E+00 
    6.2500000000139125E-02     6.8750000000068034E-01     0.0000000000000000E+00 
    6.2500000000163328E-02     7.5000000000028411E-01     0.0000000000000000E+00 
    6.2500000000187531E-02     8.1249999999988787E-01     0.0000000000000000E+00 
    6.2500000000211720E-02     8.7499999999951172E-01     0.0000000000000000E+00 
    6.2500000000235922E-02     9.3749999999974565E-01     0.0000000000000000E+00 
    1.2499999999981980E-01     6.2500000000211733E-02     0.0000000000000000E+00 
    1.2499999999986650E-01     1.2500000000042691E-01     0.0000000000000000E+00 
    1.2499999999991319E-01     1.8750000000063199E-01     0.0000000000000000E+00 
    1.2499999999995989E-01     2.5000000000083678E-01     0.0000000000000000E+00 
    1.2500000000000661E-01     3.1250000000104172E-01     0.0000000000000000E+00 
    1.2500000000005329E-01     3.7500000000124661E-01     0.0000000000000000E+00 
    1.2500000000010000E-01     4.3750000000145117E-01     0.0000000000000000E+00 
    1.2500000000014669E-01     5.0000000000163858E-01     0.0000000000000000E+00 
    1.2500000000019340E-01     5.6250000000129741E-01     0.0000000000000000E+00 
    1.2500000000024011E-01     6.2500000000093847E-01     0.0000000000000000E+00 
    1.2500000000028680E-01     6.8750000000057998E-01     0.0000000000000000E+00 
    1.2500000000033351E-01     7.5000000000022127E-01     0.0000000000000000E+00 
    1.2500000000038020E-01     8.1249999999986211E-01     0.0000000000000000E+00 
    1.2500000000042691E-01     8.7499999999952238E-01     0.0000000000000000E+00 
    1.2500000000047359E-01     9.3749999999975164E-01     0.0000000000000000E+00 
    1.8749999999966760E-01     6.2500000000187531E-02     0.0000000000000000E+00 
    1.8749999999974179E-01     1.2500000000038020E-01     0.0000000000000000E+00 
    1.8749999999981601E-01     1.8750000000055780E-01     0.0000000000000000E+00 
    1.8749999999989009E-01     2.5000000000073502E-01     0.0000000000000000E+00 
    1.8749999999996431E-01     3.1250000000091221E-01     0.0000000000000000E+00 
    1.8750000000003850E-01     3.7500000000108941E-01     0.0000000000000000E+00 
    1.8750000000011269E-01     4.3750000000126649E-01     0.0000000000000000E+00 
    1.8750000000018691E-01     5.0000000000142808E-01     0.0000000000000000E+00 
    1.8750000000026110E-01     5.6250000000112244E-01     0.0000000000000000E+00 
    1.8750000000033529E-01     6.2500000000080080E-01     0.0000000000000000E+00 
    1.8750000000040951E-01     6.8750000000047962E-01     0.0000000000000000E+00 
    1.8750000000048361E-01     7.5000000000015843E-01     0.0000000000000000E+00 
    1.8750000000055780E-01     8.1249999999983680E-01     0.0000000000000000E+00 
    1.8750000000063199E-01     8.7499999999953304E-01     0.0000000000000000E+00 
    1.8750000000070621E-01     9.3749999999975764E-01     0.0000000000000000E+00 
    2.4999999999951281E-01     6.2500000000163314E-02     0.0000000000000000E+00 
    2.4999999999961461E-01     1.2500000000033351E-01     0.0000000000000000E+00 
    2.4999999999971650E-01     1.8750000000048361E-01     0.0000000000000000E+00 
    2.4999999999981831E-01     2.5000000000063310E-01     0.0000000000000000E+00 
    2.4999999999992020E-01     3.1250000000078260E-01     0.0000000000000000E+00 
    2.5000000000002198E-01     3.7500000000093209E-01     0.0000000000000000E+00 
    2.5000000000012390E-01     4.3750000000108180E-01     0.0000000000000000E+00 
    2.5000000000022571E-01     5.0000000000121769E-01     0.0000000000000000E+00 
    2.5000000000032763E-01     5.6250000000094724E-01     0.0000000000000000E+00 
    2.5000000000042938E-01     6.2500000000066314E-01     0.0000000000000000E+00 
    2.5000000000053119E-01     6.8750000000037925E-01     0.0000000000000000E+00 
[...]
CELL_DATA 256 
SCALARS Pressure double 1 
LOOKUP_TABLE default 

    6.8283705790337645E-01 
    6.3302699254837114E-01 
    6.0129670419884174E-01 
    5.7262849991483056E-01 
    5.4360714759617235E-01 
    5.1338376228147775E-01 
    4.8169749662943373E-01 
    4.4859458573346406E-01 
    4.1434831349820039E-01 
    3.7949197692367259E-01 
    3.4493377190025754E-01 
    3.1211165827328113E-01 
    2.8308128355632112E-01 
    2.6032136240819265E-01 
    2.4582615165151137E-01 
    2.3881968315026297E-01 
    6.6885170093184187E-01 
    6.3430166999802351E-01 
    6.0367288368041938E-01 
    5.7523161036157289E-01 
    5.4639713566332559E-01 
    5.1634832193361513E-01 
    4.8482018031649804E-01 
    4.5184034784020716E-01 
    4.1765387672841636E-01 
    3.8275233685153259E-01 
    3.4798524590920682E-01 
    3.1472332529979852E-01 
    2.8498286399774803E-01 
    2.6130380499794753E-01 
    2.4594089216814402E-01 
    2.3839474874898062E-01 
    6.5811996101672676E-01 
    6.3344267641060681E-01 
    6.0530157842895183E-01 
    5.7750746560230659E-01 
    5.4899727318426161E-01 
    5.1917578608254455E-01 
    4.8782527195091818E-01 
    4.5496945865722177E-01 
    4.2082517967318184E-01 
    3.8583470901674677E-01 
    3.5077523766519553E-01 
    3.1693452512921894E-01 
    2.8628571268520564E-01 
    2.6146539592789725E-01 
    2.4508513092963613E-01 
    2.3704195439469633E-01 
    6.4969412618407119E-01 
    6.3151013122178856E-01 
    6.0622464065890513E-01 
    5.7943362277031452E-01 
    5.5139997983501221E-01 
    5.2187068027383920E-01 
    4.9072314670065842E-01 
    4.5799594161516066E-01 
    4.2388250656938309E-01 
    3.8877074132215561E-01 
    3.5335197866923079E-01 
    3.1881004684263481E-01 
    2.8705608808130711E-01 
    2.6083798004873548E-01 
    2.4321418832210892E-01 
    2.3462561162092371E-01 
    6.4293345068609853E-01 
    6.2909682200108585E-01 
    6.0657544456771473E-01 
    5.8101848555231017E-01 
    5.5360134778983683E-01 
    5.2443585685821625E-01 
    4.9352428312648122E-01 
    4.6093646709317648E-01 
    4.2684987773753419E-01 
    3.9159616610729331E-01 
    3.5576841647440083E-01 
    3.2042163983705879E-01 
    2.8737063446639011E-01 
    2.5946171193177631E-01 
    2.4027935742493475E-01 
    2.3100090122422232E-01 
    6.3743585954514626E-01 
    6.2654679249382361E-01 
    6.0650474910006158E-01 
    5.8229501873224132E-01 
    5.5560560242711943E-01 
    5.2687377688141546E-01 
    4.9623713612003473E-01 
    4.6380761355463290E-01 
    4.2975339888663827E-01 
    3.9435015365734594E-01 
    3.5808239393167479E-01 
    3.2184879307493769E-01 
    2.8731880584039360E-01 
    2.5739130926578541E-01 
    2.3622976584268904E-01 
    2.2599592112087485E-01 
    6.3293698589716418E-01 
    6.2406828154534721E-01 
    6.0616036749457769E-01 
    5.8331718143839184E-01 
    5.5743194355700998E-01 
    5.2919369420115669E-01 
    4.9887080186614691E-01 
    4.6662426875919727E-01 
    4.3261818356849163E-01 
    3.9707310318227118E-01 
    3.6035594890015094E-01 
    3.2318020368379391E-01 
    2.8700676971689232E-01 
    2.5470395244661082E-01 
    2.3102233545897069E-01 
    2.1941514723488395E-01 
    6.2924950724012652E-01 
    6.2178393749148175E-01 
    6.0567191397384434E-01 
    5.8414944347703335E-01 
    5.5911032148166162E-01 
    5.3141185971354410E-01 
    5.0143754647874328E-01 
    4.6940024244999401E-01 
    4.3546639104651186E-01 
    3.9980256264629260E-01 
    3.6265188052780306E-01 
    3.2451365045396180E-01 
    2.8656277322588719E-01 
    2.5151008203560288E-01 
    2.2463323215153247E-01 
    2.1103024966443551E-01 
    6.2623928299292753E-01 
    6.1976291428767494E-01 
    6.0514517756946651E-01 
    5.8485841191600918E-01 
    5.6067550041857972E-01 
    5.3354808362595707E-01 
    5.0395148832364667E-01 
    4.7214890325587733E-01 
    4.3831567888168571E-01 
    4.0256942816651275E-01 
    3.6502775550533290E-01 
    3.2595128409370216E-01 
    2.8613975539194891E-01 
    2.4796409954495705E-01 
    2.1706280356866287E-01 
    2.0054977158773815E-01 
    6.2380818443016239E-01 
    6.1804002715897544E-01 
    6.0466021095564770E-01 
    5.8550554137114352E-01 
    5.6216462151686475E-01 
    5.3562484724962844E-01 
    5.0642838268985158E-01 
    4.7488369187106050E-01 
    4.4118126899754551E-01 
    4.0539823381475004E-01 
    3.6753232946770770E-01 
    3.2759274653566223E-01 
    2.8591295154564350E-01 
    2.4427941295768746E-01 
    2.0835585755170336E-01 
    1.8758384220425237E-01 
    6.2188274215593331E-01 
    6.1663208258488900E-01 
    6.0428031634905599E-01 
    5.8614848201859648E-01 
    5.6361756736173707E-01 
    5.3766888429812798E-01 
    5.0888754400616698E-01 
    4.7762003614999754E-01 
    4.4407873864501046E-01 
    4.0831046339513855E-01 
    3.7020625397153167E-01 
    3.2953126051887865E-01 
    2.8607714098665837E-01 
    2.4074660353193211E-01 
    1.9864910807729405E-01 
    1.7162238104888961E-01 
    6.2040335700844440E-01 
    6.1554735426530605E-01 
    6.0405808011755968E-01 
    5.8684139767895771E-01 
    5.6507599898314576E-01 
    5.3971157763721589E-01 
    5.1135412338881803E-01 
    4.8037718286507447E-01 
    4.4702567242887231E-01 
    4.1132667592207328E-01 
    3.7308321494447366E-01 
    3.3184949903839939E-01 
    2.8684155283794205E-01 
    2.3774700232862214E-01 
    1.8822095776230169E-01 
    1.5194266465246847E-01 
    6.1932973225928134E-01 
    6.1479623019578611E-01 
    6.0404120120201832E-01 
    5.8763771334614012E-01 
    5.6658391389876706E-01 
    5.4178864692405315E-01 
    5.1385835048998962E-01 
    4.8317802668182402E-01 
    4.5004010952408008E-01 
    4.1446538926762105E-01 
    3.7618804153044377E-01 
    3.3461086591159128E-01 
    2.8841057039940060E-01 
    2.3578767525260530E-01 
    1.7766423865304340E-01 
    1.2749297799810225E-01 
    6.1863531798049998E-01 
    6.1439384665962282E-01 
    6.0427616450287125E-01 
    5.8859144746656511E-01 
    5.6818682897646977E-01 
    5.4393552126678513E-01 
    5.1643012437640223E-01 
    4.8604218596889343E-01 
    4.5312783471798374E-01 
    4.1772022365990630E-01 
    3.7951001663157019E-01 
    3.3782121824683625E-01 
    2.9091648428152667E-01 
    2.3545045280948174E-01 
    1.6813255365330151E-01 
    9.6729582711681028E-02 
    6.1818465884398133E-01 
    6.1425855083097136E-01 
    6.0473735924497130E-01 
    5.8969779827189972E-01 
    5.6987159080785965E-01 
    5.4611683544849765E-01 
    5.1902035509922995E-01 
    4.8892375270922855E-01 
    4.5623147160613492E-01 
    4.2101327805422001E-01 
    3.8294104323195410E-01 
    3.4131561985464676E-01 
    2.9422653524844827E-01 
    2.3702712408842044E-01 
    1.6129710674584680E-01 
    5.6830674777079399E-02 
    6.1802549496708004E-01 
    6.1443200841216639E-01 
    6.0546550628071205E-01 
    5.9099995353567381E-01 
    5.7167897290778957E-01 
    5.4835664674753493E-01 
    5.2163450221245256E-01 
    4.9184555142722991E-01 
    4.5940386863076615E-01 
    4.2441802603856627E-01 
    3.8658300228996068E-01 
    3.4522791451847112E-01 
    2.9857411974448927E-01 
    2.4121466337237010E-01 
    1.6069901683387863E-01 
    0.0000000000000000E+00 

SCALARS Saturarion double 1 
LOOKUP_TABLE default 

    1.0000000000000004E+00 
    9.7718762093827338E-01 
    9.3546753224216617E-01 
    8.7932407550527947E-01 
    8.3231468468184333E-01 
    7.9095223818055638E-01 
    7.5491847205728679E-01 
    7.2359886656155470E-01 
    6.9596565270092747E-01 
    6.7091893018434479E-01 
    6.4733516155249671E-01 
    6.2387596011645041E-01 
    5.9848531131599514E-01 
    5.6767138679364171E-01 
    5.1570127736297156E-01 
    2.5259399403807981E-01 
    9.9146172246107322E-01 
    9.6986776146965648E-01 
    9.2613845633615177E-01 
    8.7261281482000685E-01 
    8.2707344535929694E-01 
    7.8723754143835556E-01 
    7.5228032794905841E-01 
    7.2155003281038022E-01 
    6.9429906977531297E-01 
    6.6958967483717236E-01 
    6.4652960034340778E-01 
    6.2391787913232888E-01 
    5.9963842129485889E-01 
    5.6982103383125993E-01 
    5.2047032730097231E-01 
    2.7984347744056010E-01 
    9.7797462818328551E-01 
    9.5633672968409145E-01 
    9.1239429666259919E-01 
    8.6059333087802803E-01 
    8.1677570311187353E-01 
    7.7947406791439267E-01 
    7.4674576311862828E-01 
    7.1733688795190520E-01 
    6.9074606454322318E-01 
    6.6645473869054350E-01 
    6.4394708612228035E-01 
    6.2232305513515085E-01 
    5.9980157700733472E-01 
    5.7230184434781295E-01 
    5.2673146377969671E-01 
    3.0458627157260110E-01 
    9.5445172928942257E-01 
    9.3619934669533256E-01 
    8.9557965669789696E-01 
    8.4784284906762342E-01 
    8.0478706284913826E-01 
    7.6860764512462576E-01 
    7.3755195384138550E-01 
    7.1006476211409453E-01 
    6.8505724135950308E-01 
    6.6213073354828134E-01 
    6.4071381641168990E-01 
    6.2018544048737867E-01 
    5.9922975561150560E-01 
    5.7429588457962077E-01 
    5.3284599304010127E-01 
    3.2852072743830701E-01 
    9.2557171025311447E-01 
    9.0941635230746265E-01 
    8.7314330727856537E-01 
    8.3012877233469085E-01 
    7.8923283019574031E-01 
    7.5396664436957916E-01 
    7.2416476038677335E-01 
    6.9845030186767432E-01 
    6.7568323173895151E-01 
    6.5507904161818575E-01 
    6.3601431080832160E-01 
    6.1759463495529587E-01 
    5.9843661316509689E-01 
    5.7573332664716781E-01 
    5.3833439210382084E-01 
    3.4810555336398447E-01 
    8.9313146727117643E-01 
    8.7965072840970771E-01 
    8.4808659505090833E-01 
    8.0917638747867593E-01 
    7.7141329040693496E-01 
    7.3793204467342743E-01 
    7.0900978601768394E-01 
    6.8437358260233372E-01 
    6.6323942648058842E-01 
    6.4480450600083861E-01 
    6.2839018180573170E-01 
    6.1315695503685486E-01 
    5.9709269109354735E-01 
    5.7684668693622132E-01 
    5.4326892346773803E-01 
    3.6576121412031770E-01 
    8.5797602131483275E-01 
    8.4773882841310200E-01 
    8.2119081685798123E-01 
    7.8653659648532903E-01 
    7.5221729268411675E-01 
    7.2116229297555512E-01 
    6.9391124127425674E-01 
    6.7008884009115866E-01 
    6.4974506704523161E-01 
    6.3264365433464398E-01 
    6.1837919372172956E-01 
    6.0616452378187657E-01 
    5.9412841535246341E-01 
    5.7766783247834252E-01 
    5.4768327051752819E-01 
    3.8308237093635344E-01 
    8.1991645042132810E-01 
    8.1335810312340995E-01 
    7.9256908254875247E-01 
    7.6274341314092908E-01 
    7.3161245610951875E-01 
    7.0283805608973227E-01 
    6.7716238039800936E-01 
    6.5476005115958236E-01 
    6.3547166097771379E-01 
    6.1938863486321816E-01 
    6.0651482236498322E-01 
    5.9679560351737637E-01 
    5.8876971946410239E-01 
    5.7747548230776913E-01 
    5.5224620543955738E-01 
    4.0050989024049766E-01 
    7.7912157015269723E-01 
    7.7616339058352446E-01 
    7.6103267462645718E-01 
    7.3638859873685636E-01 
    7.0895215774107212E-01 
    6.8247293078959859E-01 
    6.5853620673030888E-01 
    6.3742618811530605E-01 
    6.1920770699967209E-01 
    6.0401681197381629E-01 
    5.9234863483582068E-01 
    5.8472528202370855E-01 
    5.8058865141935379E-01 
    5.7526778420259805E-01 
    5.5594471295260040E-01 
    4.1701756355217667E-01 
    7.3562767941452900E-01 
    7.3604653962954603E-01 
    7.2621881211834982E-01 
    7.0650410687160725E-01 
    6.8302996820442219E-01 
    6.5938418258135012E-01 
    6.3729242483962212E-01 
    6.1778013775366369E-01 
    6.0088075718875078E-01 
    5.8661108938642459E-01 
    5.7558484612771921E-01 
    5.6933471980814221E-01 
    5.6876191614669502E-01 
    5.7012395152255502E-01 
    5.5848437009014340E-01 
    4.3323619668160107E-01 
    6.8907388549506432E-01 
    6.9263846827148967E-01 
    6.8774693073175019E-01 
    6.7261167938410826E-01 
    6.5314392503304652E-01 
    6.3289665048802435E-01 
    6.1366228501013864E-01 
    5.9597578788858485E-01 
    5.8045627127716837E-01 
    5.6738889864870734E-01 
    5.5726191329565544E-01 
    5.5142073759134624E-01 
    5.5264543030677094E-01 
    5.6068697871035555E-01 
    5.5871742789078427E-01 
    4.4960336455358563E-01 
    6.3816720477756983E-01 
    6.4476324921924788E-01 
    6.4491629609152201E-01 
    6.3448023719300917E-01 
    6.1886241910943429E-01 
    6.0190741682317583E-01 
    5.8557563647293875E-01 
    5.7062743792216586E-01 
    5.5721479387567174E-01 
    5.4587187065845921E-01 
    5.3721475490824033E-01 
    5.3230666760222645E-01 
    5.3364949915560644E-01 
    5.4557504674133339E-01 
    5.5361437464062835E-01 
    4.6487167370464855E-01 
    5.8432677170272229E-01 
    5.9292794045944608E-01 
    5.9727449593818394E-01 
    5.9171027051734870E-01 
    5.8061005077218464E-01 
    5.6715192715865437E-01 
    5.5385339803294531E-01 
    5.4132434733261015E-01 
    5.2992745487118209E-01 
    5.2005598273887110E-01 
    5.1288883087045500E-01 
    5.0956906099821608E-01 
    5.1218141951544915E-01 
    5.2530121492998483E-01 
    5.4506777383606320E-01 
    4.7767863477199990E-01 
    5.2524205355910780E-01 
    5.3751912754054176E-01 
    5.4488838556817676E-01 
    5.4398450493760075E-01 
    5.3595378835083995E-01 
    5.2452861750142021E-01 
    5.1165337277313971E-01 
    5.0037826318665668E-01 
    4.8893205526872718E-01 
    4.7477658404102768E-01 
    4.6206661377020131E-01 
    4.6043486276279327E-01 
    4.6789002764419846E-01 
    4.9367386786818312E-01 
    5.3016174513916869E-01 
    4.8659862765849093E-01 
    3.1195544801958841E-01 
    3.8046032087694570E-01 
    4.1578556236112807E-01 
    4.2490781413733969E-01 
    4.1356673144338629E-01 
    3.8987764737874947E-01 
    3.4093967115567753E-01 
    2.8256373717717503E-01 
    2.5738958089258052E-01 
    2.0868476841220349E-01 
    1.9699177067725870E-01 
    1.8073301106354517E-01 
    2.1436294269037143E-01 
    3.5108867966598695E-01 
    4.7632632910233735E-01 
    4.8742965029350144E-01 
    1.1494119200311733E-03 
    2.4458911898657343E-02 
    4.4542155755240918E-02 
    4.7775492082059230E-02 
    3.5668948831867948E-02 
    1.5744789883628405E-02 
    7.3226999302119476E-03 
    6.5085528841174294E-04 
    6.7437130473401320E-04 
    1.8777053351031868E-05 
    1.2601474803663147E-04 
    3.1132016867124104E-05 
    8.9886728471153747E-04 
    1.1004601778438983E-01 
    3.0076825861660844E-01 
    4.3636316680323378E-01 
