# vtk DataFile Version 2.0
Pressure Field Data 
ASCII 
DATASET UNSTRUCTURED_GRID 

POINTS 289 double 

    0.0000000000000000E+00     0.0000000000000000E+00     0.0000000000000000E+00 
    1.0000000000000000E+00     0.0000000000000000E+00     0.0000000000000000E+00 
    1.0000000000000000E+00     1.0000000000000000E+00     0.0000000000000000E+00 
    0.0000000000000000E+00     1.0000000000000000E+00     0.0000000000000000E+00 
    6.2499999999872928E-02     0.0000000000000000E+00     0.0000000000000000E+00 
    1.2499999999977310E-01     0.0000000000000000E+00     0.0000000000000000E+00 
    1.8749999999959341E-01     0.0000000000000000E+00     0.0000000000000000E+00 
    2.4999999999941089E-01     0.0000000000000000E+00     0.0000000000000000E+00 
    3.1249999999922851E-01     0.0000000000000000E+00     0.0000000000000000E+00 
    3.7499999999904610E-01     0.0000000000000000E+00     0.0000000000000000E+00 
    4.3749999999886358E-01     0.0000000000000000E+00     0.0000000000000000E+00 
    4.9999999999869210E-01     0.0000000000000000E+00     0.0000000000000000E+00 
    5.6249999999884603E-01     0.0000000000000000E+00     0.0000000000000000E+00 
    6.2499999999901090E-01     0.0000000000000000E+00     0.0000000000000000E+00 
    6.8749999999917577E-01     0.0000000000000000E+00     0.0000000000000000E+00 
    7.4999999999934064E-01     0.0000000000000000E+00     0.0000000000000000E+00 
    8.1249999999950551E-01     0.0000000000000000E+00     0.0000000000000000E+00 
    8.7499999999967026E-01     0.0000000000000000E+00     0.0000000000000000E+00 
    9.3749999999983513E-01     0.0000000000000000E+00     0.0000000000000000E+00 
    1.0000000000000000E+00     6.2499999999872928E-02     0.0000000000000000E+00 
    1.0000000000000000E+00     1.2499999999977310E-01     0.0000000000000000E+00 
    1.0000000000000000E+00     1.8749999999959341E-01     0.0000000000000000E+00 
    1.0000000000000000E+00     2.4999999999941089E-01     0.0000000000000000E+00 
    1.0000000000000000E+00     3.1249999999922851E-01     0.0000000000000000E+00 
    1.0000000000000000E+00     3.7499999999904610E-01     0.0000000000000000E+00 
    1.0000000000000000E+00     4.3749999999886358E-01     0.0000000000000000E+00 
    1.0000000000000000E+00     4.9999999999869210E-01     0.0000000000000000E+00 
    1.0000000000000000E+00     5.6249999999884603E-01     0.0000000000000000E+00 
    1.0000000000000000E+00     6.2499999999901090E-01     0.0000000000000000E+00 
    1.0000000000000000E+00     6.8749999999917577E-01     0.0000000000000000E+00 
    1.0000000000000000E+00     7.4999999999934064E-01     0.0000000000000000E+00 
    1.0000000000000000E+00     8.1249999999950551E-01     0.0000000000000000E+00 
    1.0000000000000000E+00     8.7499999999967026E-01     0.0000000000000000E+00 
    1.0000000000000000E+00     9.3749999999983513E-01     0.0000000000000000E+00 
    9.3749999999973976E-01     1.0000000000000000E+00     0.0000000000000000E+00 
    8.7499999999950118E-01     1.0000000000000000E+00     0.0000000000000000E+00 
    8.1249999999991318E-01     1.0000000000000000E+00     0.0000000000000000E+00 
    7.5000000000034706E-01     1.0000000000000000E+00     0.0000000000000000E+00 
    6.8750000000078049E-01     1.0000000000000000E+00     0.0000000000000000E+00 
    6.2500000000121403E-01     1.0000000000000000E+00     0.0000000000000000E+00 
    5.6250000000164757E-01     1.0000000000000000E+00     0.0000000000000000E+00 
    5.0000000000205946E-01     1.0000000000000000E+00     0.0000000000000000E+00 
    4.3750000000182099E-01     1.0000000000000000E+00     0.0000000000000000E+00 
    3.7500000000156092E-01     1.0000000000000000E+00     0.0000000000000000E+00 
    3.1250000000130068E-01     1.0000000000000000E+00     0.0000000000000000E+00 
    2.5000000000104050E-01     1.0000000000000000E+00     0.0000000000000000E+00 
    1.8750000000078040E-01     1.0000000000000000E+00     0.0000000000000000E+00 
    1.2500000000052031E-01     1.0000000000000000E+00     0.0000000000000000E+00 
    6.2500000000260125E-02     1.0000000000000000E+00     0.0000000000000000E+00 
    0.0000000000000000E+00     9.3749999999973976E-01     0.0000000000000000E+00 
    0.0000000000000000E+00     8.7499999999950118E-01     0.0000000000000000E+00 
    0.0000000000000000E+00     8.1249999999991318E-01     0.0000000000000000E+00 
    0.0000000000000000E+00     7.5000000000034706E-01     0.0000000000000000E+00 
    0.0000000000000000E+00     6.8750000000078049E-01     0.0000000000000000E+00 
    0.0000000000000000E+00     6.2500000000121403E-01     0.0000000000000000E+00 
    0.0000000000000000E+00     5.6250000000164757E-01     0.0000000000000000E+00 
    0.0000000000000000E+00     5.0000000000205946E-01     0.0000000000000000E+00 
    0.0000000000000000E+00     4.3750000000182099E-01     0.0000000000000000E+00 
    0.0000000000000000E+00     3.7500000000156092E-01     0.0000000000000000E+00 
    0.0000000000000000E+00     3.1250000000130068E-01     0.0000000000000000E+00 
    0.0000000000000000E+00     2.5000000000104050E-01     0.0000000000000000E+00 
    0.0000000000000000E+00     1.8750000000078040E-01     0.0000000000000000E+00 
    0.0000000000000000E+00     1.2500000000052031E-01     0.0000000000000000E+00 
    0.0000000000000000E+00     6.2500000000260125E-02     0.0000000000000000E+00 
    6.2499999999897131E-02     6.2500000000235922E-02     0.0000000000000000E+00 
    6.2499999999921327E-02     1.2500000000047351E-01     0.0000000000000000E+00 
    6.2499999999945530E-02     1.8750000000070621E-01     0.0000000000000000E+00 
    6.2499999999969733E-02     2.5000000000093858E-01     0.0000000000000000E+00 
    6.2499999999993928E-02     3.1250000000117117E-01     0.0000000000000000E+00 
    6.2500000000018124E-02     3.7500000000140382E-01     0.0000000000000000E+00 
    6.2500000000042327E-02     4.3750000000163619E-01     0.0000000000000000E+00 
    6.2500000000066530E-02     5.0000000000184897E-01     0.0000000000000000E+00 
    6.2500000000090733E-02     5.6250000000147260E-01     0.0000000000000000E+00 
    6.2500000000114922E-02     6.2500000000107636E-01     0.0000000000000000E+00 
    6.2500000000139125E-02     6.8750000000068034E-01     0.0000000000000000E+00 
    6.2500000000163328E-02     7.5000000000028411E-01     0.0000000000000000E+00 
    6.2500000000187531E-02     8.1249999999988787E-01     0.0000000000000000E+00 
    6.2500000000211720E-02     8.7499999999951172E-01     0.0000000000000000E+00 
    6.2500000000235922E-02     9.3749999999974565E-01     0.0000000000000000E+00 
    1.2499999999981980E-01     6.2500000000211733E-02     0.0000000000000000E+00 
    1.2499999999986650E-01     1.2500000000042691E-01     0.0000000000000000E+00 
    1.2499999999991319E-01     1.8750000000063199E-01     0.0000000000000000E+00 
    1.2499999999995989E-01     2.5000000000083678E-01     0.0000000000000000E+00 
    1.2500000000000661E-01     3.1250000000104172E-01     0.0000000000000000E+00 
    1.2500000000005329E-01     3.7500000000124661E-01     0.0000000000000000E+00 
    1.2500000000010000E-01     4.3750000000145117E-01     0.0000000000000000E+00 
    1.2500000000014669E-01     5.0000000000163858E-01     0.0000000000000000E+00 
    1.2500000000019340E-01     5.6250000000129741E-01     0.0000000000000000E+00 
    1.2500000000024011E-01     6.2500000000093847E-01     0.0000000000000000E+00 
    1.2500000000028680E-01     6.8750000000057998E-01     0.0000000000000000E+00 
    1.2500000000033351E-01     7.5000000000022127E-01     0.0000000000000000E+00 
    1.2500000000038020E-01     8.1249999999986211E-01     0.0000000000000000E+00 
    1.2500000000042691E-01     8.7499999999952238E-01     0.0000000000000000E+00 
    1.2500000000047359E-01     9.3749999999975164E-01     0.0000000000000000E+00 
    1.8749999999966760E-01     6.2500000000187531E-02     0.0000000000000000E+00 
    1.8749999999974179E-01     1.2500000000038020E-01     0.0000000000000000E+00 
    1.8749999999981601E-01     1.8750000000055780E-01     0.0000000000000000E+00 
    1.8749999999989009E-01     2.5000000000073502E-01     0.0000000000000000E+00 
    1.8749999999996431E-01     3.1250000000091221E-01     0.0000000000000000E+00 
    1.8750000000003850E-01     3.7500000000108941E-01     0.0000000000000000E+00 
    1.8750000000011269E-01     4.3750000000126649E-01     0.0000000000000000E+00 
    1.8750000000018691E-01     5.0000000000142808E-01     0.0000000000000000E+00 
    1.8750000000026110E-01     5.6250000000112244E-01     0.0000000000000000E+00 
    1.8750000000033529E-01     6.2500000000080080E-01     0.0000000000000000E+00 
    1.8750000000040951E-01     6.8750000000047962E-01     0.0000000000000000E+00 
    1.8750000000048361E-01     7.5000000000015843E-01     0.0000000000000000E+00 
    1.8750000000055780E-01     8.1249999999983680E-01     0.0000000000000000E+00 
    1.8750000000063199E-01     8.7499999999953304E-01     0.0000000000000000E+00 
    1.8750000000070621E-01     9.3749999999975764E-01     0.0000000000000000E+00 
    2.4999999999951281E-01     6.2500000000163314E-02     0.0000000000000000E+00 
    2.4999999999961461E-01     1.2500000000033351E-01     0.0000000000000000E+00 
    2.4999999999971650E-01     1.8750000000048361E-01     0.0000000000000000E+00 
    2.4999999999981831E-01     2.5000000000063310E-01     0.0000000000000000E+00 
    2.4999999999992020E-01     3.1250000000078260E-01     0.0000000000000000E+00 
    2.5000000000002198E-01     3.7500000000093209E-01     0.0000000000000000E+00 
    2.5000000000012390E-01     4.3750000000108180E-01     0.0000000000000000E+00 
    2.5000000000022571E-01     5.0000000000121769E-01     0.0000000000000000E+00 
    2.5000000000032763E-01     5.6250000000094724E-01     0.0000000000000000E+00 
    2.5000000000042938E-01     6.2500000000066314E-01     0.0000000000000000E+00 
    2.5000000000053119E-01     6.8750000000037925E-01     0.0000000000000000E+00 
[...]
CELL_DATA 256 
SCALARS Pressure double 1 
LOOKUP_TABLE default 

    9.0282199049812439E-01 
    8.5021976103602082E-01 
    8.1416344392247697E-01 
    7.7978533703894104E-01 
    7.4382300870438645E-01 
    7.0561043673221557E-01 
    6.6509047511731367E-01 
    6.2250614435865959E-01 
    5.7831510672930098E-01 
    5.3324524318443978E-01 
    4.8845781685293072E-01 
    4.4559324365599584E-01 
    4.0555688772523829E-01 
    3.6635579063022317E-01 
    3.3819185552613207E-01 
    3.2781855478874161E-01 
    8.8889816766576168E-01 
    8.5178667871204872E-01 
    8.1695686907395704E-01 
    7.8290947096486319E-01 
    7.4724777496191708E-01 
    7.0932253146207425E-01 
    6.6904861233275492E-01 
    6.2664226823910918E-01 
    5.8253519921477204E-01 
    5.3741427471052161E-01 
    4.9237874390598818E-01 
    4.4904715220498315E-01 
    4.0847026447672430E-01 
    3.6839313111733796E-01 
    3.3869665591810083E-01 
    3.2735382441736499E-01 
    8.7816467079099469E-01 
    8.5111922127826189E-01 
    8.1890574327808130E-01 
    7.8560300507889635E-01 
    7.5037458773130039E-01 
    7.1279652607598221E-01 
    6.7280000105166049E-01 
    6.3057858914789755E-01 
    5.8653397761909010E-01 
    5.4130293260498608E-01 
    4.9590262339696861E-01 
    4.5189178985626433E-01 
    4.1045000160848483E-01 
    3.6916885060279431E-01 
    3.3779026540219909E-01 
    3.2567537265945973E-01 
    8.6958258226272211E-01 
    8.4925067364387397E-01 
    8.2004125122481963E-01 
    7.8785562870410519E-01 
    7.5321140952621235E-01 
    7.1604116458765388E-01 
    6.7635206606399556E-01 
    6.3432890432083711E-01 
    5.9033951497495096E-01 
    5.4495758970779329E-01 
    4.9909676743870418E-01 
    4.5421279386364005E-01 
    4.1157272687074287E-01 
    3.6874287448189419E-01 
    3.3541619351859142E-01 
    3.2255254628495184E-01 
    8.6249793702050592E-01 
    8.4675033837569835E-01 
    8.2048635661356950E-01 
    7.8967840517094667E-01 
    7.5577091824937659E-01 
    7.1907744629759596E-01 
    6.7972719179936902E-01 
    6.3791758158801304E-01 
    5.9398477491474078E-01 
    5.4842944055206588E-01 
    5.0203779233315626E-01 
    4.5611260249843583E-01 
    4.1193899769039172E-01 
    3.6718762119701853E-01 
    3.3151289738130352E-01 
    3.1774326696086680E-01 
    8.5657360498176782E-01 
    8.4398933420924172E-01 
    8.2040315841759537E-01 
    7.9111314825512491E-01 
    7.5807415708521420E-01 
    7.2193253721305128E-01 
    6.8295775031175565E-01 
    6.4137784849949819E-01 
    5.9750650050960330E-01 
    5.5176951801843988E-01 
    5.0480345021354367E-01 
    4.5770502611958269E-01 
    4.1168217151701758E-01 
    3.6460276045489398E-01 
    3.2601619768220536E-01 
    3.1098200626311762E-01 
    8.5159470622165079E-01 
    8.4121536983297207E-01 
    8.1996616221071295E-01 
    7.9223029883158780E-01 
    7.6015339012134664E-01 
    7.2463475369892105E-01 
    6.8607753177342734E-01 
    6.4474655445149309E-01 
    6.0094496135418829E-01 
    5.5503017089747908E-01 
    5.0747272102552321E-01 
    4.5911264915159472E-01 
    4.1096378778682757E-01 
    3.6110117988920742E-01 
    3.1884708718913740E-01 
    3.0195733557572696E-01 
    8.4740861164158432E-01 
    8.3858695386200344E-01 
    8.1933142591584207E-01 
    7.9310995188624434E-01 
    7.6204817991902429E-01 
    7.2721259886836109E-01 
    6.8911776650483247E-01 
    6.4806015405571460E-01 
    6.0434257212009412E-01 
    5.5826714999948457E-01 
    5.1012921837558556E-01 
    4.6046963481113989E-01 
    4.0997446085070477E-01 
    3.5679774771344847E-01 
    3.0989310696903583E-01 
    2.9027210173570156E-01 
    8.4390712596732442E-01 
    8.3620222132935618E-01 
    8.1862828484107586E-01 
    7.9383580996164926E-01 
    7.6380469634478898E-01 
    7.2969469688438904E-01 
    6.9210618456386308E-01 
    6.5135318893864425E-01 
    6.0774260413443348E-01 
    5.6153837510689197E-01 
    5.1285881669071098E-01 
    4.6191556843662662E-01 
    4.0892891287231731E-01 
    3.5183234908106970E-01 
    2.9905140095073757E-01 
    2.7543157032024740E-01 
    8.4101405277207930E-01 
    8.3412146182691516E-01 
    8.1796058337730182E-01 
    7.9449064387786772E-01 
    7.6547561224107774E-01 
    7.3211342206977370E-01 
    6.9507192941583062E-01 
    6.5466023189259115E-01 
    6.1118610497014603E-01 
    5.6489698171398584E-01 
    5.1573824123743228E-01 
    4.6358002543204513E-01 
    4.0804336603989766E-01 
    3.4638203360882081E-01 
    2.8629798635031628E-01 
    2.5683482093856619E-01 
    8.3868510897391624E-01 
    8.3239498388698663E-01 
    8.1742418093494684E-01 
    7.9516114888284717E-01 
    7.6712317714977818E-01 
    7.3451118942994553E-01 
    6.9804928158821378E-01 
    6.5800954389853450E-01 
    6.1469542007277178E-01 
    5.6837092739083439E-01 
    5.1880833989466002E-01 
    4.6553348706027442E-01 
    4.0744667295802978E-01 
    3.4065820920861306E-01 
    2.7181996574218575E-01 
    2.3377840505314545E-01 
    8.3689715597057102E-01 
    8.3107616651228378E-01 
    8.1711130584739677E-01 
    7.9593355854044479E-01 
    7.6881272415039015E-01 
    7.3693076962245918E-01 
    7.0105759471430229E-01 
    6.6137930408678880E-01 
    6.1818449740975223E-01 
    5.7180463064365761E-01 
    5.2187135993292755E-01 
    4.6750021673376552E-01 
    4.0672616390424726E-01 
    3.3466233345710844E-01 
    2.5612110805267185E-01 
    2.0544583044753179E-01 
    8.3554387508681405E-01 
    8.3014185615349589E-01 
    8.1705574835881833E-01 
    7.9684791300387670E-01 
    7.7055445533452305E-01 
    7.3929632226364028E-01 
    7.0392055464690373E-01 
    6.6458129873382443E-01 
    6.2150287005658744E-01 
    5.7510674954674978E-01 
    5.2496786457341460E-01 
    4.6978530059713441E-01 
    4.0679774524869761E-01 
    3.3024676888739440E-01 
    2.4076310461472999E-01 
    1.7052242466460432E-01 
    8.3435563061126117E-01 
    8.2932283902904491E-01 
    8.1703591941815401E-01 
    7.9772343652738653E-01 
    7.7220751233188267E-01 
    7.4151557866973117E-01 
    7.0657092763474705E-01 
    6.6765549660165668E-01 
    6.2491100395918542E-01 
    5.7869348265510479E-01 
    5.2858682156972292E-01 
    4.7308460300953931E-01 
    4.0890288101808309E-01 
    3.2924325456279174E-01 
    2.2797068770972403E-01 
    1.2681070093390676E-01 
    8.3359852107626109E-01 
    8.2885909323455620E-01 
    8.1726742458756241E-01 
    7.9875575389358222E-01 
    7.7398453941654222E-01 
    7.4390294291979830E-01 
    7.0943579879724417E-01 
    6.7099041203798704E-01 
    6.2868569984613365E-01 
    5.8276216391806979E-01 
    5.3283219178739649E-01 
    4.7737421555029880E-01 
    4.1291467293275325E-01 
    3.3180361915178536E-01 
    2.2023076791424609E-01 
    7.1370947047243449E-02 
    8.3340388370352114E-01 
    8.2905063847619964E-01 
    8.1811700962520839E-01 
    8.0031762662642769E-01 
    7.7621302070468146E-01 
    7.4670371204540698E-01 
    7.1269823228813600E-01 
    6.7465976487055057E-01 
    6.3274890590523947E-01 
    5.8717343309460668E-01 
    5.3758232750876811E-01 
    4.8252853362830989E-01 
    4.1861951189678437E-01 
    3.3814489755387006E-01 
    2.2300551563795837E-01 
    0.0000000000000000E+00 

SCALARS Saturarion double 1 
LOOKUP_TABLE default 

    1.0000000000000140E+00 
    9.6236814243736835E-01 
    8.9893436441773478E-01 
    8.2205863169457050E-01 
    7.5737122470391016E-01 
    7.0536498521789548E-01 
    6.6357687357822381E-01 
    6.2841784422529168E-01 
    5.9692867730215293E-01 
    5.6751268837530711E-01 
    5.3923025826283122E-01 
    5.0835781516796286E-01 
    4.4524951310775718E-01 
    1.6472979224835274E-01 
    1.0300114353299407E-06 
    1.0000000000014401E-06 
    9.8415262186321528E-01 
    9.4855503399143126E-01 
    8.8218143588423537E-01 
    8.1210234534072767E-01 
    7.5230528620442860E-01 
    7.0200173469288674E-01 
    6.6031420185222911E-01 
    6.2510886124713971E-01 
    5.9414162175080443E-01 
    5.6557023160815645E-01 
    5.3814075228047831E-01 
    5.0819828522638999E-01 
    4.4815788872530737E-01 
    1.8304541357503643E-01 
    1.1088499517933947E-05 
    1.0000016125506143E-06 
    9.5922954582368603E-01 
    9.2523793305492152E-01 
    8.5984110159449978E-01 
    7.9525058299233942E-01 
    7.4161812064240340E-01 
    6.9456069402119547E-01 
    6.5365941625516777E-01 
    6.1856531292518890E-01 
    5.8839933204042394E-01 
    5.6130631994241020E-01 
    5.3547011027202174E-01 
    5.0724817672449929E-01 
    4.5225921774688604E-01 
    2.0505157785762576E-01 
    8.4344363489652634E-05 
    1.0000414704517858E-06 
    9.1573787865906231E-01 
    8.8916918202086781E-01 
    8.3245625209400931E-01 
    7.7304706292968950E-01 
    7.2400172483591829E-01 
    6.8225769314285056E-01 
    6.4494822122331330E-01 
    6.1206031782192738E-01 
    5.8313399331990989E-01 
    5.5721443383961278E-01 
    5.3269253493127877E-01 
    5.0646749743542119E-01 
    4.5617312473122584E-01 
    2.3523134429941095E-01 
    5.8594448422445743E-04 
    1.0025347708998608E-06 
    8.6921786368292597E-01 
    8.4687894893964899E-01 
    7.9864504028873029E-01 
    7.4678059760444804E-01 
    7.0239238830264383E-01 
    6.6503001370246118E-01 
    6.3248815997119778E-01 
    6.0336704597186719E-01 
    5.7700111277777966E-01 
    5.5277760120809882E-01 
    5.2981236954152933E-01 
    5.0561106215809559E-01 
    4.6036640699671760E-01 
    2.6804672217950570E-01 
    2.1693288061004480E-03 
    1.0337356372629814E-06 
    8.2183578927175704E-01 
    8.0413776268012749E-01 
    7.6462375974915731E-01 
    7.2000574789475069E-01 
    6.7982920782073331E-01 
    6.4571179742659601E-01 
    6.1656280500646565E-01 
    5.9096158279728639E-01 
    5.6750073755429253E-01 
    5.4553365511823060E-01 
    5.2452192717561452E-01 
    5.0263577705066154E-01 
    4.6361383668683293E-01 
    3.0147850619074873E-01 
    6.9047473311995957E-03 
    1.2308033550410228E-06 
    7.7401352632960263E-01 
    7.6162084323109236E-01 
    7.3056674162442747E-01 
    6.9226582986390583E-01 
    6.5635658623810167E-01 
    6.2547447263680600E-01 
    5.9933352335011569E-01 
    5.7637891326138668E-01 
    5.5558059688445649E-01 
    5.3614260680744263E-01 
    5.1759111839248662E-01 
    4.9800060430229309E-01 
    4.6461018232982138E-01 
    3.2937191992163800E-01 
    1.6490092857412993E-02 
    1.7645662522386532E-06 
    7.2565328713932786E-01 
    7.1850894201397453E-01 
    6.9574613270143859E-01 
    6.6389593703611494E-01 
    6.3205507656463900E-01 
    6.0395008098870040E-01 
    5.7980823404416115E-01 
    5.5933888847310265E-01 
    5.4151778640568460E-01 
    5.2496236949915054E-01 
    5.0868162049816557E-01 
    4.9178247883791060E-01 
    4.6368107539121467E-01 
    3.5116801888532639E-01 
    3.2736354127745261E-02 
    3.3673370685901221E-06 
    6.7676718962449411E-01 
    6.7410992760981392E-01 
    6.5867903477529566E-01 
    6.3372253444116688E-01 
    6.0673654409848354E-01 
    5.8117001877708530E-01 
    5.5859675070759995E-01 
    5.3987808957763739E-01 
    5.2469411824854562E-01 
    5.1123791777317873E-01 
    4.9808907529288626E-01 
    4.8386565889007738E-01 
    4.6003897327455973E-01 
    3.6622717271036748E-01 
    5.0074453926874651E-02 
    2.6317272558443987E-06 
    6.2774944512204722E-01 
    6.2883144285909820E-01 
    6.1989685121001881E-01 
    6.0138496280179299E-01 
    5.7960183047938652E-01 
    5.5751940565801161E-01 
    5.3707531943585063E-01 
    5.2006714383881547E-01 
    5.0634055839138492E-01 
    4.9433052466748950E-01 
    4.8290823958411866E-01 
    4.7145386473010226E-01 
    4.5159771743636751E-01 
    3.7095701182572077E-01 
    6.3296758462382252E-02 
    1.6558064673008305E-06 
    5.8064135728634902E-01 
    5.8443840499493915E-01 
    5.8099152269247434E-01 
    5.6797796938533118E-01 
    5.5081931543804941E-01 
    5.3330771958862533E-01 
    5.1631150226621803E-01 
    4.9955849607418018E-01 
    4.8407194035321471E-01 
    4.7033717220383681E-01 
    4.5830004797815316E-01 
    4.4619439544032896E-01 
    4.2731276891163150E-01 
    3.5734402790483444E-01 
    5.8121087933278345E-02 
    2.9070860798637903E-05 
    5.3661325588266284E-01 
    5.4252163352249416E-01 
    5.4256593491674920E-01 
    5.3314414696573409E-01 
    5.1953032689179324E-01 
    5.0533742420043903E-01 
    4.8822275930474590E-01 
    4.6460138090408437E-01 
    4.3322498579883634E-01 
    3.9113143758291424E-01 
    3.4127404091406394E-01 
    3.3074424210597736E-01 
    3.1509233323161728E-01 
    2.3606212124603793E-01 
    1.4956545439565816E-02 
    7.2124112586815106E-06 
    4.5684375850902675E-01 
    4.7393910067300443E-01 
    4.8435521777259893E-01 
    4.8051749859550869E-01 
    4.6475967377143024E-01 
    4.3911477883840094E-01 
    3.7036261027854178E-01 
    2.3345851578387886E-01 
    1.5454916279970318E-01 
    6.6476907773918001E-02 
    2.0857646339356422E-02 
    1.8840851521049497E-02 
    2.0528953855221729E-02 
    8.6628199989139763E-03 
    4.6500568295322271E-05 
    1.0002543035136731E-06 
    1.3527613683109840E-01 
    2.2223822350588368E-01 
    2.6594856779814635E-01 
    2.5033614334776999E-01 
    1.9746861014191305E-01 
    1.2615630653844789E-01 
    3.4331443229124362E-02 
    6.2266043017804665E-04 
    7.0212418356800752E-05 
    5.3327069874148520E-05 
    2.6168085959408135E-06 
    3.1591865357640446E-06 
    5.4484185609110904E-06 
    3.3385392692701784E-06 
    1.0000150022936091E-06 
    1.0000000001931978E-06 
    1.0028196061182049E-06 
    4.8288450280047280E-04 
    1.2050068470615979E-03 
    5.0806014998211479E-04 
    1.7572676239060187E-04 
    6.2587532744819724E-05 
    1.5337735197123665E-05 
    1.0017248481526114E-06 
    1.0002600561213075E-06 
    1.0001766821931621E-06 
    1.0000003847589120E-06 
    1.0000003963914060E-06 
    1.0000009747710171E-06 
    1.0000006824563006E-06 
    1.0000000000042525E-06 
    9.9999999999999974E-07 
    1.0000000006784426E-06 
    1.0034418334831849E-06 
    1.0035420860123798E-06 
    1.0024657928815834E-06 
    1.0006530913422415E-06 
    1.0004157924847249E-06 
    1.0000046556570877E-06 
    1.0000000000641724E-06 
    1.0000000000026154E-06 
    9.9999999999999995E-07 
    9.9999999999999995E-07 
    1.0000000000000190E-06 
    1.0000000000000239E-06 
    1.0000000000000014E-06 
    9.9999999999999995E-07 
    1.0000005024819834E-06 
