# vtk DataFile Version 2.0
Pressure Field Data 
ASCII 
DATASET UNSTRUCTURED_GRID 

POINTS 289 double 

    0.0000000000000000E+00     0.0000000000000000E+00     0.0000000000000000E+00 
    1.0000000000000000E+00     0.0000000000000000E+00     0.0000000000000000E+00 
    1.0000000000000000E+00     1.0000000000000000E+00     0.0000000000000000E+00 
    0.0000000000000000E+00     1.0000000000000000E+00     0.0000000000000000E+00 
    6.2499999999872928E-02     0.0000000000000000E+00     0.0000000000000000E+00 
    1.2499999999977310E-01     0.0000000000000000E+00     0.0000000000000000E+00 
    1.8749999999959341E-01     0.0000000000000000E+00     0.0000000000000000E+00 
    2.4999999999941089E-01     0.0000000000000000E+00     0.0000000000000000E+00 
    3.1249999999922851E-01     0.0000000000000000E+00     0.0000000000000000E+00 
    3.7499999999904610E-01     0.0000000000000000E+00     0.0000000000000000E+00 
    4.3749999999886358E-01     0.0000000000000000E+00     0.0000000000000000E+00 
    4.9999999999869210E-01     0.0000000000000000E+00     0.0000000000000000E+00 
    5.6249999999884603E-01     0.0000000000000000E+00     0.0000000000000000E+00 
    6.2499999999901090E-01     0.0000000000000000E+00     0.0000000000000000E+00 
    6.8749999999917577E-01     0.0000000000000000E+00     0.0000000000000000E+00 
    7.4999999999934064E-01     0.0000000000000000E+00     0.0000000000000000E+00 
    8.1249999999950551E-01     0.0000000000000000E+00     0.0000000000000000E+00 
    8.7499999999967026E-01     0.0000000000000000E+00     0.0000000000000000E+00 
    9.3749999999983513E-01     0.0000000000000000E+00     0.0000000000000000E+00 
    1.0000000000000000E+00     6.2499999999872928E-02     0.0000000000000000E+00 
    1.0000000000000000E+00     1.2499999999977310E-01     0.0000000000000000E+00 
    1.0000000000000000E+00     1.8749999999959341E-01     0.0000000000000000E+00 
    1.0000000000000000E+00     2.4999999999941089E-01     0.0000000000000000E+00 
    1.0000000000000000E+00     3.1249999999922851E-01     0.0000000000000000E+00 
    1.0000000000000000E+00     3.7499999999904610E-01     0.0000000000000000E+00 
    1.0000000000000000E+00     4.3749999999886358E-01     0.0000000000000000E+00 
    1.0000000000000000E+00     4.9999999999869210E-01     0.0000000000000000E+00 
    1.0000000000000000E+00     5.6249999999884603E-01     0.0000000000000000E+00 
    1.0000000000000000E+00     6.2499999999901090E-01     0.0000000000000000E+00 
    1.0000000000000000E+00     6.8749999999917577E-01     0.0000000000000000E+00 
    1.0000000000000000E+00     7.4999999999934064E-01     0.0000000000000000E+00 
    1.0000000000000000E+00     8.1249999999950551E-01     0.0000000000000000E+00 
    1.0000000000000000E+00     8.7499999999967026E-01     0.0000000000000000E+00 
    1.0000000000000000E+00     9.3749999999983513E-01     0.0000000000000000E+00 
    9.3749999999973976E-01     1.0000000000000000E+00     0.0000000000000000E+00 
    8.7499999999950118E-01     1.0000000000000000E+00     0.0000000000000000E+00 
    8.1249999999991318E-01     1.0000000000000000E+00     0.0000000000000000E+00 
    7.5000000000034706E-01     1.0000000000000000E+00     0.0000000000000000E+00 
    6.8750000000078049E-01     1.0000000000000000E+00     0.0000000000000000E+00 
    6.2500000000121403E-01     1.0000000000000000E+00     0.0000000000000000E+00 
    5.6250000000164757E-01     1.0000000000000000E+00     0.0000000000000000E+00 
    5.0000000000205946E-01     1.0000000000000000E+00     0.0000000000000000E+00 
    4.3750000000182099E-01     1.0000000000000000E+00     0.0000000000000000E+00 
    3.7500000000156092E-01     1.0000000000000000E+00     0.0000000000000000E+00 
    3.1250000000130068E-01     1.0000000000000000E+00     0.0000000000000000E+00 
    2.5000000000104050E-01     1.0000000000000000E+00     0.0000000000000000E+00 
    1.8750000000078040E-01     1.0000000000000000E+00     0.0000000000000000E+00 
    1.2500000000052031E-01     1.0000000000000000E+00     0.0000000000000000E+00 
    6.2500000000260125E-02     1.0000000000000000E+00     0.0000000000000000E+00 
    0.0000000000000000E+00     9.3749999999973976E-01     0.0000000000000000E+00 
    0.0000000000000000E+00     8.7499999999950118E-01     0.0000000000000000E+00 
    0.0000000000000000E+00     8.1249999999991318E-01     0.0000000000000000E+00 
    0.0000000000000000E+00     7.5000000000034706E-01     0.0000000000000000E+00 
    0.0000000000000000E+00     6.8750000000078049E-01     0.0000000000000000E+00 
    0.0000000000000000E+00     6.2500000000121403E-01     0.0000000000000000E+00 
    0.0000000000000000E+00     5.6250000000164757E-01     0.0000000000000000E+00 
    0.0000000000000000E+00     5.0000000000205946E-01     0.0000000000000000E+00 
    0.0000000000000000E+00     4.3750000000182099E-01     0.0000000000000000E+00 
    0.0000000000000000E+00     3.7500000000156092E-01     0.0000000000000000E+00 
    0.0000000000000000E+00     3.1250000000130068E-01     0.0000000000000000E+00 
    0.0000000000000000E+00     2.5000000000104050E-01     0.0000000000000000E+00 
    0.0000000000000000E+00     1.8750000000078040E-01     0.0000000000000000E+00 
    0.0000000000000000E+00     1.2500000000052031E-01     0.0000000000000000E+00 
    0.0000000000000000E+00     6.2500000000260125E-02     0.0000000000000000E+00 
    6.2499999999897131E-02     6.2500000000235922E-02     0.0000000000000000E+00 
    6.2499999999921327E-02     1.2500000000047351E-01     0.0000000000000000E+00 
    6.2499999999945530E-02     1.8750000000070621E-01     0.0000000000000000E+00 
    6.2499999999969733E-02     2.5000000000093858E-01     0.0000000000000000E+00 
    6.2499999999993928E-02     3.1250000000117117E-01     0.0000000000000000E+00 
    6.2500000000018124E-02     3.7500000000140382E-01     0.0000000000000000E+00 
    6.2500000000042327E-02     4.3750000000163619E-01     0.0000000000000000E+00 
    6.2500000000066530E-02     5.0000000000184897E-01     0.0000000000000000E+00 
    6.2500000000090733E-02     5.6250000000147260E-01     0.0000000000000000E+00 
    6.2500000000114922E-02     6.2500000000107636E-01     0.0000000000000000E+00 
    6.2500000000139125E-02     6.8750000000068034E-01     0.0000000000000000E+00 
    6.2500000000163328E-02     7.5000000000028411E-01     0.0000000000000000E+00 
    6.2500000000187531E-02     8.1249999999988787E-01     0.0000000000000000E+00 
    6.2500000000211720E-02     8.7499999999951172E-01     0.0000000000000000E+00 
    6.2500000000235922E-02     9.3749999999974565E-01     0.0000000000000000E+00 
    1.2499999999981980E-01     6.2500000000211733E-02     0.0000000000000000E+00 
    1.2499999999986650E-01     1.2500000000042691E-01     0.0000000000000000E+00 
    1.2499999999991319E-01     1.8750000000063199E-01     0.0000000000000000E+00 
    1.2499999999995989E-01     2.5000000000083678E-01     0.0000000000000000E+00 
    1.2500000000000661E-01     3.1250000000104172E-01     0.0000000000000000E+00 
    1.2500000000005329E-01     3.7500000000124661E-01     0.0000000000000000E+00 
    1.2500000000010000E-01     4.3750000000145117E-01     0.0000000000000000E+00 
    1.2500000000014669E-01     5.0000000000163858E-01     0.0000000000000000E+00 
    1.2500000000019340E-01     5.6250000000129741E-01     0.0000000000000000E+00 
    1.2500000000024011E-01     6.2500000000093847E-01     0.0000000000000000E+00 
    1.2500000000028680E-01     6.8750000000057998E-01     0.0000000000000000E+00 
    1.2500000000033351E-01     7.5000000000022127E-01     0.0000000000000000E+00 
    1.2500000000038020E-01     8.1249999999986211E-01     0.0000000000000000E+00 
    1.2500000000042691E-01     8.7499999999952238E-01     0.0000000000000000E+00 
    1.2500000000047359E-01     9.3749999999975164E-01     0.0000000000000000E+00 
    1.8749999999966760E-01     6.2500000000187531E-02     0.0000000000000000E+00 
    1.8749999999974179E-01     1.2500000000038020E-01     0.0000000000000000E+00 
    1.8749999999981601E-01     1.8750000000055780E-01     0.0000000000000000E+00 
    1.8749999999989009E-01     2.5000000000073502E-01     0.0000000000000000E+00 
    1.8749999999996431E-01     3.1250000000091221E-01     0.0000000000000000E+00 
    1.8750000000003850E-01     3.7500000000108941E-01     0.0000000000000000E+00 
    1.8750000000011269E-01     4.3750000000126649E-01     0.0000000000000000E+00 
    1.8750000000018691E-01     5.0000000000142808E-01     0.0000000000000000E+00 
    1.8750000000026110E-01     5.6250000000112244E-01     0.0000000000000000E+00 
    1.8750000000033529E-01     6.2500000000080080E-01     0.0000000000000000E+00 
    1.8750000000040951E-01     6.8750000000047962E-01     0.0000000000000000E+00 
    1.8750000000048361E-01     7.5000000000015843E-01     0.0000000000000000E+00 
    1.8750000000055780E-01     8.1249999999983680E-01     0.0000000000000000E+00 
    1.8750000000063199E-01     8.7499999999953304E-01     0.0000000000000000E+00 
    1.8750000000070621E-01     9.3749999999975764E-01     0.0000000000000000E+00 
    2.4999999999951281E-01     6.2500000000163314E-02     0.0000000000000000E+00 
    2.4999999999961461E-01     1.2500000000033351E-01     0.0000000000000000E+00 
    2.4999999999971650E-01     1.8750000000048361E-01     0.0000000000000000E+00 
    2.4999999999981831E-01     2.5000000000063310E-01     0.0000000000000000E+00 
    2.4999999999992020E-01     3.1250000000078260E-01     0.0000000000000000E+00 
    2.5000000000002198E-01     3.7500000000093209E-01     0.0000000000000000E+00 
    2.5000000000012390E-01     4.3750000000108180E-01     0.0000000000000000E+00 
    2.5000000000022571E-01     5.0000000000121769E-01     0.0000000000000000E+00 
    2.5000000000032763E-01     5.6250000000094724E-01     0.0000000000000000E+00 
    2.5000000000042938E-01     6.2500000000066314E-01     0.0000000000000000E+00 
    2.5000000000053119E-01     6.8750000000037925E-01     0.0000000000000000E+00 
[...]
CELL_DATA 256 
SCALARS Pressure double 1 
LOOKUP_TABLE default 

    7.9177462411692967E-01 
    7.4075822684189652E-01 
    7.0713517486005817E-01 
    6.7596050983888412E-01 
    6.4389808028798201E-01 
    6.1017290330830520E-01 
    5.7459017937379242E-01 
    5.3726316845151545E-01 
    4.9854278894151632E-01 
    4.5906662806128712E-01 
    4.1989357646662973E-01 
    3.8269549166060962E-01 
    3.4990025233998229E-01 
    3.2433773790166287E-01 
    3.0667412535291977E-01 
    2.9830897272244489E-01 
    7.7782147656483103E-01 
    7.4216395035794624E-01 
    7.0970007285222592E-01 
    6.7879933517147428E-01 
    6.4697012615172667E-01 
    6.1346686722250032E-01 
    5.7808490261339507E-01 
    5.4091268484613741E-01 
    5.0226805066234981E-01 
    4.6274215540804869E-01 
    4.2332834746621895E-01 
    3.8562052418825199E-01 
    3.5200192867299773E-01 
    3.2542192710171247E-01 
    3.0688548467013971E-01 
    2.9790303356794545E-01 
    7.6710227037855183E-01 
    7.4139730061941833E-01 
    7.1147956071159346E-01 
    6.8127159018645977E-01 
    6.4981031258910027E-01 
    6.1658226401403071E-01 
    5.8142444455504239E-01 
    5.4441152004950488E-01 
    5.0582472897268260E-01 
    4.6619885960584856E-01 
    4.2644613457634656E-01 
    3.8806477609830892E-01 
    3.5338566722641901E-01 
    3.2550588299267580E-01 
    3.0596422857349725E-01 
    2.9646285068124734E-01 
    7.5863313467167548E-01 
    7.3950912747813913E-01 
    7.1251105744615806E-01 
    6.8335835250772803E-01 
    6.5241835203952336E-01 
    6.1952810618799492E-01 
    5.8461927654017642E-01 
    5.4777214043816214E-01 
    5.0923373665371974E-01 
    4.6947400189613614E-01 
    4.2930615914674342E-01 
    3.9010681437912703E-01 
    3.5413020539248286E-01 
    3.2463121239735643E-01 
    3.0382563173594873E-01 
    2.9374857842604779E-01 
    7.5176282470328148E-01 
    7.3708224068747696E-01 
    7.1292378903143616E-01 
    6.8506716003713830E-01 
    6.5479494758920953E-01 
    6.2231454872248726E-01 
    5.8768572526641893E-01 
    5.5101490631454419E-01 
    5.1252261680211531E-01 
    4.7260968509840373E-01 
    4.3197299447885751E-01 
    3.9183473777019584E-01 
    3.5432874057910757E-01 
    3.2284720635119335E-01 
    3.0038007788826043E-01 
    2.8950490532982703E-01 
    7.4611207195302343E-01 
    7.3446821918300864E-01 
    7.1287081690872778E-01 
    6.8643238011882246E-01 
    6.5694799803629012E-01 
    6.2495137849958993E-01 
    5.9064168316141541E-01 
    5.5416562889725118E-01 
    5.1572503166607064E-01 
    4.7565194733381488E-01 
    4.3451443576635002E-01 
    3.9334442350848026E-01 
    3.5409103202116271E-01 
    3.2021893616295094E-01 
    2.9554635871956109E-01 
    2.8348515274123204E-01 
    7.4143696591529162E-01 
    7.3189006264059553E-01 
    7.1250968063283271E-01 
    6.8751468217225542E-01 
    6.5890088265250779E-01 
    6.2745249081994514E-01 
    5.9350404032448345E-01 
    5.5724973663034150E-01 
    5.1887646214350824E-01 
    4.7864973401596944E-01 
    4.3700160583968123E-01 
    3.9473951646811456E-01 
    3.5354640494994150E-01 
    3.1684340589450161E-01 
    2.8926925114617658E-01 
    2.7542878250142994E-01 
    7.3756340841975665E-01 
    7.2948475135456747E-01 
    7.1198131960753830E-01 
    6.8838570074467342E-01 
    6.6068715525299726E-01 
    6.2983683075287966E-01 
    5.9628990670306403E-01 
    5.6028939855487980E-01 
    5.2200993899399839E-01 
    4.8165187656744624E-01 
    4.3950907297066150E-01 
    3.9613398477449269E-01 
    3.5284855114117070E-01 
    3.1285677750068808E-01 
    2.8152236647308165E-01 
    2.6505090866146047E-01 
    7.3436872719595536E-01 
    7.2733416983422750E-01 
    7.1140162688194608E-01 
    6.8911883504436333E-01 
    6.6234572661753255E-01 
    6.3212681637923640E-01 
    5.9901597363364112E-01 
    5.6330278060301098E-01 
    5.2515137046044269E-01 
    4.8470123171277663E-01 
    4.4210984405530224E-01 
    3.9765020153155151E-01 
    3.5218125260764144E-01 
    3.0845214109511099E-01 
    2.7231739122616289E-01 
    2.5200176262436014E-01 
    7.3176302381931302E-01 
    7.2548245083244278E-01 
    7.1085868035159727E-01 
    6.8978237517756713E-01 
    6.6391948612064267E-01 
    6.3434857914885279E-01 
    6.0169971727057581E-01 
    5.6630580258113949E-01 
    5.2832159517097022E-01 
    4.8783338740306315E-01 
    4.4487082018470436E-01 
    3.9941319911049128E-01 
    3.5175708624872737E-01 
    3.0389817931573010E-01 
    2.6172841082186171E-01 
    2.3581226686274379E-01 
    7.2967985974914940E-01 
    7.2395515753440975E-01 
    7.1042526687304697E-01 
    6.9044340930147885E-01 
    6.6545698150414301E-01 
    6.3653464771936807E-01 
    6.0436352714104025E-01 
    5.6931780401379284E-01 
    5.3154242828441145E-01 
    4.9107973928396897E-01 
    4.4785007483528427E-01 
    4.0154508257184401E-01 
    3.5181546711163053E-01 
    2.9956244241632113E-01 
    2.4995080029891609E-01 
    2.1586172580587065E-01 
    7.2807118963808137E-01 
    7.2277545693523160E-01 
    7.1016953296057084E-01 
    6.9117083695535519E-01 
    6.6701244653373082E-01 
    6.3872458838551271E-01 
    6.0703855032866805E-01 
    5.7236616251243466E-01 
    5.3483849825368501E-01 
    4.9446362820139661E-01 
    4.5108588700535729E-01 
    4.0414767838799537E-01 
    3.5261062444418262E-01 
    2.9593232283404247E-01 
    2.3738626644617428E-01 
    1.9130928257451466E-01 
    7.2691323600191304E-01 
    7.2197788747893765E-01 
    7.1016175096704004E-01 
    6.9203581830433702E-01 
    6.6864143295496137E-01 
    6.4095782574670113E-01 
    6.0975482547361670E-01 
    5.7547534048053450E-01 
    5.3822133746072420E-01 
    4.9797283300120820E-01 
    4.5455228514368801E-01 
    4.0723278794820977E-01 
    3.5431688371250319E-01 
    2.9354244382078165E-01 
    2.2469846704007460E-01 
    1.6088261687305522E-01 
    7.2610408803336435E-01 
    7.2152621404118533E-01 
    7.1041909610378506E-01 
    6.9307138831010284E-01 
    6.7036307315202148E-01 
    6.4321634719495258E-01 
    6.1244608339054751E-01 
    5.7854770717480375E-01 
    5.4157484594814453E-01 
    5.0146827912789105E-01 
    4.5806245776418442E-01 
    4.1055020936001740E-01 
    3.5679543819836762E-01 
    2.9272426460482592E-01 
    2.1277830224955385E-01 
    1.2231469338484223E-01 
    7.2553129687011753E-01 
    7.2127665141615260E-01 
    7.1081571879654137E-01 
    6.9418546992766916E-01 
    6.7211416870315366E-01 
    6.4546300274178725E-01 
    6.1508293717301243E-01 
    5.8154620915269617E-01 
    5.4489084111507757E-01 
    5.0502412530054408E-01 
    4.6178297491251796E-01 
    4.1434850013703395E-01 
    3.6043747273451687E-01 
    2.9446577502508342E-01 
    2.0370886629720047E-01 
    7.1331439418397258E-02 
    7.2534734054084249E-01 
    7.2143226927708604E-01 
    7.1156056083520902E-01 
    6.9557202040789567E-01 
    6.7408337549157338E-01 
    6.4791266968427774E-01 
    6.1791718964313258E-01 
    5.8472195534831217E-01 
    5.4840043934805527E-01 
    5.0885366986844482E-01 
    4.6592062116439631E-01 
    4.1882079967404223E-01 
    3.6537962145687347E-01 
    2.9982187936755833E-01 
    2.0387576160427309E-01 
    0.0000000000000000E+00 

SCALARS Saturarion double 1 
LOOKUP_TABLE default 

    1.0000000000000009E+00 
    9.7085270717367689E-01 
    9.1909889014403667E-01 
    8.5404809481811617E-01 
    7.9891736078059505E-01 
    7.5179694805065889E-01 
    7.1227859817438866E-01 
    6.7886129999047051E-01 
    6.4969204792757662E-01 
    6.2305168670268440E-01 
    5.9748028903841421E-01 
    5.7168481650843406E-01 
    5.4435952096627027E-01 
    5.0875238155805713E-01 
    3.6516243481453847E-01 
    1.1473043454851563E-02 
    9.8846723438112372E-01 
    9.6083311231485102E-01 
    9.0664125688953601E-01 
    8.4543669719995829E-01 
    7.9343552979378629E-01 
    7.4839445126047266E-01 
    7.0973518379772438E-01 
    6.7651152652755953E-01 
    6.4749104584201145E-01 
    6.2124513808715109E-01 
    5.9646507090217171E-01 
    5.7175149861424468E-01 
    5.4552765537940162E-01 
    5.1133394575708568E-01 
    3.8363238360525409E-01 
    2.4695597069290639E-02 
    9.7033813707176819E-01 
    9.4312026492593071E-01 
    8.8913672622513362E-01 
    8.3076335765205545E-01 
    7.8255885823798710E-01 
    7.4105241334187699E-01 
    7.0436595600719765E-01 
    6.7170161703598918E-01 
    6.4277631522858325E-01 
    6.1693779978474617E-01 
    5.9326863276387676E-01 
    5.7023758454176088E-01 
    5.4593939272208636E-01 
    5.1434954383014053E-01 
    4.0324276725461339E-01 
    4.7953624573509025E-02 
    9.3856473866973156E-01 
    9.1616473748718907E-01 
    8.6805501836270571E-01 
    8.1400311307629325E-01 
    7.6742921300876410E-01 
    7.2883316809350085E-01 
    6.9509354110542976E-01 
    6.6474133470922225E-01 
    6.3722673157921195E-01 
    6.1247146846421285E-01 
    5.8979667500618949E-01 
    5.6815751732879050E-01 
    5.4577667204135194E-01 
    5.1759143892203130E-01 
    4.2199017615826095E-01 
    8.4532337178629832E-02 
    9.0142481247412876E-01 
    8.8236982789726437E-01 
    8.4032864560865472E-01 
    7.9204876350467368E-01 
    7.4852742162476105E-01 
    7.1206597949446038E-01 
    6.8110880628865478E-01 
    6.5383200318494250E-01 
    6.2925919241011419E-01 
    6.0685056267368198E-01 
    5.8611111905300750E-01 
    5.6613225445461057E-01 
    5.4541147842506088E-01 
    5.1994682856505603E-01 
    4.3640421021722947E-01 
    1.1915170231859135E-01 
    8.6195428286476150E-01 
    8.4636993002804684E-01 
    8.1053244542604119E-01 
    7.6798281935230528E-01 
    7.2833235549751341E-01 
    6.9397574376249327E-01 
    6.6458589017932157E-01 
    6.3961147081481140E-01 
    6.1787842834616824E-01 
    5.9828143830296165E-01 
    5.8014383150280291E-01 
    5.6288185062258289E-01 
    5.4479840311634442E-01 
    5.2218100483141361E-01 
    4.4909698552335292E-01 
    1.5412378899277382E-01 
    8.2044142201595693E-01 
    8.0900288730265379E-01 
    7.7979012785342761E-01 
    7.4276196093462543E-01 
    7.0702630155291202E-01 
    6.7524373813801208E-01 
    6.4786155017918245E-01 
    6.2432666137726711E-01 
    6.0431912339380189E-01 
    5.8704470215752647E-01 
    5.7165186214698283E-01 
    5.5734047198236958E-01 
    5.4281311565391688E-01 
    5.2407484967446905E-01 
    4.6077364465172249E-01 
    1.8912585733848733E-01 
    7.7693632064736939E-01 
    7.6997524290360231E-01 
    7.4788020169307756E-01 
    7.1656423013685333E-01 
    6.8434708345004291E-01 
    6.5509513903467320E-01 
    6.2954236464954860E-01 
    6.0768026779528650E-01 
    5.8911059425152013E-01 
    5.7364628688117947E-01 
    5.6073385816083265E-01 
    5.4959666484695702E-01 
    5.3881468084689232E-01 
    5.2477597620252903E-01 
    4.7147428378533707E-01 
    2.2377743417607965E-01 
    7.3166275494455801E-01 
    7.2878643186953040E-01 
    7.1323396673932160E-01 
    6.8786389708631168E-01 
    6.5987027239343410E-01 
    6.3331015602881158E-01 
    6.0964683059674873E-01 
    5.8893896667264090E-01 
    5.7133336939095380E-01 
    5.5715458701663045E-01 
    5.4656815643089729E-01 
    5.3893477463691952E-01 
    5.3251150981059614E-01 
    5.2378635841676646E-01 
    4.8119633468970330E-01 
    2.5446478872200118E-01 
    6.8454531389059936E-01 
    6.8530668749611445E-01 
    6.7561774667722085E-01 
    6.5583931189300559E-01 
    6.3248845429144374E-01 
    6.0931776123718617E-01 
    5.8774077565105332E-01 
    5.6850067078208122E-01 
    5.5198058707362807E-01 
    5.3885614508333035E-01 
    5.2958668849000512E-01 
    5.2454727936547663E-01 
    5.2290254501215960E-01 
    5.2040503911173608E-01 
    4.8915369321780405E-01 
    2.8323610690636281E-01 
    6.3547590432121648E-01 
    6.3940594012987273E-01 
    6.3501453711277200E-01 
    6.2051519450262183E-01 
    6.0195741553878157E-01 
    5.8278537070239456E-01 
    5.6441791585053014E-01 
    5.4732699418370123E-01 
    5.3246026658386092E-01 
    5.2046813613695964E-01 
    5.1176894830189357E-01 
    5.0733883204655339E-01 
    5.0896042139036379E-01 
    5.1361073135567747E-01 
    4.9526669308614091E-01 
    3.1146583572477166E-01 
    5.8542641937876960E-01 
    5.9173035450354594E-01 
    5.9233927368296424E-01 
    5.8322345599085756E-01 
    5.6906401773659199E-01 
    5.5321750056936536E-01 
    5.3799916647891255E-01 
    5.2449175292072792E-01 
    5.1204086096881030E-01 
    5.0061200568177577E-01 
    4.9147311565301605E-01 
    4.8673185445421413E-01 
    4.9008482684569099E-01 
    5.0172598047097183E-01 
    4.9766644630964069E-01 
    3.3879510801023571E-01 
    5.3660206854362325E-01 
    5.4502369030330200E-01 
    5.4904695016387439E-01 
    5.4408411054139549E-01 
    5.3316999530558928E-01 
    5.1925768365470759E-01 
    5.0574067974349957E-01 
    4.9330582039745446E-01 
    4.8017238888255542E-01 
    4.6597087757501349E-01 
    4.4935049942280653E-01 
    4.4000793503751051E-01 
    4.4696863592241370E-01 
    4.7428068411031271E-01 
    4.9036559378186695E-01 
    3.6350576572286047E-01 
    4.2888834194438058E-01 
    4.5673157765758732E-01 
    4.7542697449917559E-01 
    4.7793641443382995E-01 
    4.6898680857110203E-01 
    4.4834292876439708E-01 
    4.1352332409643611E-01 
    3.5799597515367282E-01 
    2.9003967095665073E-01 
    2.1084315448760235E-01 
    1.7443291423007221E-01 
    1.6566259528646571E-01 
    2.2538828468314431E-01 
    3.7313754646041952E-01 
    4.5837546378608002E-01 
    3.7961946589815559E-01 
    6.4282597288642537E-02 
    1.4170169243697153E-01 
    1.7501621435697243E-01 
    1.8821473466193783E-01 
    1.6957293978203930E-01 
    1.1837082976580342E-01 
    4.8268920140693047E-02 
    1.0422724094793626E-02 
    3.7149597852198990E-03 
    2.9458670851736414E-04 
    4.6449862462690616E-05 
    1.8461358904579326E-05 
    8.9282799334343393E-03 
    1.0934302225533943E-01 
    3.6292705541310416E-01 
    3.8370024638202077E-01 
    1.0007265458036622E-06 
    6.9138580227326934E-05 
    2.8673480595470597E-05 
    3.8221139426495389E-06 
    5.2368321825690186E-05 
    1.6752053281244767E-05 
    7.8340629774458425E-06 
    1.5130009609609937E-06 
    1.0226000113716851E-06 
    1.0007362672224924E-06 
    1.0000316402600931E-06 
    1.0000176856536628E-06 
    6.0351766096224477E-06 
    5.4132578838276685E-03 
    2.1236775047007728E-01 
    3.4236452881682933E-01 
