# vtk DataFile Version 2.0
Pressure Field Data 
ASCII 
DATASET UNSTRUCTURED_GRID 

POINTS 289 double 

    0.0000000000000000E+00     0.0000000000000000E+00     0.0000000000000000E+00 
    1.0000000000000000E+00     0.0000000000000000E+00     0.0000000000000000E+00 
    1.0000000000000000E+00     1.0000000000000000E+00     0.0000000000000000E+00 
    0.0000000000000000E+00     1.0000000000000000E+00     0.0000000000000000E+00 
    6.2499999999872928E-02     0.0000000000000000E+00     0.0000000000000000E+00 
    1.2499999999977310E-01     0.0000000000000000E+00     0.0000000000000000E+00 
    1.8749999999959341E-01     0.0000000000000000E+00     0.0000000000000000E+00 
    2.4999999999941089E-01     0.0000000000000000E+00     0.0000000000000000E+00 
    3.1249999999922851E-01     0.0000000000000000E+00     0.0000000000000000E+00 
    3.7499999999904610E-01     0.0000000000000000E+00     0.0000000000000000E+00 
    4.3749999999886358E-01     0.0000000000000000E+00     0.0000000000000000E+00 
    4.9999999999869210E-01     0.0000000000000000E+00     0.0000000000000000E+00 
    5.6249999999884603E-01     0.0000000000000000E+00     0.0000000000000000E+00 
    6.2499999999901090E-01     0.0000000000000000E+00     0.0000000000000000E+00 
    6.8749999999917577E-01     0.0000000000000000E+00     0.0000000000000000E+00 
    7.4999999999934064E-01     0.0000000000000000E+00     0.0000000000000000E+00 
    8.1249999999950551E-01     0.0000000000000000E+00     0.0000000000000000E+00 
    8.7499999999967026E-01     0.0000000000000000E+00     0.0000000000000000E+00 
    9.3749999999983513E-01     0.0000000000000000E+00     0.0000000000000000E+00 
    1.0000000000000000E+00     6.2499999999872928E-02     0.0000000000000000E+00 
    1.0000000000000000E+00     1.2499999999977310E-01     0.0000000000000000E+00 
    1.0000000000000000E+00     1.8749999999959341E-01     0.0000000000000000E+00 
    1.0000000000000000E+00     2.4999999999941089E-01     0.0000000000000000E+00 
    1.0000000000000000E+00     3.1249999999922851E-01     0.0000000000000000E+00 
    1.0000000000000000E+00     3.7499999999904610E-01     0.0000000000000000E+00 
    1.0000000000000000E+00     4.3749999999886358E-01     0.0000000000000000E+00 
    1.0000000000000000E+00     4.9999999999869210E-01     0.0000000000000000E+00 
    1.0000000000000000E+00     5.6249999999884603E-01     0.0000000000000000E+00 
    1.0000000000000000E+00     6.2499999999901090E-01     0.0000000000000000E+00 
    1.0000000000000000E+00     6.8749999999917577E-01     0.0000000000000000E+00 
    1.0000000000000000E+00     7.4999999999934064E-01     0.0000000000000000E+00 
    1.0000000000000000E+00     8.1249999999950551E-01     0.0000000000000000E+00 
    1.0000000000000000E+00     8.7499999999967026E-01     0.0000000000000000E+00 
    1.0000000000000000E+00     9.3749999999983513E-01     0.0000000000000000E+00 
    9.3749999999973976E-01     1.0000000000000000E+00     0.0000000000000000E+00 
    8.7499999999950118E-01     1.0000000000000000E+00     0.0000000000000000E+00 
    8.1249999999991318E-01     1.0000000000000000E+00     0.0000000000000000E+00 
    7.5000000000034706E-01     1.0000000000000000E+00     0.0000000000000000E+00 
    6.8750000000078049E-01     1.0000000000000000E+00     0.0000000000000000E+00 
    6.2500000000121403E-01     1.0000000000000000E+00     0.0000000000000000E+00 
    5.6250000000164757E-01     1.0000000000000000E+00     0.0000000000000000E+00 
    5.0000000000205946E-01     1.0000000000000000E+00     0.0000000000000000E+00 
    4.3750000000182099E-01     1.0000000000000000E+00     0.0000000000000000E+00 
    3.7500000000156092E-01     1.0000000000000000E+00     0.0000000000000000E+00 
    3.1250000000130068E-01     1.0000000000000000E+00     0.0000000000000000E+00 
    2.5000000000104050E-01     1.0000000000000000E+00     0.0000000000000000E+00 
    1.8750000000078040E-01     1.0000000000000000E+00     0.0000000000000000E+00 
    1.2500000000052031E-01     1.0000000000000000E+00     0.0000000000000000E+00 
    6.2500000000260125E-02     1.0000000000000000E+00     0.0000000000000000E+00 
    0.0000000000000000E+00     9.3749999999973976E-01     0.0000000000000000E+00 
    0.0000000000000000E+00     8.7499999999950118E-01     0.0000000000000000E+00 
    0.0000000000000000E+00     8.1249999999991318E-01     0.0000000000000000E+00 
    0.0000000000000000E+00     7.5000000000034706E-01     0.0000000000000000E+00 
    0.0000000000000000E+00     6.8750000000078049E-01     0.0000000000000000E+00 
    0.0000000000000000E+00     6.2500000000121403E-01     0.0000000000000000E+00 
    0.0000000000000000E+00     5.6250000000164757E-01     0.0000000000000000E+00 
    0.0000000000000000E+00     5.0000000000205946E-01     0.0000000000000000E+00 
    0.0000000000000000E+00     4.3750000000182099E-01     0.0000000000000000E+00 
    0.0000000000000000E+00     3.7500000000156092E-01     0.0000000000000000E+00 
    0.0000000000000000E+00     3.1250000000130068E-01     0.0000000000000000E+00 
    0.0000000000000000E+00     2.5000000000104050E-01     0.0000000000000000E+00 
    0.0000000000000000E+00     1.8750000000078040E-01     0.0000000000000000E+00 
    0.0000000000000000E+00     1.2500000000052031E-01     0.0000000000000000E+00 
    0.0000000000000000E+00     6.2500000000260125E-02     0.0000000000000000E+00 
    6.2499999999897131E-02     6.2500000000235922E-02     0.0000000000000000E+00 
    6.2499999999921327E-02     1.2500000000047351E-01     0.0000000000000000E+00 
    6.2499999999945530E-02     1.8750000000070621E-01     0.0000000000000000E+00 
    6.2499999999969733E-02     2.5000000000093858E-01     0.0000000000000000E+00 
    6.2499999999993928E-02     3.1250000000117117E-01     0.0000000000000000E+00 
    6.2500000000018124E-02     3.7500000000140382E-01     0.0000000000000000E+00 
    6.2500000000042327E-02     4.3750000000163619E-01     0.0000000000000000E+00 
    6.2500000000066530E-02     5.0000000000184897E-01     0.0000000000000000E+00 
    6.2500000000090733E-02     5.6250000000147260E-01     0.0000000000000000E+00 
    6.2500000000114922E-02     6.2500000000107636E-01     0.0000000000000000E+00 
    6.2500000000139125E-02     6.8750000000068034E-01     0.0000000000000000E+00 
    6.2500000000163328E-02     7.5000000000028411E-01     0.0000000000000000E+00 
    6.2500000000187531E-02     8.1249999999988787E-01     0.0000000000000000E+00 
    6.2500000000211720E-02     8.7499999999951172E-01     0.0000000000000000E+00 
    6.2500000000235922E-02     9.3749999999974565E-01     0.0000000000000000E+00 
    1.2499999999981980E-01     6.2500000000211733E-02     0.0000000000000000E+00 
    1.2499999999986650E-01     1.2500000000042691E-01     0.0000000000000000E+00 
    1.2499999999991319E-01     1.8750000000063199E-01     0.0000000000000000E+00 
    1.2499999999995989E-01     2.5000000000083678E-01     0.0000000000000000E+00 
    1.2500000000000661E-01     3.1250000000104172E-01     0.0000000000000000E+00 
    1.2500000000005329E-01     3.7500000000124661E-01     0.0000000000000000E+00 
    1.2500000000010000E-01     4.3750000000145117E-01     0.0000000000000000E+00 
    1.2500000000014669E-01     5.0000000000163858E-01     0.0000000000000000E+00 
    1.2500000000019340E-01     5.6250000000129741E-01     0.0000000000000000E+00 
    1.2500000000024011E-01     6.2500000000093847E-01     0.0000000000000000E+00 
    1.2500000000028680E-01     6.8750000000057998E-01     0.0000000000000000E+00 
    1.2500000000033351E-01     7.5000000000022127E-01     0.0000000000000000E+00 
    1.2500000000038020E-01     8.1249999999986211E-01     0.0000000000000000E+00 
    1.2500000000042691E-01     8.7499999999952238E-01     0.0000000000000000E+00 
    1.2500000000047359E-01     9.3749999999975164E-01     0.0000000000000000E+00 
    1.8749999999966760E-01     6.2500000000187531E-02     0.0000000000000000E+00 
    1.8749999999974179E-01     1.2500000000038020E-01     0.0000000000000000E+00 
    1.8749999999981601E-01     1.8750000000055780E-01     0.0000000000000000E+00 
    1.8749999999989009E-01     2.5000000000073502E-01     0.0000000000000000E+00 
    1.8749999999996431E-01     3.1250000000091221E-01     0.0000000000000000E+00 
    1.8750000000003850E-01     3.7500000000108941E-01     0.0000000000000000E+00 
    1.8750000000011269E-01     4.3750000000126649E-01     0.0000000000000000E+00 
    1.8750000000018691E-01     5.0000000000142808E-01     0.0000000000000000E+00 
    1.8750000000026110E-01     5.6250000000112244E-01     0.0000000000000000E+00 
    1.8750000000033529E-01     6.2500000000080080E-01     0.0000000000000000E+00 
    1.8750000000040951E-01     6.8750000000047962E-01     0.0000000000000000E+00 
    1.8750000000048361E-01     7.5000000000015843E-01     0.0000000000000000E+00 
    1.8750000000055780E-01     8.1249999999983680E-01     0.0000000000000000E+00 
    1.8750000000063199E-01     8.7499999999953304E-01     0.0000000000000000E+00 
    1.8750000000070621E-01     9.3749999999975764E-01     0.0000000000000000E+00 
    2.4999999999951281E-01     6.2500000000163314E-02     0.0000000000000000E+00 
    2.4999999999961461E-01     1.2500000000033351E-01     0.0000000000000000E+00 
    2.4999999999971650E-01     1.8750000000048361E-01     0.0000000000000000E+00 
    2.4999999999981831E-01     2.5000000000063310E-01     0.0000000000000000E+00 
    2.4999999999992020E-01     3.1250000000078260E-01     0.0000000000000000E+00 
    2.5000000000002198E-01     3.7500000000093209E-01     0.0000000000000000E+00 
    2.5000000000012390E-01     4.3750000000108180E-01     0.0000000000000000E+00 
    2.5000000000022571E-01     5.0000000000121769E-01     0.0000000000000000E+00 
    2.5000000000032763E-01     5.6250000000094724E-01     0.0000000000000000E+00 
    2.5000000000042938E-01     6.2500000000066314E-01     0.0000000000000000E+00 
    2.5000000000053119E-01     6.8750000000037925E-01     0.0000000000000000E+00 
[...]
CELL_DATA 256 
SCALARS Pressure double 1 
LOOKUP_TABLE default 

    9.2402778462274682E-01 
    8.7102875932416846E-01 
    8.3437545557833193E-01 
    7.9921594943321317E-01 
    7.6230126696938927E-01 
    7.2300170548327003E-01 
    6.8130327323040207E-01 
    6.3746964708140141E-01 
    5.9194529233581994E-01 
    5.4542196174765545E-01 
    4.9895172554506806E-01 
    4.5353897256792114E-01 
    4.0720070349536985E-01 
    3.6443929349871212E-01 
    3.3738908845723081E-01 
    3.2684239813139548E-01 
    9.1010892456460823E-01 
    8.7263373655558640E-01 
    8.3722193740649808E-01 
    8.0240671182839618E-01 
    7.6581068943352237E-01 
    7.2681386024864780E-01 
    6.8537078697621989E-01 
    6.4172318395231231E-01 
    5.9629466682034382E-01 
    5.4973985866671526E-01 
    5.0307004203241357E-01 
    4.5733866521518829E-01 
    4.1059586535725578E-01 
    3.6657388238929650E-01 
    3.3785220899356011E-01 
    3.2636728397096021E-01 
    8.9936578022982361E-01 
    8.7198671439846676E-01 
    8.3920701517318841E-01 
    8.0514824211682012E-01 
    7.6900386316570668E-01 
    7.3037235695295777E-01 
    6.8921844306499935E-01 
    6.4576544580950468E-01 
    6.0041231484152635E-01 
    5.5376541764939025E-01 
    5.0676846663413166E-01 
    4.6046636836138033E-01 
    4.1303471806140918E-01 
    3.6745467126895076E-01 
    3.3688035466735672E-01 
    3.2465825119370129E-01 
    8.9074547568144469E-01 
    8.7011580213354467E-01 
    8.4036045670961490E-01 
    8.0743296601297587E-01 
    7.7189005028514968E-01 
    7.3368494987050170E-01 
    6.9285310122018684E-01 
    6.4961142683285100E-01 
    6.0432794560544301E-01 
    5.5754555994005583E-01 
    5.1011525276301306E-01 
    4.6301960893624577E-01 
    4.1460525787968655E-01 
    3.6711297824866251E-01 
    3.3438566691320193E-01 
    3.2148373005401143E-01 
    8.8359494148567863E-01 
    8.6758689436972625E-01 
    8.4080377817041108E-01 
    8.0927390840638957E-01 
    7.7448565750522425E-01 
    7.3677507553000998E-01 
    6.9629788605384502E-01 
    6.5328602179687600E-01 
    6.0807574316093393E-01 
    5.6113292835644357E-01 
    5.1318905711447305E-01 
    4.6511028051041592E-01 
    4.1539077847700845E-01 
    3.6557158618656210E-01 
    3.3027226191960535E-01 
    3.1660189991036847E-01 
    8.7758931080378788E-01 
    8.6477770819544098E-01 
    8.4070248559103244E-01 
    8.1071578780890297E-01 
    7.7681655366443214E-01 
    7.3967474670179478E-01 
    6.9958684056629616E-01 
    6.5682173508307173E-01 
    6.1169242403930124E-01 
    5.6457912402756782E-01 
    5.1606889150772595E-01 
    4.6685761832819894E-01 
    4.1547754854369190E-01 
    3.6286447876021188E-01 
    3.2445862178308649E-01 
    3.0975542330290073E-01 
    8.7252176608374854E-01 
    8.6194307973534345E-01 
    8.4023577001233951E-01 
    8.1183157365517034E-01 
    7.7891852266803474E-01 
    7.4241712420790429E-01 
    7.0275620330561062E-01 
    6.6025501816549437E-01 
    6.1521842237516211E-01 
    5.6793683389962069E-01 
    5.1883361249771376E-01 
    4.6838359084926601E-01 
    4.1496278400102515E-01 
    3.5905504586317533E-01 
    3.1689143567013511E-01 
    3.0065684973368295E-01 
    8.6824526072288344E-01 
    8.5924733337241865E-01 
    8.3956358139410214E-01 
    8.1270354957676005E-01 
    7.8083364707189629E-01 
    7.4503471307371583E-01 
    7.0584034775089355E-01 
    6.6362364337808732E-01 
    6.1869762435868836E-01 
    5.7126289303625943E-01 
    5.2156516553235177E-01 
    4.6981479359981598E-01 
    4.1396804055695086E-01 
    3.5425927703784865E-01 
    3.0754992109787738E-01 
    2.8895864615007583E-01 
    8.6465583894184250E-01 
    8.5679362135369053E-01 
    8.3881952560221684E-01 
    8.1341833437216160E-01 
    7.8261038499379232E-01 
    7.4755997018958464E-01 
    7.0887089126722125E-01 
    6.6696484226119768E-01 
    6.2217691173621259E-01 
    5.7461683161602439E-01 
    5.2434329377890099E-01 
    4.7126187910871109E-01 
    4.1263460325683510E-01 
    3.4868453150625250E-01 
    2.9647798243425305E-01 
    2.7422962795424083E-01 
    8.6168271406264074E-01 
    8.5464839896111588E-01 
    8.3811300862076776E-01 
    8.1406218410755471E-01 
    7.8430386112814410E-01 
    7.5003053612505433E-01 
    7.1188111866134884E-01 
    6.7031334483401384E-01 
    6.2569897905094507E-01 
    5.7804799035949039E-01 
    5.2721813871697176E-01 
    4.7272375862340255E-01 
    4.1108298158406187E-01 
    3.4270914923804890E-01 
    2.8385542212461423E-01 
    2.5591197899629908E-01 
    8.5928989726996563E-01 
    8.5287136421419085E-01 
    8.3754730015743351E-01 
    8.1472539375743869E-01 
    7.8597911849637558E-01 
    7.5249472487564972E-01 
    7.1490435153618370E-01 
    6.7368617313591606E-01 
    6.2927506031714320E-01 
    5.8154700927268654E-01 
    5.3009511204062354E-01 
    4.7394652861082831E-01 
    4.0940692429867698E-01 
    3.3690327796644520E-01 
    2.6998459180765055E-01 
    2.3325904467011660E-01 
    8.5745006939828350E-01 
    8.5151596739235136E-01 
    8.3721511547112548E-01 
    8.1549222088344275E-01 
    7.8769640236817740E-01 
    7.5498845652208479E-01 
    7.1792735022897691E-01 
    6.7697771786264183E-01 
    6.3269714358381912E-01 
    5.8485082154336110E-01 
    5.3273022261245750E-01 
    4.7509091778049456E-01 
    4.0856297522966578E-01 
    3.3227882573321693E-01 
    2.5528661100656913E-01 
    2.0523512031935620E-01 
    8.5600002922421703E-01 
    8.5051616037479538E-01 
    8.3711724273073151E-01 
    8.1636122084066509E-01 
    7.8938867167992277E-01 
    7.5734518075347512E-01 
    7.2076433874448298E-01 
    6.8004856942344794E-01 
    6.3588464003323308E-01 
    5.8805778234346195E-01 
    5.3564740482035067E-01 
    4.7722419733511118E-01 
    4.0954172000852007E-01 
    3.2968621083735772E-01 
    2.4068449937085418E-01 
    1.7039979056612908E-01 
    8.5474707163778740E-01 
    8.4962080132936280E-01 
    8.3702666226438371E-01 
    8.1716612965151592E-01 
    7.9096156382339133E-01 
    7.5951881386979581E-01 
    7.2346910215391769E-01 
    6.8318943531530540E-01 
    6.3930656056367852E-01 
    5.9168795578345501E-01 
    5.3937040982605489E-01 
    4.8072441529349025E-01 
    4.1237268503261654E-01 
    3.2957216104059794E-01 
    2.2799980544562395E-01 
    1.2673084826880246E-01 
    8.5398843521819512E-01 
    8.4914788869821312E-01 
    8.3724466456740831E-01 
    8.1820169732456549E-01 
    7.9276122110175640E-01 
    7.6194596677614257E-01 
    7.2645786241389321E-01 
    6.8669603060228435E-01 
    6.4316806165413276E-01 
    5.9580650126886092E-01 
    5.4372262301561236E-01 
    4.8523168865636707E-01 
    4.1689785398785412E-01 
    3.3271774756169842E-01 
    2.2038972737586582E-01 
    7.1334800671871104E-02 
    8.5378947857301657E-01 
    8.4934129370656641E-01 
    8.3811586391534443E-01 
    8.1981004962990467E-01 
    7.9505244746943771E-01 
    7.6480981632648271E-01 
    7.2981039258711367E-01 
    6.9049585665639168E-01 
    6.4734568906598067E-01 
    6.0033490208329898E-01 
    5.4865139069131130E-01 
    4.9065596796502708E-01 
    4.2301125648044868E-01 
    3.3944654020334936E-01 
    2.2328298407325109E-01 
    0.0000000000000000E+00 

SCALARS Saturarion double 1 
LOOKUP_TABLE default 

    1.0000000000000293E+00 
    9.6027925559590355E-01 
    8.9423550712093192E-01 
    8.1439898193558524E-01 
    7.4772993578877855E-01 
    6.9499617281145221E-01 
    6.5287358147456376E-01 
    6.1719934948082611E-01 
    5.8498558517505161E-01 
    5.5482238060745215E-01 
    5.2498068474166681E-01 
    4.8442523246222791E-01 
    3.5538394227586573E-01 
    2.1434430419216926E-02 
    1.0000000401737414E-06 
    1.0000000000000038E-06 
    9.8304351317404548E-01 
    9.4551390051957429E-01 
    8.7645609683433612E-01 
    8.0431441833620543E-01 
    7.4277149107194607E-01 
    6.9149641482467039E-01 
    6.4932457601907956E-01 
    6.1370489282897056E-01 
    5.8218524768748681E-01 
    5.5289320275314191E-01 
    5.2382872169078831E-01 
    4.8449169148370280E-01 
    3.6492717835554894E-01 
    3.0031148992836862E-02 
    1.2148459015286989E-06 
    1.0000000252412497E-06 
    9.5632797361360333E-01 
    9.2083230201092270E-01 
    8.5295545364197145E-01 
    7.8712616111264400E-01 
    7.3213344214277687E-01 
    6.8380813537857643E-01 
    6.4220712722042916E-01 
    6.0688335807797300E-01 
    5.7650556712583723E-01 
    5.4879424269362842E-01 
    5.2125523944848151E-01 
    4.8428184228678073E-01 
    3.7415598424318292E-01 
    4.0349460194247448E-02 
    1.7141302765538437E-06 
    1.0000001324901498E-06 
    9.0996690168028416E-01 
    8.8252537763327443E-01 
    8.2391622567078504E-01 
    7.6372567465737007E-01 
    7.1422917458087554E-01 
    6.7165298053191291E-01 
    6.3367900128261889E-01 
    6.0052680408787495E-01 
    5.7139712618081173E-01 
    5.4493870161694435E-01 
    5.1894667487156998E-01 
    4.8449097030311222E-01 
    3.8440195249318732E-01 
    5.6486355904531223E-02 
    4.4224821266340391E-06 
    1.0000015397837415E-06 
    8.6137977185394743E-01 
    8.3830444529964154E-01 
    7.8888089862482269E-01 
    7.3665382291588566E-01 
    6.9224962924627120E-01 
    6.5468541485169174E-01 
    6.2179866989899824E-01 
    5.9229008451431664E-01 
    5.6549632357253266E-01 
    5.4060040180863567E-01 
    5.1612302936928578E-01 
    4.8431456900375364E-01 
    3.9507031201123904E-01 
    7.6036211187091390E-02 
    4.9778914844681689E-06 
    1.0000010240557014E-06 
    8.1231278340224788E-01 
    7.9421858833755732E-01 
    7.5413070834596840E-01 
    7.0932170552164908E-01 
    6.6926450757719858E-01 
    6.3541038464501498E-01 
    6.0628650575433851E-01 
    5.8030700154399750E-01 
    5.5625835538694457E-01 
    5.3354836023519858E-01 
    5.1083209261873119E-01 
    4.8188212891683913E-01 
    4.0298233508184100E-01 
    9.3066007380434912E-02 
    1.7258057247513621E-06 
    1.0000003839290818E-06 
    7.6328190514044059E-01 
    7.5074141676376860E-01 
    7.1944386741844490E-01 
    6.8107211231726839E-01 
    6.4544101155390976E-01 
    6.1502606371906576E-01 
    5.8918025534410956E-01 
    5.6611412561655960E-01 
    5.4476982074515490E-01 
    5.2445403824574655E-01 
    5.0399609702331283E-01 
    4.7736615721845194E-01 
    4.0574388268610834E-01 
    1.0471999915945285E-01 
    2.1320116088192984E-06 
    1.0000003972052884E-06 
    7.1405009151566901E-01 
    7.0690387939172283E-01 
    6.8411367478735996E-01 
    6.5239565976559810E-01 
    6.2093023586690255E-01 
    5.9325056399854159E-01 
    5.6952951335023849E-01 
    5.4938715112392233E-01 
    5.3136397760909071E-01 
    5.1371097076987360E-01 
    4.9527503826882696E-01 
    4.7107425094391564E-01 
    4.0331163330693265E-01 
    1.0777117672631516E-01 
    8.5677746443687070E-06 
    1.0000070713087432E-06 
    6.6464331832438217E-01 
    6.6205608842168107E-01 
    6.4679276860628221E-01 
    6.2217639264644997E-01 
    5.9556081038482278E-01 
    5.7030416506527359E-01 
    5.4837956968723323E-01 
    5.3042860638425726E-01 
    5.1528081246135538E-01 
    5.0071618774555193E-01 
    4.8475338084670982E-01 
    4.6167871522695719E-01 
    3.9186403629075139E-01 
    9.6355776507097285E-02 
    2.6044276485619206E-05 
    1.0000518913142618E-06 
    6.1577816868194157E-01 
    6.1692657565202880E-01 
    6.0830316566731779E-01 
    5.9016808290386125E-01 
    5.6866624764980012E-01 
    5.4693556556362299E-01 
    5.2731368104271192E-01 
    5.1087855475039923E-01 
    4.9675909920636957E-01 
    4.8301642708684267E-01 
    4.6704313781339568E-01 
    4.4155747996557920E-01 
    3.5375077007969119E-01 
    5.2458089513217822E-02 
    5.7532364961410489E-05 
    1.0001393225518300E-06 
    5.7006551704822317E-01 
    5.7380491592147986E-01 
    5.7045952982330272E-01 
    5.5734644102271691E-01 
    5.4045006725264999E-01 
    5.2346657307597777E-01 
    5.0634075289599445E-01 
    4.8845404011260085E-01 
    4.7127573860042338E-01 
    4.5267743946567174E-01 
    4.2597777856408731E-01 
    3.7622308520791492E-01 
    2.0727590620663536E-01 
    4.7015628958012650E-03 
    1.6371378042989964E-06 
    1.0000001012778395E-06 
    5.2544152599851024E-01 
    5.3176274270675306E-01 
    5.3148739107378029E-01 
    5.2197616085707732E-01 
    5.0854299262152469E-01 
    4.9272222106074481E-01 
    4.7072937579865193E-01 
    4.3559962534896651E-01 
    3.7862879276712441E-01 
    2.8142741988131303E-01 
    2.0353427216338044E-01 
    1.0407432216218393E-01 
    7.8862433821996966E-03 
    5.9856711308216484E-06 
    1.0000014519238193E-06 
    1.0000000000001649E-06 
    4.2482790969896583E-01 
    4.4935362426949887E-01 
    4.6331042642868114E-01 
    4.5743525262881396E-01 
    4.3425025195005051E-01 
    3.8224705028894013E-01 
    2.5501825428678576E-01 
    1.3799753265854919E-01 
    4.7515934905640461E-02 
    7.3823512241410483E-03 
    3.9565324321238419E-04 
    2.3175026143569671E-04 
    2.5572313997458789E-06 
    1.0000032883262346E-06 
    1.0000000000008525E-06 
    9.9999999999999995E-07 
    7.3707492221140522E-02 
    1.5314740937308408E-01 
    1.8624624921356203E-01 
    1.6723501224042009E-01 
    1.1386578281505016E-01 
    4.2116310102345629E-02 
    2.0292389591667812E-03 
    3.6865547416532270E-05 
    1.9552220766435530E-05 
    2.0442327732643256E-06 
    1.0077919676758267E-06 
    1.0079783750586769E-06 
    1.0000002653312883E-06 
    1.0000000000002361E-06 
    9.9999999999999995E-07 
    9.9999999999999995E-07 
    1.0008947597344027E-06 
    7.2245146940740171E-05 
    2.4331042698085747E-05 
    4.1079785727535136E-05 
    3.3241545238156716E-05 
    2.7449133027440992E-05 
    1.0390386478755003E-06 
    1.0001819230827517E-06 
    1.0000185183620765E-06 
    1.0000001088915487E-06 
    1.0000000006559196E-06 
    1.0000000000000010E-06 
    1.0000000000000038E-06 
    9.9999999999999995E-07 
    9.9999999999999995E-07 
    9.9999999999999995E-07 
    1.0000000002566747E-06 
    1.0004085227870787E-06 
    1.0000171467616244E-06 
    1.0000471022891615E-06 
    1.0001172156892778E-06 
    1.0000235110876666E-06 
    1.0000000014396758E-06 
    1.0000000000000546E-06 
    9.9999999999999995E-07 
    9.9999999999999995E-07 
    9.9999999999999995E-07 
    9.9999999999999995E-07 
    9.9999999999999995E-07 
    9.9999999999999995E-07 
    9.9999999999999995E-07 
    1.0000004656742728E-06 
