# vtk DataFile Version 2.0
Pressure Field Data 
ASCII 
DATASET UNSTRUCTURED_GRID 

POINTS 289 double 

    0.0000000000000000E+00     0.0000000000000000E+00     0.0000000000000000E+00 
    1.0000000000000000E+00     0.0000000000000000E+00     0.0000000000000000E+00 
    1.0000000000000000E+00     1.0000000000000000E+00     0.0000000000000000E+00 
    0.0000000000000000E+00     1.0000000000000000E+00     0.0000000000000000E+00 
    6.2499999999872928E-02     0.0000000000000000E+00     0.0000000000000000E+00 
    1.2499999999977310E-01     0.0000000000000000E+00     0.0000000000000000E+00 
    1.8749999999959341E-01     0.0000000000000000E+00     0.0000000000000000E+00 
    2.4999999999941089E-01     0.0000000000000000E+00     0.0000000000000000E+00 
    3.1249999999922851E-01     0.0000000000000000E+00     0.0000000000000000E+00 
    3.7499999999904610E-01     0.0000000000000000E+00     0.0000000000000000E+00 
    4.3749999999886358E-01     0.0000000000000000E+00     0.0000000000000000E+00 
    4.9999999999869210E-01     0.0000000000000000E+00     0.0000000000000000E+00 
    5.6249999999884603E-01     0.0000000000000000E+00     0.0000000000000000E+00 
    6.2499999999901090E-01     0.0000000000000000E+00     0.0000000000000000E+00 
    6.8749999999917577E-01     0.0000000000000000E+00     0.0000000000000000E+00 
    7.4999999999934064E-01     0.0000000000000000E+00     0.0000000000000000E+00 
    8.1249999999950551E-01     0.0000000000000000E+00     0.0000000000000000E+00 
    8.7499999999967026E-01     0.0000000000000000E+00     0.0000000000000000E+00 
    9.3749999999983513E-01     0.0000000000000000E+00     0.0000000000000000E+00 
    1.0000000000000000E+00     6.2499999999872928E-02     0.0000000000000000E+00 
    1.0000000000000000E+00     1.2499999999977310E-01     0.0000000000000000E+00 
    1.0000000000000000E+00     1.8749999999959341E-01     0.0000000000000000E+00 
    1.0000000000000000E+00     2.4999999999941089E-01     0.0000000000000000E+00 
    1.0000000000000000E+00     3.1249999999922851E-01     0.0000000000000000E+00 
    1.0000000000000000E+00     3.7499999999904610E-01     0.0000000000000000E+00 
    1.0000000000000000E+00     4.3749999999886358E-01     0.0000000000000000E+00 
    1.0000000000000000E+00     4.9999999999869210E-01     0.0000000000000000E+00 
    1.0000000000000000E+00     5.6249999999884603E-01     0.0000000000000000E+00 
    1.0000000000000000E+00     6.2499999999901090E-01     0.0000000000000000E+00 
    1.0000000000000000E+00     6.8749999999917577E-01     0.0000000000000000E+00 
    1.0000000000000000E+00     7.4999999999934064E-01     0.0000000000000000E+00 
    1.0000000000000000E+00     8.1249999999950551E-01     0.0000000000000000E+00 
    1.0000000000000000E+00     8.7499999999967026E-01     0.0000000000000000E+00 
    1.0000000000000000E+00     9.3749999999983513E-01     0.0000000000000000E+00 
    9.3749999999973976E-01     1.0000000000000000E+00     0.0000000000000000E+00 
    8.7499999999950118E-01     1.0000000000000000E+00     0.0000000000000000E+00 
    8.1249999999991318E-01     1.0000000000000000E+00     0.0000000000000000E+00 
    7.5000000000034706E-01     1.0000000000000000E+00     0.0000000000000000E+00 
    6.8750000000078049E-01     1.0000000000000000E+00     0.0000000000000000E+00 
    6.2500000000121403E-01     1.0000000000000000E+00     0.0000000000000000E+00 
    5.6250000000164757E-01     1.0000000000000000E+00     0.0000000000000000E+00 
    5.0000000000205946E-01     1.0000000000000000E+00     0.0000000000000000E+00 
    4.3750000000182099E-01     1.0000000000000000E+00     0.0000000000000000E+00 
    3.7500000000156092E-01     1.0000000000000000E+00     0.0000000000000000E+00 
    3.1250000000130068E-01     1.0000000000000000E+00     0.0000000000000000E+00 
    2.5000000000104050E-01     1.0000000000000000E+00     0.0000000000000000E+00 
    1.8750000000078040E-01     1.0000000000000000E+00     0.0000000000000000E+00 
    1.2500000000052031E-01     1.0000000000000000E+00     0.0000000000000000E+00 
    6.2500000000260125E-02     1.0000000000000000E+00     0.0000000000000000E+00 
    0.0000000000000000E+00     9.3749999999973976E-01     0.0000000000000000E+00 
    0.0000000000000000E+00     8.7499999999950118E-01     0.0000000000000000E+00 
    0.0000000000000000E+00     8.1249999999991318E-01     0.0000000000000000E+00 
    0.0000000000000000E+00     7.5000000000034706E-01     0.0000000000000000E+00 
    0.0000000000000000E+00     6.8750000000078049E-01     0.0000000000000000E+00 
    0.0000000000000000E+00     6.2500000000121403E-01     0.0000000000000000E+00 
    0.0000000000000000E+00     5.6250000000164757E-01     0.0000000000000000E+00 
    0.0000000000000000E+00     5.0000000000205946E-01     0.0000000000000000E+00 
    0.0000000000000000E+00     4.3750000000182099E-01     0.0000000000000000E+00 
    0.0000000000000000E+00     3.7500000000156092E-01     0.0000000000000000E+00 
    0.0000000000000000E+00     3.1250000000130068E-01     0.0000000000000000E+00 
    0.0000000000000000E+00     2.5000000000104050E-01     0.0000000000000000E+00 
    0.0000000000000000E+00     1.8750000000078040E-01     0.0000000000000000E+00 
    0.0000000000000000E+00     1.2500000000052031E-01     0.0000000000000000E+00 
    0.0000000000000000E+00     6.2500000000260125E-02     0.0000000000000000E+00 
    6.2499999999897131E-02     6.2500000000235922E-02     0.0000000000000000E+00 
    6.2499999999921327E-02     1.2500000000047351E-01     0.0000000000000000E+00 
    6.2499999999945530E-02     1.8750000000070621E-01     0.0000000000000000E+00 
    6.2499999999969733E-02     2.5000000000093858E-01     0.0000000000000000E+00 
    6.2499999999993928E-02     3.1250000000117117E-01     0.0000000000000000E+00 
    6.2500000000018124E-02     3.7500000000140382E-01     0.0000000000000000E+00 
    6.2500000000042327E-02     4.3750000000163619E-01     0.0000000000000000E+00 
    6.2500000000066530E-02     5.0000000000184897E-01     0.0000000000000000E+00 
    6.2500000000090733E-02     5.6250000000147260E-01     0.0000000000000000E+00 
    6.2500000000114922E-02     6.2500000000107636E-01     0.0000000000000000E+00 
    6.2500000000139125E-02     6.8750000000068034E-01     0.0000000000000000E+00 
    6.2500000000163328E-02     7.5000000000028411E-01     0.0000000000000000E+00 
    6.2500000000187531E-02     8.1249999999988787E-01     0.0000000000000000E+00 
    6.2500000000211720E-02     8.7499999999951172E-01     0.0000000000000000E+00 
    6.2500000000235922E-02     9.3749999999974565E-01     0.0000000000000000E+00 
    1.2499999999981980E-01     6.2500000000211733E-02     0.0000000000000000E+00 
    1.2499999999986650E-01     1.2500000000042691E-01     0.0000000000000000E+00 
    1.2499999999991319E-01     1.8750000000063199E-01     0.0000000000000000E+00 
    1.2499999999995989E-01     2.5000000000083678E-01     0.0000000000000000E+00 
    1.2500000000000661E-01     3.1250000000104172E-01     0.0000000000000000E+00 
    1.2500000000005329E-01     3.7500000000124661E-01     0.0000000000000000E+00 
    1.2500000000010000E-01     4.3750000000145117E-01     0.0000000000000000E+00 
    1.2500000000014669E-01     5.0000000000163858E-01     0.0000000000000000E+00 
    1.2500000000019340E-01     5.6250000000129741E-01     0.0000000000000000E+00 
    1.2500000000024011E-01     6.2500000000093847E-01     0.0000000000000000E+00 
    1.2500000000028680E-01     6.8750000000057998E-01     0.0000000000000000E+00 
    1.2500000000033351E-01     7.5000000000022127E-01     0.0000000000000000E+00 
    1.2500000000038020E-01     8.1249999999986211E-01     0.0000000000000000E+00 
    1.2500000000042691E-01     8.7499999999952238E-01     0.0000000000000000E+00 
    1.2500000000047359E-01     9.3749999999975164E-01     0.0000000000000000E+00 
    1.8749999999966760E-01     6.2500000000187531E-02     0.0000000000000000E+00 
    1.8749999999974179E-01     1.2500000000038020E-01     0.0000000000000000E+00 
    1.8749999999981601E-01     1.8750000000055780E-01     0.0000000000000000E+00 
    1.8749999999989009E-01     2.5000000000073502E-01     0.0000000000000000E+00 
    1.8749999999996431E-01     3.1250000000091221E-01     0.0000000000000000E+00 
    1.8750000000003850E-01     3.7500000000108941E-01     0.0000000000000000E+00 
    1.8750000000011269E-01     4.3750000000126649E-01     0.0000000000000000E+00 
    1.8750000000018691E-01     5.0000000000142808E-01     0.0000000000000000E+00 
    1.8750000000026110E-01     5.6250000000112244E-01     0.0000000000000000E+00 
    1.8750000000033529E-01     6.2500000000080080E-01     0.0000000000000000E+00 
    1.8750000000040951E-01     6.8750000000047962E-01     0.0000000000000000E+00 
    1.8750000000048361E-01     7.5000000000015843E-01     0.0000000000000000E+00 
    1.8750000000055780E-01     8.1249999999983680E-01     0.0000000000000000E+00 
    1.8750000000063199E-01     8.7499999999953304E-01     0.0000000000000000E+00 
    1.8750000000070621E-01     9.3749999999975764E-01     0.0000000000000000E+00 
    2.4999999999951281E-01     6.2500000000163314E-02     0.0000000000000000E+00 
    2.4999999999961461E-01     1.2500000000033351E-01     0.0000000000000000E+00 
    2.4999999999971650E-01     1.8750000000048361E-01     0.0000000000000000E+00 
    2.4999999999981831E-01     2.5000000000063310E-01     0.0000000000000000E+00 
    2.4999999999992020E-01     3.1250000000078260E-01     0.0000000000000000E+00 
    2.5000000000002198E-01     3.7500000000093209E-01     0.0000000000000000E+00 
    2.5000000000012390E-01     4.3750000000108180E-01     0.0000000000000000E+00 
    2.5000000000022571E-01     5.0000000000121769E-01     0.0000000000000000E+00 
    2.5000000000032763E-01     5.6250000000094724E-01     0.0000000000000000E+00 
    2.5000000000042938E-01     6.2500000000066314E-01     0.0000000000000000E+00 
    2.5000000000053119E-01     6.8750000000037925E-01     0.0000000000000000E+00 
[...]
CELL_DATA 256 
SCALARS Pressure double 1 
LOOKUP_TABLE default 

    1.1153347027310618E+00 
    1.0561645972002001E+00 
    1.0108838532959428E+00 
    9.6470615816229333E-01 
    9.1429297310553537E-01 
    8.5842157552149001E-01 
    7.8793773523541044E-01 
    7.0786082357524371E-01 
    6.3682004871742748E-01 
    5.6918045228730341E-01 
    5.0513756748289507E-01 
    4.4631699074812897E-01 
    3.9546371305146599E-01 
    3.5607885863989469E-01 
    3.3121172151057265E-01 
    3.2123486987618283E-01 
    1.1013836960703351E+00 
    1.0582334920785226E+00 
    1.0143623721311501E+00 
    9.6875211926682125E-01 
    9.1899824258533513E-01 
    8.6395267132052700E-01 
    7.9451201611107636E-01 
    7.1479064495472933E-01 
    6.4348366555901026E-01 
    5.7547029449794040E-01 
    5.1085742148603552E-01 
    4.5115163836047817E-01 
    3.9902848564688542E-01 
    3.5806813547917776E-01 
    3.3166136468792540E-01 
    3.2078611471339058E-01 
    1.0901692858849941E+00 
    1.0576606624801712E+00 
    1.0166063501810103E+00 
    9.7195594768357418E-01 
    9.2302647591198173E-01 
    8.6870582462459067E-01 
    8.0012278201436937E-01 
    7.2114121287406496E-01 
    6.4988389711449002E-01 
    5.8151796262331901E-01 
    5.1624647129129009E-01 
    4.5546782273338227E-01 
    4.0179236822413028E-01 
    3.5893989113758212E-01 
    3.3080554141411705E-01 
    3.1917370870672740E-01 
    1.0804436266145292E+00 
    1.0553604847146847E+00 
    1.0176286597334341E+00 
    9.7434815970529698E-01 
    9.2639248669940255E-01 
    8.7267993626668394E-01 
    8.0484392276351535E-01 
    7.2700887147553228E-01 
    6.5601798274004108E-01 
    5.8735374418581365E-01 
    5.2136765929186790E-01 
    4.5935600337474158E-01 
    4.0384881281780216E-01 
    3.5873385484140857E-01 
    3.2856139548267538E-01 
    3.1617116433215731E-01 
    1.0716717124216835E+00 
    1.0518943878462690E+00 
    1.0175823740425050E+00 
    9.7602674712747362E-01 
    9.2917330804776832E-01 
    8.7587645928152935E-01 
    8.0872577336921136E-01 
    7.3251648032125738E-01 
    6.6191518398261129E-01 
    5.9302051374238840E-01 
    5.2629396014962926E-01 
    4.6291984818950221E-01 
    4.0530963550181787E-01 
    3.5750643487752776E-01 
    3.2484698920308946E-01 
    3.1154809955724855E-01 
    1.0638103258542277E+00 
    1.0478304410139634E+00 
    1.0167535098594596E+00 
    9.7712790638053471E-01 
    9.3144941474254417E-01 
    8.7829419074918436E-01 
    8.1182923027419973E-01 
    7.3778571515283786E-01 
    6.6762359625658041E-01 
    5.9856740189634960E-01 
    5.3110238234720863E-01 
    4.6627309174136722E-01 
    4.0630726795528055E-01 
    3.5533827450393307E-01 
    3.1958443864691594E-01 
    3.0505532066461527E-01 
    1.0568429376721646E+00 
    1.0435855884932392E+00 
    1.0154138339296710E+00 
    9.7777212039613792E-01 
    9.3321481164501152E-01 
    8.7996709126694317E-01 
    8.1435895123324931E-01 
    7.4287835748450204E-01 
    6.7319037839160023E-01 
    6.0404022603861696E-01 
    5.3586762462348969E-01 
    4.6953482654674505E-01 
    4.0699514405141463E-01 
    3.5234142618404651E-01 
    3.1270056942742769E-01 
    2.9639362883311399E-01 
    1.0507836957489038E+00 
    1.0394809742249886E+00 
    1.0138132018028958E+00 
    9.7806033511955182E-01 
    9.3431717784617163E-01 
    8.8092042509882174E-01 
    8.1668346034246031E-01 
    7.4777177795560235E-01 
    6.7865228084025608E-01 
    6.0948615428954989E-01 
    5.4066531721244138E-01 
    4.7283262963002382E-01 
    4.0755486179218553E-01 
    3.4867755836967029E-01 
    3.0414366049812946E-01 
    2.8520541113958331E-01 
    1.0456202256036469E+00 
    1.0357274182374181E+00 
    1.0121286468192954E+00 
    9.7792905442185118E-01 
    9.3460881859875899E-01 
    8.8143282716138016E-01 
    8.1922643441538323E-01 
    7.5246991843636990E-01 
    6.8405417036895610E-01 
    6.1495654913479969E-01 
    5.4557129176192032E-01 
    4.7629716452913839E-01 
    4.0819767886882929E-01 
    3.4457620787353033E-01 
    2.9390426463480768E-01 
    2.7103481519501615E-01 
    1.0410545122653778E+00 
    1.0321956065053137E+00 
    1.0101110042298336E+00 
    9.7700679449932681E-01 
    9.3420504639290813E-01 
    8.8215525636811576E-01 
    8.2217119952844475E-01 
    7.5707697132031981E-01 
    6.8944295410165146E-01 
    6.2049760820643773E-01 
    5.5065635968935167E-01 
    4.8006456058512542E-01 
    4.0917203367517413E-01 
    3.4036646791692160E-01 
    2.8206532509783877E-01 
    2.5329390345933050E-01 
    1.0361950061508467E+00 
    1.0281215713631258E+00 
    1.0073779501841287E+00 
    9.7551581576424085E-01 
    9.3396018755273424E-01 
    8.8353929106582829E-01 
    8.2539156882919673E-01 
    7.6170570419439909E-01 
    6.9486394997991063E-01 
    6.2614701333284328E-01 
    5.5597848308635933E-01 
    4.8425746760818411E-01 
    4.1074290645065786E-01 
    3.3648802469569672E-01 
    2.6886185272774360E-01 
    2.3120247314036063E-01 
    1.0319646515874068E+00 
    1.0242837927792205E+00 
    1.0048723925889587E+00 
    9.7457654976801367E-01 
    9.3452689321985594E-01 
    8.8555173456891723E-01 
    8.2886690009034680E-01 
    7.6643531739339832E-01 
    7.0036377437003361E-01 
    6.3193931835735373E-01 
    5.6158201898175930E-01 
    4.8897566559525685E-01 
    4.1317517379436436E-01 
    3.3350962416165086E-01 
    2.5479819122268427E-01 
    2.0371239121357854E-01 
    1.0291644251626646E+00 
    1.0218421174312762E+00 
    1.0035423772451497E+00 
    9.7454551299782610E-01 
    9.3575847162090586E-01 
    8.8806297335938311E-01 
    8.3266308723141447E-01 
    7.7133662147850468E-01 
    7.0599466960615886E-01 
    6.3790775018937906E-01 
    5.6749687496668277E-01 
    4.9428749398245025E-01 
    4.1670924167306495E-01 
    3.3213175723036376E-01 
    2.4084403300871296E-01 
    1.6937303870493609E-01 
    1.0273407464768565E+00 
    1.0203643311490687E+00 
    1.0030582000653576E+00 
    9.7524942398840964E-01 
    9.3763807001838850E-01 
    8.9110354536797975E-01 
    8.3683000111231065E-01 
    7.7646946560626606E-01 
    7.1179921332032403E-01 
    6.4407477790479695E-01 
    5.7373627417255280E-01 
    5.0022704990612166E-01 
    4.2152542164729445E-01 
    3.3314504007979773E-01 
    2.2876928369396254E-01 
    1.2614140974450130E-01 
    1.0263622497540246E+00 
    1.0197870700213951E+00 
    1.0034103735155444E+00 
    9.7670270007115312E-01 
    9.4018504750267062E-01 
    8.9470171207629678E-01 
    8.4140969447729785E-01 
    7.8187985123199832E-01 
    7.1780814144563099E-01 
    6.5045263473379855E-01 
    5.8029558053310581E-01 
    5.0677978695557913E-01 
    4.2768046122798326E-01 
    3.3726628874189007E-01 
    2.2169104878008222E-01 
    7.1096703079387147E-02 
    1.0260923311174199E+00 
    1.0200456018388320E+00 
    1.0045911061763277E+00 
    9.7892298884754514E-01 
    9.4342309310482209E-01 
    8.9888851520643476E-01 
    8.4644342096692460E-01 
    7.8760996217350931E-01 
    7.2405073752036320E-01 
    6.5705091209318001E-01 
    5.8715691222057254E-01 
    5.1388512004957143E-01 
    4.3506804795937798E-01 
    3.4476812348011210E-01 
    2.2500197405767358E-01 
    0.0000000000000000E+00 

SCALARS Saturarion double 1 
LOOKUP_TABLE default 

    9.9999999999952194E-01 
    9.2451899086069356E-01 
    8.2308010224525729E-01 
    6.9899672679492830E-01 
    6.1856170995510484E-01 
    5.3843361481104968E-01 
    3.4896141732127289E-01 
    1.3888827781922641E-02 
    1.0000000817418229E-06 
    1.0000000000000400E-06 
    9.9999999999999995E-07 
    9.9999999999999995E-07 
    9.9999999999999995E-07 
    9.9999999999999995E-07 
    9.9999999999999995E-07 
    9.9999999999999995E-07 
    9.6186731747034182E-01 
    8.9358337579714853E-01 
    7.9436848336491495E-01 
    6.8895843199533557E-01 
    6.0917839638661120E-01 
    5.3171791192636819E-01 
    3.3415730221210538E-01 
    1.0705790621662365E-02 
    1.0877100553356522E-06 
    1.0000000094723982E-06 
    1.0000000000000019E-06 
    9.9999999999999995E-07 
    9.9999999999999995E-07 
    9.9999999999999995E-07 
    9.9999999999999995E-07 
    9.9999999999999995E-07 
    8.9784494590427433E-01 
    8.4486836539636245E-01 
    7.5299469374228312E-01 
    6.6915133520397019E-01 
    5.9444791493757976E-01 
    5.1962128157759679E-01 
    3.1196863260387370E-01 
    6.3526869862103952E-03 
    1.1363545365585338E-06 
    1.0000000146461140E-06 
    1.0000000000000008E-06 
    9.9999999999999995E-07 
    9.9999999999999995E-07 
    9.9999999999999995E-07 
    9.9999999999999995E-07 
    9.9999999999999995E-07 
    8.1065370842467077E-01 
    7.7146750490911209E-01 
    7.0174223491165200E-01 
    6.4090805044931476E-01 
    5.8089818258110382E-01 
    5.0824963471563744E-01 
    2.8275356889176834E-01 
    2.9501368668991184E-03 
    1.0511202776385429E-06 
    1.0000000099610308E-06 
    9.9999999999999974E-07 
    9.9999999999999995E-07 
    9.9999999999999995E-07 
    9.9999999999999995E-07 
    9.9999999999999995E-07 
    9.9999999999999995E-07 
    7.3709572957823855E-01 
    7.0893088607796018E-01 
    6.5750647718859612E-01 
    6.1102992663956102E-01 
    5.6339838570382672E-01 
    4.9194308604445791E-01 
    2.3601075414179054E-01 
    7.0887763017136866E-04 
    1.0096515413886191E-06 
    1.0000000022268206E-06 
    9.9999999999999995E-07 
    9.9999999999999995E-07 
    9.9999999999999995E-07 
    9.9999999999999995E-07 
    9.9999999999999995E-07 
    9.9999999999999995E-07 
    6.7329006506346711E-01 
    6.5482087715568582E-01 
    6.1767757825034841E-01 
    5.8028081412552834E-01 
    5.4013831829820780E-01 
    4.6207580086258410E-01 
    1.6053966436146372E-01 
    1.2991754757475353E-04 
    1.0037928041157322E-06 
    1.0000000004717384E-06 
    1.0000000000000002E-06 
    9.9999999999999995E-07 
    9.9999999999999995E-07 
    9.9999999999999995E-07 
    9.9999999999999995E-07 
    9.9999999999999995E-07 
    6.1811021889787376E-01 
    6.0802438076245979E-01 
    5.8142174740666408E-01 
    5.4893055993845563E-01 
    5.1122097747706241E-01 
    4.0546008025952157E-01 
    6.9127545447258326E-02 
    1.1241298244449508E-04 
    1.0023271421735718E-06 
    1.0000000000000002E-06 
    9.9999999999999995E-07 
    9.9999999999999995E-07 
    9.9999999999999995E-07 
    9.9999999999999995E-07 
    9.9999999999999995E-07 
    9.9999999999999995E-07 
    5.7221566900867049E-01 
    5.6785461662991765E-01 
    5.4787491635446162E-01 
    5.1924090315018456E-01 
    4.7212382526566088E-01 
    2.7706978393096438E-01 
    7.4759776939247848E-03 
    3.2296489376882362E-06 
    1.0000008523612416E-06 
    1.0000000000000019E-06 
    9.9999999999999995E-07 
    9.9999999999999995E-07 
    9.9999999999999995E-07 
    9.9999999999999995E-07 
    9.9999999999999995E-07 
    9.9999999999999995E-07 
    5.3099165754416688E-01 
    5.2847086352697858E-01 
    5.1251893199124909E-01 
    4.8106199110119141E-01 
    3.7923286679523299E-01 
    9.0592905942883536E-02 
    2.5887036351034923E-04 
    1.0155077004717635E-06 
    1.0000000000001044E-06 
    9.9999999999999995E-07 
    9.9999999999999995E-07 
    9.9999999999999995E-07 
    9.9999999999999995E-07 
    9.9999999999999995E-07 
    9.9999999999999995E-07 
    9.9999999999999995E-07 
    4.6186863136932987E-01 
    4.6321050738142827E-01 
    4.4377344952579584E-01 
    3.5076423214380648E-01 
    1.3010950817570824E-01 
    1.1604357891797606E-03 
    1.0868627690406204E-06 
    1.0000000178246017E-06 
    1.0000000000000025E-06 
    9.9999999999999995E-07 
    9.9999999999999995E-07 
    9.9999999999999995E-07 
    9.9999999999999995E-07 
    9.9999999999999995E-07 
    9.9999999999999995E-07 
    9.9999999999999995E-07 
    1.8655444659420004E-01 
    2.1703445387571718E-01 
    1.5962150864491426E-01 
    4.1969641819679993E-02 
    5.3615295543996849E-04 
    1.1718206248073552E-06 
    1.0000000551169685E-06 
    1.0000000000000084E-06 
    9.9999999999999995E-07 
    9.9999999999999995E-07 
    9.9999999999999995E-07 
    9.9999999999999995E-07 
    9.9999999999999995E-07 
    9.9999999999999995E-07 
    9.9999999999999995E-07 
    9.9999999999999995E-07 
    1.1211450301362053E-05 
    1.9773315801279210E-04 
    1.2903836742411904E-04 
    6.1879346954910516E-05 
    1.0364538437479029E-06 
    1.0000000263279983E-06 
    1.0000000000000099E-06 
    9.9999999999999995E-07 
    9.9999999999999995E-07 
    9.9999999999999995E-07 
    9.9999999999999995E-07 
    9.9999999999999995E-07 
    9.9999999999999995E-07 
    9.9999999999999995E-07 
    9.9999999999999995E-07 
    9.9999999999999995E-07 
    1.0000000006844206E-06 
    1.0001123913303483E-06 
    1.0019348509920358E-06 
    1.0002778106153181E-06 
    1.0000000020394156E-06 
    1.0000000000000021E-06 
    9.9999999999999995E-07 
    9.9999999999999995E-07 
    9.9999999999999995E-07 
    9.9999999999999995E-07 
    9.9999999999999995E-07 
    9.9999999999999995E-07 
    9.9999999999999995E-07 
    9.9999999999999995E-07 
    9.9999999999999995E-07 
    9.9999999999999995E-07 
    9.9999999999999995E-07 
    1.0000000000073262E-06 
    1.0000000003431472E-06 
    1.0000000000000004E-06 
    9.9999999999999995E-07 
    9.9999999999999995E-07 
    9.9999999999999995E-07 
    9.9999999999999995E-07 
    9.9999999999999995E-07 
    9.9999999999999995E-07 
    9.9999999999999995E-07 
    9.9999999999999995E-07 
    9.9999999999999995E-07 
    9.9999999999999995E-07 
    9.9999999999999995E-07 
    9.9999999999999995E-07 
    9.9999999999999995E-07 
    9.9999999999999995E-07 
    9.9999999999999995E-07 
    9.9999999999999995E-07 
    9.9999999999999995E-07 
    9.9999999999999995E-07 
    9.9999999999999995E-07 
    9.9999999999999995E-07 
    9.9999999999999995E-07 
    9.9999999999999995E-07 
    9.9999999999999995E-07 
    9.9999999999999995E-07 
    9.9999999999999995E-07 
    9.9999999999999995E-07 
    9.9999999999999995E-07 
    9.9999999999999995E-07 
    9.9999999999999995E-07 
    9.9999999999999995E-07 
    9.9999999999999995E-07 
    9.9999999999999995E-07 
    9.9999999999999995E-07 
    9.9999999999999995E-07 
    9.9999999999999995E-07 
    9.9999999999999995E-07 
    9.9999999999999995E-07 
    9.9999999999999995E-07 
    9.9999999999999995E-07 
    9.9999999999999995E-07 
    9.9999999999999995E-07 
    9.9999999999999995E-07 
    9.9999999999999995E-07 
    1.0000001796891903E-06 
