# vtk DataFile Version 2.0
Pressure Field Data 
ASCII 
DATASET UNSTRUCTURED_GRID 

POINTS 289 double 

    0.0000000000000000E+00     0.0000000000000000E+00     0.0000000000000000E+00 
    1.0000000000000000E+00     0.0000000000000000E+00     0.0000000000000000E+00 
    1.0000000000000000E+00     1.0000000000000000E+00     0.0000000000000000E+00 
    0.0000000000000000E+00     1.0000000000000000E+00     0.0000000000000000E+00 
    6.2499999999872928E-02     0.0000000000000000E+00     0.0000000000000000E+00 
    1.2499999999977310E-01     0.0000000000000000E+00     0.0000000000000000E+00 
    1.8749999999959341E-01     0.0000000000000000E+00     0.0000000000000000E+00 
    2.4999999999941089E-01     0.0000000000000000E+00     0.0000000000000000E+00 
    3.1249999999922851E-01     0.0000000000000000E+00     0.0000000000000000E+00 
    3.7499999999904610E-01     0.0000000000000000E+00     0.0000000000000000E+00 
    4.3749999999886358E-01     0.0000000000000000E+00     0.0000000000000000E+00 
    4.9999999999869210E-01     0.0000000000000000E+00     0.0000000000000000E+00 
    5.6249999999884603E-01     0.0000000000000000E+00     0.0000000000000000E+00 
    6.2499999999901090E-01     0.0000000000000000E+00     0.0000000000000000E+00 
    6.8749999999917577E-01     0.0000000000000000E+00     0.0000000000000000E+00 
    7.4999999999934064E-01     0.0000000000000000E+00     0.0000000000000000E+00 
    8.1249999999950551E-01     0.0000000000000000E+00     0.0000000000000000E+00 
    8.7499999999967026E-01     0.0000000000000000E+00     0.0000000000000000E+00 
    9.3749999999983513E-01     0.0000000000000000E+00     0.0000000000000000E+00 
    1.0000000000000000E+00     6.2499999999872928E-02     0.0000000000000000E+00 
    1.0000000000000000E+00     1.2499999999977310E-01     0.0000000000000000E+00 
    1.0000000000000000E+00     1.8749999999959341E-01     0.0000000000000000E+00 
    1.0000000000000000E+00     2.4999999999941089E-01     0.0000000000000000E+00 
    1.0000000000000000E+00     3.1249999999922851E-01     0.0000000000000000E+00 
    1.0000000000000000E+00     3.7499999999904610E-01     0.0000000000000000E+00 
    1.0000000000000000E+00     4.3749999999886358E-01     0.0000000000000000E+00 
    1.0000000000000000E+00     4.9999999999869210E-01     0.0000000000000000E+00 
    1.0000000000000000E+00     5.6249999999884603E-01     0.0000000000000000E+00 
    1.0000000000000000E+00     6.2499999999901090E-01     0.0000000000000000E+00 
    1.0000000000000000E+00     6.8749999999917577E-01     0.0000000000000000E+00 
    1.0000000000000000E+00     7.4999999999934064E-01     0.0000000000000000E+00 
    1.0000000000000000E+00     8.1249999999950551E-01     0.0000000000000000E+00 
    1.0000000000000000E+00     8.7499999999967026E-01     0.0000000000000000E+00 
    1.0000000000000000E+00     9.3749999999983513E-01     0.0000000000000000E+00 
    9.3749999999973976E-01     1.0000000000000000E+00     0.0000000000000000E+00 
    8.7499999999950118E-01     1.0000000000000000E+00     0.0000000000000000E+00 
    8.1249999999991318E-01     1.0000000000000000E+00     0.0000000000000000E+00 
    7.5000000000034706E-01     1.0000000000000000E+00     0.0000000000000000E+00 
    6.8750000000078049E-01     1.0000000000000000E+00     0.0000000000000000E+00 
    6.2500000000121403E-01     1.0000000000000000E+00     0.0000000000000000E+00 
    5.6250000000164757E-01     1.0000000000000000E+00     0.0000000000000000E+00 
    5.0000000000205946E-01     1.0000000000000000E+00     0.0000000000000000E+00 
    4.3750000000182099E-01     1.0000000000000000E+00     0.0000000000000000E+00 
    3.7500000000156092E-01     1.0000000000000000E+00     0.0000000000000000E+00 
    3.1250000000130068E-01     1.0000000000000000E+00     0.0000000000000000E+00 
    2.5000000000104050E-01     1.0000000000000000E+00     0.0000000000000000E+00 
    1.8750000000078040E-01     1.0000000000000000E+00     0.0000000000000000E+00 
    1.2500000000052031E-01     1.0000000000000000E+00     0.0000000000000000E+00 
    6.2500000000260125E-02     1.0000000000000000E+00     0.0000000000000000E+00 
    0.0000000000000000E+00     9.3749999999973976E-01     0.0000000000000000E+00 
    0.0000000000000000E+00     8.7499999999950118E-01     0.0000000000000000E+00 
    0.0000000000000000E+00     8.1249999999991318E-01     0.0000000000000000E+00 
    0.0000000000000000E+00     7.5000000000034706E-01     0.0000000000000000E+00 
    0.0000000000000000E+00     6.8750000000078049E-01     0.0000000000000000E+00 
    0.0000000000000000E+00     6.2500000000121403E-01     0.0000000000000000E+00 
    0.0000000000000000E+00     5.6250000000164757E-01     0.0000000000000000E+00 
    0.0000000000000000E+00     5.0000000000205946E-01     0.0000000000000000E+00 
    0.0000000000000000E+00     4.3750000000182099E-01     0.0000000000000000E+00 
    0.0000000000000000E+00     3.7500000000156092E-01     0.0000000000000000E+00 
    0.0000000000000000E+00     3.1250000000130068E-01     0.0000000000000000E+00 
    0.0000000000000000E+00     2.5000000000104050E-01     0.0000000000000000E+00 
    0.0000000000000000E+00     1.8750000000078040E-01     0.0000000000000000E+00 
    0.0000000000000000E+00     1.2500000000052031E-01     0.0000000000000000E+00 
    0.0000000000000000E+00     6.2500000000260125E-02     0.0000000000000000E+00 
    6.2499999999897131E-02     6.2500000000235922E-02     0.0000000000000000E+00 
    6.2499999999921327E-02     1.2500000000047351E-01     0.0000000000000000E+00 
    6.2499999999945530E-02     1.8750000000070621E-01     0.0000000000000000E+00 
    6.2499999999969733E-02     2.5000000000093858E-01     0.0000000000000000E+00 
    6.2499999999993928E-02     3.1250000000117117E-01     0.0000000000000000E+00 
    6.2500000000018124E-02     3.7500000000140382E-01     0.0000000000000000E+00 
    6.2500000000042327E-02     4.3750000000163619E-01     0.0000000000000000E+00 
    6.2500000000066530E-02     5.0000000000184897E-01     0.0000000000000000E+00 
    6.2500000000090733E-02     5.6250000000147260E-01     0.0000000000000000E+00 
    6.2500000000114922E-02     6.2500000000107636E-01     0.0000000000000000E+00 
    6.2500000000139125E-02     6.8750000000068034E-01     0.0000000000000000E+00 
    6.2500000000163328E-02     7.5000000000028411E-01     0.0000000000000000E+00 
    6.2500000000187531E-02     8.1249999999988787E-01     0.0000000000000000E+00 
    6.2500000000211720E-02     8.7499999999951172E-01     0.0000000000000000E+00 
    6.2500000000235922E-02     9.3749999999974565E-01     0.0000000000000000E+00 
    1.2499999999981980E-01     6.2500000000211733E-02     0.0000000000000000E+00 
    1.2499999999986650E-01     1.2500000000042691E-01     0.0000000000000000E+00 
    1.2499999999991319E-01     1.8750000000063199E-01     0.0000000000000000E+00 
    1.2499999999995989E-01     2.5000000000083678E-01     0.0000000000000000E+00 
    1.2500000000000661E-01     3.1250000000104172E-01     0.0000000000000000E+00 
    1.2500000000005329E-01     3.7500000000124661E-01     0.0000000000000000E+00 
    1.2500000000010000E-01     4.3750000000145117E-01     0.0000000000000000E+00 
    1.2500000000014669E-01     5.0000000000163858E-01     0.0000000000000000E+00 
    1.2500000000019340E-01     5.6250000000129741E-01     0.0000000000000000E+00 
    1.2500000000024011E-01     6.2500000000093847E-01     0.0000000000000000E+00 
    1.2500000000028680E-01     6.8750000000057998E-01     0.0000000000000000E+00 
    1.2500000000033351E-01     7.5000000000022127E-01     0.0000000000000000E+00 
    1.2500000000038020E-01     8.1249999999986211E-01     0.0000000000000000E+00 
    1.2500000000042691E-01     8.7499999999952238E-01     0.0000000000000000E+00 
    1.2500000000047359E-01     9.3749999999975164E-01     0.0000000000000000E+00 
    1.8749999999966760E-01     6.2500000000187531E-02     0.0000000000000000E+00 
    1.8749999999974179E-01     1.2500000000038020E-01     0.0000000000000000E+00 
    1.8749999999981601E-01     1.8750000000055780E-01     0.0000000000000000E+00 
    1.8749999999989009E-01     2.5000000000073502E-01     0.0000000000000000E+00 
    1.8749999999996431E-01     3.1250000000091221E-01     0.0000000000000000E+00 
    1.8750000000003850E-01     3.7500000000108941E-01     0.0000000000000000E+00 
    1.8750000000011269E-01     4.3750000000126649E-01     0.0000000000000000E+00 
    1.8750000000018691E-01     5.0000000000142808E-01     0.0000000000000000E+00 
    1.8750000000026110E-01     5.6250000000112244E-01     0.0000000000000000E+00 
    1.8750000000033529E-01     6.2500000000080080E-01     0.0000000000000000E+00 
    1.8750000000040951E-01     6.8750000000047962E-01     0.0000000000000000E+00 
    1.8750000000048361E-01     7.5000000000015843E-01     0.0000000000000000E+00 
    1.8750000000055780E-01     8.1249999999983680E-01     0.0000000000000000E+00 
    1.8750000000063199E-01     8.7499999999953304E-01     0.0000000000000000E+00 
    1.8750000000070621E-01     9.3749999999975764E-01     0.0000000000000000E+00 
    2.4999999999951281E-01     6.2500000000163314E-02     0.0000000000000000E+00 
    2.4999999999961461E-01     1.2500000000033351E-01     0.0000000000000000E+00 
    2.4999999999971650E-01     1.8750000000048361E-01     0.0000000000000000E+00 
    2.4999999999981831E-01     2.5000000000063310E-01     0.0000000000000000E+00 
    2.4999999999992020E-01     3.1250000000078260E-01     0.0000000000000000E+00 
    2.5000000000002198E-01     3.7500000000093209E-01     0.0000000000000000E+00 
    2.5000000000012390E-01     4.3750000000108180E-01     0.0000000000000000E+00 
    2.5000000000022571E-01     5.0000000000121769E-01     0.0000000000000000E+00 
    2.5000000000032763E-01     5.6250000000094724E-01     0.0000000000000000E+00 
    2.5000000000042938E-01     6.2500000000066314E-01     0.0000000000000000E+00 
    2.5000000000053119E-01     6.8750000000037925E-01     0.0000000000000000E+00 
[...]
CELL_DATA 256 
SCALARS Pressure double 1 
LOOKUP_TABLE default 

    6.7900479014773618E-01 
    6.2923812036935023E-01 
    5.9757678054865815E-01 
    5.6900076533465171E-01 
    5.4009211564071147E-01 
    5.0999915643394644E-01 
    4.7845858450123041E-01 
    4.4551404903292102E-01 
    4.1143623855729378E-01 
    3.7675515614345612E-01 
    3.4237374767013268E-01 
    3.0972140107446977E-01 
    2.8084077510152022E-01 
    2.5819239510659570E-01 
    2.4377227588129105E-01 
    2.3681219836526063E-01 
    6.6501813596655757E-01 
    6.3050793222550860E-01 
    5.9994585016920388E-01 
    5.7159487038589885E-01 
    5.4287135553811838E-01 
    5.1295130079827034E-01 
    4.8156732688180259E-01 
    4.4874461957002493E-01 
    4.1472579420714828E-01 
    3.7999939080191059E-01 
    3.4541005611451037E-01 
    3.1232038699997466E-01 
    2.8273398004455957E-01 
    2.5917190030377613E-01 
    2.4388766832439379E-01 
    2.3639087496657102E-01 
    6.5428562362094811E-01 
    6.2964532653585581E-01 
    6.0156866242709017E-01 
    5.7386293322885329E-01 
    5.4546202530992394E-01 
    5.1576769469984662E-01 
    4.8455980474283272E-01 
    4.5185979029424994E-01 
    4.1788230333094745E-01 
    3.8306698593053223E-01 
    3.4818669100241706E-01 
    3.1452164642928920E-01 
    2.8403261525626522E-01 
    2.5933661808917419E-01 
    2.4303997925267357E-01 
    2.3504969732470463E-01 
    6.4586074468326105E-01 
    6.2771071669592760E-01 
    6.0248723252713521E-01 
    5.7578243652000849E-01 
    5.4785629378512735E-01 
    5.1845263002232822E-01 
    4.8744629762253733E-01 
    4.5487360351985617E-01 
    4.2092607042429719E-01 
    3.8598948863679150E-01 
    3.5075156709969213E-01 
    3.1638944579168043E-01 
    2.8480241630554692E-01 
    2.5871813942872007E-01 
    2.4118502064971373E-01 
    2.3265414828065376E-01 
    6.3910326654823291E-01 
    6.2529725619515475E-01 
    6.0283506662122521E-01 
    5.7736183518073314E-01 
    5.5005014669470298E-01 
    5.2100871506999968E-01 
    4.9023704696860276E-01 
    4.5780257617961173E-01 
    4.2388100448604360E-01 
    3.8880246146790609E-01 
    3.5315728175357747E-01 
    3.1799493669714396E-01 
    2.8511935396098875E-01 
    2.5735616570274822E-01 
    2.3827431258639992E-01 
    2.2906039539670991E-01 
    6.3361047983100927E-01 
    6.2274883439683260E-01 
    6.0276289980762598E-01 
    5.7863408293103225E-01 
    5.5204773055098344E-01 
    5.2343820738444613E-01 
    4.9294022449379093E-01 
    4.6066298984231852E-01 
    4.2677292509188536E-01 
    3.9154478332493847E-01 
    3.5546129444719660E-01 
    3.1941699482736219E-01 
    2.8507209172818426E-01 
    2.5530490905715220E-01 
    2.3425731640774283E-01 
    2.2409780954909875E-01 
    6.2911731116262504E-01 
    6.2027324383138061E-01 
    6.0241828211426540E-01 
    5.7965292410319447E-01 
    5.5386806949031275E-01 
    5.2575020112637449E-01 
    4.9556473516809951E-01 
    4.6346946255166255E-01 
    4.2962658744343613E-01 
    3.9425644863425896E-01 
    3.5772519699021998E-01 
    3.2074369827530697E-01 
    2.8476592391459882E-01 
    2.5264070609556927E-01 
    2.2909104403241756E-01 
    2.1757232932074561E-01 
    6.2543601051978570E-01 
    6.1799269526759237E-01 
    6.0193048126915860E-01 
    5.8048255899541268E-01 
    5.5554091724141352E-01 
    5.2796080703240533E-01 
    4.9812272973534560E-01 
    4.6623564668358575E-01 
    4.3246385140650773E-01 
    3.9697457649544432E-01 
    3.6001126185193039E-01 
    3.2207213301855270E-01 
    2.8432813481248104E-01 
    2.4947302161588381E-01 
    2.2275157098956999E-01 
    2.0925710733272376E-01 
    6.2243205154795000E-01 
    6.1597594290198854E-01 
    6.0140496608296123E-01 
    5.8118934654998966E-01 
    5.5710083816356870E-01 
    5.3008966086876819E-01 
    5.0062822575706867E-01 
    4.6897486365237423E-01 
    4.3530224168267506E-01 
    3.9972975092972846E-01 
    3.6237652385210628E-01 
    3.2350361571434694E-01 
    2.8391049253846490E-01 
    2.4595515013984279E-01 
    2.1523941915710287E-01 
    1.9886305793001252E-01 
    6.2000699925430458E-01 
    6.1425751394632111E-01 
    6.0092157009104252E-01 
    5.8183453527163742E-01 
    5.5858473397631925E-01 
    5.3215898275674822E-01 
    5.0309683804711658E-01 
    4.7170057742607097E-01 
    4.3815698324630387E-01 
    4.0254636410096672E-01 
    3.6486933167439628E-01 
    3.2513686359451843E-01 
    2.8368675762201634E-01 
    2.4229859944395463E-01 
    2.0659832637019954E-01 
    1.8600307052135756E-01 
    6.1808715344158627E-01 
    6.1285399757571157E-01 
    6.0054339643081112E-01 
    5.8247554256067646E-01 
    5.6003216340967565E-01 
    5.3419510565813055E-01 
    5.0554764209303615E-01 
    4.7442824279076634E-01 
    4.4104367802934513E-01 
    4.0544581497642157E-01 
    3.6753005917512122E-01 
    3.2706412269286639E-01 
    2.8384981706520646E-01 
    2.3879150653233205E-01 
    1.9696351802499451E-01 
    1.7017061754158638E-01 
    6.1661268332355346E-01 
    6.1177341953757780E-01 
    6.0032279819863865E-01 
    5.8316623226242670E-01 
    5.6148432805468063E-01 
    5.3622878854694667E-01 
    5.0800538649866578E-01 
    4.7717711415322289E-01 
    4.4397984833080467E-01 
    4.0844845340647329E-01 
    3.7039219271976176E-01 
    3.2936715984025172E-01 
    2.8460651336531811E-01 
    2.3581198566318134E-01 
    1.8661142482151497E-01 
    1.5064800020034311E-01 
    6.1554254197813396E-01 
    6.1102546763943788E-01 
    6.0030693381172739E-01 
    5.8395948461653813E-01 
    5.6298458340299495E-01 
    5.3829489657413399E-01 
    5.1049976132758723E-01 
    4.7997019446793032E-01 
    4.4698356238082676E-01 
    4.1157268018620691E-01 
    3.7348080194605782E-01 
    3.3210913413144433E-01 
    2.8615899829109809E-01 
    2.3386281298443412E-01 
    1.7613047349610642E-01 
    1.2639012546779410E-01 
    6.1485058664544434E-01 
    6.1062544885693304E-01 
    6.0054236332295952E-01 
    5.8490926271956645E-01 
    5.6457831123258562E-01 
    5.4042828919362296E-01 
    5.1306035547737650E-01 
    4.8282801001078612E-01 
    4.5006264494702503E-01 
    4.1481431822953158E-01 
    3.7678806285175237E-01 
    3.3530025116514189E-01 
    2.8864204625153422E-01 
    2.3352546471629029E-01 
    1.6667050549345475E-01 
    9.5866943763934301E-02 
    6.1440623685905249E-01 
    6.1049654243275397E-01 
    6.0100763378266175E-01 
    5.8601470497495778E-01 
    5.6625673440927560E-01 
    5.4259789489342558E-01 
    5.1563865869027425E-01 
    4.8570416368788721E-01 
    4.5316055389933657E-01 
    4.1809711485872109E-01 
    3.8020590053197589E-01 
    3.3877796525511999E-01 
    2.9193279098250069E-01 
    2.3510622935585887E-01 
    1.5992382380966100E-01 
    5.6312981592000426E-02 
    6.1424993405803263E-01 
    6.1067309753100785E-01 
    6.0173709578523138E-01 
    5.8731460724313533E-01 
    5.6805795802326764E-01 
    5.4482740639540639E-01 
    5.1823750252081136E-01 
    4.8861306123579984E-01 
    4.5632225205674792E-01 
    4.2148923434591146E-01 
    3.8383160655650700E-01 
    3.4267189779737139E-01 
    2.9625758214907127E-01 
    2.3925767375010670E-01 
    1.5933928499016922E-01 
    0.0000000000000000E+00 

SCALARS Saturarion double 1 
LOOKUP_TABLE default 

    1.0000000000000004E+00 
    9.7741317563073438E-01 
    9.3607304018484117E-01 
    8.8025729984362555E-01 
    8.3354460963542076E-01 
    7.9241764793649738E-01 
    7.5654388202599554E-01 
    7.2532802493190363E-01 
    6.9776502660797368E-01 
    6.7277451588576054E-01 
    6.4925042825653412E-01 
    6.2586878988913586E-01 
    6.0058320624993877E-01 
    5.6984392684514829E-01 
    5.1891433602159676E-01 
    2.6165154252820055E-01 
    9.9156438230736776E-01 
    9.7018646825798427E-01 
    9.2685104183245715E-01 
    8.7362550100185776E-01 
    8.2832784851937968E-01 
    7.8869551497583357E-01 
    7.5389515018294972E-01 
    7.2327870153966578E-01 
    6.9610902181954826E-01 
    6.7146128409638650E-01 
    6.4845744176814446E-01 
    6.2591333748089595E-01 
    6.0173067743158370E-01 
    5.7199271109900973E-01 
    5.2358101842961891E-01 
    2.8803500484065009E-01 
    9.7823643432171148E-01 
    9.5680322124631856E-01 
    9.1324258535884073E-01 
    8.6171726423867001E-01 
    8.1807293851097396E-01 
    7.8092229785403655E-01 
    7.4834032880409307E-01 
    7.1906334883977041E-01 
    6.9257954377892406E-01 
    6.6836779706237726E-01 
    6.4591560137038440E-01 
    6.2433839135468694E-01 
    6.0188700087043145E-01 
    5.7446802795556162E-01 
    5.2971972348864527E-01 
    3.1202715884769938E-01 
    9.5499435854099501E-01 
    9.3690664330679219E-01 
    8.9657699613803044E-01 
    8.4910053393206053E-01 
    8.0620813309182471E-01 
    7.7013052709558605E-01 
    7.3916802697095407E-01 
    7.1178370748254516E-01 
    6.8688124698727493E-01 
    6.6404625543667006E-01 
    6.4269904347501494E-01 
    6.2221827326234402E-01 
    6.0131068741514571E-01 
    5.7644763239503771E-01 
    5.3571924856567810E-01 
    3.3525842937836453E-01 
    9.2642456559530939E-01 
    9.1038628497431928E-01 
    8.7433528875536970E-01 
    8.3154747419274899E-01 
    7.9079195575698935E-01 
    7.5559427432827597E-01 
    7.2583688091242571E-01 
    7.0017485333286256E-01 
    6.7747510756443818E-01 
    6.5694698854579325E-01 
    6.3795944468084853E-01 
    6.1960931688968668E-01 
    6.0050944859681721E-01 
    5.7786956393782518E-01 
    5.4104855218653114E-01 
    3.5435055273592753E-01 
    8.9425872983445731E-01 
    8.8086056357629683E-01 
    8.4947103897740206E-01 
    8.1073120056144710E-01 
    7.7307237832479003E-01 
    7.3964501415370554E-01 
    7.1075463620324841E-01 
    6.8614057280998431E-01 
    6.6502855838049435E-01 
    6.4662731274441176E-01 
    6.3026875548013450E-01 
    6.1511365353538849E-01 
    5.9913479472658560E-01 
    5.7896759552409593E-01 
    5.4590757759036390E-01 
    3.7157693822065113E-01 
    8.5935591576437820E-01 
    8.4917049560635594E-01 
    8.2274220464348202E-01 
    7.8820500628349310E-01 
    7.5396029476850812E-01 
    7.2295092985625442E-01 
    6.9572796197274500E-01 
    6.7191774421802231E-01 
    6.5157095537530407E-01 
    6.3446401707048294E-01 
    6.2021366092708374E-01 
    6.0805507593373354E-01 
    5.9611625332623253E-01 
    5.7976279964415067E-01 
    5.5016632705579216E-01 
    3.8851779137680414E-01 
    8.2152783514169059E-01 
    8.1498940236239359E-01 
    7.9426469223746166E-01 
    7.6451361538601137E-01 
    7.3343961544209912E-01 
    7.0470301521639567E-01 
    6.7904763464283158E-01 
    6.5664832613862278E-01 
    6.3734902150104467E-01 
    6.2124528246716215E-01 
    6.0835167336841178E-01 
    5.9864290860905867E-01 
    5.9069440178815669E-01 
    5.7952781984788249E-01 
    5.5466578262283317E-01 
    4.0556249361694885E-01 
    7.8093078231149560E-01 
    7.7797126120338433E-01 
    7.6286553802345836E-01 
    7.3826166776214053E-01 
    7.1086228941324536E-01 
    6.8440607744759208E-01 
    6.6047696625936514E-01 
    6.3936550146344040E-01 
    6.2113984498741959E-01 
    6.0593207969068452E-01 
    5.9423188328101284E-01 
    5.8657344741706097E-01 
    5.8245857334118800E-01 
    5.7726234163756640E-01 
    5.5830345163698114E-01 
    4.2173572020879896E-01 
    7.3760434942529829E-01 
    7.3800942920907486E-01 
    7.2818134668986056E-01 
    7.0848104587788274E-01 
    6.8502044882838542E-01 
    6.6137481126850517E-01 
    6.3927185905089889E-01 
    6.1975091846390939E-01 
    6.0285270557614890E-01 
    5.8858372715724594E-01 
    5.7753752645977552E-01 
    5.7123300238245056E-01 
    5.7061192302109787E-01 
    5.7205014181603631E-01 
    5.6069448735216154E-01 
    4.3766065319786313E-01 
    6.9119049693810553E-01 
    6.9473551408928047E-01 
    6.8982813970169954E-01 
    6.7468600762095521E-01 
    6.5520558047169752E-01 
    6.3492776573878873E-01 
    6.1565528691696014E-01 
    5.9794812329596025E-01 
    5.8242941578267493E-01 
    5.6936705339279003E-01 
    5.5923477238827901E-01 
    5.5335851652905843E-01 
    5.5451226830952172E-01 
    5.6255153249267131E-01 
    5.6081974532986578E-01 
    4.5374018376332748E-01 
    6.4037095155830293E-01 
    6.4695547026469147E-01 
    6.4708528994340631E-01 
    6.3661924789227176E-01 
    6.2095157989545191E-01 
    6.0392196839672330E-01 
    5.8752185180720562E-01 
    5.7254797812086322E-01 
    5.5913013060850081E-01 
    5.4776450689733491E-01 
    5.3909025115878351E-01 
    5.3418684149663875E-01 
    5.3550836176194505E-01 
    5.4739689874833486E-01 
    5.5561967092626174E-01 
    4.6869491906284222E-01 
    5.8635247514167677E-01 
    5.9499754686609085E-01 
    5.9935210554757701E-01 
    5.9374402096451118E-01 
    5.8258283492962137E-01 
    5.6905856748513228E-01 
    5.5569927968835475E-01 
    5.4314296397921269E-01 
    5.3174779357307922E-01 
    5.2189869244104770E-01 
    5.1477073690338171E-01 
    5.1145794266557010E-01 
    5.1403298793170016E-01 
    5.2710264868748102E-01 
    5.4700343983424460E-01 
    4.8119546063575896E-01 
    5.2775932981372442E-01 
    5.3981537232732157E-01 
    5.4715114030001089E-01 
    5.4611601919506214E-01 
    5.3813004531164255E-01 
    5.2670710946973753E-01 
    5.1384800372497375E-01 
    5.0256118883583045E-01 
    4.9136693767945272E-01 
    4.7820966752282595E-01 
    4.6583623236091526E-01 
    4.6431961744108119E-01 
    4.7191506556074014E-01 
    4.9618482822137322E-01 
    5.3223627089076164E-01 
    4.8987387041056885E-01 
    3.2287336001689992E-01 
    3.8757979960318578E-01 
    4.2127547538617427E-01 
    4.3048327079096621E-01 
    4.2017995939486164E-01 
    3.9852587758113645E-01 
    3.5365732402544997E-01 
    2.9359772175218934E-01 
    2.6522220702524829E-01 
    2.1760209709454287E-01 
    2.0960896214344349E-01 
    1.9492416391674583E-01 
    2.3129594134036971E-01 
    3.6211228054689293E-01 
    4.8047551868874988E-01 
    4.9078329139214366E-01 
    1.7623431846268357E-03 
    2.8375349338195795E-02 
    4.9920711513442233E-02 
    5.4537462078834392E-02 
    4.0078870563864576E-02 
    1.9824488416765436E-02 
    9.3971118756016291E-03 
    9.7632615238609681E-04 
    9.0710622310271845E-04 
    2.4377382024192524E-05 
    1.9163348911459260E-04 
    3.8171971100771822E-05 
    1.1874974881902138E-03 
    1.1700447030726037E-01 
    3.0494227696786202E-01 
    4.3978959942406676E-01 
