# vtk DataFile Version 2.0
Pressure Field Data 
ASCII 
DATASET UNSTRUCTURED_GRID 

POINTS 289 double 

    0.0000000000000000E+00     0.0000000000000000E+00     0.0000000000000000E+00 
    1.0000000000000000E+00     0.0000000000000000E+00     0.0000000000000000E+00 
    1.0000000000000000E+00     1.0000000000000000E+00     0.0000000000000000E+00 
    0.0000000000000000E+00     1.0000000000000000E+00     0.0000000000000000E+00 
    6.2499999999872928E-02     0.0000000000000000E+00     0.0000000000000000E+00 
    1.2499999999977310E-01     0.0000000000000000E+00     0.0000000000000000E+00 
    1.8749999999959341E-01     0.0000000000000000E+00     0.0000000000000000E+00 
    2.4999999999941089E-01     0.0000000000000000E+00     0.0000000000000000E+00 
    3.1249999999922851E-01     0.0000000000000000E+00     0.0000000000000000E+00 
    3.7499999999904610E-01     0.0000000000000000E+00     0.0000000000000000E+00 
    4.3749999999886358E-01     0.0000000000000000E+00     0.0000000000000000E+00 
    4.9999999999869210E-01     0.0000000000000000E+00     0.0000000000000000E+00 
    5.6249999999884603E-01     0.0000000000000000E+00     0.0000000000000000E+00 
    6.2499999999901090E-01     0.0000000000000000E+00     0.0000000000000000E+00 
    6.8749999999917577E-01     0.0000000000000000E+00     0.0000000000000000E+00 
    7.4999999999934064E-01     0.0000000000000000E+00     0.0000000000000000E+00 
    8.1249999999950551E-01     0.0000000000000000E+00     0.0000000000000000E+00 
    8.7499999999967026E-01     0.0000000000000000E+00     0.0000000000000000E+00 
    9.3749999999983513E-01     0.0000000000000000E+00     0.0000000000000000E+00 
    1.0000000000000000E+00     6.2499999999872928E-02     0.0000000000000000E+00 
    1.0000000000000000E+00     1.2499999999977310E-01     0.0000000000000000E+00 
    1.0000000000000000E+00     1.8749999999959341E-01     0.0000000000000000E+00 
    1.0000000000000000E+00     2.4999999999941089E-01     0.0000000000000000E+00 
    1.0000000000000000E+00     3.1249999999922851E-01     0.0000000000000000E+00 
    1.0000000000000000E+00     3.7499999999904610E-01     0.0000000000000000E+00 
    1.0000000000000000E+00     4.3749999999886358E-01     0.0000000000000000E+00 
    1.0000000000000000E+00     4.9999999999869210E-01     0.0000000000000000E+00 
    1.0000000000000000E+00     5.6249999999884603E-01     0.0000000000000000E+00 
    1.0000000000000000E+00     6.2499999999901090E-01     0.0000000000000000E+00 
    1.0000000000000000E+00     6.8749999999917577E-01     0.0000000000000000E+00 
    1.0000000000000000E+00     7.4999999999934064E-01     0.0000000000000000E+00 
    1.0000000000000000E+00     8.1249999999950551E-01     0.0000000000000000E+00 
    1.0000000000000000E+00     8.7499999999967026E-01     0.0000000000000000E+00 
    1.0000000000000000E+00     9.3749999999983513E-01     0.0000000000000000E+00 
    9.3749999999973976E-01     1.0000000000000000E+00     0.0000000000000000E+00 
    8.7499999999950118E-01     1.0000000000000000E+00     0.0000000000000000E+00 
    8.1249999999991318E-01     1.0000000000000000E+00     0.0000000000000000E+00 
    7.5000000000034706E-01     1.0000000000000000E+00     0.0000000000000000E+00 
    6.8750000000078049E-01     1.0000000000000000E+00     0.0000000000000000E+00 
    6.2500000000121403E-01     1.0000000000000000E+00     0.0000000000000000E+00 
    5.6250000000164757E-01     1.0000000000000000E+00     0.0000000000000000E+00 
    5.0000000000205946E-01     1.0000000000000000E+00     0.0000000000000000E+00 
    4.3750000000182099E-01     1.0000000000000000E+00     0.0000000000000000E+00 
    3.7500000000156092E-01     1.0000000000000000E+00     0.0000000000000000E+00 
    3.1250000000130068E-01     1.0000000000000000E+00     0.0000000000000000E+00 
    2.5000000000104050E-01     1.0000000000000000E+00     0.0000000000000000E+00 
    1.8750000000078040E-01     1.0000000000000000E+00     0.0000000000000000E+00 
    1.2500000000052031E-01     1.0000000000000000E+00     0.0000000000000000E+00 
    6.2500000000260125E-02     1.0000000000000000E+00     0.0000000000000000E+00 
    0.0000000000000000E+00     9.3749999999973976E-01     0.0000000000000000E+00 
    0.0000000000000000E+00     8.7499999999950118E-01     0.0000000000000000E+00 
    0.0000000000000000E+00     8.1249999999991318E-01     0.0000000000000000E+00 
    0.0000000000000000E+00     7.5000000000034706E-01     0.0000000000000000E+00 
    0.0000000000000000E+00     6.8750000000078049E-01     0.0000000000000000E+00 
    0.0000000000000000E+00     6.2500000000121403E-01     0.0000000000000000E+00 
    0.0000000000000000E+00     5.6250000000164757E-01     0.0000000000000000E+00 
    0.0000000000000000E+00     5.0000000000205946E-01     0.0000000000000000E+00 
    0.0000000000000000E+00     4.3750000000182099E-01     0.0000000000000000E+00 
    0.0000000000000000E+00     3.7500000000156092E-01     0.0000000000000000E+00 
    0.0000000000000000E+00     3.1250000000130068E-01     0.0000000000000000E+00 
    0.0000000000000000E+00     2.5000000000104050E-01     0.0000000000000000E+00 
    0.0000000000000000E+00     1.8750000000078040E-01     0.0000000000000000E+00 
    0.0000000000000000E+00     1.2500000000052031E-01     0.0000000000000000E+00 
    0.0000000000000000E+00     6.2500000000260125E-02     0.0000000000000000E+00 
    6.2499999999897131E-02     6.2500000000235922E-02     0.0000000000000000E+00 
    6.2499999999921327E-02     1.2500000000047351E-01     0.0000000000000000E+00 
    6.2499999999945530E-02     1.8750000000070621E-01     0.0000000000000000E+00 
    6.2499999999969733E-02     2.5000000000093858E-01     0.0000000000000000E+00 
    6.2499999999993928E-02     3.1250000000117117E-01     0.0000000000000000E+00 
    6.2500000000018124E-02     3.7500000000140382E-01     0.0000000000000000E+00 
    6.2500000000042327E-02     4.3750000000163619E-01     0.0000000000000000E+00 
    6.2500000000066530E-02     5.0000000000184897E-01     0.0000000000000000E+00 
    6.2500000000090733E-02     5.6250000000147260E-01     0.0000000000000000E+00 
    6.2500000000114922E-02     6.2500000000107636E-01     0.0000000000000000E+00 
    6.2500000000139125E-02     6.8750000000068034E-01     0.0000000000000000E+00 
    6.2500000000163328E-02     7.5000000000028411E-01     0.0000000000000000E+00 
    6.2500000000187531E-02     8.1249999999988787E-01     0.0000000000000000E+00 
    6.2500000000211720E-02     8.7499999999951172E-01     0.0000000000000000E+00 
    6.2500000000235922E-02     9.3749999999974565E-01     0.0000000000000000E+00 
    1.2499999999981980E-01     6.2500000000211733E-02     0.0000000000000000E+00 
    1.2499999999986650E-01     1.2500000000042691E-01     0.0000000000000000E+00 
    1.2499999999991319E-01     1.8750000000063199E-01     0.0000000000000000E+00 
    1.2499999999995989E-01     2.5000000000083678E-01     0.0000000000000000E+00 
    1.2500000000000661E-01     3.1250000000104172E-01     0.0000000000000000E+00 
    1.2500000000005329E-01     3.7500000000124661E-01     0.0000000000000000E+00 
    1.2500000000010000E-01     4.3750000000145117E-01     0.0000000000000000E+00 
    1.2500000000014669E-01     5.0000000000163858E-01     0.0000000000000000E+00 
    1.2500000000019340E-01     5.6250000000129741E-01     0.0000000000000000E+00 
    1.2500000000024011E-01     6.2500000000093847E-01     0.0000000000000000E+00 
    1.2500000000028680E-01     6.8750000000057998E-01     0.0000000000000000E+00 
    1.2500000000033351E-01     7.5000000000022127E-01     0.0000000000000000E+00 
    1.2500000000038020E-01     8.1249999999986211E-01     0.0000000000000000E+00 
    1.2500000000042691E-01     8.7499999999952238E-01     0.0000000000000000E+00 
    1.2500000000047359E-01     9.3749999999975164E-01     0.0000000000000000E+00 
    1.8749999999966760E-01     6.2500000000187531E-02     0.0000000000000000E+00 
    1.8749999999974179E-01     1.2500000000038020E-01     0.0000000000000000E+00 
    1.8749999999981601E-01     1.8750000000055780E-01     0.0000000000000000E+00 
    1.8749999999989009E-01     2.5000000000073502E-01     0.0000000000000000E+00 
    1.8749999999996431E-01     3.1250000000091221E-01     0.0000000000000000E+00 
    1.8750000000003850E-01     3.7500000000108941E-01     0.0000000000000000E+00 
    1.8750000000011269E-01     4.3750000000126649E-01     0.0000000000000000E+00 
    1.8750000000018691E-01     5.0000000000142808E-01     0.0000000000000000E+00 
    1.8750000000026110E-01     5.6250000000112244E-01     0.0000000000000000E+00 
    1.8750000000033529E-01     6.2500000000080080E-01     0.0000000000000000E+00 
    1.8750000000040951E-01     6.8750000000047962E-01     0.0000000000000000E+00 
    1.8750000000048361E-01     7.5000000000015843E-01     0.0000000000000000E+00 
    1.8750000000055780E-01     8.1249999999983680E-01     0.0000000000000000E+00 
    1.8750000000063199E-01     8.7499999999953304E-01     0.0000000000000000E+00 
    1.8750000000070621E-01     9.3749999999975764E-01     0.0000000000000000E+00 
    2.4999999999951281E-01     6.2500000000163314E-02     0.0000000000000000E+00 
    2.4999999999961461E-01     1.2500000000033351E-01     0.0000000000000000E+00 
    2.4999999999971650E-01     1.8750000000048361E-01     0.0000000000000000E+00 
    2.4999999999981831E-01     2.5000000000063310E-01     0.0000000000000000E+00 
    2.4999999999992020E-01     3.1250000000078260E-01     0.0000000000000000E+00 
    2.5000000000002198E-01     3.7500000000093209E-01     0.0000000000000000E+00 
    2.5000000000012390E-01     4.3750000000108180E-01     0.0000000000000000E+00 
    2.5000000000022571E-01     5.0000000000121769E-01     0.0000000000000000E+00 
    2.5000000000032763E-01     5.6250000000094724E-01     0.0000000000000000E+00 
    2.5000000000042938E-01     6.2500000000066314E-01     0.0000000000000000E+00 
    2.5000000000053119E-01     6.8750000000037925E-01     0.0000000000000000E+00 
[...]
CELL_DATA 256 
SCALARS Pressure double 1 
LOOKUP_TABLE default 

    6.8647029574919816E-01 
    6.3661914402846298E-01 
    6.0482363488694613E-01 
    5.7606831348935861E-01 
    5.4694059436573150E-01 
    5.1659429629003761E-01 
    4.8477093694727247E-01 
    4.5151917426269772E-01 
    4.1711473306852032E-01 
    3.8209405207378211E-01 
    3.4737024414677142E-01 
    3.1438918033476726E-01 
    2.8521856372460480E-01 
    2.6235437214418245E-01 
    2.4778774012907140E-01 
    2.4073764550913729E-01 
    6.7248616717647769E-01 
    6.3789842304922062E-01 
    6.0720652572428735E-01 
    5.7867990596616770E-01 
    5.4974068947836729E-01 
    5.1957052083556488E-01 
    4.8790671341083103E-01 
    4.5477919317513993E-01 
    4.2043529720900996E-01 
    3.8536949931108871E-01 
    3.5043589690345367E-01 
    3.1701270735742260E-01 
    2.8712797470246104E-01 
    2.6333956904830824E-01 
    2.4790198568963728E-01 
    2.4030944568501081E-01 
    6.6175515555477771E-01 
    6.3704284201236572E-01 
    6.0884076527235387E-01 
    5.8096308222806570E-01 
    5.5234969985024640E-01 
    5.2240835342279746E-01 
    4.9092362649687943E-01 
    4.5792136927613175E-01 
    4.2362044368091994E-01 
    3.8846567128509463E-01 
    3.5323835140021520E-01 
    3.1923318745490309E-01 
    2.8843474818585496E-01 
    2.6349818686742160E-01 
    2.4703872223410464E-01 
    2.3894581421444769E-01 
    6.5332840480736454E-01 
    6.3511224079189033E-01 
    6.0976805315022897E-01 
    5.8289547486514881E-01 
    5.5476028496942509E-01 
    5.2511253580541417E-01 
    4.9383213397959930E-01 
    4.6095970328366831E-01 
    4.2669043582030841E-01 
    3.9141431097347684E-01 
    3.5582613938757401E-01 
    3.2111590433131654E-01 
    2.8920563691019352E-01 
    2.6286230772112790E-01 
    2.4515276584326154E-01 
    2.3650989216676246E-01 
    6.4656469118350568E-01 
    6.3269906231455575E-01 
    6.1012163932168473E-01 
    5.8448544184501428E-01 
    5.5696864234507859E-01 
    5.2768615121881179E-01 
    4.9664293476991667E-01 
    4.6391100805670932E-01 
    4.2966939666028958E-01 
    3.9425130752970056E-01 
    3.5825253737364782E-01 
    3.2273317334907398E-01 
    2.8951792541859528E-01 
    2.6147250595090527E-01 
    2.4219517292376705E-01 
    2.3285591215516699E-01 
    6.4106255306177062E-01 
    6.3014750487136173E-01 
    6.1005231085296741E-01 
    5.8576596363105116E-01 
    5.5897907676050729E-01 
    5.3013185417191588E-01 
    4.9936475158810256E-01 
    4.6679214612240344E-01 
    4.3258370187177836E-01 
    3.9701609775551483E-01 
    3.6057574010728616E-01 
    3.2416505958499003E-01 
    2.8946182196017967E-01 
    2.5938402424268037E-01 
    2.3811481636801396E-01 
    2.2781078985699860E-01 
    6.3655829379708151E-01 
    6.2766623581790870E-01 
    6.0970813775831356E-01 
    5.8679120917464600E-01 
    5.6081095577192930E-01 
    5.3245904499666841E-01 
    5.0200686042886600E-01 
    4.6961827004248874E-01 
    4.3545880930778730E-01 
    3.9974945263267292E-01 
    3.6285818794071295E-01 
    3.2550083319037643E-01 
    2.8914432550842462E-01 
    2.5667485568928022E-01 
    2.3286852593252783E-01 
    2.2117758179412364E-01 
    6.3286499764355486E-01 
    6.2537832275564653E-01 
    6.0921906854259800E-01 
    5.8762590865930153E-01 
    5.6249441597655103E-01 
    5.3468409757922097E-01 
    5.0458162943569218E-01 
    4.7240335029836877E-01 
    4.3831717300366391E-01 
    4.0248931792948794E-01 
    3.6516315633941032E-01 
    3.2683890823202333E-01 
    2.8869460352513665E-01 
    2.5345632052833567E-01 
    2.2643239924585581E-01 
    2.1272642966874261E-01 
    6.2984889115107057E-01 
    6.2335330168628911E-01 
    6.0869119959040618E-01 
    5.8833691020665635E-01 
    5.6406441536362206E-01 
    5.3682697467518115E-01 
    5.0710325591311811E-01 
    4.7516081066472793E-01 
    4.4117659197339876E-01 
    4.0526688076163964E-01 
    3.6754869695038817E-01 
    3.2828219974568162E-01 
    2.8826671822168526E-01 
    2.4988401781388686E-01 
    2.1880685112156636E-01 
    2.0216372869056709E-01 
    6.2741213341712676E-01 
    6.2162626274781885E-01 
    6.0820479619453305E-01 
    5.8898587449239892E-01 
    5.6555833413818446E-01 
    5.3891038889000009E-01 
    5.0958759821140553E-01 
    4.7790408029168396E-01 
    4.4405230627333048E-01 
    4.0810680549098932E-01 
    3.7006393819942318E-01 
    3.2993119973333929E-01 
    2.8803731123678461E-01 
    2.4617317655905507E-01 
    2.1003764078274278E-01 
    1.8909692883386323E-01 
    6.2548147154810330E-01 
    6.2021422216644240E-01 
    6.0782335611804239E-01 
    5.8963068857273426E-01 
    5.6701638614024141E-01 
    5.4096143360018623E-01 
    5.1205414653906489E-01 
    4.8064857598426941E-01 
    4.4695990494506621E-01 
    4.1103065182567444E-01 
    3.7274978712553891E-01 
    3.3188003195822918E-01 
    2.8820297662977856E-01 
    2.4261673096626793E-01 
    2.0026269288734411E-01 
    1.7301230267369197E-01 
    6.2399753211494957E-01 
    6.1912570117698340E-01 
    6.0759969914712475E-01 
    5.9032582586931681E-01 
    5.6848071419026747E-01 
    5.4301205762370630E-01 
    5.1452834415307891E-01 
    4.8341356005803826E-01 
    4.4991709832834109E-01 
    4.1405916818275867E-01 
    3.7564009626620765E-01 
    3.3421217132131109E-01 
    2.8897522664814013E-01 
    2.3959923814612780E-01 
    1.8976254636434481E-01 
    1.5318257751844377E-01 
    6.2292074105533202E-01 
    6.1837177926265174E-01 
    6.0758205830216849E-01 
    5.9112525500474644E-01 
    5.6999599436055393E-01 
    5.4509875481246362E-01 
    5.1704077454117114E-01 
    4.8622184825267828E-01 
    4.5294198862081464E-01 
    4.1721092691855099E-01 
    3.7875939650641272E-01 
    3.3699111759349115E-01 
    2.9056053096765916E-01 
    2.3763197907385528E-01 
    1.7913425404528646E-01 
    1.2854979590214941E-01 
    6.2222403527786985E-01 
    6.1796733835206097E-01 
    6.0781678361406821E-01 
    5.9208301117412698E-01 
    5.7160795885921456E-01 
    5.4725745490632416E-01 
    5.1962133506328001E-01 
    4.8909211039646211E-01 
    4.5603838576318600E-01 
    4.2047726886382081E-01 
    3.8209377601864303E-01 
    3.4021786252402664E-01 
    2.9308824127037630E-01 
    2.3729618395556135E-01 
    1.6953306973290388E-01 
    9.7555488645530875E-02 
    6.2176752115334344E-01 
    6.1782603552948701E-01 
    6.0827407932009214E-01 
    5.9319033506047414E-01 
    5.7329914600975362E-01 
    5.4944927544039535E-01 
    5.2222077838804837E-01 
    4.9197852711766077E-01 
    4.5914801808029149E-01 
    4.2377914827342156E-01 
    3.8553585852190608E-01 
    3.4372688315943817E-01 
    2.9641766184421470E-01 
    2.3887086751935765E-01 
    1.6260981128194890E-01 
    5.7322705374021669E-02 
    6.2160573692605692E-01 
    6.1799657398169028E-01 
    6.0900091086777142E-01 
    5.9449468025952379E-01 
    5.7511274466879381E-01 
    5.5169915857361462E-01 
    5.2484842374541241E-01 
    4.9491162736069411E-01 
    4.6233062374689904E-01 
    4.2719578556224153E-01 
    3.8919273866094328E-01 
    3.4765611063733587E-01 
    3.0078628500282728E-01 
    2.4309427130300920E-01 
    1.6199992299612440E-01 
    0.0000000000000000E+00 

SCALARS Saturarion double 1 
LOOKUP_TABLE default 

    1.0000000000000004E+00 
    9.7697434553167783E-01 
    9.3489646299655205E-01 
    8.7844416463407982E-01 
    8.3115452800486200E-01 
    7.8957111724887985E-01 
    7.5338837530481462E-01 
    7.2197279230515432E-01 
    6.9427469205645487E-01 
    6.6917538068776505E-01 
    6.4553469212652570E-01 
    6.2200107822602391E-01 
    5.9651098539635161E-01 
    5.6563425148235702E-01 
    5.1261957732825292E-01 
    2.4388687843901241E-01 
    9.9136438804217752E-01 
    9.6956619017471424E-01 
    9.2546579108025484E-01 
    8.7165839924808863E-01 
    8.2589131892913326E-01 
    7.8586398806949764E-01 
    7.5075999070237931E-01 
    7.1992374928308900E-01 
    6.9259740638431411E-01 
    6.6783061063980020E-01 
    6.4471736530320933E-01 
    6.2204083733694016E-01 
    5.9766940953249781E-01 
    5.6778419943678837E-01 
    5.1748666816565225E-01 
    2.7195595880826695E-01 
    9.7772642390513775E-01 
    9.5589531777855485E-01 
    9.1159339633567571E-01 
    8.5953474749490877E-01 
    8.1555476793010828E-01 
    7.7811056535802869E-01 
    7.4524404579693226E-01 
    7.1571121403642268E-01 
    6.8902054583752936E-01 
    6.6465559107663985E-01 
    6.4209682702041493E-01 
    6.2042869799286626E-01 
    5.9783998962330520E-01 
    5.7026925628790359E-01 
    5.2386796288738635E-01 
    2.9743086350328329E-01 
    9.5393709757146317E-01 
    9.3552999748685517E-01 
    8.9463781926703112E-01 
    8.4665714320206398E-01 
    8.0344948325389676E-01 
    7.6717526608012032E-01 
    7.3603151063462380E-01 
    7.0844678025672625E-01 
    6.8334040178775479E-01 
    6.6032875943193903E-01 
    6.3884778175574419E-01 
    6.1827568458453142E-01 
    5.9727397949943817E-01 
    5.7227626639694806E-01 
    5.3009887066988148E-01 
    3.2205529309812031E-01 
    9.2476445800269858E-01 
    9.0849953217477741E-01 
    8.7201777533257985E-01 
    8.2879124170816509E-01 
    7.8776578463542546E-01 
    7.5243706742345329E-01 
    7.2259370108349830E-01 
    6.9682933927874591E-01 
    6.7399843433133733E-01 
    6.5332276918405063E-01 
    6.3418615818971802E-01 
    6.1570211645291251E-01 
    5.9648942149778561E-01 
    5.7372797190482105E-01 
    5.3573695738042060E-01 
    3.4212466073765296E-01 
    8.9206647954194496E-01 
    8.7850824786904957E-01 
    8.4678043917418322E-01 
    8.0771190028841888E-01 
    7.6985303354863754E-01 
    7.3632264184751928E-01 
    7.0737121244187540E-01 
    6.8271475317621100E-01 
    6.6156002557259697E-01 
    6.4309305640582259E-01 
    6.2662556137128056E-01 
    6.1131868866759931E-01 
    5.9517439084076140E-01 
    5.7485540022020354E-01 
    5.4077004750509716E-01 
    3.6019241322601681E-01 
    8.5667379809161159E-01 
    8.4638827826255725E-01 
    8.1972884564783910E-01 
    7.8496648971441274E-01 
    7.5057864104241245E-01 
    7.1948171970509667E-01 
    6.9220527872822146E-01 
    6.6837286479624713E-01 
    6.4803323179325567E-01 
    6.3093718277419930E-01 
    6.1665806465555506E-01 
    6.0438865142837950E-01 
    5.9226035288276080E-01 
    5.7570031076733441E-01 
    5.4532964174403253E-01 
    3.7787684058804610E-01 
    8.1839779367082444E-01 
    8.1182110669359842E-01 
    7.9097277053447390E-01 
    7.6107846642190291E-01 
    7.2989508047170149E-01 
    7.0108604971225941E-01 
    6.7539241815662554E-01 
    6.5298872058877566E-01 
    6.3371217714479566E-01 
    6.1764962649159949E-01 
    6.0479404432092976E-01 
    5.9506246578888222E-01 
    5.8696081971622149E-01 
    5.7554701382510387E-01 
    5.4994108988035917E-01 
    3.9567934638081725E-01 
    7.7741857516280843E-01 
    7.7446184754186664E-01 
    7.5930854105431034E-01 
    7.3462786455869589E-01 
    7.0715766196473417E-01 
    6.8065787244222997E-01 
    6.5671480975262164E-01 
    6.3560695931231770E-01 
    6.1739635837703921E-01 
    6.0222261506547292E-01 
    5.9058575697207361E-01 
    5.8299477714978865E-01 
    5.7883337148759195E-01 
    5.7339275423797509E-01 
    5.5373684284547287E-01 
    4.1250358646163787E-01 
    7.3376893174946756E-01 
    7.3420074096405386E-01 
    7.2437407270968224E-01 
    7.0464703586871535E-01 
    6.8116160086742350E-01 
    6.5751698765490718E-01 
    6.3543599293744923E-01 
    6.1593148779094642E-01 
    5.9903134758713217E-01 
    5.8476229614528741E-01 
    5.7375758483437800E-01 
    5.6756111129650821E-01 
    5.6703047222868286E-01 
    5.6831405267965895E-01 
    5.5639653463540062E-01 
    4.2900381649438796E-01 
    6.8708566115103709E-01 
    6.9066825474596893E-01 
    6.8579229223702842E-01 
    6.7066521635766363E-01 
    6.5121166037996048E-01 
    6.3099495637421765E-01 
    6.1179552382371161E-01 
    5.9412654719557823E-01 
    5.7860663768647314E-01 
    5.6553662840032382E-01 
    5.5541810852845686E-01 
    5.4961513706186715E-01 
    5.5090640429291937E-01 
    5.5893988914182813E-01 
    5.5673248692100430E-01 
    4.4564947068177968E-01 
    6.3610282188290213E-01 
    6.4270786202440999E-01 
    6.4288308345939138E-01 
    6.3247805185475836E-01 
    6.1691104719045076E-01 
    6.0002804625628969E-01 
    5.8375561377311169E-01 
    5.6882675523515391E-01 
    5.5542269375258679E-01 
    5.4410640832399415E-01 
    5.3546586338251634E-01 
    5.3055599054732339E-01 
    5.3192357330635942E-01 
    5.4387793480170477E-01 
    5.5172708156502281E-01 
    4.6122211078015735E-01 
    5.8244116064490836E-01 
    5.9099885508995165E-01 
    5.9533822302982986E-01 
    5.8981638036940276E-01 
    5.7877401962376751E-01 
    5.6537671593827721E-01 
    5.5212715438171744E-01 
    5.3961652905443958E-01 
    5.2821853387110995E-01 
    5.1832160314297127E-01 
    5.1111202848873671E-01 
    5.0779512092874668E-01 
    5.1045522283348510E-01 
    5.2362746776811275E-01 
    5.4325205873620397E-01 
    4.7432640345985388E-01 
    5.2282599954438913E-01 
    5.3531878643049691E-01 
    5.4273833313537156E-01 
    5.4196954343159609E-01 
    5.3389968397373655E-01 
    5.2248053824756302E-01 
    5.0958448737259798E-01 
    4.9828860205561010E-01 
    4.8653295971731481E-01 
    4.7136562161407097E-01 
    4.5837340253712594E-01 
    4.5645375251154707E-01 
    4.6384429385240006E-01 
    4.9120147598775155E-01 
    5.2810556138554965E-01 
    4.8346197966628218E-01 
    3.0160304081681166E-01 
    3.7345225618088407E-01 
    4.1037071998686669E-01 
    4.1935716907380033E-01 
    4.0700129890980796E-01 
    3.8099963072277754E-01 
    3.2921017964092442E-01 
    2.7323645640964922E-01 
    2.4959271841310973E-01 
    1.9999421320422600E-01 
    1.8457209140004879E-01 
    1.6675212899249722E-01 
    1.9916421865785200E-01 
    3.3993318727325822E-01 
    4.7225587383562306E-01 
    4.8422271732326472E-01 
    7.6766366230041256E-04 
    2.1068776168890559E-02 
    3.9668759295296493E-02 
    4.1792042926900121E-02 
    3.1729793795205123E-02 
    1.2432997523957495E-02 
    5.7383295488903458E-03 
    4.4456238250310500E-04 
    5.2237604256946018E-04 
    1.6125737083852083E-05 
    8.3405089550937309E-05 
    2.5746431216376802E-05 
    6.9017203362021541E-04 
    1.0363547240545562E-01 
    2.9694047292335207E-01 
    4.3316243853934250E-01 
