# vtk DataFile Version 2.0
Pressure Field Data 
ASCII 
DATASET UNSTRUCTURED_GRID 

POINTS 289 double 

    0.0000000000000000E+00     0.0000000000000000E+00     0.0000000000000000E+00 
    1.0000000000000000E+00     0.0000000000000000E+00     0.0000000000000000E+00 
    1.0000000000000000E+00     1.0000000000000000E+00     0.0000000000000000E+00 
    0.0000000000000000E+00     1.0000000000000000E+00     0.0000000000000000E+00 
    6.2499999999872928E-02     0.0000000000000000E+00     0.0000000000000000E+00 
    1.2499999999977310E-01     0.0000000000000000E+00     0.0000000000000000E+00 
    1.8749999999959341E-01     0.0000000000000000E+00     0.0000000000000000E+00 
    2.4999999999941089E-01     0.0000000000000000E+00     0.0000000000000000E+00 
    3.1249999999922851E-01     0.0000000000000000E+00     0.0000000000000000E+00 
    3.7499999999904610E-01     0.0000000000000000E+00     0.0000000000000000E+00 
    4.3749999999886358E-01     0.0000000000000000E+00     0.0000000000000000E+00 
    4.9999999999869210E-01     0.0000000000000000E+00     0.0000000000000000E+00 
    5.6249999999884603E-01     0.0000000000000000E+00     0.0000000000000000E+00 
    6.2499999999901090E-01     0.0000000000000000E+00     0.0000000000000000E+00 
    6.8749999999917577E-01     0.0000000000000000E+00     0.0000000000000000E+00 
    7.4999999999934064E-01     0.0000000000000000E+00     0.0000000000000000E+00 
    8.1249999999950551E-01     0.0000000000000000E+00     0.0000000000000000E+00 
    8.7499999999967026E-01     0.0000000000000000E+00     0.0000000000000000E+00 
    9.3749999999983513E-01     0.0000000000000000E+00     0.0000000000000000E+00 
    1.0000000000000000E+00     6.2499999999872928E-02     0.0000000000000000E+00 
    1.0000000000000000E+00     1.2499999999977310E-01     0.0000000000000000E+00 
    1.0000000000000000E+00     1.8749999999959341E-01     0.0000000000000000E+00 
    1.0000000000000000E+00     2.4999999999941089E-01     0.0000000000000000E+00 
    1.0000000000000000E+00     3.1249999999922851E-01     0.0000000000000000E+00 
    1.0000000000000000E+00     3.7499999999904610E-01     0.0000000000000000E+00 
    1.0000000000000000E+00     4.3749999999886358E-01     0.0000000000000000E+00 
    1.0000000000000000E+00     4.9999999999869210E-01     0.0000000000000000E+00 
    1.0000000000000000E+00     5.6249999999884603E-01     0.0000000000000000E+00 
    1.0000000000000000E+00     6.2499999999901090E-01     0.0000000000000000E+00 
    1.0000000000000000E+00     6.8749999999917577E-01     0.0000000000000000E+00 
    1.0000000000000000E+00     7.4999999999934064E-01     0.0000000000000000E+00 
    1.0000000000000000E+00     8.1249999999950551E-01     0.0000000000000000E+00 
    1.0000000000000000E+00     8.7499999999967026E-01     0.0000000000000000E+00 
    1.0000000000000000E+00     9.3749999999983513E-01     0.0000000000000000E+00 
    9.3749999999973976E-01     1.0000000000000000E+00     0.0000000000000000E+00 
    8.7499999999950118E-01     1.0000000000000000E+00     0.0000000000000000E+00 
    8.1249999999991318E-01     1.0000000000000000E+00     0.0000000000000000E+00 
    7.5000000000034706E-01     1.0000000000000000E+00     0.0000000000000000E+00 
    6.8750000000078049E-01     1.0000000000000000E+00     0.0000000000000000E+00 
    6.2500000000121403E-01     1.0000000000000000E+00     0.0000000000000000E+00 
    5.6250000000164757E-01     1.0000000000000000E+00     0.0000000000000000E+00 
    5.0000000000205946E-01     1.0000000000000000E+00     0.0000000000000000E+00 
    4.3750000000182099E-01     1.0000000000000000E+00     0.0000000000000000E+00 
    3.7500000000156092E-01     1.0000000000000000E+00     0.0000000000000000E+00 
    3.1250000000130068E-01     1.0000000000000000E+00     0.0000000000000000E+00 
    2.5000000000104050E-01     1.0000000000000000E+00     0.0000000000000000E+00 
    1.8750000000078040E-01     1.0000000000000000E+00     0.0000000000000000E+00 
    1.2500000000052031E-01     1.0000000000000000E+00     0.0000000000000000E+00 
    6.2500000000260125E-02     1.0000000000000000E+00     0.0000000000000000E+00 
    0.0000000000000000E+00     9.3749999999973976E-01     0.0000000000000000E+00 
    0.0000000000000000E+00     8.7499999999950118E-01     0.0000000000000000E+00 
    0.0000000000000000E+00     8.1249999999991318E-01     0.0000000000000000E+00 
    0.0000000000000000E+00     7.5000000000034706E-01     0.0000000000000000E+00 
    0.0000000000000000E+00     6.8750000000078049E-01     0.0000000000000000E+00 
    0.0000000000000000E+00     6.2500000000121403E-01     0.0000000000000000E+00 
    0.0000000000000000E+00     5.6250000000164757E-01     0.0000000000000000E+00 
    0.0000000000000000E+00     5.0000000000205946E-01     0.0000000000000000E+00 
    0.0000000000000000E+00     4.3750000000182099E-01     0.0000000000000000E+00 
    0.0000000000000000E+00     3.7500000000156092E-01     0.0000000000000000E+00 
    0.0000000000000000E+00     3.1250000000130068E-01     0.0000000000000000E+00 
    0.0000000000000000E+00     2.5000000000104050E-01     0.0000000000000000E+00 
    0.0000000000000000E+00     1.8750000000078040E-01     0.0000000000000000E+00 
    0.0000000000000000E+00     1.2500000000052031E-01     0.0000000000000000E+00 
    0.0000000000000000E+00     6.2500000000260125E-02     0.0000000000000000E+00 
    6.2499999999897131E-02     6.2500000000235922E-02     0.0000000000000000E+00 
    6.2499999999921327E-02     1.2500000000047351E-01     0.0000000000000000E+00 
    6.2499999999945530E-02     1.8750000000070621E-01     0.0000000000000000E+00 
    6.2499999999969733E-02     2.5000000000093858E-01     0.0000000000000000E+00 
    6.2499999999993928E-02     3.1250000000117117E-01     0.0000000000000000E+00 
    6.2500000000018124E-02     3.7500000000140382E-01     0.0000000000000000E+00 
    6.2500000000042327E-02     4.3750000000163619E-01     0.0000000000000000E+00 
    6.2500000000066530E-02     5.0000000000184897E-01     0.0000000000000000E+00 
    6.2500000000090733E-02     5.6250000000147260E-01     0.0000000000000000E+00 
    6.2500000000114922E-02     6.2500000000107636E-01     0.0000000000000000E+00 
    6.2500000000139125E-02     6.8750000000068034E-01     0.0000000000000000E+00 
    6.2500000000163328E-02     7.5000000000028411E-01     0.0000000000000000E+00 
    6.2500000000187531E-02     8.1249999999988787E-01     0.0000000000000000E+00 
    6.2500000000211720E-02     8.7499999999951172E-01     0.0000000000000000E+00 
    6.2500000000235922E-02     9.3749999999974565E-01     0.0000000000000000E+00 
    1.2499999999981980E-01     6.2500000000211733E-02     0.0000000000000000E+00 
    1.2499999999986650E-01     1.2500000000042691E-01     0.0000000000000000E+00 
    1.2499999999991319E-01     1.8750000000063199E-01     0.0000000000000000E+00 
    1.2499999999995989E-01     2.5000000000083678E-01     0.0000000000000000E+00 
    1.2500000000000661E-01     3.1250000000104172E-01     0.0000000000000000E+00 
    1.2500000000005329E-01     3.7500000000124661E-01     0.0000000000000000E+00 
    1.2500000000010000E-01     4.3750000000145117E-01     0.0000000000000000E+00 
    1.2500000000014669E-01     5.0000000000163858E-01     0.0000000000000000E+00 
    1.2500000000019340E-01     5.6250000000129741E-01     0.0000000000000000E+00 
    1.2500000000024011E-01     6.2500000000093847E-01     0.0000000000000000E+00 
    1.2500000000028680E-01     6.8750000000057998E-01     0.0000000000000000E+00 
    1.2500000000033351E-01     7.5000000000022127E-01     0.0000000000000000E+00 
    1.2500000000038020E-01     8.1249999999986211E-01     0.0000000000000000E+00 
    1.2500000000042691E-01     8.7499999999952238E-01     0.0000000000000000E+00 
    1.2500000000047359E-01     9.3749999999975164E-01     0.0000000000000000E+00 
    1.8749999999966760E-01     6.2500000000187531E-02     0.0000000000000000E+00 
    1.8749999999974179E-01     1.2500000000038020E-01     0.0000000000000000E+00 
    1.8749999999981601E-01     1.8750000000055780E-01     0.0000000000000000E+00 
    1.8749999999989009E-01     2.5000000000073502E-01     0.0000000000000000E+00 
    1.8749999999996431E-01     3.1250000000091221E-01     0.0000000000000000E+00 
    1.8750000000003850E-01     3.7500000000108941E-01     0.0000000000000000E+00 
    1.8750000000011269E-01     4.3750000000126649E-01     0.0000000000000000E+00 
    1.8750000000018691E-01     5.0000000000142808E-01     0.0000000000000000E+00 
    1.8750000000026110E-01     5.6250000000112244E-01     0.0000000000000000E+00 
    1.8750000000033529E-01     6.2500000000080080E-01     0.0000000000000000E+00 
    1.8750000000040951E-01     6.8750000000047962E-01     0.0000000000000000E+00 
    1.8750000000048361E-01     7.5000000000015843E-01     0.0000000000000000E+00 
    1.8750000000055780E-01     8.1249999999983680E-01     0.0000000000000000E+00 
    1.8750000000063199E-01     8.7499999999953304E-01     0.0000000000000000E+00 
    1.8750000000070621E-01     9.3749999999975764E-01     0.0000000000000000E+00 
    2.4999999999951281E-01     6.2500000000163314E-02     0.0000000000000000E+00 
    2.4999999999961461E-01     1.2500000000033351E-01     0.0000000000000000E+00 
    2.4999999999971650E-01     1.8750000000048361E-01     0.0000000000000000E+00 
    2.4999999999981831E-01     2.5000000000063310E-01     0.0000000000000000E+00 
    2.4999999999992020E-01     3.1250000000078260E-01     0.0000000000000000E+00 
    2.5000000000002198E-01     3.7500000000093209E-01     0.0000000000000000E+00 
    2.5000000000012390E-01     4.3750000000108180E-01     0.0000000000000000E+00 
    2.5000000000022571E-01     5.0000000000121769E-01     0.0000000000000000E+00 
    2.5000000000032763E-01     5.6250000000094724E-01     0.0000000000000000E+00 
    2.5000000000042938E-01     6.2500000000066314E-01     0.0000000000000000E+00 
    2.5000000000053119E-01     6.8750000000037925E-01     0.0000000000000000E+00 
[...]
CELL_DATA 256 
SCALARS Pressure double 1 
LOOKUP_TABLE default 

    7.7175798351359481E-01 
    7.2094259506104541E-01 
    6.8763265312876409E-01 
    6.5687232339363577E-01 
    6.2531469133040529E-01 
    5.9217461809207617E-01 
    5.5724624413126633E-01 
    5.2063004095491294E-01 
    4.8266182821645248E-01 
    4.4396242670298725E-01 
    4.0556877653277723E-01 
    3.6911245968600220E-01 
    3.3694741926355465E-01 
    3.1190239677034282E-01 
    2.9512745212357550E-01 
    2.8710220566295142E-01 
    7.5780040994492937E-01 
    7.2232715155277194E-01 
    6.9016701654304857E-01 
    6.5967285742387216E-01 
    6.2834008665775143E-01 
    5.9541314247336441E-01 
    5.6067802216594109E-01 
    5.2421155113437889E-01 
    4.8631677950049734E-01 
    4.4756827510501090E-01 
    4.0893878923171906E-01 
    3.7198468155505526E-01 
    3.3901509027235704E-01 
    3.1296052471936414E-01 
    2.9530412956019753E-01 
    2.8668020590338578E-01 
    7.4708113758347916E-01 
    7.2154654858319400E-01 
    6.9192284734921805E-01 
    6.6211395095903303E-01 
    6.3114107706828071E-01 
    5.9848008359682447E-01 
    5.6396069396195103E-01 
    5.2764795301520206E-01 
    4.8980894090586485E-01 
    4.5096222072028380E-01 
    4.1200115613442456E-01 
    3.7438983668527792E-01 
    3.4038691276714494E-01 
    3.1305347466148981E-01 
    2.9436785739122268E-01 
    2.8521287724515454E-01 
    7.3862283270173223E-01 
    7.1965346187045431E-01 
    6.9293838231932314E-01 
    6.6417593404302133E-01 
    6.3371614088371708E-01 
    6.0138393118762890E-01 
    5.6710495942965933E-01 
    5.3095203577375705E-01 
    4.9315894156542461E-01 
    4.5418018714060077E-01 
    4.1481292568339717E-01 
    3.7640413758190677E-01 
    3.4113915745417567E-01 
    3.1221828591890066E-01 
    2.9223708928254150E-01 
    2.8247562051923858E-01 
    7.3177551405104668E-01 
    7.1723244227708649E-01 
    6.9334367224440330E-01 
    6.6586638951479249E-01 
    6.3606491016945788E-01 
    6.0413343367459993E-01 
    5.7012614670750728E-01 
    5.3414359821558022E-01 
    4.9639373812190729E-01 
    4.5726296075938533E-01 
    4.1743632832002059E-01 
    3.7811272078757796E-01 
    3.4136211463094235E-01 
    3.1050233391710913E-01 
    2.8883584487704284E-01 
    2.7825284698376351E-01 
    7.2615545452266594E-01 
    7.1463342554569476E-01 
    6.9329122026474865E-01 
    6.6721929558356252E-01 
    6.3819435658598000E-01 
    6.0673671642585658E-01 
    5.7304017676695673E-01 
    5.3724685173440234E-01 
    4.9954603935371106E-01 
    4.6025565631139087E-01 
    4.1993729380647871E-01 
    3.7960827153986609E-01 
    3.4116166520629565E-01 
    3.0797067090938485E-01 
    2.8410043528177586E-01 
    2.7233766390562897E-01 
    7.2151524063030614E-01 
    7.1207671230811254E-01 
    6.9293674562592555E-01 
    6.6829420361375635E-01 
    6.4012718234935528E-01 
    6.0920656162416931E-01 
    5.7586198836126723E-01 
    5.4028518012732962E-01 
    5.0265003567252053E-01 
    4.6320640783920758E-01 
    4.2238549482799420E-01 
    3.8099146039162263E-01 
    3.4066272422137062E-01 
    3.0471748928424003E-01 
    2.7798213543563233E-01 
    2.6449395790573021E-01 
    7.1767835043025252E-01 
    7.0969672957135366E-01 
    6.9241927412654081E-01 
    6.6916172540157226E-01 
    6.4189650830257949E-01 
    6.1156123718001598E-01 
    5.7860721815275573E-01 
    5.4327889578206390E-01 
    5.0573725059300456E-01 
    4.6616264832015547E-01 
    4.2485355333057773E-01 
    3.8237292202386186E-01 
    3.4001452180286124E-01 
    3.0087690032561476E-01 
    2.7045938460939567E-01 
    2.5445186862301056E-01 
    7.1452020391465410E-01 
    7.0757325814023664E-01 
    6.9185309265047679E-01 
    6.6989426386254769E-01 
    6.4354065252723225E-01 
    6.1382260429093183E-01 
    5.8129150851363476E-01 
    5.4624476097525432E-01 
    5.0883213966616769E-01 
    4.6916520885893415E-01 
    4.2741159115452637E-01 
    3.8387091517540800E-01 
    3.3939479081660084E-01 
    2.9663531067811533E-01 
    2.6154211824665130E-01 
    2.4187130772978210E-01 
    7.1194954056779036E-01 
    7.0574885851436819E-01 
    6.9132488924741864E-01 
    6.7055894693362528E-01 
    6.4510165218936844E-01 
    6.1601621453095901E-01 
    5.8393135012237651E-01 
    5.4919741075887385E-01 
    5.1195436746901613E-01 
    4.7224735411772367E-01 
    4.3012259107797540E-01 
    3.8560514306814309E-01 
    3.3900865556582793E-01 
    2.9225098393212040E-01 
    2.5129641615705212E-01 
    2.2629198471518910E-01 
    7.0989844159764870E-01 
    7.0424735514857928E-01 
    6.9090560136726209E-01 
    6.7122112404086243E-01 
    6.4662680244542070E-01 
    6.1817382378635322E-01 
    5.8654753201323362E-01 
    5.5215419486565165E-01 
    5.1512494284191979E-01 
    4.7543910771395864E-01 
    4.3304139294316746E-01 
    3.8769201658427926E-01 
    3.3908756939389995E-01 
    2.8807645380738417E-01 
    2.3990279637010900E-01 
    2.0711103359878655E-01 
    7.0831578674263906E-01 
    7.0308844606934684E-01 
    6.9065998091891023E-01 
    6.7194694902218011E-01 
    6.4816886113776817E-01 
    6.2033422000599447E-01 
    5.8916835434139458E-01 
    5.5513938201469970E-01 
    5.1836972948747884E-01 
    4.7876658888068474E-01 
    4.3620753292746567E-01 
    3.9023001244344341E-01 
    3.3987841413397568E-01 
    2.8458010021251140E-01 
    2.2773665826251802E-01 
    1.8350824676141070E-01 
    7.0717680119932458E-01 
    7.0230392794059704E-01 
    6.9065540891929289E-01 
    6.7280575288254119E-01 
    6.4978364470612637E-01 
    6.2253872256930820E-01 
    5.9182250380533441E-01 
    5.5817487691659695E-01 
    5.2170798748327263E-01 
    4.8223757655532101E-01 
    4.3962082147721337E-01 
    3.9325705903505415E-01 
    3.4158361284631522E-01 
    2.8231940248016862E-01 
    2.1546750173519313E-01 
    1.5426100989003724E-01 
    7.0640141345636209E-01 
    7.0187374398067570E-01 
    6.9091976278106437E-01 
    6.7383937773988434E-01 
    6.5150369795422192E-01 
    6.2479701854316738E-01 
    5.9448024751890127E-01 
    5.6118218369190986E-01 
    5.2502309512091816E-01 
    4.8571969522754616E-01 
    4.4311087571758129E-01 
    3.9656425046672633E-01 
    3.4412207257785171E-01 
    2.8169315588074956E-01 
    2.0408683394149826E-01 
    1.1728466920828257E-01 
    7.0584676578162919E-01 
    7.0164062407550054E-01 
    6.9132459384301304E-01 
    6.7495493032889686E-01 
    6.5325899789941033E-01 
    6.2705772161783180E-01 
    5.9710948523393748E-01 
    5.6412062458947088E-01 
    5.2826293108629918E-01 
    4.8921925509021497E-01 
    4.4678967082967036E-01 
    4.0033535357185507E-01 
    3.4773800280302813E-01 
    2.8341412692087725E-01 
    1.9545413117624655E-01 
    6.8597667790910075E-02 
    7.0566166345264669E-01 
    7.0179023150488995E-01 
    6.9205808645705158E-01 
    6.7632321788265815E-01 
    6.5520454329533873E-01 
    6.2948344725327443E-01 
    5.9991520958424727E-01 
    5.6723397031137923E-01 
    5.3167762987867029E-01 
    4.9295669504232820E-01 
    4.5085010355658761E-01 
    4.0473136803870735E-01 
    3.5258442951754543E-01 
    2.8856855666771042E-01 
    1.9539071706920230E-01 
    0.0000000000000000E+00 

SCALARS Saturarion double 1 
LOOKUP_TABLE default 

    1.0000000000000007E+00 
    9.7193612400322671E-01 
    9.2181321501321645E-01 
    8.5826247320555060E-01 
    8.0448143805774941E-01 
    7.5822112095105421E-01 
    7.1916860913359804E-01 
    6.8602007816658961E-01 
    6.5708712313269169E-01 
    6.3075068001623746E-01 
    6.0555982815957687E-01 
    5.8012901961646757E-01 
    5.5290803232584984E-01 
    5.1998653125981176E-01 
    4.0994950453281898E-01 
    3.6335041942445641E-02 
    9.8899400845791730E-01 
    9.6238833260225809E-01 
    9.0990300634930443E-01 
    8.4992518299479303E-01 
    7.9898888084932729E-01 
    7.5476488513974826E-01 
    7.1664418107989358E-01 
    6.8376269832076775E-01 
    6.5499687113412275E-01 
    6.2901257352062501E-01 
    6.0455492582040460E-01 
    5.8018941329510654E-01 
    5.5410405925199979E-01 
    5.2237058933059355E-01 
    4.2041505111572208E-01 
    5.9281623991564884E-02 
    9.7168286168194917E-01 
    9.4539338196801859E-01 
    8.9303311254535345E-01 
    8.3564025175634238E-01 
    7.8814111026761979E-01 
    7.4735371274845319E-01 
    7.1131512703048128E-01 
    6.7913658837120094E-01 
    6.5051567277051248E-01 
    6.2486031974751244E-01 
    6.0136575689158167E-01 
    5.7859729704713758E-01 
    5.5450698611871863E-01 
    5.2503830217865266E-01 
    4.3523079894949984E-01 
    9.2362244158118417E-02 
    9.4136545995942100E-01 
    9.1960639014187107E-01 
    8.7270111754154600E-01 
    8.1959226699478815E-01 
    7.7348583794446113E-01 
    7.3526771650966083E-01 
    7.0200337885268105E-01 
    6.7211978102349745E-01 
    6.4495291269908273E-01 
    6.2040878322130200E-01 
    5.9788419431890183E-01 
    5.7644663686696018E-01 
    5.5428420174170301E-01 
    5.2768722823341219E-01 
    4.4851257136148098E-01 
    1.3453961549751051E-01 
    9.0556414900276594E-01 
    8.8696501508710790E-01 
    8.4585016101683963E-01 
    7.9831309056448296E-01 
    7.5507772231493320E-01 
    7.1875162495014222E-01 
    6.8799349031399304E-01 
    6.6098803283394525E-01 
    6.3670062659177817E-01 
    6.1455285740717402E-01 
    5.9404780622279962E-01 
    5.7431629310094257E-01 
    5.5383400969342955E-01 
    5.2968852071097583E-01 
    4.6007555339773404E-01 
    1.6847361208757053E-01 
    8.6721628163300435E-01 
    8.5196344602041163E-01 
    8.1676777794126931E-01 
    7.7469215845881845E-01 
    7.3524401221894842E-01 
    7.0096229247849573E-01 
    6.7159376165443130E-01 
    6.4664898373495516E-01 
    6.2504080440574683E-01 
    6.0569011415924012E-01 
    5.8786668107792495E-01 
    5.7093116462985671E-01 
    5.5311067328185459E-01 
    5.3131844465458899E-01 
    4.7045788594739812E-01 
    1.9941372053602152E-01 
    8.2668888851359190E-01 
    8.1542308289306831E-01 
    7.8657869398547553E-01 
    7.4985050850691992E-01 
    7.1427694122855301E-01 
    6.8253277894240727E-01 
    6.5507420819648421E-01 
    6.3142458732902207E-01 
    6.1137245844247579E-01 
    5.9421769646150602E-01 
    5.7912310132957867E-01 
    5.6521039903468373E-01 
    5.5103412581333422E-01 
    5.3286374289608962E-01 
    4.7987823620035741E-01 
    2.2980882182659371E-01 
    7.8398138912566528E-01 
    7.7707163339091079E-01 
    7.5514447118460659E-01 
    7.2401783219105886E-01 
    6.9191336595058661E-01 
    6.6264463388321104E-01 
    6.3697046686744996E-01 
    6.1494953772233463E-01 
    5.9623759248834385E-01 
    5.8070955923528456E-01 
    5.6792617996131567E-01 
    5.5716976330452495E-01 
    5.4686762185464544E-01 
    5.3342257661705506E-01 
    4.8900227912144267E-01 
    2.6009979195911803E-01 
    7.3934515536817125E-01 
    7.3644959715336555E-01 
    7.2094372904528214E-01 
    6.9565320755323645E-01 
    6.6767828840555754E-01 
    6.4104034073845195E-01 
    6.1726425711536670E-01 
    5.9644693600931031E-01 
    5.7867736969670547E-01 
    5.6426062681910449E-01 
    5.5353027476909733E-01 
    5.4611147398237725E-01 
    5.4025977994715280E-01 
    5.3213793228752959E-01 
    4.9699067541801101E-01 
    2.8735710937808956E-01 
    6.9271172809301873E-01 
    6.9341897294370936E-01 
    6.8369919568956838E-01 
    6.6389342260076467E-01 
    6.4044541617375317E-01 
    6.1711771967769813E-01 
    5.9542119216946943E-01 
    5.7610848161780193E-01 
    5.5941039531746029E-01 
    5.4589286532461645E-01 
    5.3627748566391964E-01 
    5.3125811437862380E-01 
    5.3015712555089445E-01 
    5.2845396985790893E-01 
    5.0354096616845323E-01 
    3.1326454631445755E-01 
    6.4386355583232546E-01 
    6.4775249911214328E-01 
    6.4327863066496849E-01 
    6.2862741016385126E-01 
    6.0986114849358830E-01 
    5.9048641668070800E-01 
    5.7194761620145007E-01 
    5.5465846963646948E-01 
    5.3956790044269520E-01 
    5.2729756994280896E-01 
    5.1839760871985419E-01 
    5.1391494743792265E-01 
    5.1568355748421035E-01 
    5.2118846892156956E-01 
    5.0780975834260678E-01 
    3.3883650704371665E-01 
    5.9319875543250544E-01 
    5.9960592594146145E-01 
    6.0018008796391153E-01 
    5.9086833134339933E-01 
    5.7660311575029333E-01 
    5.6068776065654502E-01 
    5.4511556039242859E-01 
    5.3114063934245404E-01 
    5.1877132868396636E-01 
    5.0780791680513337E-01 
    4.9903242159516564E-01 
    4.9439486284331335E-01 
    4.9704818396541733E-01 
    5.0859655987492602E-01 
    5.0842572388160445E-01 
    3.6367471995390555E-01 
    5.4418605849626467E-01 
    5.5231305886115356E-01 
    5.5642329140303093E-01 
    5.5143463859184760E-01 
    5.4079120180099394E-01 
    5.2719233151053380E-01 
    5.1378623071450769E-01 
    5.0130537909471939E-01 
    4.8851838149299520E-01 
    4.7719459252336255E-01 
    4.6669583768516004E-01 
    4.6017765654861409E-01 
    4.6514926811658802E-01 
    4.8559611172719286E-01 
    5.0077325566815012E-01 
    3.8584520745575296E-01 
    4.5060723621230003E-01 
    4.7304761820870939E-01 
    4.8868405415884680E-01 
    4.9105920740463971E-01 
    4.8280634002687411E-01 
    4.6714516071242235E-01 
    4.4422036203131893E-01 
    4.0799205813391737E-01 
    3.4753903281343657E-01 
    2.6463411961437916E-01 
    2.3647204965254986E-01 
    2.4326294119135727E-01 
    3.0241964463402521E-01 
    4.0490815013209480E-01 
    4.7387426359635182E-01 
    4.0082564587635205E-01 
    9.8096679940692488E-02 
    1.7604503747574946E-01 
    2.1482424017619217E-01 
    2.2732692539514607E-01 
    2.1369918976026214E-01 
    1.6672138369811490E-01 
    1.0432900632146223E-01 
    3.6732558552574658E-02 
    1.4442592500816091E-02 
    2.5049943581849799E-03 
    3.7202651082039907E-04 
    2.8353021822710142E-04 
    2.0703828601976681E-02 
    1.4684108965480239E-01 
    3.8568259194380849E-01 
    4.0454462745778036E-01 
    1.0008051006712148E-06 
    1.0329079312484996E-04 
    1.3140621411525757E-04 
    2.1233264636688043E-05 
    2.0215676637288683E-04 
    2.0485117534739585E-05 
    1.0468622736405447E-05 
    3.7295731164396971E-06 
    1.5149659901258130E-06 
    1.0590419331146316E-06 
    1.0009655661883137E-06 
    1.0012852248897444E-06 
    3.4122229816302249E-05 
    1.0351706401694727E-02 
    2.2439941970491267E-01 
    3.5982508772336064E-01 
