# vtk DataFile Version 2.0
Pressure Field Data 
ASCII 
DATASET UNSTRUCTURED_GRID 

POINTS 289 double 

    0.0000000000000000E+00     0.0000000000000000E+00     0.0000000000000000E+00 
    1.0000000000000000E+00     0.0000000000000000E+00     0.0000000000000000E+00 
    1.0000000000000000E+00     1.0000000000000000E+00     0.0000000000000000E+00 
    0.0000000000000000E+00     1.0000000000000000E+00     0.0000000000000000E+00 
    6.2499999999872928E-02     0.0000000000000000E+00     0.0000000000000000E+00 
    1.2499999999977310E-01     0.0000000000000000E+00     0.0000000000000000E+00 
    1.8749999999959341E-01     0.0000000000000000E+00     0.0000000000000000E+00 
    2.4999999999941089E-01     0.0000000000000000E+00     0.0000000000000000E+00 
    3.1249999999922851E-01     0.0000000000000000E+00     0.0000000000000000E+00 
    3.7499999999904610E-01     0.0000000000000000E+00     0.0000000000000000E+00 
    4.3749999999886358E-01     0.0000000000000000E+00     0.0000000000000000E+00 
    4.9999999999869210E-01     0.0000000000000000E+00     0.0000000000000000E+00 
    5.6249999999884603E-01     0.0000000000000000E+00     0.0000000000000000E+00 
    6.2499999999901090E-01     0.0000000000000000E+00     0.0000000000000000E+00 
    6.8749999999917577E-01     0.0000000000000000E+00     0.0000000000000000E+00 
    7.4999999999934064E-01     0.0000000000000000E+00     0.0000000000000000E+00 
    8.1249999999950551E-01     0.0000000000000000E+00     0.0000000000000000E+00 
    8.7499999999967026E-01     0.0000000000000000E+00     0.0000000000000000E+00 
    9.3749999999983513E-01     0.0000000000000000E+00     0.0000000000000000E+00 
    1.0000000000000000E+00     6.2499999999872928E-02     0.0000000000000000E+00 
    1.0000000000000000E+00     1.2499999999977310E-01     0.0000000000000000E+00 
    1.0000000000000000E+00     1.8749999999959341E-01     0.0000000000000000E+00 
    1.0000000000000000E+00     2.4999999999941089E-01     0.0000000000000000E+00 
    1.0000000000000000E+00     3.1249999999922851E-01     0.0000000000000000E+00 
    1.0000000000000000E+00     3.7499999999904610E-01     0.0000000000000000E+00 
    1.0000000000000000E+00     4.3749999999886358E-01     0.0000000000000000E+00 
    1.0000000000000000E+00     4.9999999999869210E-01     0.0000000000000000E+00 
    1.0000000000000000E+00     5.6249999999884603E-01     0.0000000000000000E+00 
    1.0000000000000000E+00     6.2499999999901090E-01     0.0000000000000000E+00 
    1.0000000000000000E+00     6.8749999999917577E-01     0.0000000000000000E+00 
    1.0000000000000000E+00     7.4999999999934064E-01     0.0000000000000000E+00 
    1.0000000000000000E+00     8.1249999999950551E-01     0.0000000000000000E+00 
    1.0000000000000000E+00     8.7499999999967026E-01     0.0000000000000000E+00 
    1.0000000000000000E+00     9.3749999999983513E-01     0.0000000000000000E+00 
    9.3749999999973976E-01     1.0000000000000000E+00     0.0000000000000000E+00 
    8.7499999999950118E-01     1.0000000000000000E+00     0.0000000000000000E+00 
    8.1249999999991318E-01     1.0000000000000000E+00     0.0000000000000000E+00 
    7.5000000000034706E-01     1.0000000000000000E+00     0.0000000000000000E+00 
    6.8750000000078049E-01     1.0000000000000000E+00     0.0000000000000000E+00 
    6.2500000000121403E-01     1.0000000000000000E+00     0.0000000000000000E+00 
    5.6250000000164757E-01     1.0000000000000000E+00     0.0000000000000000E+00 
    5.0000000000205946E-01     1.0000000000000000E+00     0.0000000000000000E+00 
    4.3750000000182099E-01     1.0000000000000000E+00     0.0000000000000000E+00 
    3.7500000000156092E-01     1.0000000000000000E+00     0.0000000000000000E+00 
    3.1250000000130068E-01     1.0000000000000000E+00     0.0000000000000000E+00 
    2.5000000000104050E-01     1.0000000000000000E+00     0.0000000000000000E+00 
    1.8750000000078040E-01     1.0000000000000000E+00     0.0000000000000000E+00 
    1.2500000000052031E-01     1.0000000000000000E+00     0.0000000000000000E+00 
    6.2500000000260125E-02     1.0000000000000000E+00     0.0000000000000000E+00 
    0.0000000000000000E+00     9.3749999999973976E-01     0.0000000000000000E+00 
    0.0000000000000000E+00     8.7499999999950118E-01     0.0000000000000000E+00 
    0.0000000000000000E+00     8.1249999999991318E-01     0.0000000000000000E+00 
    0.0000000000000000E+00     7.5000000000034706E-01     0.0000000000000000E+00 
    0.0000000000000000E+00     6.8750000000078049E-01     0.0000000000000000E+00 
    0.0000000000000000E+00     6.2500000000121403E-01     0.0000000000000000E+00 
    0.0000000000000000E+00     5.6250000000164757E-01     0.0000000000000000E+00 
    0.0000000000000000E+00     5.0000000000205946E-01     0.0000000000000000E+00 
    0.0000000000000000E+00     4.3750000000182099E-01     0.0000000000000000E+00 
    0.0000000000000000E+00     3.7500000000156092E-01     0.0000000000000000E+00 
    0.0000000000000000E+00     3.1250000000130068E-01     0.0000000000000000E+00 
    0.0000000000000000E+00     2.5000000000104050E-01     0.0000000000000000E+00 
    0.0000000000000000E+00     1.8750000000078040E-01     0.0000000000000000E+00 
    0.0000000000000000E+00     1.2500000000052031E-01     0.0000000000000000E+00 
    0.0000000000000000E+00     6.2500000000260125E-02     0.0000000000000000E+00 
    6.2499999999897131E-02     6.2500000000235922E-02     0.0000000000000000E+00 
    6.2499999999921327E-02     1.2500000000047351E-01     0.0000000000000000E+00 
    6.2499999999945530E-02     1.8750000000070621E-01     0.0000000000000000E+00 
    6.2499999999969733E-02     2.5000000000093858E-01     0.0000000000000000E+00 
    6.2499999999993928E-02     3.1250000000117117E-01     0.0000000000000000E+00 
    6.2500000000018124E-02     3.7500000000140382E-01     0.0000000000000000E+00 
    6.2500000000042327E-02     4.3750000000163619E-01     0.0000000000000000E+00 
    6.2500000000066530E-02     5.0000000000184897E-01     0.0000000000000000E+00 
    6.2500000000090733E-02     5.6250000000147260E-01     0.0000000000000000E+00 
    6.2500000000114922E-02     6.2500000000107636E-01     0.0000000000000000E+00 
    6.2500000000139125E-02     6.8750000000068034E-01     0.0000000000000000E+00 
    6.2500000000163328E-02     7.5000000000028411E-01     0.0000000000000000E+00 
    6.2500000000187531E-02     8.1249999999988787E-01     0.0000000000000000E+00 
    6.2500000000211720E-02     8.7499999999951172E-01     0.0000000000000000E+00 
    6.2500000000235922E-02     9.3749999999974565E-01     0.0000000000000000E+00 
    1.2499999999981980E-01     6.2500000000211733E-02     0.0000000000000000E+00 
    1.2499999999986650E-01     1.2500000000042691E-01     0.0000000000000000E+00 
    1.2499999999991319E-01     1.8750000000063199E-01     0.0000000000000000E+00 
    1.2499999999995989E-01     2.5000000000083678E-01     0.0000000000000000E+00 
    1.2500000000000661E-01     3.1250000000104172E-01     0.0000000000000000E+00 
    1.2500000000005329E-01     3.7500000000124661E-01     0.0000000000000000E+00 
    1.2500000000010000E-01     4.3750000000145117E-01     0.0000000000000000E+00 
    1.2500000000014669E-01     5.0000000000163858E-01     0.0000000000000000E+00 
    1.2500000000019340E-01     5.6250000000129741E-01     0.0000000000000000E+00 
    1.2500000000024011E-01     6.2500000000093847E-01     0.0000000000000000E+00 
    1.2500000000028680E-01     6.8750000000057998E-01     0.0000000000000000E+00 
    1.2500000000033351E-01     7.5000000000022127E-01     0.0000000000000000E+00 
    1.2500000000038020E-01     8.1249999999986211E-01     0.0000000000000000E+00 
    1.2500000000042691E-01     8.7499999999952238E-01     0.0000000000000000E+00 
    1.2500000000047359E-01     9.3749999999975164E-01     0.0000000000000000E+00 
    1.8749999999966760E-01     6.2500000000187531E-02     0.0000000000000000E+00 
    1.8749999999974179E-01     1.2500000000038020E-01     0.0000000000000000E+00 
    1.8749999999981601E-01     1.8750000000055780E-01     0.0000000000000000E+00 
    1.8749999999989009E-01     2.5000000000073502E-01     0.0000000000000000E+00 
    1.8749999999996431E-01     3.1250000000091221E-01     0.0000000000000000E+00 
    1.8750000000003850E-01     3.7500000000108941E-01     0.0000000000000000E+00 
    1.8750000000011269E-01     4.3750000000126649E-01     0.0000000000000000E+00 
    1.8750000000018691E-01     5.0000000000142808E-01     0.0000000000000000E+00 
    1.8750000000026110E-01     5.6250000000112244E-01     0.0000000000000000E+00 
    1.8750000000033529E-01     6.2500000000080080E-01     0.0000000000000000E+00 
    1.8750000000040951E-01     6.8750000000047962E-01     0.0000000000000000E+00 
    1.8750000000048361E-01     7.5000000000015843E-01     0.0000000000000000E+00 
    1.8750000000055780E-01     8.1249999999983680E-01     0.0000000000000000E+00 
    1.8750000000063199E-01     8.7499999999953304E-01     0.0000000000000000E+00 
    1.8750000000070621E-01     9.3749999999975764E-01     0.0000000000000000E+00 
    2.4999999999951281E-01     6.2500000000163314E-02     0.0000000000000000E+00 
    2.4999999999961461E-01     1.2500000000033351E-01     0.0000000000000000E+00 
    2.4999999999971650E-01     1.8750000000048361E-01     0.0000000000000000E+00 
    2.4999999999981831E-01     2.5000000000063310E-01     0.0000000000000000E+00 
    2.4999999999992020E-01     3.1250000000078260E-01     0.0000000000000000E+00 
    2.5000000000002198E-01     3.7500000000093209E-01     0.0000000000000000E+00 
    2.5000000000012390E-01     4.3750000000108180E-01     0.0000000000000000E+00 
    2.5000000000022571E-01     5.0000000000121769E-01     0.0000000000000000E+00 
    2.5000000000032763E-01     5.6250000000094724E-01     0.0000000000000000E+00 
    2.5000000000042938E-01     6.2500000000066314E-01     0.0000000000000000E+00 
    2.5000000000053119E-01     6.8750000000037925E-01     0.0000000000000000E+00 
[...]
CELL_DATA 256 
SCALARS Pressure double 1 
LOOKUP_TABLE default 

    1.0778671314883459E+00 
    1.0205214617848435E+00 
    9.7766599099822638E-01 
    9.3452492876932691E-01 
    8.8794061671342828E-01 
    8.3782380018255609E-01 
    7.8308301488603116E-01 
    7.1733352711526999E-01 
    6.4158709090741306E-01 
    5.7086164681385621E-01 
    5.0606381582507842E-01 
    4.4685233301722793E-01 
    3.9579953154921083E-01 
    3.5631503868717451E-01 
    3.3140199227660322E-01 
    3.2140939580106342E-01 
    1.0639484856144141E+00 
    1.0224807689361985E+00 
    9.8099195304049525E-01 
    9.3834390321889727E-01 
    8.9228360318063504E-01 
    8.4265936292855781E-01 
    7.8859311184845526E-01 
    7.2359403046713533E-01 
    6.4818386607673983E-01 
    5.7725065715033341E-01 
    5.1181074630578827E-01 
    4.5169941336056202E-01 
    3.9937031088571162E-01 
    3.5830681061525727E-01 
    3.3185205776408028E-01 
    3.2095998019625804E-01 
    1.0529416975567261E+00 
    1.0219397156942105E+00 
    9.8321658157014746E-01 
    9.4145454991944877E-01 
    8.9608769839037772E-01 
    8.4704031526588364E-01 
    7.9358544794690944E-01 
    7.2908876403383815E-01 
    6.5410291969648449E-01 
    5.8328322853736547E-01 
    5.1718916727650288E-01 
    4.5600933101098362E-01 
    4.0213078916176048E-01 
    3.5917635608681642E-01 
    3.3099440705539113E-01 
    3.1934610176081019E-01 
    1.0436527121137438E+00 
    1.0198507172707032E+00 
    9.8435702220143417E-01 
    9.4387751439743761E-01 
    8.9936035309894891E-01 
    8.5097521711543500E-01 
    7.9806750457494158E-01 
    7.3389630958533913E-01 
    6.5944970225225930E-01 
    5.8897468857135482E-01 
    5.2225179092434793E-01 
    4.5986924900197923E-01 
    4.0417278001245965E-01 
    3.5896232196277250E-01 
    3.2874525475202171E-01 
    3.1634030405174779E-01 
    1.0354858251293628E+00 
    1.0167623730109705E+00 
    9.8454317916808620E-01 
    9.4567798031325923E-01 
    9.0215978629286564E-01 
    8.5450404387531653E-01 
    8.0203040304794637E-01 
    7.3806321929166996E-01 
    6.6434468752416864E-01 
    5.9437038164511502E-01 
    5.2706571228479460E-01 
    4.6337969968584702E-01 
    4.0560630343236759E-01 
    3.5771986280991652E-01 
    3.2502149740644448E-01 
    3.1171073011070766E-01 
    1.0282935550582064E+00 
    1.0131687248574963E+00 
    9.8401382104616575E-01 
    9.4696426960957447E-01 
    9.0456756050008746E-01 
    8.5767355555731817E-01 
    8.0540893684581683E-01 
    7.4159046469441647E-01 
    6.6895626902009253E-01 
    5.9953721218639022E-01 
    5.3170883864419727E-01 
    4.6665383428590079E-01 
    4.0656359596622943E-01 
    3.5552976375638601E-01 
    3.1974555372541630E-01 
    3.0520864314994922E-01 
    1.0219822683094022E+00 
    1.0094229049394199E+00 
    9.8300997968538661E-01 
    9.4785050793676617E-01 
    9.0665962180972914E-01 
    8.6052133050576041E-01 
    8.0814325416013311E-01 
    7.4452291531757953E-01 
    6.7349272908265423E-01 
    6.0455394491448455E-01 
    5.3626270278247734E-01 
    4.6981249785334367E-01 
    4.0719900788764080E-01 
    3.5250488095281979E-01 
    3.1284505638371335E-01 
    2.9653493896191957E-01 
    1.0164966120246055E+00 
    1.0057854799099073E+00 
    9.8175630929461721E-01 
    9.4845610759840160E-01 
    9.0850382538806118E-01 
    8.6300594869485658E-01 
    8.1025348552427279E-01 
    7.4708321748972695E-01 
    6.7807555752569859E-01 
    6.0950631907441444E-01 
    5.4081308491753621E-01 
    4.7298626050862314E-01 
    4.0769523083949860E-01 
    3.4880732270562970E-01 
    3.0426854451467933E-01 
    2.8533244632834082E-01 
    1.0118314550029039E+00 
    1.0024632017078836E+00 
    9.8045592230573730E-01 
    9.4890247888325785E-01 
    9.1012760899903478E-01 
    8.6493311353748925E-01 
    8.1179662561626997E-01 
    7.4965032660566688E-01 
    6.8267642208871204E-01 
    6.1447171947968238E-01 
    5.4544696765412870E-01 
    4.7630941504312774E-01 
    4.0826425977343461E-01 
    3.4466640072196869E-01 
    2.9400627847085159E-01 
    2.7114600978398817E-01 
    1.0079435903748810E+00 
    9.9956440863817986E-01 
    9.7923560373190877E-01 
    9.4922169797954603E-01 
    9.1131996512939317E-01 
    8.6615353191210465E-01 
    8.1316226978316897E-01 
    7.5261432462480304E-01 
    6.8726020763730178E-01 
    6.1950855674850025E-01 
    5.5024638923749714E-01 
    4.7992283626212606E-01 
    4.0915643479498315E-01 
    3.4041213655151875E-01 
    2.8214174149852050E-01 
    2.5338791603393318E-01 
    1.0044838076660583E+00 
    9.9688361983457130E-01 
    9.7787074182532907E-01 
    9.4905369531945527E-01 
    9.1184042541342569E-01 
    8.6704568521412884E-01 
    8.1500543797426672E-01 
    7.5603908820502441E-01 
    6.9189566221560095E-01 
    6.2466513402083290E-01 
    5.5527996446331995E-01 
    4.8395565584410877E-01 
    4.1064067386510877E-01 
    3.3648674242491605E-01 
    2.6891142211141461E-01 
    2.3127820456034281E-01 
    1.0010267348976816E+00 
    9.9396809911350359E-01 
    9.7611629234324959E-01 
    9.4846636876501300E-01 
    9.1226483545452663E-01 
    8.6844018285029401E-01 
    8.1752411672371383E-01 
    7.5977257492079697E-01 
    6.9667016043457319E-01 
    6.2998794067221953E-01 
    5.6060151214309151E-01 
    4.8851426624518951E-01 
    4.1298581206716595E-01 
    3.3346110390410100E-01 
    2.5482072941929756E-01 
    2.0376894591395611E-01 
    9.9830678277247020E-01 
    9.9154718874233982E-01 
    9.7475372877056454E-01 
    9.4837470300333693E-01 
    9.1336619584342471E-01 
    8.7055247341752029E-01 
    8.2055155753674469E-01 
    7.6383074264434703E-01 
    7.0165032497818391E-01 
    6.3552172251377315E-01 
    5.6624973922673660E-01 
    4.9367263587643900E-01 
    4.1643495919773127E-01 
    3.3203688728738023E-01 
    2.4084024612624724E-01 
    1.6941109453157541E-01 
    9.9663211105326044E-01 
    9.9020766737222954E-01 
    9.7435054164287738E-01 
    9.4905889320877868E-01 
    9.1508040187481254E-01 
    8.7319956618293237E-01 
    8.2406629471990089E-01 
    7.6825348133112092E-01 
    7.0688694597037161E-01 
    6.4130030162242024E-01 
    5.7224666112785205E-01 
    4.9947003622515729E-01 
    4.2117107474156584E-01 
    3.3300610531915475E-01 
    2.2874097044947725E-01 
    1.2616327918461370E-01 
    9.9573332049760921E-01 
    9.8968516805736395E-01 
    9.7469272355946024E-01 
    9.5040503223968209E-01 
    9.1739364730132211E-01 
    8.7639656149061373E-01 
    8.2807860910717690E-01 
    7.7306984236461440E-01 
    7.1241611134407057E-01 
    6.4734580874960024E-01 
    5.7859613954338129E-01 
    5.0589824302999598E-01 
    4.2725539701013304E-01 
    3.3708855163209628E-01 
    2.2164176694157248E-01 
    7.1105683013993434E-02 
    9.9548481317651105E-01 
    9.8992383765033676E-01 
    9.7577851276707417E-01 
    9.5243237798250302E-01 
    9.2032628815918471E-01 
    8.8016020761550096E-01 
    8.3260401389747918E-01 
    7.7830688090308398E-01 
    7.1826867909870529E-01 
    6.5367506250099083E-01 
    5.8528775646511166E-01 
    5.1290292356080558E-01 
    4.3458608036634794E-01 
    3.4455952342656554E-01 
    2.2493652627766791E-01 
    0.0000000000000000E+00 

SCALARS Saturarion double 1 
LOOKUP_TABLE default 

    1.0000000000003193E+00 
    9.3566048818673431E-01 
    8.4410174177774466E-01 
    7.3120185810903138E-01 
    6.5388545512670926E-01 
    5.9491058481869719E-01 
    5.3288655222563996E-01 
    4.1010547760953003E-01 
    5.7561700561076616E-02 
    1.0000002744706199E-06 
    1.0000000000002187E-06 
    9.9999999999999995E-07 
    9.9999999999999995E-07 
    9.9999999999999995E-07 
    9.9999999999999995E-07 
    9.9999999999999995E-07 
    9.6884890459327799E-01 
    9.0963572775388057E-01 
    8.1721226228440902E-01 
    7.2185954702124633E-01 
    6.4669616147811504E-01 
    5.8844375687341499E-01 
    5.2810617324697939E-01 
    3.9968824882215659E-01 
    4.8317622479564469E-02 
    1.9994096481191277E-06 
    1.0000002458244600E-06 
    1.0000000000000836E-06 
    9.9999999999999995E-07 
    9.9999999999999995E-07 
    9.9999999999999995E-07 
    9.9999999999999995E-07 
    9.1738875706215084E-01 
    8.6898154146570405E-01 
    7.8069988294755732E-01 
    7.0301876576906674E-01 
    6.3330035678622443E-01 
    5.7721833942713008E-01 
    5.1951595212601298E-01 
    3.8619850321246690E-01 
    3.7512850289502873E-02 
    2.6654491953009455E-06 
    1.0000004172677383E-06 
    1.0000000000001291E-06 
    9.9999999999999995E-07 
    9.9999999999999995E-07 
    9.9999999999999995E-07 
    9.9999999999999995E-07 
    8.4140771966950423E-01 
    8.0473194649533519E-01 
    7.3422787624212293E-01 
    6.7334285069193578E-01 
    6.1792206123605165E-01 
    5.6826818130672752E-01 
    5.1211678916728898E-01 
    3.7185197277465071E-01 
    2.7657412891372316E-02 
    2.3899957894396108E-06 
    1.0000007849317113E-06 
    9.9999999999999995E-07 
    9.9999999999999995E-07 
    9.9999999999999995E-07 
    9.9999999999999995E-07 
    9.9999999999999995E-07 
    7.7337477187222403E-01 
    7.4522967266598827E-01 
    6.9166291502834010E-01 
    6.4219813023369254E-01 
    5.9889257804540941E-01 
    5.5578102533344720E-01 
    5.0098760405780529E-01 
    3.3972770720287199E-01 
    1.4470033419488224E-02 
    3.1699223560881547E-06 
    1.0000004784486744E-06 
    1.0000000000000372E-06 
    9.9999999999999995E-07 
    9.9999999999999995E-07 
    9.9999999999999995E-07 
    9.9999999999999995E-07 
    7.1174167991231518E-01 
    6.9215800191292765E-01 
    6.5191731744955583E-01 
    6.1164070784809221E-01 
    5.7633706453836198E-01 
    5.3898286088608849E-01 
    4.8185245387463466E-01 
    2.7254228743348197E-01 
    3.5251267837380705E-03 
    1.3361680910281232E-06 
    1.0000000843846707E-06 
    9.9999999999999995E-07 
    9.9999999999999995E-07 
    9.9999999999999995E-07 
    9.9999999999999995E-07 
    9.9999999999999995E-07 
    6.5552429367163867E-01 
    6.4356263772952038E-01 
    6.1477066960676707E-01 
    5.8143914036831645E-01 
    5.5106055611470595E-01 
    5.1823395407768336E-01 
    4.5216161872864213E-01 
    1.7760845311688631E-01 
    2.4716032981266780E-04 
    1.0078922787181542E-06 
    1.0000000007172929E-06 
    1.0000000000000002E-06 
    9.9999999999999995E-07 
    9.9999999999999995E-07 
    9.9999999999999995E-07 
    9.9999999999999995E-07 
    6.0479127002438982E-01 
    5.9950047893528791E-01 
    5.8029378859454839E-01 
    5.5254624110888884E-01 
    5.2552433776946805E-01 
    4.9171379689749328E-01 
    3.8989952832857949E-01 
    7.0028440220667273E-02 
    1.4401659018252813E-04 
    1.0039486614752645E-06 
    1.0000000000000006E-06 
    9.9999999999999995E-07 
    9.9999999999999995E-07 
    9.9999999999999995E-07 
    9.9999999999999995E-07 
    9.9999999999999995E-07 
    5.6151227851128993E-01 
    5.6040408449348023E-01 
    5.4690318450262787E-01 
    5.2492268758122906E-01 
    4.9812946618304477E-01 
    4.4573877199666773E-01 
    2.3401260169175445E-01 
    4.4408184321521223E-03 
    1.7166531710886355E-06 
    1.0000002026690441E-06 
    1.0000000000000033E-06 
    9.9999999999999995E-07 
    9.9999999999999995E-07 
    9.9999999999999995E-07 
    9.9999999999999995E-07 
    9.9999999999999995E-07 
    5.1881669590478940E-01 
    5.1945865760744336E-01 
    5.0978708750399782E-01 
    4.9025009200913028E-01 
    4.4347526408117977E-01 
    2.9531129650354132E-01 
    4.3342863055480588E-02 
    9.5533655606106643E-05 
    1.0010071508505625E-06 
    1.0000000000000343E-06 
    9.9999999999999995E-07 
    9.9999999999999995E-07 
    9.9999999999999995E-07 
    9.9999999999999995E-07 
    9.9999999999999995E-07 
    9.9999999999999995E-07 
    4.2711608739629520E-01 
    4.3940498674659800E-01 
    4.3137698338966457E-01 
    3.7179629814140264E-01 
    2.2031948522624958E-01 
    3.7093400858174350E-02 
    1.3384297451500503E-04 
    1.0023128322230349E-06 
    1.0000000001378550E-06 
    9.9999999999999995E-07 
    9.9999999999999995E-07 
    9.9999999999999995E-07 
    9.9999999999999995E-07 
    9.9999999999999995E-07 
    9.9999999999999995E-07 
    9.9999999999999995E-07 
    9.2649297998196933E-02 
    1.4062974196328348E-01 
    1.2170231678070313E-01 
    4.1895951406620197E-02 
    2.0554873925043792E-03 
    4.1079785461918899E-05 
    1.0011213198685874E-06 
    1.0000000003011024E-06 
    9.9999999999999995E-07 
    9.9999999999999995E-07 
    9.9999999999999995E-07 
    9.9999999999999995E-07 
    9.9999999999999995E-07 
    9.9999999999999995E-07 
    9.9999999999999995E-07 
    9.9999999999999995E-07 
    1.0000209733052246E-06 
    1.1535223062020281E-05 
    6.1589716268415113E-05 
    4.0590740662313364E-05 
    1.1045684416333614E-06 
    1.0000818554816753E-06 
    1.0000000000231498E-06 
    9.9999999999999974E-07 
    9.9999999999999995E-07 
    9.9999999999999995E-07 
    9.9999999999999995E-07 
    9.9999999999999995E-07 
    9.9999999999999995E-07 
    9.9999999999999995E-07 
    9.9999999999999995E-07 
    9.9999999999999995E-07 
    1.0000000000121062E-06 
    1.0000497353295641E-06 
    1.0003311786430676E-06 
    1.0001182248119230E-06 
    1.0000000121969449E-06 
    1.0000000000000074E-06 
    9.9999999999999995E-07 
    9.9999999999999995E-07 
    9.9999999999999995E-07 
    9.9999999999999995E-07 
    9.9999999999999995E-07 
    9.9999999999999995E-07 
    9.9999999999999995E-07 
    9.9999999999999995E-07 
    9.9999999999999995E-07 
    9.9999999999999995E-07 
    9.9999999999999995E-07 
    1.0000000000000002E-06 
    1.0000000000305118E-06 
    1.0000000000000002E-06 
    1.0000000000000002E-06 
    9.9999999999999995E-07 
    9.9999999999999995E-07 
    9.9999999999999995E-07 
    9.9999999999999995E-07 
    9.9999999999999995E-07 
    9.9999999999999995E-07 
    9.9999999999999995E-07 
    9.9999999999999995E-07 
    9.9999999999999995E-07 
    9.9999999999999995E-07 
    9.9999999999999995E-07 
    9.9999999999999995E-07 
    9.9999999999999995E-07 
    9.9999999999999995E-07 
    9.9999999999999995E-07 
    9.9999999999999995E-07 
    9.9999999999999995E-07 
    9.9999999999999995E-07 
    9.9999999999999995E-07 
    9.9999999999999995E-07 
    9.9999999999999995E-07 
    9.9999999999999995E-07 
    9.9999999999999995E-07 
    9.9999999999999995E-07 
    9.9999999999999995E-07 
    9.9999999999999995E-07 
    1.0000002296144737E-06 
