# vtk DataFile Version 2.0
Pressure Field Data 
ASCII 
DATASET UNSTRUCTURED_GRID 

POINTS 289 double 

    0.0000000000000000E+00     0.0000000000000000E+00     0.0000000000000000E+00 
    1.0000000000000000E+00     0.0000000000000000E+00     0.0000000000000000E+00 
    1.0000000000000000E+00     1.0000000000000000E+00     0.0000000000000000E+00 
    0.0000000000000000E+00     1.0000000000000000E+00     0.0000000000000000E+00 
    6.2499999999872928E-02     0.0000000000000000E+00     0.0000000000000000E+00 
    1.2499999999977310E-01     0.0000000000000000E+00     0.0000000000000000E+00 
    1.8749999999959341E-01     0.0000000000000000E+00     0.0000000000000000E+00 
    2.4999999999941089E-01     0.0000000000000000E+00     0.0000000000000000E+00 
    3.1249999999922851E-01     0.0000000000000000E+00     0.0000000000000000E+00 
    3.7499999999904610E-01     0.0000000000000000E+00     0.0000000000000000E+00 
    4.3749999999886358E-01     0.0000000000000000E+00     0.0000000000000000E+00 
    4.9999999999869210E-01     0.0000000000000000E+00     0.0000000000000000E+00 
    5.6249999999884603E-01     0.0000000000000000E+00     0.0000000000000000E+00 
    6.2499999999901090E-01     0.0000000000000000E+00     0.0000000000000000E+00 
    6.8749999999917577E-01     0.0000000000000000E+00     0.0000000000000000E+00 
    7.4999999999934064E-01     0.0000000000000000E+00     0.0000000000000000E+00 
    8.1249999999950551E-01     0.0000000000000000E+00     0.0000000000000000E+00 
    8.7499999999967026E-01     0.0000000000000000E+00     0.0000000000000000E+00 
    9.3749999999983513E-01     0.0000000000000000E+00     0.0000000000000000E+00 
    1.0000000000000000E+00     6.2499999999872928E-02     0.0000000000000000E+00 
    1.0000000000000000E+00     1.2499999999977310E-01     0.0000000000000000E+00 
    1.0000000000000000E+00     1.8749999999959341E-01     0.0000000000000000E+00 
    1.0000000000000000E+00     2.4999999999941089E-01     0.0000000000000000E+00 
    1.0000000000000000E+00     3.1249999999922851E-01     0.0000000000000000E+00 
    1.0000000000000000E+00     3.7499999999904610E-01     0.0000000000000000E+00 
    1.0000000000000000E+00     4.3749999999886358E-01     0.0000000000000000E+00 
    1.0000000000000000E+00     4.9999999999869210E-01     0.0000000000000000E+00 
    1.0000000000000000E+00     5.6249999999884603E-01     0.0000000000000000E+00 
    1.0000000000000000E+00     6.2499999999901090E-01     0.0000000000000000E+00 
    1.0000000000000000E+00     6.8749999999917577E-01     0.0000000000000000E+00 
    1.0000000000000000E+00     7.4999999999934064E-01     0.0000000000000000E+00 
    1.0000000000000000E+00     8.1249999999950551E-01     0.0000000000000000E+00 
    1.0000000000000000E+00     8.7499999999967026E-01     0.0000000000000000E+00 
    1.0000000000000000E+00     9.3749999999983513E-01     0.0000000000000000E+00 
    9.3749999999973976E-01     1.0000000000000000E+00     0.0000000000000000E+00 
    8.7499999999950118E-01     1.0000000000000000E+00     0.0000000000000000E+00 
    8.1249999999991318E-01     1.0000000000000000E+00     0.0000000000000000E+00 
    7.5000000000034706E-01     1.0000000000000000E+00     0.0000000000000000E+00 
    6.8750000000078049E-01     1.0000000000000000E+00     0.0000000000000000E+00 
    6.2500000000121403E-01     1.0000000000000000E+00     0.0000000000000000E+00 
    5.6250000000164757E-01     1.0000000000000000E+00     0.0000000000000000E+00 
    5.0000000000205946E-01     1.0000000000000000E+00     0.0000000000000000E+00 
    4.3750000000182099E-01     1.0000000000000000E+00     0.0000000000000000E+00 
    3.7500000000156092E-01     1.0000000000000000E+00     0.0000000000000000E+00 
    3.1250000000130068E-01     1.0000000000000000E+00     0.0000000000000000E+00 
    2.5000000000104050E-01     1.0000000000000000E+00     0.0000000000000000E+00 
    1.8750000000078040E-01     1.0000000000000000E+00     0.0000000000000000E+00 
    1.2500000000052031E-01     1.0000000000000000E+00     0.0000000000000000E+00 
    6.2500000000260125E-02     1.0000000000000000E+00     0.0000000000000000E+00 
    0.0000000000000000E+00     9.3749999999973976E-01     0.0000000000000000E+00 
    0.0000000000000000E+00     8.7499999999950118E-01     0.0000000000000000E+00 
    0.0000000000000000E+00     8.1249999999991318E-01     0.0000000000000000E+00 
    0.0000000000000000E+00     7.5000000000034706E-01     0.0000000000000000E+00 
    0.0000000000000000E+00     6.8750000000078049E-01     0.0000000000000000E+00 
    0.0000000000000000E+00     6.2500000000121403E-01     0.0000000000000000E+00 
    0.0000000000000000E+00     5.6250000000164757E-01     0.0000000000000000E+00 
    0.0000000000000000E+00     5.0000000000205946E-01     0.0000000000000000E+00 
    0.0000000000000000E+00     4.3750000000182099E-01     0.0000000000000000E+00 
    0.0000000000000000E+00     3.7500000000156092E-01     0.0000000000000000E+00 
    0.0000000000000000E+00     3.1250000000130068E-01     0.0000000000000000E+00 
    0.0000000000000000E+00     2.5000000000104050E-01     0.0000000000000000E+00 
    0.0000000000000000E+00     1.8750000000078040E-01     0.0000000000000000E+00 
    0.0000000000000000E+00     1.2500000000052031E-01     0.0000000000000000E+00 
    0.0000000000000000E+00     6.2500000000260125E-02     0.0000000000000000E+00 
    6.2499999999897131E-02     6.2500000000235922E-02     0.0000000000000000E+00 
    6.2499999999921327E-02     1.2500000000047351E-01     0.0000000000000000E+00 
    6.2499999999945530E-02     1.8750000000070621E-01     0.0000000000000000E+00 
    6.2499999999969733E-02     2.5000000000093858E-01     0.0000000000000000E+00 
    6.2499999999993928E-02     3.1250000000117117E-01     0.0000000000000000E+00 
    6.2500000000018124E-02     3.7500000000140382E-01     0.0000000000000000E+00 
    6.2500000000042327E-02     4.3750000000163619E-01     0.0000000000000000E+00 
    6.2500000000066530E-02     5.0000000000184897E-01     0.0000000000000000E+00 
    6.2500000000090733E-02     5.6250000000147260E-01     0.0000000000000000E+00 
    6.2500000000114922E-02     6.2500000000107636E-01     0.0000000000000000E+00 
    6.2500000000139125E-02     6.8750000000068034E-01     0.0000000000000000E+00 
    6.2500000000163328E-02     7.5000000000028411E-01     0.0000000000000000E+00 
    6.2500000000187531E-02     8.1249999999988787E-01     0.0000000000000000E+00 
    6.2500000000211720E-02     8.7499999999951172E-01     0.0000000000000000E+00 
    6.2500000000235922E-02     9.3749999999974565E-01     0.0000000000000000E+00 
    1.2499999999981980E-01     6.2500000000211733E-02     0.0000000000000000E+00 
    1.2499999999986650E-01     1.2500000000042691E-01     0.0000000000000000E+00 
    1.2499999999991319E-01     1.8750000000063199E-01     0.0000000000000000E+00 
    1.2499999999995989E-01     2.5000000000083678E-01     0.0000000000000000E+00 
    1.2500000000000661E-01     3.1250000000104172E-01     0.0000000000000000E+00 
    1.2500000000005329E-01     3.7500000000124661E-01     0.0000000000000000E+00 
    1.2500000000010000E-01     4.3750000000145117E-01     0.0000000000000000E+00 
    1.2500000000014669E-01     5.0000000000163858E-01     0.0000000000000000E+00 
    1.2500000000019340E-01     5.6250000000129741E-01     0.0000000000000000E+00 
    1.2500000000024011E-01     6.2500000000093847E-01     0.0000000000000000E+00 
    1.2500000000028680E-01     6.8750000000057998E-01     0.0000000000000000E+00 
    1.2500000000033351E-01     7.5000000000022127E-01     0.0000000000000000E+00 
    1.2500000000038020E-01     8.1249999999986211E-01     0.0000000000000000E+00 
    1.2500000000042691E-01     8.7499999999952238E-01     0.0000000000000000E+00 
    1.2500000000047359E-01     9.3749999999975164E-01     0.0000000000000000E+00 
    1.8749999999966760E-01     6.2500000000187531E-02     0.0000000000000000E+00 
    1.8749999999974179E-01     1.2500000000038020E-01     0.0000000000000000E+00 
    1.8749999999981601E-01     1.8750000000055780E-01     0.0000000000000000E+00 
    1.8749999999989009E-01     2.5000000000073502E-01     0.0000000000000000E+00 
    1.8749999999996431E-01     3.1250000000091221E-01     0.0000000000000000E+00 
    1.8750000000003850E-01     3.7500000000108941E-01     0.0000000000000000E+00 
    1.8750000000011269E-01     4.3750000000126649E-01     0.0000000000000000E+00 
    1.8750000000018691E-01     5.0000000000142808E-01     0.0000000000000000E+00 
    1.8750000000026110E-01     5.6250000000112244E-01     0.0000000000000000E+00 
    1.8750000000033529E-01     6.2500000000080080E-01     0.0000000000000000E+00 
    1.8750000000040951E-01     6.8750000000047962E-01     0.0000000000000000E+00 
    1.8750000000048361E-01     7.5000000000015843E-01     0.0000000000000000E+00 
    1.8750000000055780E-01     8.1249999999983680E-01     0.0000000000000000E+00 
    1.8750000000063199E-01     8.7499999999953304E-01     0.0000000000000000E+00 
    1.8750000000070621E-01     9.3749999999975764E-01     0.0000000000000000E+00 
    2.4999999999951281E-01     6.2500000000163314E-02     0.0000000000000000E+00 
    2.4999999999961461E-01     1.2500000000033351E-01     0.0000000000000000E+00 
    2.4999999999971650E-01     1.8750000000048361E-01     0.0000000000000000E+00 
    2.4999999999981831E-01     2.5000000000063310E-01     0.0000000000000000E+00 
    2.4999999999992020E-01     3.1250000000078260E-01     0.0000000000000000E+00 
    2.5000000000002198E-01     3.7500000000093209E-01     0.0000000000000000E+00 
    2.5000000000012390E-01     4.3750000000108180E-01     0.0000000000000000E+00 
    2.5000000000022571E-01     5.0000000000121769E-01     0.0000000000000000E+00 
    2.5000000000032763E-01     5.6250000000094724E-01     0.0000000000000000E+00 
    2.5000000000042938E-01     6.2500000000066314E-01     0.0000000000000000E+00 
    2.5000000000053119E-01     6.8750000000037925E-01     0.0000000000000000E+00 
[...]
CELL_DATA 256 
SCALARS Pressure double 1 
LOOKUP_TABLE default 

    1.0503978134829894E+00 
    9.9414092942945598E-01 
    9.5278062101118166E-01 
    9.1153810734110174E-01 
    8.6725404629179015E-01 
    8.1979862921917723E-01 
    7.6913243090089756E-01 
    7.1404626071946464E-01 
    6.4811974992800714E-01 
    5.7419007450692483E-01 
    5.0728049540311981E-01 
    4.4755015221701022E-01 
    3.9623511083144680E-01 
    3.5662104586358068E-01 
    3.3164881060972035E-01 
    3.2163627517789445E-01 
    1.0364898911674187E+00 
    9.9602357564621768E-01 
    9.5600311113882375E-01 
    9.1521379772345968E-01 
    8.7139705095746789E-01 
    8.2434922615820483E-01 
    7.7409123297868265E-01 
    7.1961636818960750E-01 
    6.5434268417706065E-01 
    5.8050406142076305E-01 
    5.1308893343447559E-01 
    4.5241458445502214E-01 
    3.9981357911794208E-01 
    3.5861592612320825E-01 
    3.3209930300391943E-01 
    3.2118593908990078E-01 
    1.0255792735195668E+00 
    9.9547925593753106E-01 
    9.5819464428680090E-01 
    9.1825387762966471E-01 
    8.7505988207423724E-01 
    8.2851218614425037E-01 
    7.7868714381952342E-01 
    7.2471914012348593E-01 
    6.5984902248689503E-01 
    5.8616154947446353E-01 
    5.1844496264920437E-01 
    4.5671455017131612E-01 
    4.0256836964816456E-01 
    3.5948164181761572E-01 
    3.3123828410294370E-01 
    3.1956888863783933E-01 
    1.0165074529874210E+00 
    9.9348249341203521E-01 
    9.5937558782411525E-01 
    9.2067303769898645E-01 
    8.7825044342953629E-01 
    8.3229449281546974E-01 
    7.8293308414531337E-01 
    7.2936178950088815E-01 
    6.6471725112480973E-01 
    5.9127334767855533E-01 
    5.2339555533307203E-01 
    4.6053130125189540E-01 
    4.0458971823838141E-01 
    3.5925641964772415E-01 
    3.2898205192217228E-01 
    3.1655808045655948E-01 
    1.0086540078387844E+00 
    9.9058160170135978E-01 
    9.5966841085391807E-01 
    9.2251889189537706E-01 
    8.8101771794503003E-01 
    8.3573401880659204E-01 
    7.8686070722649981E-01 
    7.3354025451221394E-01 
    6.6899715752020417E-01 
    5.9596611651683395E-01 
    5.2801506998738812E-01 
    4.6396248632260018E-01 
    4.0598576545098225E-01 
    3.5799418913143544E-01 
    3.2524644415347087E-01 
    3.1192043511807727E-01 
    1.0018182723878408E+00 
    9.8723338347820133E-01 
    9.5928720493523834E-01 
    9.2388019593795900E-01 
    8.8343374318421863E-01 
    8.3888037190003784E-01 
    7.9050482110762754E-01 
    7.3720882766761897E-01 
    6.7270222912088251E-01 
    6.0039755073264289E-01 
    5.3239749741322473E-01 
    4.6712245190857038E-01 
    4.0688809853036700E-01 
    3.5577508459124230E-01 
    3.1995318569040854E-01 
    3.0540623969602743E-01 
    9.9587292473294919E-01 
    9.8376135586430247E-01 
    9.5845532813005385E-01 
    9.2486006959848799E-01 
    8.8556904144665882E-01 
    8.4178544296925728E-01 
    7.9389378896504237E-01 
    7.4031581960010329E-01 
    6.7587082444167101E-01 
    6.0475777490528515E-01 
    5.3664765251120039E-01 
    4.7013742964663346E-01 
    4.0745244644629214E-01 
    3.5271266757959452E-01 
    3.1303057666368389E-01 
    2.9671724909975439E-01 
    9.9072895040604747E-01 
    9.8039271511229364E-01 
    9.5737842569086651E-01 
    9.2556856143058641E-01 
    8.8749237437857986E-01 
    8.4450225741283369E-01 
    7.9699846717683243E-01 
    7.4287928453441587E-01 
    6.7868455290780549E-01 
    6.0918414761790374E-01 
    5.4087695329148100E-01 
    4.7314533278251680E-01 
    4.0786386306299954E-01 
    3.4897006976257394E-01 
    3.0442769450119067E-01 
    2.8549600865923547E-01 
    9.8635064923265670E-01 
    9.7730436419652522E-01 
    9.5624440624638563E-01 
    9.2612484753401414E-01 
    8.8927552058563164E-01 
    8.4705804727063083E-01 
    7.9964357744649184E-01 
    7.4494286183353897E-01 
    6.8148413863804558E-01 
    6.1367506738410516E-01 
    5.4518664860641097E-01 
    4.7628835926610108E-01 
    4.0833759958733568E-01 
    3.4477808288884720E-01 
    2.9413578088946424E-01 
    2.7128838557841467E-01 
    9.8272756530411198E-01 
    9.7462552774089639E-01 
    9.5520663172915776E-01 
    9.2663605124900117E-01 
    8.9094789764632210E-01 
    8.4929605373758821E-01 
    8.0166510084511833E-01 
    7.4679564135368914E-01 
    6.8465186851452231E-01 
    6.1819761389291150E-01 
    5.4966036010355546E-01 
    4.7971316070275771E-01 
    4.0912645717699297E-01 
    3.4046739870549225E-01 
    2.8223852070743877E-01 
    2.5350741417672906E-01 
    9.7972924098101954E-01 
    9.7234923696827547E-01 
    9.5431145542899731E-01 
    9.2706494978417264E-01 
    8.9226328047073977E-01 
    8.5094942936492801E-01 
    8.0330297079700796E-01 
    7.4903579418977828E-01 
    6.8830547084368487E-01 
    6.2281595334993101E-01 
    5.5436935614404681E-01 
    4.8355472649381187E-01 
    4.1050320814653707E-01 
    3.3648242283246976E-01 
    2.6897372403514230E-01 
    2.3137433479523961E-01 
    9.7673855004286081E-01 
    9.6997598066535939E-01 
    9.5313238967278580E-01 
    9.2706017050383993E-01 
    8.9307301543499795E-01 
    8.5234024003717057E-01 
    8.0531631533085946E-01 
    7.5194510688094651E-01 
    6.9230018452111919E-01 
    6.2762523289395356E-01 
    5.5937580497927397E-01 
    4.8792554748815342E-01 
    4.1274116678292516E-01 
    3.3339684008063419E-01 
    2.5484829021741195E-01 
    2.0384117080667774E-01 
    9.7416263342712273E-01 
    9.6776338935026851E-01 
    9.5193818284269660E-01 
    9.2700895952902473E-01 
    8.9406134449158337E-01 
    8.5423219856968835E-01 
    8.0800849329788160E-01 
    7.5539279994824760E-01 
    6.9662308394050598E-01 
    6.3269105758034427E-01 
    5.6472820279643643E-01 
    4.9290588692536780E-01 
    4.1608777212067516E-01 
    3.3191504279173217E-01 
    2.4083454006236341E-01 
    1.6945998346550498E-01 
    9.7257848244054390E-01 
    9.6650021032215117E-01 
    9.5154899761530454E-01 
    9.2768220917529065E-01 
    8.9574226549664127E-01 
    8.5673187587538002E-01 
    8.1120300596710693E-01 
    7.5930178951135818E-01 
    7.0131120791304036E-01 
    6.3805796477233101E-01 
    5.7045757450838686E-01 
    4.9854027828485054E-01 
    4.2072894190507587E-01 
    3.3283055688498231E-01 
    2.2870453323994025E-01 
    1.2619123639453181E-01 
    9.7172938539050402E-01 
    9.6601042206571419E-01 
    9.5187200376017844E-01 
    9.2896860637868695E-01 
    8.9795355839317270E-01 
    8.5973347706539360E-01 
    8.1489507906614400E-01 
    7.6367609544673076E-01 
    7.0638638937307097E-01 
    6.4375464276700367E-01 
    5.7657605067643225E-01 
    5.0482627703850769E-01 
    4.2672971287403355E-01 
    3.3686558029236119E-01 
    2.2157878922552451E-01 
    7.1116922341194447E-02 
    9.7149445312167670E-01 
    9.6623665266886394E-01 
    9.5289575340238097E-01 
    9.3088482583173893E-01 
    9.0071983302053793E-01 
    8.6325069111816977E-01 
    8.1908898008325981E-01 
    7.6852255736942843E-01 
    7.1186768258275468E-01 
    6.4980166509140147E-01 
    5.8308039745062257E-01 
    5.1171562393617520E-01 
    4.3399274523227704E-01 
    3.4429843157866247E-01 
    2.2485293386520683E-01 
    0.0000000000000000E+00 

SCALARS Saturarion double 1 
LOOKUP_TABLE default 

    1.0000000000002005E+00 
    9.4206198939866237E-01 
    8.5646203397128495E-01 
    7.5131802507112111E-01 
    6.7501704723631006E-01 
    6.1921623124090130E-01 
    5.6982697740511878E-01 
    5.1424806714746774E-01 
    3.8895529486804875E-01 
    4.2437075251813519E-02 
    1.0000001846676911E-06 
    1.0000000000001262E-06 
    9.9999999999999995E-07 
    9.9999999999999995E-07 
    9.9999999999999995E-07 
    9.9999999999999995E-07 
    9.7271680870826494E-01 
    9.1893343144687856E-01 
    8.3128625335763562E-01 
    7.4181971765117238E-01 
    6.6903292427803762E-01 
    6.1316400853709130E-01 
    5.6524095871126412E-01 
    5.1041115511770108E-01 
    3.8034039917895973E-01 
    3.6086011350712405E-02 
    1.4763678377653788E-06 
    1.0000000887459822E-06 
    1.0000000000000256E-06 
    9.9999999999999995E-07 
    9.9999999999999995E-07 
    9.9999999999999995E-07 
    9.2815138929882024E-01 
    8.8253896564797996E-01 
    7.9799000432039502E-01 
    7.2333077703825233E-01 
    6.5675879117379321E-01 
    6.0224058578139483E-01 
    5.5676925017127421E-01 
    5.0329812933628604E-01 
    3.6712698899277491E-01 
    2.7470816514687704E-02 
    1.8052502572141333E-06 
    1.0000001454629208E-06 
    1.0000000000000387E-06 
    9.9999999999999995E-07 
    9.9999999999999995E-07 
    9.9999999999999995E-07 
    8.5925612661438311E-01 
    8.2470033006989962E-01 
    7.5518888197717338E-01 
    6.9394155232424104E-01 
    6.3999796963869637E-01 
    5.9266211225315490E-01 
    5.5006715754149249E-01 
    4.9763904254287861E-01 
    3.5306321695001103E-01 
    2.0895768858706702E-02 
    1.6476705317242420E-06 
    1.0000002693237298E-06 
    9.9999999999999974E-07 
    9.9999999999999995E-07 
    9.9999999999999995E-07 
    9.9999999999999995E-07 
    7.9528451964550106E-01 
    7.6774836736732344E-01 
    7.1388948935728258E-01 
    6.6285257371629458E-01 
    6.1946285971019555E-01 
    5.7975381545191584E-01 
    5.4055399711671981E-01 
    4.8876636710363508E-01 
    3.2666796242830165E-01 
    1.1672418490317148E-02 
    2.0723045386281035E-06 
    1.0000001783043205E-06 
    1.0000000000000120E-06 
    9.9999999999999995E-07 
    9.9999999999999995E-07 
    9.9999999999999995E-07 
    7.3581945682808292E-01 
    7.1613173339196146E-01 
    6.7488764535801760E-01 
    6.3243963593486696E-01 
    5.9637418174900358E-01 
    5.6303510688793257E-01 
    5.2698090339895054E-01 
    4.7335684896458269E-01 
    2.7111294454636703E-01 
    3.3175081253075450E-03 
    1.2454107985742508E-06 
    1.0000000578462561E-06 
    9.9999999999999974E-07 
    9.9999999999999995E-07 
    9.9999999999999995E-07 
    9.9999999999999995E-07 
    6.8029353577149310E-01 
    6.6772226592556916E-01 
    6.3739971644567750E-01 
    6.0247853488638847E-01 
    5.7137291943477386E-01 
    5.4325951731683442E-01 
    5.1060815601826481E-01 
    4.4693980866324995E-01 
    1.8272521466176292E-01 
    2.9294592150593511E-04 
    1.0103201755294162E-06 
    1.0000000010992531E-06 
    9.9999999999999995E-07 
    9.9999999999999995E-07 
    9.9999999999999995E-07 
    9.9999999999999995E-07 
    6.2819095759792598E-01 
    6.2205773217709748E-01 
    6.0190897916878860E-01 
    5.7356489071448602E-01 
    5.4591613188406496E-01 
    5.2137559265610767E-01 
    4.8912525936620754E-01 
    3.9631865221682289E-01 
    8.0529781535360945E-02 
    1.1540938610346386E-04 
    1.0033064219469243E-06 
    1.0000000000000019E-06 
    9.9999999999999995E-07 
    9.9999999999999995E-07 
    9.9999999999999995E-07 
    9.9999999999999995E-07 
    5.8154300022530203E-01 
    5.8025880991315693E-01 
    5.6756307289088448E-01 
    5.4525293476391412E-01 
    5.2171626389350834E-01 
    4.9684344466786323E-01 
    4.5218520673436302E-01 
    2.6614931948038190E-01 
    9.2983800063401612E-03 
    4.8069801046468855E-06 
    1.0000019677780510E-06 
    1.0000000000000031E-06 
    9.9999999999999995E-07 
    9.9999999999999995E-07 
    9.9999999999999995E-07 
    9.9999999999999995E-07 
    5.4063507713640213E-01 
    5.4196540469866594E-01 
    5.3310245381185306E-01 
    5.1667355513714863E-01 
    4.9357606932574721E-01 
    4.5417082772895245E-01 
    3.3387317136185896E-01 
    6.6101615568695621E-02 
    2.2827972690388508E-04 
    1.0085274043318900E-06 
    1.0000000000002922E-06 
    9.9999999999999995E-07 
    9.9999999999999995E-07 
    9.9999999999999995E-07 
    9.9999999999999995E-07 
    9.9999999999999995E-07 
    4.8352395775196283E-01 
    4.8869742070411865E-01 
    4.8558985263686333E-01 
    4.6924712896133958E-01 
    4.1567608448080356E-01 
    2.7905894278548110E-01 
    7.2895114615090628E-02 
    4.0962091321750571E-04 
    1.0307174083722913E-06 
    1.0000000018471213E-06 
    9.9999999999999995E-07 
    9.9999999999999995E-07 
    9.9999999999999995E-07 
    9.9999999999999995E-07 
    9.9999999999999995E-07 
    9.9999999999999995E-07 
    2.6275369039103197E-01 
    3.2678774543097205E-01 
    3.2460495561659525E-01 
    2.4751431842048088E-01 
    1.2125736372093711E-01 
    1.2325993958284466E-02 
    1.4949299412140210E-04 
    1.0177391317568519E-06 
    1.0000000067835139E-06 
    1.0000000000000006E-06 
    9.9999999999999995E-07 
    9.9999999999999995E-07 
    9.9999999999999995E-07 
    9.9999999999999995E-07 
    9.9999999999999995E-07 
    9.9999999999999995E-07 
    9.8250435792126135E-04 
    1.1768661125651626E-02 
    9.6700164415282983E-03 
    1.3644115459494543E-03 
    1.4307712192466164E-04 
    4.5396143742049891E-06 
    1.0015852992004792E-06 
    1.0000000007996346E-06 
    9.9999999999999995E-07 
    9.9999999999999995E-07 
    9.9999999999999995E-07 
    9.9999999999999995E-07 
    9.9999999999999995E-07 
    9.9999999999999995E-07 
    9.9999999999999995E-07 
    9.9999999999999995E-07 
    1.0000004125633775E-06 
    1.7861448147281380E-06 
    1.4516719585987017E-06 
    1.0438958919772396E-06 
    1.0045417215927279E-06 
    1.0000007571006767E-06 
    1.0000000000002799E-06 
    9.9999999999999995E-07 
    9.9999999999999995E-07 
    9.9999999999999995E-07 
    9.9999999999999995E-07 
    9.9999999999999995E-07 
    9.9999999999999995E-07 
    9.9999999999999995E-07 
    9.9999999999999995E-07 
    9.9999999999999995E-07 
    1.0000000000000415E-06 
    1.0000000511934490E-06 
    1.0000000689358676E-06 
    1.0000000052202403E-06 
    1.0000000000000798E-06 
    1.0000000000000002E-06 
    9.9999999999999995E-07 
    9.9999999999999995E-07 
    9.9999999999999995E-07 
    9.9999999999999995E-07 
    9.9999999999999995E-07 
    9.9999999999999995E-07 
    9.9999999999999995E-07 
    9.9999999999999995E-07 
    9.9999999999999995E-07 
    9.9999999999999995E-07 
    9.9999999999999995E-07 
    1.0000000000000012E-06 
    9.9999999999999995E-07 
    9.9999999999999995E-07 
    9.9999999999999995E-07 
    9.9999999999999995E-07 
    9.9999999999999995E-07 
    9.9999999999999995E-07 
    9.9999999999999995E-07 
    9.9999999999999995E-07 
    9.9999999999999995E-07 
    9.9999999999999995E-07 
    9.9999999999999995E-07 
    9.9999999999999995E-07 
    9.9999999999999995E-07 
    1.0000002688986417E-06 
