# vtk DataFile Version 2.0
Pressure Field Data 
ASCII 
DATASET UNSTRUCTURED_GRID 

POINTS 289 double 

    0.0000000000000000E+00     0.0000000000000000E+00     0.0000000000000000E+00 
    1.0000000000000000E+00     0.0000000000000000E+00     0.0000000000000000E+00 
    1.0000000000000000E+00     1.0000000000000000E+00     0.0000000000000000E+00 
    0.0000000000000000E+00     1.0000000000000000E+00     0.0000000000000000E+00 
    6.2499999999872928E-02     0.0000000000000000E+00     0.0000000000000000E+00 
    1.2499999999977310E-01     0.0000000000000000E+00     0.0000000000000000E+00 
    1.8749999999959341E-01     0.0000000000000000E+00     0.0000000000000000E+00 
    2.4999999999941089E-01     0.0000000000000000E+00     0.0000000000000000E+00 
    3.1249999999922851E-01     0.0000000000000000E+00     0.0000000000000000E+00 
    3.7499999999904610E-01     0.0000000000000000E+00     0.0000000000000000E+00 
    4.3749999999886358E-01     0.0000000000000000E+00     0.0000000000000000E+00 
    4.9999999999869210E-01     0.0000000000000000E+00     0.0000000000000000E+00 
    5.6249999999884603E-01     0.0000000000000000E+00     0.0000000000000000E+00 
    6.2499999999901090E-01     0.0000000000000000E+00     0.0000000000000000E+00 
    6.8749999999917577E-01     0.0000000000000000E+00     0.0000000000000000E+00 
    7.4999999999934064E-01     0.0000000000000000E+00     0.0000000000000000E+00 
    8.1249999999950551E-01     0.0000000000000000E+00     0.0000000000000000E+00 
    8.7499999999967026E-01     0.0000000000000000E+00     0.0000000000000000E+00 
    9.3749999999983513E-01     0.0000000000000000E+00     0.0000000000000000E+00 
    1.0000000000000000E+00     6.2499999999872928E-02     0.0000000000000000E+00 
    1.0000000000000000E+00     1.2499999999977310E-01     0.0000000000000000E+00 
    1.0000000000000000E+00     1.8749999999959341E-01     0.0000000000000000E+00 
    1.0000000000000000E+00     2.4999999999941089E-01     0.0000000000000000E+00 
    1.0000000000000000E+00     3.1249999999922851E-01     0.0000000000000000E+00 
    1.0000000000000000E+00     3.7499999999904610E-01     0.0000000000000000E+00 
    1.0000000000000000E+00     4.3749999999886358E-01     0.0000000000000000E+00 
    1.0000000000000000E+00     4.9999999999869210E-01     0.0000000000000000E+00 
    1.0000000000000000E+00     5.6249999999884603E-01     0.0000000000000000E+00 
    1.0000000000000000E+00     6.2499999999901090E-01     0.0000000000000000E+00 
    1.0000000000000000E+00     6.8749999999917577E-01     0.0000000000000000E+00 
    1.0000000000000000E+00     7.4999999999934064E-01     0.0000000000000000E+00 
    1.0000000000000000E+00     8.1249999999950551E-01     0.0000000000000000E+00 
    1.0000000000000000E+00     8.7499999999967026E-01     0.0000000000000000E+00 
    1.0000000000000000E+00     9.3749999999983513E-01     0.0000000000000000E+00 
    9.3749999999973976E-01     1.0000000000000000E+00     0.0000000000000000E+00 
    8.7499999999950118E-01     1.0000000000000000E+00     0.0000000000000000E+00 
    8.1249999999991318E-01     1.0000000000000000E+00     0.0000000000000000E+00 
    7.5000000000034706E-01     1.0000000000000000E+00     0.0000000000000000E+00 
    6.8750000000078049E-01     1.0000000000000000E+00     0.0000000000000000E+00 
    6.2500000000121403E-01     1.0000000000000000E+00     0.0000000000000000E+00 
    5.6250000000164757E-01     1.0000000000000000E+00     0.0000000000000000E+00 
    5.0000000000205946E-01     1.0000000000000000E+00     0.0000000000000000E+00 
    4.3750000000182099E-01     1.0000000000000000E+00     0.0000000000000000E+00 
    3.7500000000156092E-01     1.0000000000000000E+00     0.0000000000000000E+00 
    3.1250000000130068E-01     1.0000000000000000E+00     0.0000000000000000E+00 
    2.5000000000104050E-01     1.0000000000000000E+00     0.0000000000000000E+00 
    1.8750000000078040E-01     1.0000000000000000E+00     0.0000000000000000E+00 
    1.2500000000052031E-01     1.0000000000000000E+00     0.0000000000000000E+00 
    6.2500000000260125E-02     1.0000000000000000E+00     0.0000000000000000E+00 
    0.0000000000000000E+00     9.3749999999973976E-01     0.0000000000000000E+00 
    0.0000000000000000E+00     8.7499999999950118E-01     0.0000000000000000E+00 
    0.0000000000000000E+00     8.1249999999991318E-01     0.0000000000000000E+00 
    0.0000000000000000E+00     7.5000000000034706E-01     0.0000000000000000E+00 
    0.0000000000000000E+00     6.8750000000078049E-01     0.0000000000000000E+00 
    0.0000000000000000E+00     6.2500000000121403E-01     0.0000000000000000E+00 
    0.0000000000000000E+00     5.6250000000164757E-01     0.0000000000000000E+00 
    0.0000000000000000E+00     5.0000000000205946E-01     0.0000000000000000E+00 
    0.0000000000000000E+00     4.3750000000182099E-01     0.0000000000000000E+00 
    0.0000000000000000E+00     3.7500000000156092E-01     0.0000000000000000E+00 
    0.0000000000000000E+00     3.1250000000130068E-01     0.0000000000000000E+00 
    0.0000000000000000E+00     2.5000000000104050E-01     0.0000000000000000E+00 
    0.0000000000000000E+00     1.8750000000078040E-01     0.0000000000000000E+00 
    0.0000000000000000E+00     1.2500000000052031E-01     0.0000000000000000E+00 
    0.0000000000000000E+00     6.2500000000260125E-02     0.0000000000000000E+00 
    6.2499999999897131E-02     6.2500000000235922E-02     0.0000000000000000E+00 
    6.2499999999921327E-02     1.2500000000047351E-01     0.0000000000000000E+00 
    6.2499999999945530E-02     1.8750000000070621E-01     0.0000000000000000E+00 
    6.2499999999969733E-02     2.5000000000093858E-01     0.0000000000000000E+00 
    6.2499999999993928E-02     3.1250000000117117E-01     0.0000000000000000E+00 
    6.2500000000018124E-02     3.7500000000140382E-01     0.0000000000000000E+00 
    6.2500000000042327E-02     4.3750000000163619E-01     0.0000000000000000E+00 
    6.2500000000066530E-02     5.0000000000184897E-01     0.0000000000000000E+00 
    6.2500000000090733E-02     5.6250000000147260E-01     0.0000000000000000E+00 
    6.2500000000114922E-02     6.2500000000107636E-01     0.0000000000000000E+00 
    6.2500000000139125E-02     6.8750000000068034E-01     0.0000000000000000E+00 
    6.2500000000163328E-02     7.5000000000028411E-01     0.0000000000000000E+00 
    6.2500000000187531E-02     8.1249999999988787E-01     0.0000000000000000E+00 
    6.2500000000211720E-02     8.7499999999951172E-01     0.0000000000000000E+00 
    6.2500000000235922E-02     9.3749999999974565E-01     0.0000000000000000E+00 
    1.2499999999981980E-01     6.2500000000211733E-02     0.0000000000000000E+00 
    1.2499999999986650E-01     1.2500000000042691E-01     0.0000000000000000E+00 
    1.2499999999991319E-01     1.8750000000063199E-01     0.0000000000000000E+00 
    1.2499999999995989E-01     2.5000000000083678E-01     0.0000000000000000E+00 
    1.2500000000000661E-01     3.1250000000104172E-01     0.0000000000000000E+00 
    1.2500000000005329E-01     3.7500000000124661E-01     0.0000000000000000E+00 
    1.2500000000010000E-01     4.3750000000145117E-01     0.0000000000000000E+00 
    1.2500000000014669E-01     5.0000000000163858E-01     0.0000000000000000E+00 
    1.2500000000019340E-01     5.6250000000129741E-01     0.0000000000000000E+00 
    1.2500000000024011E-01     6.2500000000093847E-01     0.0000000000000000E+00 
    1.2500000000028680E-01     6.8750000000057998E-01     0.0000000000000000E+00 
    1.2500000000033351E-01     7.5000000000022127E-01     0.0000000000000000E+00 
    1.2500000000038020E-01     8.1249999999986211E-01     0.0000000000000000E+00 
    1.2500000000042691E-01     8.7499999999952238E-01     0.0000000000000000E+00 
    1.2500000000047359E-01     9.3749999999975164E-01     0.0000000000000000E+00 
    1.8749999999966760E-01     6.2500000000187531E-02     0.0000000000000000E+00 
    1.8749999999974179E-01     1.2500000000038020E-01     0.0000000000000000E+00 
    1.8749999999981601E-01     1.8750000000055780E-01     0.0000000000000000E+00 
    1.8749999999989009E-01     2.5000000000073502E-01     0.0000000000000000E+00 
    1.8749999999996431E-01     3.1250000000091221E-01     0.0000000000000000E+00 
    1.8750000000003850E-01     3.7500000000108941E-01     0.0000000000000000E+00 
    1.8750000000011269E-01     4.3750000000126649E-01     0.0000000000000000E+00 
    1.8750000000018691E-01     5.0000000000142808E-01     0.0000000000000000E+00 
    1.8750000000026110E-01     5.6250000000112244E-01     0.0000000000000000E+00 
    1.8750000000033529E-01     6.2500000000080080E-01     0.0000000000000000E+00 
    1.8750000000040951E-01     6.8750000000047962E-01     0.0000000000000000E+00 
    1.8750000000048361E-01     7.5000000000015843E-01     0.0000000000000000E+00 
    1.8750000000055780E-01     8.1249999999983680E-01     0.0000000000000000E+00 
    1.8750000000063199E-01     8.7499999999953304E-01     0.0000000000000000E+00 
    1.8750000000070621E-01     9.3749999999975764E-01     0.0000000000000000E+00 
    2.4999999999951281E-01     6.2500000000163314E-02     0.0000000000000000E+00 
    2.4999999999961461E-01     1.2500000000033351E-01     0.0000000000000000E+00 
    2.4999999999971650E-01     1.8750000000048361E-01     0.0000000000000000E+00 
    2.4999999999981831E-01     2.5000000000063310E-01     0.0000000000000000E+00 
    2.4999999999992020E-01     3.1250000000078260E-01     0.0000000000000000E+00 
    2.5000000000002198E-01     3.7500000000093209E-01     0.0000000000000000E+00 
    2.5000000000012390E-01     4.3750000000108180E-01     0.0000000000000000E+00 
    2.5000000000022571E-01     5.0000000000121769E-01     0.0000000000000000E+00 
    2.5000000000032763E-01     5.6250000000094724E-01     0.0000000000000000E+00 
    2.5000000000042938E-01     6.2500000000066314E-01     0.0000000000000000E+00 
    2.5000000000053119E-01     6.8750000000037925E-01     0.0000000000000000E+00 
[...]
CELL_DATA 256 
SCALARS Pressure double 1 
LOOKUP_TABLE default 

    7.0601181839692739E-01 
    6.5592979944035223E-01 
    6.2376899482062498E-01 
    5.9452749999564414E-01 
    5.6480868731313094E-01 
    5.3378242040643453E-01 
    5.0120408516490367E-01 
    4.6713592909942658E-01 
    4.3186788583521973E-01 
    3.9595487700428944E-01 
    3.6033702314005683E-01 
    3.2650208933921987E-01 
    2.9658262413218373E-01 
    2.7317092012047400E-01 
    2.5820492094939801E-01 
    2.5092374245914895E-01 
    6.9203458015383079E-01 
    6.5723481605427125E-01 
    6.2618918102425558E-01 
    5.9718589672833255E-01 
    5.6766430179262395E-01 
    5.3682258925450221E-01 
    5.0441149348250780E-01 
    4.7047363618039473E-01 
    4.3526964770084381E-01 
    3.9931137726932414E-01 
    3.6347832682186387E-01 
    3.2918841766178214E-01 
    2.9853279029002155E-01 
    2.7417028184840475E-01 
    2.5831915163258140E-01 
    2.5048137238787144E-01 
    6.8130756845352347E-01 
    6.5639822499830724E-01 
    6.2785404466085271E-01 
    5.9950909339399971E-01 
    5.7032150200898180E-01 
    5.3971670731930321E-01 
    5.0749265750368866E-01 
    4.7368663543712491E-01 
    4.3852924873012178E-01 
    4.0248106744142859E-01 
    3.6634655503349672E-01 
    3.3145718267367563E-01 
    2.9985870323208058E-01 
    2.7431116693684560E-01 
    2.5741772721759937E-01 
    2.4906264171917408E-01 
    6.7287542515452303E-01 
    6.5447828332512281E-01 
    6.2880446215670505E-01 
    6.0147522891060567E-01 
    5.7277432676516205E-01 
    5.4247064524514266E-01 
    5.1045837791093363E-01 
    4.7678872839979508E-01 
    4.4166681759121990E-01 
    4.0549625533472994E-01 
    3.6899197032100461E-01 
    3.3337640647717914E-01 
    3.0062972613130567E-01 
    2.7362674649643337E-01 
    2.5545169327935585E-01 
    2.4652263575623498E-01 
    6.6609440673604103E-01 
    6.5206554141217699E-01 
    6.2917299701113694E-01 
    6.0309244459734757E-01 
    5.7501963531648814E-01 
    5.4508878666288918E-01 
    5.1332054333669042E-01 
    4.7979748671879741E-01 
    4.4470700784411410E-01 
    4.0839367876105126E-01 
    3.7146970882863806E-01 
    3.3502156101595265E-01 
    3.0092658860742866E-01 
    2.7215981424974178E-01 
    2.5237054744051601E-01 
    2.4271006522134547E-01 
    6.6056672241964831E-01 
    6.4950521627872304E-01 
    6.2911068479792798E-01 
    6.0439387890018903E-01 
    5.7706223944767210E-01 
    5.4757489820009020E-01 
    5.1608941759659932E-01 
    4.8273142084711945E-01 
    4.4767766251376928E-01 
    4.1121412299789301E-01 
    3.7383981885527329E-01 
    3.3647587533060369E-01 
    3.0084359133456801E-01 
    2.6996861673405292E-01 
    2.4812193781544925E-01 
    2.3744547991070450E-01 
    6.5603246875388599E-01 
    6.4700849103886182E-01 
    6.2876716945655797E-01 
    6.0543496275076569E-01 
    5.7892243624462958E-01 
    5.4993913651515292E-01 
    5.1877533712524582E-01 
    4.8560734064869471E-01 
    4.5060619335801388E-01 
    4.1400023888391541E-01 
    3.7616674545742423E-01 
    3.3783166724215419E-01 
    3.0049227027935554E-01 
    2.6713504574496316E-01 
    2.4266120303317615E-01 
    2.3052338375538650E-01 
    6.5230705301379754E-01 
    6.4470089471975345E-01 
    6.2827439612328173E-01 
    6.0628194624590293E-01 
    5.8063136055998255E-01 
    5.5219840969365885E-01 
    5.2139123022516443E-01 
    4.8844034804713699E-01 
    4.5351681791712994E-01 
    4.1679204845642581E-01 
    3.7851618185206187E-01 
    3.3919069878830804E-01 
    3.0000688978222873E-01 
    2.6377557013629077E-01 
    2.3596432844537360E-01 
    2.2170514662450430E-01 
    6.4925880432223271E-01 
    6.4265421626315766E-01 
    6.2774029067543358E-01 
    6.0700310610184272E-01 
    5.8222505406432534E-01 
    5.5437330837835019E-01 
    5.2395161039450722E-01 
    4.9124440514571938E-01 
    4.5642827726755408E-01 
    4.1962227708403965E-01 
    3.8094877459138121E-01 
    3.4066000614688785E-01 
    2.9954775423132202E-01 
    2.6005270538692205E-01 
    2.2803286726638522E-01 
    2.1068607568138270E-01 
    6.4679147930480385E-01 
    6.4090517630983412E-01 
    6.2724643375788003E-01 
    6.0766140395921586E-01 
    5.8374232087657396E-01 
    5.5648751258856066E-01 
    5.2647262936922834E-01 
    4.9403313879920768E-01 
    4.5935607534894130E-01 
    4.2251621457986893E-01 
    3.8351582024032210E-01 
    3.4234489753846908E-01 
    2.9929940916403369E-01 
    2.5619106369566608E-01 
    2.1891553663186636E-01 
    1.9705772613166989E-01 
    6.4483301774295598E-01 
    6.3947208903331920E-01 
    6.2685760300491866E-01 
    6.0831630499066347E-01 
    5.8522546131960018E-01 
    5.5856965146276438E-01 
    5.2897425398003539E-01 
    4.9682232281855354E-01 
    4.6231615963526801E-01 
    4.2549566780834430E-01 
    3.8625990091749113E-01 
    3.4434493154875012E-01 
    2.9946896084121194E-01 
    2.5249669704641009E-01 
    2.0875692610067581E-01 
    1.8028683034452611E-01 
    6.4332542029997375E-01 
    6.3836517948559413E-01 
    6.2662829259407271E-01 
    6.0902446919089137E-01 
    5.8671982768153408E-01 
    5.6065409226264973E-01 
    5.3148263012005481E-01 
    4.9963208486446548E-01 
    4.6532758263900831E-01 
    4.2858194047299025E-01 
    3.8921568543544177E-01 
    3.4674826882207577E-01 
    3.0028115180909437E-01 
    2.4937210898673737E-01 
    1.9784993174666962E-01 
    1.5962311441845611E-01 
    6.4223324283102601E-01 
    6.3759998017784014E-01 
    6.2661030135339768E-01 
    6.0984339520240416E-01 
    5.8827463875350572E-01 
    5.6278038655680851E-01 
    5.3402855788368719E-01 
    5.0248585142285873E-01 
    4.6840935363958086E-01 
    4.3179221751908708E-01 
    3.9240516136158377E-01 
    3.4961869577605714E-01 
    3.0195480810818459E-01 
    2.4735104075889466E-01 
    1.8681297533162930E-01 
    1.3397641254864889E-01 
    6.4152398336027128E-01 
    6.3718827716693527E-01 
    6.2684829417044574E-01 
    6.1082666482361936E-01 
    5.8993769209849667E-01 
    5.6498505594822968E-01 
    5.3663799523816536E-01 
    5.0539570966915914E-01 
    4.7155162746097018E-01 
    4.3509754205451401E-01 
    3.9578544933249715E-01 
    3.5291949601331624E-01 
    3.0458758107523182E-01 
    2.4698569383363536E-01 
    1.7678104720374518E-01 
    1.0169896465752427E-01 
    6.4103760165148949E-01 
    6.3701601972022792E-01 
    6.2728488115578718E-01 
    6.1194026903947440E-01 
    5.9166686565709770E-01 
    5.6721938143764217E-01 
    5.3926148678349006E-01 
    5.0831191406819398E-01 
    4.7469249888085741E-01 
    4.3842423156507371E-01 
    3.9926639288490068E-01 
    3.5650982354807131E-01 
    3.0803916234983708E-01 
    2.4855720370663920E-01 
    1.6938004259626319E-01 
    5.9700785005664676E-02 
    6.4086358546720112E-01 
    6.3717209308955958E-01 
    6.2800480211163512E-01 
    6.1325775848832831E-01 
    5.9351906797167542E-01 
    5.6952653528123298E-01 
    5.4194608588932613E-01 
    5.1129945891971595E-01 
    4.7793251935604275E-01 
    4.4190345627797106E-01 
    4.0299609604856007E-01 
    3.6053422770137561E-01 
    3.1253250091390111E-01 
    2.5299626282598042E-01 
    1.6876141403787676E-01 
    0.0000000000000000E+00 

SCALARS Saturarion double 1 
LOOKUP_TABLE default 

    1.0000000000000007E+00 
    9.7578014016165449E-01 
    9.3172513132025037E-01 
    8.7356006652037521E-01 
    8.2470733809778296E-01 
    7.8191868604962866E-01 
    7.4494364454186179E-01 
    7.1302796609171137E-01 
    6.8499159635257734E-01 
    6.5960497521607719E-01 
    6.3563452211794091E-01 
    6.1166629704843134E-01 
    5.8562853586048202E-01 
    5.5453285606599323E-01 
    4.9444485141887540E-01 
    1.9291752066192286E-01 
    9.9081472157763861E-01 
    9.6787386630588412E-01 
    9.2171969614078753E-01 
    8.6636909757433367E-01 
    8.1934144647086415E-01 
    7.7826186360255867E-01 
    7.4236406208273520E-01 
    7.1096512737941264E-01 
    6.8324219970645195E-01 
    6.5816813486719983E-01 
    6.3475493359620594E-01 
    6.1169992055858224E-01 
    5.8681483556897929E-01 
    5.5667999271982482E-01 
    4.9983696764525765E-01 
    2.2517395851362212E-01 
    9.7632506122657503E-01 
    9.5341832337196064E-01 
    9.0713092072045309E-01 
    8.5368082577709403E-01 
    8.0881661233237190E-01 
    7.7057697805447989E-01 
    7.3694034466990055E-01 
    7.0672861763144568E-01 
    6.7950437059769520E-01 
    6.5475668345043603E-01 
    6.3193414259387870E-01 
    6.1001931589369751E-01 
    5.8704083132153440E-01 
    5.5917431527252259E-01 
    5.0700545506150352E-01 
    2.5510882203859442E-01 
    9.5102817433040088E-01 
    9.3177304544022321E-01 
    8.8938527481100860E-01 
    8.4007977846193149E-01 
    7.9606772802086478E-01 
    7.5928675605428730E-01 
    7.2764954942968585E-01 
    6.9951522149318368E-01 
    6.7386696174277194E-01 
    6.5040638071009216E-01 
    6.2860021122355458E-01 
    6.0780294498239151E-01 
    5.8653217722261741E-01 
    5.6124093836012834E-01 
    5.1406064959014208E-01 
    2.8407536998141053E-01 
    9.2023173690727678E-01 
    9.0337245801457067E-01 
    8.6574299306189484E-01 
    8.2137244419083988E-01 
    7.7967898125304858E-01 
    7.4403731137857754E-01 
    7.1396992882017174E-01 
    6.8792054190826468E-01 
    6.6473122040606514E-01 
    6.4366627421321621E-01 
    6.2414886464146624E-01 
    6.0532790240261325E-01 
    5.8581074443441872E-01 
    5.6276348131592335E-01 
    5.2067762694072905E-01 
    3.0714067633305309E-01 
    8.8612093350117160E-01 
    8.7213848705060348E-01 
    8.3951959501092277E-01 
    7.9961311903930266E-01 
    7.6126592495280854E-01 
    7.2749012335895502E-01 
    6.9839269779165536E-01 
    6.7363546910914041E-01 
    6.5237113328311802E-01 
    6.3372021770278730E-01 
    6.1694848896511034E-01 
    6.0123499084881982E-01 
    5.8465362577533808E-01 
    5.6396081757951222E-01 
    5.2651182848640499E-01 
    3.2761197685069454E-01 
    8.4942939661172079E-01 
    8.3888425560916380E-01 
    8.1163187707685758E-01 
    7.7630656139705845E-01 
    7.4156702254615592E-01 
    7.1025619013408037E-01 
    6.8286073634597710E-01 
    6.5900048576484771E-01 
    6.3870417773060917E-01 
    6.2163649336054450E-01 
    6.0725019371473477E-01 
    5.9464618060087127E-01 
    5.8200014974138914E-01 
    5.6492537696134815E-01 
    5.3178611827837219E-01 
    3.4748930331933570E-01 
    8.0998577774153502E-01 
    8.0331439968423302E-01 
    7.8215876746565549E-01 
    7.5191085770249255E-01 
    7.2045615809544228E-01 
    6.9147254245133805E-01 
    6.6570334949001786E-01 
    6.4332025669518367E-01 
    6.2413432978351235E-01 
    6.0819849380000512E-01 
    5.9543381893374270E-01 
    5.8558828309787814E-01 
    5.7701936601382831E-01 
    5.6496711209125805E-01 
    5.3700120270287277E-01 
    3.6746378750043418E-01 
    7.6802202302588995E-01 
    7.6507612538494485E-01 
    7.4981290930796540E-01 
    7.2494934251721832E-01 
    6.9730955768137037E-01 
    6.7071396294396401E-01 
    6.4675360070006938E-01 
    6.2567479424766081E-01 
    6.0752479652305857E-01 
    5.9246719416943150E-01 
    5.8102678104512273E-01 
    5.7360063072901712E-01 
    5.6922256652613956E-01 
    5.6308672942427151E-01 
    5.4141512545802761E-01 
    3.8615716832746050E-01 
    7.2354616380931669E-01 
    7.2404874972779476E-01 
    7.1423891419656460E-01 
    6.9446294087784666E-01 
    6.7093616490861585E-01 
    6.4731541152172845E-01 
    6.2530075789756845E-01 
    6.0583860282772728E-01 
    5.8893804107876702E-01 
    5.7469778611112032E-01 
    5.6387444980798573E-01 
    5.5801960656791261E-01 
    5.5764761491995485E-01 
    5.5837571236828465E-01 
    5.4466879242595123E-01 
    4.0438207424102013E-01 
    6.7619068158075568E-01 
    6.7986542197117439E-01 
    6.7508561554043833E-01 
    6.6003194910384366E-01 
    6.4068960608733527E-01 
    6.2065824346201515E-01 
    6.0163686430910568E-01 
    5.8404641364517584E-01 
    5.6853346198222399E-01 
    5.5548688997947293E-01 
    5.4549588046546305E-01 
    5.4000776333819589E-01 
    5.4164321101470370E-01 
    5.4942929184546452E-01 
    5.4564573544441275E-01 
    4.2271714612911393E-01 
    6.2490255165483155E-01 
    6.3152478851866256E-01 
    6.3182563972823347E-01 
    6.2164052130789527E-01 
    6.0640606821866427E-01 
    5.8990669284697561E-01 
    5.7387433405274657E-01 
    5.5902348953023528E-01 
    5.4574531125180736E-01 
    5.3462774839807148E-01 
    5.2607386135360512E-01 
    5.2123299499045184E-01 
    5.2282547260057333E-01 
    5.3480129781729047E-01 
    5.4125634750621199E-01 
    4.4013050927558101E-01 
    5.7239228969057276E-01 
    5.8069244341525494E-01 
    5.8499942406805516E-01 
    5.7971866344239253E-01 
    5.6897922958625391E-01 
    5.5582856103361422E-01 
    5.4270969899756316E-01 
    5.3025856361591206E-01 
    5.1882573530468479E-01 
    5.0861852920212713E-01 
    5.0115657388393320E-01 
    4.9814807693896318E-01 
    5.0126712526831163E-01 
    5.1480104865939047E-01 
    5.3328305965856093E-01 
    4.5503149712133117E-01 
    5.0855938233677378E-01 
    5.2237548417929991E-01 
    5.3051203959638660E-01 
    5.3065226013008315E-01 
    5.2246371817443049E-01 
    5.1104935066300727E-01 
    4.9781382108945621E-01 
    4.8586068681915895E-01 
    4.7058093024667325E-01 
    4.4892692583266774E-01 
    4.3277251413423357E-01 
    4.2663682086547444E-01 
    4.3624587204847021E-01 
    4.7338720406137436E-01 
    5.1610792748074630E-01 
    4.6544535146688315E-01 
    2.4584312130544059E-01 
    3.2884219890429878E-01 
    3.7481292904965352E-01 
    3.8281291079625973E-01 
    3.6490416413457555E-01 
    3.2007667000715218E-01 
    2.7936387028205523E-01 
    2.2806622557354564E-01 
    1.9727613458910795E-01 
    1.4337133980281230E-01 
    1.0131648970295294E-01 
    9.2859173428458341E-02 
    1.3098283289203513E-01 
    2.7315458963049566E-01 
    4.5473093207145965E-01 
    4.6689312763356483E-01 
    6.1237817169485057E-05 
    7.5763534283482415E-03 
    1.7307466993603089E-02 
    1.6444185969673810E-02 
    1.4134065299056279E-02 
    2.3033214189333456E-03 
    1.4080845562934885E-03 
    4.7998653193363212E-05 
    9.9176636369339264E-05 
    1.3000865992640576E-05 
    6.1250948065437393E-06 
    8.2340850881762487E-06 
    1.4192450339943185E-04 
    7.6668837869089831E-02 
    2.8193386612819082E-01 
    4.1750066937986657E-01 
