# vtk DataFile Version 2.0
Pressure Field Data 
ASCII 
DATASET UNSTRUCTURED_GRID 

POINTS 289 double 

    0.0000000000000000E+00     0.0000000000000000E+00     0.0000000000000000E+00 
    1.0000000000000000E+00     0.0000000000000000E+00     0.0000000000000000E+00 
    1.0000000000000000E+00     1.0000000000000000E+00     0.0000000000000000E+00 
    0.0000000000000000E+00     1.0000000000000000E+00     0.0000000000000000E+00 
    6.2499999999872928E-02     0.0000000000000000E+00     0.0000000000000000E+00 
    1.2499999999977310E-01     0.0000000000000000E+00     0.0000000000000000E+00 
    1.8749999999959341E-01     0.0000000000000000E+00     0.0000000000000000E+00 
    2.4999999999941089E-01     0.0000000000000000E+00     0.0000000000000000E+00 
    3.1249999999922851E-01     0.0000000000000000E+00     0.0000000000000000E+00 
    3.7499999999904610E-01     0.0000000000000000E+00     0.0000000000000000E+00 
    4.3749999999886358E-01     0.0000000000000000E+00     0.0000000000000000E+00 
    4.9999999999869210E-01     0.0000000000000000E+00     0.0000000000000000E+00 
    5.6249999999884603E-01     0.0000000000000000E+00     0.0000000000000000E+00 
    6.2499999999901090E-01     0.0000000000000000E+00     0.0000000000000000E+00 
    6.8749999999917577E-01     0.0000000000000000E+00     0.0000000000000000E+00 
    7.4999999999934064E-01     0.0000000000000000E+00     0.0000000000000000E+00 
    8.1249999999950551E-01     0.0000000000000000E+00     0.0000000000000000E+00 
    8.7499999999967026E-01     0.0000000000000000E+00     0.0000000000000000E+00 
    9.3749999999983513E-01     0.0000000000000000E+00     0.0000000000000000E+00 
    1.0000000000000000E+00     6.2499999999872928E-02     0.0000000000000000E+00 
    1.0000000000000000E+00     1.2499999999977310E-01     0.0000000000000000E+00 
    1.0000000000000000E+00     1.8749999999959341E-01     0.0000000000000000E+00 
    1.0000000000000000E+00     2.4999999999941089E-01     0.0000000000000000E+00 
    1.0000000000000000E+00     3.1249999999922851E-01     0.0000000000000000E+00 
    1.0000000000000000E+00     3.7499999999904610E-01     0.0000000000000000E+00 
    1.0000000000000000E+00     4.3749999999886358E-01     0.0000000000000000E+00 
    1.0000000000000000E+00     4.9999999999869210E-01     0.0000000000000000E+00 
    1.0000000000000000E+00     5.6249999999884603E-01     0.0000000000000000E+00 
    1.0000000000000000E+00     6.2499999999901090E-01     0.0000000000000000E+00 
    1.0000000000000000E+00     6.8749999999917577E-01     0.0000000000000000E+00 
    1.0000000000000000E+00     7.4999999999934064E-01     0.0000000000000000E+00 
    1.0000000000000000E+00     8.1249999999950551E-01     0.0000000000000000E+00 
    1.0000000000000000E+00     8.7499999999967026E-01     0.0000000000000000E+00 
    1.0000000000000000E+00     9.3749999999983513E-01     0.0000000000000000E+00 
    9.3749999999973976E-01     1.0000000000000000E+00     0.0000000000000000E+00 
    8.7499999999950118E-01     1.0000000000000000E+00     0.0000000000000000E+00 
    8.1249999999991318E-01     1.0000000000000000E+00     0.0000000000000000E+00 
    7.5000000000034706E-01     1.0000000000000000E+00     0.0000000000000000E+00 
    6.8750000000078049E-01     1.0000000000000000E+00     0.0000000000000000E+00 
    6.2500000000121403E-01     1.0000000000000000E+00     0.0000000000000000E+00 
    5.6250000000164757E-01     1.0000000000000000E+00     0.0000000000000000E+00 
    5.0000000000205946E-01     1.0000000000000000E+00     0.0000000000000000E+00 
    4.3750000000182099E-01     1.0000000000000000E+00     0.0000000000000000E+00 
    3.7500000000156092E-01     1.0000000000000000E+00     0.0000000000000000E+00 
    3.1250000000130068E-01     1.0000000000000000E+00     0.0000000000000000E+00 
    2.5000000000104050E-01     1.0000000000000000E+00     0.0000000000000000E+00 
    1.8750000000078040E-01     1.0000000000000000E+00     0.0000000000000000E+00 
    1.2500000000052031E-01     1.0000000000000000E+00     0.0000000000000000E+00 
    6.2500000000260125E-02     1.0000000000000000E+00     0.0000000000000000E+00 
    0.0000000000000000E+00     9.3749999999973976E-01     0.0000000000000000E+00 
    0.0000000000000000E+00     8.7499999999950118E-01     0.0000000000000000E+00 
    0.0000000000000000E+00     8.1249999999991318E-01     0.0000000000000000E+00 
    0.0000000000000000E+00     7.5000000000034706E-01     0.0000000000000000E+00 
    0.0000000000000000E+00     6.8750000000078049E-01     0.0000000000000000E+00 
    0.0000000000000000E+00     6.2500000000121403E-01     0.0000000000000000E+00 
    0.0000000000000000E+00     5.6250000000164757E-01     0.0000000000000000E+00 
    0.0000000000000000E+00     5.0000000000205946E-01     0.0000000000000000E+00 
    0.0000000000000000E+00     4.3750000000182099E-01     0.0000000000000000E+00 
    0.0000000000000000E+00     3.7500000000156092E-01     0.0000000000000000E+00 
    0.0000000000000000E+00     3.1250000000130068E-01     0.0000000000000000E+00 
    0.0000000000000000E+00     2.5000000000104050E-01     0.0000000000000000E+00 
    0.0000000000000000E+00     1.8750000000078040E-01     0.0000000000000000E+00 
    0.0000000000000000E+00     1.2500000000052031E-01     0.0000000000000000E+00 
    0.0000000000000000E+00     6.2500000000260125E-02     0.0000000000000000E+00 
    6.2499999999897131E-02     6.2500000000235922E-02     0.0000000000000000E+00 
    6.2499999999921327E-02     1.2500000000047351E-01     0.0000000000000000E+00 
    6.2499999999945530E-02     1.8750000000070621E-01     0.0000000000000000E+00 
    6.2499999999969733E-02     2.5000000000093858E-01     0.0000000000000000E+00 
    6.2499999999993928E-02     3.1250000000117117E-01     0.0000000000000000E+00 
    6.2500000000018124E-02     3.7500000000140382E-01     0.0000000000000000E+00 
    6.2500000000042327E-02     4.3750000000163619E-01     0.0000000000000000E+00 
    6.2500000000066530E-02     5.0000000000184897E-01     0.0000000000000000E+00 
    6.2500000000090733E-02     5.6250000000147260E-01     0.0000000000000000E+00 
    6.2500000000114922E-02     6.2500000000107636E-01     0.0000000000000000E+00 
    6.2500000000139125E-02     6.8750000000068034E-01     0.0000000000000000E+00 
    6.2500000000163328E-02     7.5000000000028411E-01     0.0000000000000000E+00 
    6.2500000000187531E-02     8.1249999999988787E-01     0.0000000000000000E+00 
    6.2500000000211720E-02     8.7499999999951172E-01     0.0000000000000000E+00 
    6.2500000000235922E-02     9.3749999999974565E-01     0.0000000000000000E+00 
    1.2499999999981980E-01     6.2500000000211733E-02     0.0000000000000000E+00 
    1.2499999999986650E-01     1.2500000000042691E-01     0.0000000000000000E+00 
    1.2499999999991319E-01     1.8750000000063199E-01     0.0000000000000000E+00 
    1.2499999999995989E-01     2.5000000000083678E-01     0.0000000000000000E+00 
    1.2500000000000661E-01     3.1250000000104172E-01     0.0000000000000000E+00 
    1.2500000000005329E-01     3.7500000000124661E-01     0.0000000000000000E+00 
    1.2500000000010000E-01     4.3750000000145117E-01     0.0000000000000000E+00 
    1.2500000000014669E-01     5.0000000000163858E-01     0.0000000000000000E+00 
    1.2500000000019340E-01     5.6250000000129741E-01     0.0000000000000000E+00 
    1.2500000000024011E-01     6.2500000000093847E-01     0.0000000000000000E+00 
    1.2500000000028680E-01     6.8750000000057998E-01     0.0000000000000000E+00 
    1.2500000000033351E-01     7.5000000000022127E-01     0.0000000000000000E+00 
    1.2500000000038020E-01     8.1249999999986211E-01     0.0000000000000000E+00 
    1.2500000000042691E-01     8.7499999999952238E-01     0.0000000000000000E+00 
    1.2500000000047359E-01     9.3749999999975164E-01     0.0000000000000000E+00 
    1.8749999999966760E-01     6.2500000000187531E-02     0.0000000000000000E+00 
    1.8749999999974179E-01     1.2500000000038020E-01     0.0000000000000000E+00 
    1.8749999999981601E-01     1.8750000000055780E-01     0.0000000000000000E+00 
    1.8749999999989009E-01     2.5000000000073502E-01     0.0000000000000000E+00 
    1.8749999999996431E-01     3.1250000000091221E-01     0.0000000000000000E+00 
    1.8750000000003850E-01     3.7500000000108941E-01     0.0000000000000000E+00 
    1.8750000000011269E-01     4.3750000000126649E-01     0.0000000000000000E+00 
    1.8750000000018691E-01     5.0000000000142808E-01     0.0000000000000000E+00 
    1.8750000000026110E-01     5.6250000000112244E-01     0.0000000000000000E+00 
    1.8750000000033529E-01     6.2500000000080080E-01     0.0000000000000000E+00 
    1.8750000000040951E-01     6.8750000000047962E-01     0.0000000000000000E+00 
    1.8750000000048361E-01     7.5000000000015843E-01     0.0000000000000000E+00 
    1.8750000000055780E-01     8.1249999999983680E-01     0.0000000000000000E+00 
    1.8750000000063199E-01     8.7499999999953304E-01     0.0000000000000000E+00 
    1.8750000000070621E-01     9.3749999999975764E-01     0.0000000000000000E+00 
    2.4999999999951281E-01     6.2500000000163314E-02     0.0000000000000000E+00 
    2.4999999999961461E-01     1.2500000000033351E-01     0.0000000000000000E+00 
    2.4999999999971650E-01     1.8750000000048361E-01     0.0000000000000000E+00 
    2.4999999999981831E-01     2.5000000000063310E-01     0.0000000000000000E+00 
    2.4999999999992020E-01     3.1250000000078260E-01     0.0000000000000000E+00 
    2.5000000000002198E-01     3.7500000000093209E-01     0.0000000000000000E+00 
    2.5000000000012390E-01     4.3750000000108180E-01     0.0000000000000000E+00 
    2.5000000000022571E-01     5.0000000000121769E-01     0.0000000000000000E+00 
    2.5000000000032763E-01     5.6250000000094724E-01     0.0000000000000000E+00 
    2.5000000000042938E-01     6.2500000000066314E-01     0.0000000000000000E+00 
    2.5000000000053119E-01     6.8750000000037925E-01     0.0000000000000000E+00 
[...]
CELL_DATA 256 
SCALARS Pressure double 1 
LOOKUP_TABLE default 

    1.1059320271020259E+00 
    1.0472185329946169E+00 
    1.0025317727858440E+00 
    9.5708556200301043E-01 
    9.0760275101586274E-01 
    8.5332416801285826E-01 
    7.8813398233641319E-01 
    7.1110897131346973E-01 
    6.3749349815022849E-01 
    5.6955831715935190E-01 
    5.0534805118730308E-01 
    4.4643944931922330E-01 
    3.9554073851779548E-01 
    3.5613305040436666E-01 
    3.3125534747262969E-01 
    3.2127484274014739E-01 
    1.0919922923568683E+00 
    1.0492634458967143E+00 
    1.0059763792474279E+00 
    9.6108101933416190E-01 
    9.1222867766289006E-01 
    8.5869460423510036E-01 
    7.9432533293383034E-01 
    7.1785031677131250E-01 
    6.4424500663393502E-01 
    5.7586326206885241E-01 
    5.1107376170092289E-01 
    4.5127696282878743E-01 
    3.9910690761651041E-01 
    3.5812291227831466E-01 
    3.3170509852217961E-01 
    3.2082594228958333E-01 
    1.0808387819739196E+00 
    1.0487054688515889E+00 
    1.0082224779212321E+00 
    9.6427080419696398E-01 
    9.1622634791554081E-01 
    8.6344829420369973E-01 
    7.9964929104987237E-01 
    7.2381834335890682E-01 
    6.5067296028611232E-01 
    5.8191264923633923E-01 
    5.1646107270434738E-01 
    4.5559198216772967E-01 
    4.0187014436691582E-01 
    3.5899425341203128E-01 
    3.3084894821919086E-01 
    3.1921331381477808E-01 
    1.0712364560086418E+00 
    1.0464688469478736E+00 
    1.0092837272122006E+00 
    9.6668184049815464E-01 
    9.1960132925742311E-01 
    8.6758598499190720E-01 
    8.0419053322408951E-01 
    7.2912524623028319E-01 
    6.5676603806859524E-01 
    5.8772878071216628E-01 
    5.2157111343027529E-01 
    4.5947421616648026E-01 
    4.0392344155626203E-01 
    3.5878644999420173E-01 
    3.2860369734473205E-01 
    3.1621008106686654E-01 
    1.0626325569754291E+00 
    1.0431101063069681E+00 
    1.0093060179483451E+00 
    9.6840305663213055E-01 
    9.2241823074669005E-01 
    8.7109208989265641E-01 
    8.0799934096593207E-01 
    7.3391529721457249E-01 
    6.6254533696318973E-01 
    5.9334920798629032E-01 
    5.2647501974993649E-01 
    4.6302655118877195E-01 
    4.0537815958199885E-01 
    3.5755559223940786E-01 
    3.2488710875273891E-01 
    3.1158547283600629E-01 
    1.0549552837397562E+00 
    1.0391773468052488E+00 
    1.0085630232210909E+00 
    9.6956484126299136E-01 
    9.2476295721000668E-01 
    8.7389905386381783E-01 
    8.1107168583937828E-01 
    7.3838375279222634E-01 
    6.6806040614929563E-01 
    5.9882155011884508E-01 
    5.3124904998984446E-01 
    4.6636251228329917E-01 
    4.0636674164889741E-01 
    3.5538244375638695E-01 
    3.1962147815751679E-01 
    3.0509055690119341E-01 
    1.0481654130222515E+00 
    1.0350696806171760E+00 
    1.0073188343631347E+00 
    9.7028844803404846E-01 
    9.2669365143057203E-01 
    8.7594972597500798E-01 
    8.1346053967754350E-01 
    7.4275688637527970E-01 
    6.7338124879766281E-01 
    6.0419460457976137E-01 
    5.3596830719044763E-01 
    4.6960138728593664E-01 
    4.0704282884724402E-01 
    3.5237927052535178E-01 
    3.1273384585923292E-01 
    2.9642607776156954E-01 
    1.0422596341290971E+00 
    1.0310941509929898E+00 
    1.0058192039694054E+00 
    9.7068791415617528E-01 
    9.2814556640933965E-01 
    8.7726418840192089E-01 
    8.1545446778489450E-01 
    7.4716069305289157E-01 
    6.7858448308139252E-01 
    6.0952240314223693E-01 
    5.4070977294082834E-01 
    4.7287118200272876E-01 
    4.0758819394472057E-01 
    3.4870779752411329E-01 
    3.0417253116639226E-01 
    2.8523461390782867E-01 
    1.0372394127147453E+00 
    1.0274707334398394E+00 
    1.0042619955170329E+00 
    9.7079869200052527E-01 
    9.2890913348003368E-01 
    8.7793793029977318E-01 
    8.1750176315631362E-01 
    7.5155037027495430E-01 
    6.8374385997641285E-01 
    6.1486496878204755E-01 
    5.4555153778463183E-01 
    4.7630306884255674E-01 
    4.0821403332225642E-01 
    3.4459733213858396E-01 
    2.9392788448191359E-01 
    2.7106045523996747E-01 
    1.0329052199796440E+00 
    1.0241746336144886E+00 
    1.0025680248086770E+00 
    9.7030166094690018E-01 
    9.2887031275761722E-01 
    8.7850135993352407E-01 
    8.1999048868523383E-01 
    7.5589590653423866E-01 
    6.8891336229760480E-01 
    6.2027646030366423E-01 
    5.5056753167903960E-01 
    4.8003426360182522E-01 
    4.0916925280457761E-01 
    3.4037725755638548E-01 
    2.8208303194920459E-01 
    2.5331566671766714E-01 
    1.0283528385900651E+00 
    1.0204288455888586E+00 
    1.0001853203306241E+00 
    9.6908446137447535E-01 
    9.2864531658246996E-01 
    8.7965303730296107E-01 
    8.2292954891905001E-01 
    7.6028275484047447E-01 
    6.9413741131909201E-01 
    6.2580033599023999E-01 
    5.5581898994909518E-01 
    4.8418908203887029E-01 
    4.1071985716275444E-01 
    3.3648794516601671E-01 
    2.6887337743349926E-01 
    2.3122000694157793E-01 
    1.0242635957877386E+00 
    1.0167490203636154E+00 
    9.9776772681889792E-01 
    9.6812748885097355E-01 
    9.2911204131711211E-01 
    8.8151400818182823E-01 
    8.2617783066022432E-01 
    7.6479834900769372E-01 
    6.9946151241403265E-01 
    6.3147469553306290E-01 
    5.6135309849846049E-01 
    4.8886902561131146E-01 
    4.1313166667576590E-01 
    3.3349861621047533E-01 
    2.5480349902112776E-01 
    2.0372543578245414E-01 
    1.0215243632880777E+00 
    1.0143621167652790E+00 
    9.9647101803381077E-01 
    9.6812234631780825E-01 
    9.3031496310781381E-01 
    8.8389493032592237E-01 
    8.2978245703465481E-01 
    7.6951273865617198E-01 
    7.0493717028825453E-01 
    6.3733528966050601E-01 
    5.6720225484767017E-01 
    4.9414379766088734E-01 
    4.1664558777060745E-01 
    3.3210989278986514E-01 
    2.4084322662180740E-01 
    1.6938178708517243E-01 
    1.0197413486883855E+00 
    1.0129186794803517E+00 
    9.9600118603272780E-01 
    9.6882520551170737E-01 
    9.3215009376773139E-01 
    8.8681804063095515E-01 
    8.3378567663743219E-01 
    7.7448403703037438E-01 
    7.1060707700544978E-01 
    6.4340693998365162E-01 
    5.7338204156810868E-01 
    5.0004886991610031E-01 
    4.2144261981776693E-01 
    3.3311276705496273E-01 
    2.2876276226724795E-01 
    1.2614645264108895E-01 
    1.0187845684094978E+00 
    1.0123546384855744E+00 
    9.9634702071436843E-01 
    9.7025293946895874E-01 
    9.3463619677820742E-01 
    8.9030490223720848E-01 
    8.3822345642228757E-01 
    7.7975667503958523E-01 
    7.1650239237377822E-01 
    6.4970382272406801E-01 
    5.7988995618358219E-01 
    5.0657139223185144E-01 
    4.2758074403638779E-01 
    3.3722488012225504E-01 
    2.2167967290177271E-01 
    7.1098798593942039E-02 
    1.0185204963419812E+00 
    1.0126072833054056E+00 
    9.9750152678495263E-01 
    9.7242456960575674E-01 
    9.3779567648049833E-01 
    8.9438093785127326E-01 
    8.4313177905561221E-01 
    7.8537084715522754E-01 
    7.2265227093246132E-01 
    6.5623680671688744E-01 
    5.8670988412116487E-01 
    5.1365237005140907E-01 
    4.3495476586410220E-01 
    3.4471948668548485E-01 
    2.2498686760257505E-01 
    0.0000000000000000E+00 

SCALARS Saturarion double 1 
LOOKUP_TABLE default 

    1.0000000000003504E+00 
    9.2749261486127565E-01 
    8.2865779230218684E-01 
    7.0728081760678374E-01 
    6.2819775278989698E-01 
    5.5708645402620727E-01 
    4.3177336169618630E-01 
    7.3501701141469394E-02 
    1.0000003610925077E-06 
    1.0000000000003453E-06 
    9.9999999999999995E-07 
    9.9999999999999995E-07 
    9.9999999999999995E-07 
    9.9999999999999995E-07 
    9.9999999999999995E-07 
    9.9999999999999995E-07 
    9.6375931172779183E-01 
    8.9784854430041061E-01 
    8.0029667349340883E-01 
    6.9756768039570705E-01 
    6.1935206738477522E-01 
    5.5061788499113717E-01 
    4.2193120928662520E-01 
    6.3465929162477619E-02 
    2.5955123424490719E-06 
    1.0000005462075250E-06 
    1.0000000000002217E-06 
    9.9999999999999995E-07 
    9.9999999999999995E-07 
    9.9999999999999995E-07 
    9.9999999999999995E-07 
    9.9999999999999995E-07 
    9.0315096888394364E-01 
    8.5139138420302929E-01 
    7.6010278964140232E-01 
    6.7805550638609668E-01 
    6.0486960422989022E-01 
    5.3908995595527021E-01 
    4.0767316074751914E-01 
    4.9462819279956986E-02 
    5.1137092033163527E-06 
    1.0000017376314957E-06 
    1.0000000000005817E-06 
    9.9999999999999995E-07 
    9.9999999999999995E-07 
    9.9999999999999995E-07 
    9.9999999999999995E-07 
    9.9999999999999995E-07 
    8.1880307913878825E-01 
    7.8009648559428701E-01 
    7.0996739172486267E-01 
    6.4922276129503731E-01 
    5.9104878721495591E-01 
    5.2899939107791283E-01 
    3.8779365164519819E-01 
    3.4945970383235457E-02 
    4.8094362113358369E-06 
    1.0000035111544453E-06 
    9.9999999999999974E-07 
    9.9999999999999995E-07 
    9.9999999999999995E-07 
    9.9999999999999995E-07 
    9.9999999999999995E-07 
    9.9999999999999995E-07 
    7.4653285925373369E-01 
    7.1827007213936256E-01 
    6.6607725267192963E-01 
    6.1891706619668396E-01 
    5.7337331126051505E-01 
    5.1498647669803299E-01 
    3.5107436846731888E-01 
    1.6797294809927858E-02 
    4.5554211475383921E-06 
    1.0000022060382557E-06 
    9.9999999999999995E-07 
    9.9999999999999995E-07 
    9.9999999999999995E-07 
    9.9999999999999995E-07 
    9.9999999999999995E-07 
    9.9999999999999995E-07 
    6.8310173450486555E-01 
    6.6421543857559651E-01 
    6.2617051936522627E-01 
    5.8827928156274767E-01 
    5.5072680369435278E-01 
    4.9255862140928336E-01 
    2.7571799366022376E-01 
    3.7976495914837983E-03 
    1.4298959761910596E-06 
    1.0000001120826684E-06 
    9.9999999999999995E-07 
    9.9999999999999995E-07 
    9.9999999999999995E-07 
    9.9999999999999995E-07 
    9.9999999999999995E-07 
    9.9999999999999995E-07 
    6.2734373241209807E-01 
    6.1671300880056468E-01 
    5.8974345951083218E-01 
    5.5735084305013260E-01 
    5.2375522693982934E-01 
    4.5646997327986727E-01 
    1.7574472255767468E-01 
    2.6773249853361057E-04 
    1.0151394615787403E-06 
    1.0000000008463578E-06 
    9.9999999999999995E-07 
    9.9999999999999995E-07 
    9.9999999999999995E-07 
    9.9999999999999995E-07 
    9.9999999999999995E-07 
    9.9999999999999995E-07 
    5.7999484189857542E-01 
    5.7557624599358737E-01 
    5.5611416115202916E-01 
    5.2828976810813888E-01 
    4.9212839064439118E-01 
    3.7678866844963155E-01 
    5.5044972106742703E-02 
    1.1088008330136092E-04 
    1.0017349859651426E-06 
    1.0000000000000016E-06 
    9.9999999999999995E-07 
    9.9999999999999995E-07 
    9.9999999999999995E-07 
    9.9999999999999995E-07 
    9.9999999999999995E-07 
    9.9999999999999995E-07 
    5.3916955176581260E-01 
    5.3724819970811089E-01 
    5.2204692814192177E-01 
    4.9630133738792670E-01 
    4.3353620665505238E-01 
    1.9796294608381798E-01 
    1.8204971458682128E-03 
    1.1162036695747147E-06 
    1.0000000183004562E-06 
    1.0000000000000014E-06 
    9.9999999999999995E-07 
    9.9999999999999995E-07 
    9.9999999999999995E-07 
    9.9999999999999995E-07 
    9.9999999999999995E-07 
    9.9999999999999995E-07 
    4.8107741429735124E-01 
    4.8167625539170084E-01 
    4.6901927397411758E-01 
    4.1290209023758012E-01 
    2.3591137388889408E-01 
    1.9028631799484278E-02 
    1.3149546115405462E-05 
    1.0000128440635420E-06 
    1.0000000000000084E-06 
    9.9999999999999995E-07 
    9.9999999999999995E-07 
    9.9999999999999995E-07 
    9.9999999999999995E-07 
    9.9999999999999995E-07 
    9.9999999999999995E-07 
    9.9999999999999995E-07 
    2.6351558465852742E-01 
    2.9981700165915448E-01 
    2.4589670078177697E-01 
    1.1364886895195585E-01 
    8.3525213255076069E-03 
    1.3116254576875103E-05 
    1.0000220794743093E-06 
    1.0000000000014721E-06 
    9.9999999999999995E-07 
    9.9999999999999995E-07 
    9.9999999999999995E-07 
    9.9999999999999995E-07 
    9.9999999999999995E-07 
    9.9999999999999995E-07 
    9.9999999999999995E-07 
    9.9999999999999995E-07 
    1.1480155604420839E-03 
    4.8369170466292652E-03 
    1.3969266632011582E-03 
    1.9313938765670485E-04 
    2.5806285103170031E-06 
    1.0000056781131564E-06 
    1.0000000000011123E-06 
    9.9999999999999995E-07 
    9.9999999999999995E-07 
    9.9999999999999995E-07 
    9.9999999999999995E-07 
    9.9999999999999995E-07 
    9.9999999999999995E-07 
    9.9999999999999995E-07 
    9.9999999999999995E-07 
    9.9999999999999995E-07 
    1.0000000410416077E-06 
    1.0471959263302577E-06 
    1.0428399456255937E-06 
    1.0089365044187122E-06 
    1.0000002472606840E-06 
    1.0000000000001226E-06 
    9.9999999999999995E-07 
    9.9999999999999995E-07 
    9.9999999999999995E-07 
    9.9999999999999995E-07 
    9.9999999999999995E-07 
    9.9999999999999995E-07 
    9.9999999999999995E-07 
    9.9999999999999995E-07 
    9.9999999999999995E-07 
    9.9999999999999995E-07 
    1.0000000000000063E-06 
    1.0000000033184074E-06 
    1.0000000054351101E-06 
    1.0000000000000016E-06 
    1.0000000000000027E-06 
    9.9999999999999995E-07 
    9.9999999999999995E-07 
    9.9999999999999995E-07 
    9.9999999999999995E-07 
    9.9999999999999995E-07 
    9.9999999999999995E-07 
    9.9999999999999995E-07 
    9.9999999999999995E-07 
    9.9999999999999995E-07 
    9.9999999999999995E-07 
    9.9999999999999995E-07 
    9.9999999999999995E-07 
    1.0000000000000002E-06 
    9.9999999999999995E-07 
    9.9999999999999995E-07 
    9.9999999999999995E-07 
    9.9999999999999995E-07 
    9.9999999999999995E-07 
    9.9999999999999995E-07 
    9.9999999999999995E-07 
    9.9999999999999995E-07 
    9.9999999999999995E-07 
    9.9999999999999995E-07 
    9.9999999999999995E-07 
    9.9999999999999995E-07 
    9.9999999999999995E-07 
    9.9999999999999995E-07 
    9.9999999999999995E-07 
    9.9999999999999995E-07 
    9.9999999999999995E-07 
    9.9999999999999995E-07 
    9.9999999999999995E-07 
    9.9999999999999995E-07 
    9.9999999999999995E-07 
    9.9999999999999995E-07 
    9.9999999999999995E-07 
    9.9999999999999995E-07 
    9.9999999999999995E-07 
    9.9999999999999995E-07 
    9.9999999999999995E-07 
    9.9999999999999995E-07 
    9.9999999999999995E-07 
    1.0000001912183773E-06 
