# vtk DataFile Version 2.0
Pressure Field Data 
ASCII 
DATASET UNSTRUCTURED_GRID 

POINTS 289 double 

    0.0000000000000000E+00     0.0000000000000000E+00     0.0000000000000000E+00 
    1.0000000000000000E+00     0.0000000000000000E+00     0.0000000000000000E+00 
    1.0000000000000000E+00     1.0000000000000000E+00     0.0000000000000000E+00 
    0.0000000000000000E+00     1.0000000000000000E+00     0.0000000000000000E+00 
    6.2499999999872928E-02     0.0000000000000000E+00     0.0000000000000000E+00 
    1.2499999999977310E-01     0.0000000000000000E+00     0.0000000000000000E+00 
    1.8749999999959341E-01     0.0000000000000000E+00     0.0000000000000000E+00 
    2.4999999999941089E-01     0.0000000000000000E+00     0.0000000000000000E+00 
    3.1249999999922851E-01     0.0000000000000000E+00     0.0000000000000000E+00 
    3.7499999999904610E-01     0.0000000000000000E+00     0.0000000000000000E+00 
    4.3749999999886358E-01     0.0000000000000000E+00     0.0000000000000000E+00 
    4.9999999999869210E-01     0.0000000000000000E+00     0.0000000000000000E+00 
    5.6249999999884603E-01     0.0000000000000000E+00     0.0000000000000000E+00 
    6.2499999999901090E-01     0.0000000000000000E+00     0.0000000000000000E+00 
    6.8749999999917577E-01     0.0000000000000000E+00     0.0000000000000000E+00 
    7.4999999999934064E-01     0.0000000000000000E+00     0.0000000000000000E+00 
    8.1249999999950551E-01     0.0000000000000000E+00     0.0000000000000000E+00 
    8.7499999999967026E-01     0.0000000000000000E+00     0.0000000000000000E+00 
    9.3749999999983513E-01     0.0000000000000000E+00     0.0000000000000000E+00 
    1.0000000000000000E+00     6.2499999999872928E-02     0.0000000000000000E+00 
    1.0000000000000000E+00     1.2499999999977310E-01     0.0000000000000000E+00 
    1.0000000000000000E+00     1.8749999999959341E-01     0.0000000000000000E+00 
    1.0000000000000000E+00     2.4999999999941089E-01     0.0000000000000000E+00 
    1.0000000000000000E+00     3.1249999999922851E-01     0.0000000000000000E+00 
    1.0000000000000000E+00     3.7499999999904610E-01     0.0000000000000000E+00 
    1.0000000000000000E+00     4.3749999999886358E-01     0.0000000000000000E+00 
    1.0000000000000000E+00     4.9999999999869210E-01     0.0000000000000000E+00 
    1.0000000000000000E+00     5.6249999999884603E-01     0.0000000000000000E+00 
    1.0000000000000000E+00     6.2499999999901090E-01     0.0000000000000000E+00 
    1.0000000000000000E+00     6.8749999999917577E-01     0.0000000000000000E+00 
    1.0000000000000000E+00     7.4999999999934064E-01     0.0000000000000000E+00 
    1.0000000000000000E+00     8.1249999999950551E-01     0.0000000000000000E+00 
    1.0000000000000000E+00     8.7499999999967026E-01     0.0000000000000000E+00 
    1.0000000000000000E+00     9.3749999999983513E-01     0.0000000000000000E+00 
    9.3749999999973976E-01     1.0000000000000000E+00     0.0000000000000000E+00 
    8.7499999999950118E-01     1.0000000000000000E+00     0.0000000000000000E+00 
    8.1249999999991318E-01     1.0000000000000000E+00     0.0000000000000000E+00 
    7.5000000000034706E-01     1.0000000000000000E+00     0.0000000000000000E+00 
    6.8750000000078049E-01     1.0000000000000000E+00     0.0000000000000000E+00 
    6.2500000000121403E-01     1.0000000000000000E+00     0.0000000000000000E+00 
    5.6250000000164757E-01     1.0000000000000000E+00     0.0000000000000000E+00 
    5.0000000000205946E-01     1.0000000000000000E+00     0.0000000000000000E+00 
    4.3750000000182099E-01     1.0000000000000000E+00     0.0000000000000000E+00 
    3.7500000000156092E-01     1.0000000000000000E+00     0.0000000000000000E+00 
    3.1250000000130068E-01     1.0000000000000000E+00     0.0000000000000000E+00 
    2.5000000000104050E-01     1.0000000000000000E+00     0.0000000000000000E+00 
    1.8750000000078040E-01     1.0000000000000000E+00     0.0000000000000000E+00 
    1.2500000000052031E-01     1.0000000000000000E+00     0.0000000000000000E+00 
    6.2500000000260125E-02     1.0000000000000000E+00     0.0000000000000000E+00 
    0.0000000000000000E+00     9.3749999999973976E-01     0.0000000000000000E+00 
    0.0000000000000000E+00     8.7499999999950118E-01     0.0000000000000000E+00 
    0.0000000000000000E+00     8.1249999999991318E-01     0.0000000000000000E+00 
    0.0000000000000000E+00     7.5000000000034706E-01     0.0000000000000000E+00 
    0.0000000000000000E+00     6.8750000000078049E-01     0.0000000000000000E+00 
    0.0000000000000000E+00     6.2500000000121403E-01     0.0000000000000000E+00 
    0.0000000000000000E+00     5.6250000000164757E-01     0.0000000000000000E+00 
    0.0000000000000000E+00     5.0000000000205946E-01     0.0000000000000000E+00 
    0.0000000000000000E+00     4.3750000000182099E-01     0.0000000000000000E+00 
    0.0000000000000000E+00     3.7500000000156092E-01     0.0000000000000000E+00 
    0.0000000000000000E+00     3.1250000000130068E-01     0.0000000000000000E+00 
    0.0000000000000000E+00     2.5000000000104050E-01     0.0000000000000000E+00 
    0.0000000000000000E+00     1.8750000000078040E-01     0.0000000000000000E+00 
    0.0000000000000000E+00     1.2500000000052031E-01     0.0000000000000000E+00 
    0.0000000000000000E+00     6.2500000000260125E-02     0.0000000000000000E+00 
    6.2499999999897131E-02     6.2500000000235922E-02     0.0000000000000000E+00 
    6.2499999999921327E-02     1.2500000000047351E-01     0.0000000000000000E+00 
    6.2499999999945530E-02     1.8750000000070621E-01     0.0000000000000000E+00 
    6.2499999999969733E-02     2.5000000000093858E-01     0.0000000000000000E+00 
    6.2499999999993928E-02     3.1250000000117117E-01     0.0000000000000000E+00 
    6.2500000000018124E-02     3.7500000000140382E-01     0.0000000000000000E+00 
    6.2500000000042327E-02     4.3750000000163619E-01     0.0000000000000000E+00 
    6.2500000000066530E-02     5.0000000000184897E-01     0.0000000000000000E+00 
    6.2500000000090733E-02     5.6250000000147260E-01     0.0000000000000000E+00 
    6.2500000000114922E-02     6.2500000000107636E-01     0.0000000000000000E+00 
    6.2500000000139125E-02     6.8750000000068034E-01     0.0000000000000000E+00 
    6.2500000000163328E-02     7.5000000000028411E-01     0.0000000000000000E+00 
    6.2500000000187531E-02     8.1249999999988787E-01     0.0000000000000000E+00 
    6.2500000000211720E-02     8.7499999999951172E-01     0.0000000000000000E+00 
    6.2500000000235922E-02     9.3749999999974565E-01     0.0000000000000000E+00 
    1.2499999999981980E-01     6.2500000000211733E-02     0.0000000000000000E+00 
    1.2499999999986650E-01     1.2500000000042691E-01     0.0000000000000000E+00 
    1.2499999999991319E-01     1.8750000000063199E-01     0.0000000000000000E+00 
    1.2499999999995989E-01     2.5000000000083678E-01     0.0000000000000000E+00 
    1.2500000000000661E-01     3.1250000000104172E-01     0.0000000000000000E+00 
    1.2500000000005329E-01     3.7500000000124661E-01     0.0000000000000000E+00 
    1.2500000000010000E-01     4.3750000000145117E-01     0.0000000000000000E+00 
    1.2500000000014669E-01     5.0000000000163858E-01     0.0000000000000000E+00 
    1.2500000000019340E-01     5.6250000000129741E-01     0.0000000000000000E+00 
    1.2500000000024011E-01     6.2500000000093847E-01     0.0000000000000000E+00 
    1.2500000000028680E-01     6.8750000000057998E-01     0.0000000000000000E+00 
    1.2500000000033351E-01     7.5000000000022127E-01     0.0000000000000000E+00 
    1.2500000000038020E-01     8.1249999999986211E-01     0.0000000000000000E+00 
    1.2500000000042691E-01     8.7499999999952238E-01     0.0000000000000000E+00 
    1.2500000000047359E-01     9.3749999999975164E-01     0.0000000000000000E+00 
    1.8749999999966760E-01     6.2500000000187531E-02     0.0000000000000000E+00 
    1.8749999999974179E-01     1.2500000000038020E-01     0.0000000000000000E+00 
    1.8749999999981601E-01     1.8750000000055780E-01     0.0000000000000000E+00 
    1.8749999999989009E-01     2.5000000000073502E-01     0.0000000000000000E+00 
    1.8749999999996431E-01     3.1250000000091221E-01     0.0000000000000000E+00 
    1.8750000000003850E-01     3.7500000000108941E-01     0.0000000000000000E+00 
    1.8750000000011269E-01     4.3750000000126649E-01     0.0000000000000000E+00 
    1.8750000000018691E-01     5.0000000000142808E-01     0.0000000000000000E+00 
    1.8750000000026110E-01     5.6250000000112244E-01     0.0000000000000000E+00 
    1.8750000000033529E-01     6.2500000000080080E-01     0.0000000000000000E+00 
    1.8750000000040951E-01     6.8750000000047962E-01     0.0000000000000000E+00 
    1.8750000000048361E-01     7.5000000000015843E-01     0.0000000000000000E+00 
    1.8750000000055780E-01     8.1249999999983680E-01     0.0000000000000000E+00 
    1.8750000000063199E-01     8.7499999999953304E-01     0.0000000000000000E+00 
    1.8750000000070621E-01     9.3749999999975764E-01     0.0000000000000000E+00 
    2.4999999999951281E-01     6.2500000000163314E-02     0.0000000000000000E+00 
    2.4999999999961461E-01     1.2500000000033351E-01     0.0000000000000000E+00 
    2.4999999999971650E-01     1.8750000000048361E-01     0.0000000000000000E+00 
    2.4999999999981831E-01     2.5000000000063310E-01     0.0000000000000000E+00 
    2.4999999999992020E-01     3.1250000000078260E-01     0.0000000000000000E+00 
    2.5000000000002198E-01     3.7500000000093209E-01     0.0000000000000000E+00 
    2.5000000000012390E-01     4.3750000000108180E-01     0.0000000000000000E+00 
    2.5000000000022571E-01     5.0000000000121769E-01     0.0000000000000000E+00 
    2.5000000000032763E-01     5.6250000000094724E-01     0.0000000000000000E+00 
    2.5000000000042938E-01     6.2500000000066314E-01     0.0000000000000000E+00 
    2.5000000000053119E-01     6.8750000000037925E-01     0.0000000000000000E+00 
[...]
CELL_DATA 256 
SCALARS Pressure double 1 
LOOKUP_TABLE default 

    6.5879444789677721E-01 
    6.0926058431563634E-01 
    5.7797003975278727E-01 
    5.4989101411134000E-01 
    5.2159188998930761E-01 
    4.9220727657062879E-01 
    4.6146184706818899E-01 
    4.2938484564353041E-01 
    3.9623123946665839E-01 
    3.6251157185778426E-01 
    3.2909826558538646E-01 
    2.9737107568578275E-01 
    2.6930067265827357E-01 
    2.4725512693637627E-01 
    2.3322092928489077E-01 
    2.2650647908354574E-01 
    6.4480082328041843E-01 
    6.1050421251482812E-01 
    5.8030066750823450E-01 
    5.5243613857613205E-01 
    5.2431237913037232E-01 
    4.9509133852275100E-01 
    4.6449402747075119E-01 
    4.3253200698968991E-01 
    3.9943295886304986E-01 
    3.6566745657841293E-01 
    3.3205187443636802E-01 
    2.9990148707250291E-01 
    2.7114891886228204E-01 
    2.4821925236497724E-01 
    2.3334154201516860E-01 
    2.2610608590205519E-01 
    6.3406405861679949E-01 
    6.0962208876890200E-01 
    5.8189155569623130E-01 
    5.5466154327631534E-01 
    5.2685080122425687E-01 
    4.9784642564967529E-01 
    4.6741673912937109E-01 
    4.3557039140747172E-01 
    4.0250821817314997E-01 
    3.6865410969169771E-01 
    3.3475586627972209E-01 
    3.0204942449114291E-01 
    2.7242543677959147E-01 
    2.4840080566563399E-01 
    2.3253812038639385E-01 
    2.2482775156425194E-01 
    6.2564402382215423E-01 
    6.0767618900450782E-01 
    5.8278563335318967E-01 
    5.5654442012412164E-01 
    5.2919805919412088E-01 
    5.0047550843037736E-01 
    4.7023957401221800E-01 
    4.3851399116785034E-01 
    4.0547735472156959E-01 
    3.7150252385627036E-01 
    3.3725652408902818E-01 
    3.0387649996793464E-01 
    2.7319330984964602E-01 
    2.4783004899679292E-01 
    2.3076857712511104E-01 
    2.2254234108312976E-01 
    6.1890338434111147E-01 
    6.0526166000317427E-01 
    5.8311712320748388E-01 
    5.5809355684945727E-01 
    5.3134967895288454E-01 
    5.0297991003984766E-01 
    4.7297139260612764E-01 
    4.4137837888037185E-01 
    4.0836359726445320E-01 
    3.7424728119181100E-01 
    3.3960458539157473E-01 
    3.0545083825555241E-01 
    2.7352513009582607E-01 
    2.4654458901756454E-01 
    2.2798575268948254E-01 
    2.1911107850034542E-01 
    6.1343625447821304E-01 
    6.0272169035053080E-01 
    5.8303670894527837E-01 
    5.5934194216863542E-01 
    5.3330949957644014E-01 
    5.0536084512983925E-01 
    4.7561879277911850E-01 
    4.4417820198202518E-01 
    4.1119118368147672E-01 
    3.7692554313153664E-01 
    3.4185532215923009E-01 
    3.0684814589200932E-01 
    2.7350565176036817E-01 
    2.4459548624310817E-01 
    2.2413992833410934E-01 
    2.1436981147244122E-01 
    6.0897379634840476E-01 
    6.0026175849162333E-01 
    5.8269064806776460E-01 
    5.6034229946127589E-01 
    5.3509568133897079E-01 
    5.0762652581258605E-01 
    4.7818955798239970E-01 
    4.4692666070315273E-01 
    4.1398300632601731E-01 
    3.7957495891390669E-01 
    3.4406764772446852E-01 
    3.0815318139160675E-01 
    2.7323595616440904E-01 
    2.4205592831603043E-01 
    2.1919021732150165E-01 
    2.0813255572724473E-01 
    6.0532597046737435E-01 
    5.9800179264380104E-01 
    5.8220645094402390E-01 
    5.6115749453423636E-01 
    5.3673700071167962E-01 
    5.0979224279879742E-01 
    4.8069501539015946E-01 
    4.4963657947979219E-01 
    4.1675949689691044E-01 
    3.8223023792803873E-01 
    3.4630065848072683E-01 
    3.0945920934395332E-01 
    2.7283871198327536E-01 
    2.3903012996205464E-01 
    2.1311162543348303E-01 
    2.0018026230225575E-01 
    6.0235622884952678E-01 
    5.9600847296386228E-01 
    5.8168793260971041E-01 
    5.6185267474821154E-01 
    5.3826710440935055E-01 
    5.1187665234839252E-01 
    4.8314826462365362E-01 
    4.5232092088374282E-01 
    4.1953770016118491E-01 
    3.8492024193569119E-01 
    3.4860819767660495E-01 
    3.1086292830224921E-01 
    2.7246026081494068E-01 
    2.3566529468416145E-01 
    2.0590244911361327E-01 
    1.9023321588493927E-01 
    5.9996448865388008E-01 
    5.9431478775246283E-01 
    5.8121376763973176E-01 
    5.6248814356192611E-01 
    5.3972190540345688E-01 
    5.1390060226902123E-01 
    4.8556354996626139E-01 
    4.5499298834536506E-01 
    4.2233315604356975E-01 
    3.8766856460649135E-01 
    3.5103608161092215E-01 
    3.1245793844330966E-01 
    2.7226772334901000E-01 
    2.3216556911749084E-01 
    1.9760493802292198E-01 
    1.7792139985745767E-01 
    5.9807580301578445E-01 
    5.9293614802426209E-01 
    5.8084599903308876E-01 
    5.6312030692285742E-01 
    5.4113972840706281E-01 
    5.1588845705699715E-01 
    4.8795771951320382E-01 
    4.5766789028915583E-01 
    4.2516213710643025E-01 
    3.9049617824405297E-01 
    3.5362276302624129E-01 
    3.1433101803762692E-01 
    2.7244563989028558E-01 
    2.2880787099206817E-01 
    1.8834567158842269E-01 
    1.6275585442365459E-01 
    5.9662921986628992E-01 
    5.9187936626692006E-01 
    5.8063580610220955E-01 
    5.6380179676596565E-01 
    5.4256015308856798E-01 
    5.1786810770755221E-01 
    4.9035185438123130E-01 
    4.6036409752113505E-01 
    4.2804293816425937E-01 
    3.9342254291848794E-01 
    3.5639986373629934E-01 
    3.1655814004289717E-01 
    2.7319017548238145E-01 
    2.2596384101374317E-01 
    1.7840672742469244E-01 
    1.4405813827692684E-01 
    5.9558003914381819E-01 
    5.9115086205045686E-01 
    5.8062772008943397E-01 
    5.6458302995867704E-01 
    5.4402417466051600E-01 
    5.1987073283963203E-01 
    4.9277028429440806E-01 
    4.6310358399707913E-01 
    4.3099538400943305E-01 
    3.9646536539826327E-01 
    3.5939180604672166E-01 
    3.1919819881039202E-01 
    2.7469252125593119E-01 
    2.2411143209208467E-01 
    1.6833881001942502E-01 
    1.2081731438099697E-01 
    5.9490236019811260E-01 
    5.9076528206532253E-01 
    5.8086736402471262E-01 
    5.6551695914999800E-01 
    5.4557721358696643E-01 
    5.2192995928079056E-01 
    4.9523690760282085E-01 
    4.6590733300045201E-01 
    4.3403718008134234E-01 
    3.9963095802429810E-01 
    3.6260101422500740E-01 
    3.2227208771015042E-01 
    2.7709725206697122E-01 
    2.2381901163733522E-01 
    1.5922832756305438E-01 
    9.1514099068522092E-02 
    5.9449261852123303E-01 
    5.9066912003373184E-01 
    5.8135117870997699E-01 
    5.6661955505575679E-01 
    5.4723052544656048E-01 
    5.2403968042711735E-01 
    4.9772142443727851E-01 
    4.6872457471729090E-01 
    4.3711105554849278E-01 
    4.0285575945763691E-01 
    3.6593319165160143E-01 
    3.2565235179785457E-01 
    2.8032687076032409E-01 
    2.2544417946099318E-01 
    1.5284835579374803E-01 
    5.3679555261855715E-02 
    5.9435215183192514E-01 
    5.9086080944846797E-01 
    5.8208414270514275E-01 
    5.6790811618451231E-01 
    5.4900664026844093E-01 
    5.2622208043668717E-01 
    5.0023425490859796E-01 
    4.7154236695023222E-01 
    4.4020608723501781E-01 
    4.0617967301303776E-01 
    3.6946899370744019E-01 
    3.2944416682853056E-01 
    2.8452525068100609E-01 
    2.2943479371725195E-01 
    1.5229999710765205E-01 
    0.0000000000000000E+00 

SCALARS Saturarion double 1 
LOOKUP_TABLE default 

    1.0000000000000002E+00 
    9.7862780623013590E-01 
    9.3936151036792004E-01 
    8.8533221925461814E-01 
    8.4022253094983335E-01 
    8.0039388924949340E-01 
    7.6542454036620411E-01 
    7.3480785374700841E-01 
    7.0765337229808023E-01 
    6.8297972435383203E-01 
    6.5977168341093528E-01 
    6.3678878005300754E-01 
    6.1205973693896687E-01 
    5.8185608362366825E-01 
    5.3552832722588328E-01 
    3.0765176522307830E-01 
    9.9211221123490489E-01 
    9.7189855316444651E-01 
    9.3070924717069359E-01 
    8.7913935218395789E-01 
    8.3516027020090122E-01 
    7.9664359344157176E-01 
    7.6271563265459985E-01 
    7.3274400571560239E-01 
    7.0604087742440214E-01 
    6.8174454142657059E-01 
    6.5904692020428812E-01 
    6.3685283670313819E-01 
    6.1317766831518006E-01 
    5.8398843590965055E-01 
    5.3963059888661702E-01 
    3.2967903673787141E-01 
    9.7963398821703140E-01 
    9.5930906479841571E-01 
    9.1783279862196232E-01 
    8.6784889450244118E-01 
    8.2516894488697290E-01 
    7.8883660819644752E-01 
    7.5704464140141337E-01 
    7.2849038027986768E-01 
    7.0260677510731939E-01 
    6.7885354865999281E-01 
    6.5672658942693485E-01 
    6.3540904825487110E-01 
    6.1331734097782553E-01 
    5.8641683001390099E-01 
    5.4517256560482963E-01 
    3.5006403677531417E-01 
    9.5788726558861403E-01 
    9.4070395700411757E-01 
    9.0197074751978645E-01 
    8.5594028212012008E-01 
    8.1397776662409371E-01 
    7.7847853451585591E-01 
    7.4802064723446182E-01 
    7.2118410645246356E-01 
    6.9685334506985075E-01 
    6.7453463995262297E-01 
    6.5359697907524694E-01 
    6.3340084147509612E-01 
    6.1274750657155030E-01 
    5.8831002015201406E-01 
    5.5065749228715122E-01 
    3.6994977923099076E-01 
    9.3099944287387770E-01 
    9.1561400012964611E-01 
    8.8078384066450965E-01 
    8.3926107271009642E-01 
    7.9932423266509456E-01 
    7.6454095438872671E-01 
    7.3503701121724441E-01 
    7.0965100654272639E-01 
    6.8730796064568944E-01 
    6.6719504796709039E-01 
    6.4864175085695963E-01 
    6.3069400144569721E-01 
    6.1192011609577224E-01 
    5.8964658270143266E-01 
    5.5532133799552441E-01 
    3.8663538548095683E-01 
    9.0034441559515743E-01 
    8.8740277743036777E-01 
    8.5698042471059699E-01 
    8.1921046243157647E-01 
    7.8216924030677748E-01 
    7.4906926510977756E-01 
    7.2036967090270587E-01 
    6.9588621186754174E-01 
    6.7489992489336281E-01 
    6.5667698192675317E-01 
    6.4060949491567953E-01 
    6.2587782976940909E-01 
    6.1037660438213337E-01 
    5.9065843660613726E-01 
    5.5952842034989536E-01 
    4.0184617953503537E-01 
    8.6683306994160547E-01 
    8.5693833339987691E-01 
    8.3118873433848128E-01 
    7.9733121105226634E-01 
    7.6352952688384024E-01 
    7.3279159317024933E-01 
    7.0574026962858349E-01 
    6.8202081218097588E-01 
    6.6168250416716845E-01 
    6.4455270522192687E-01 
    6.3035606342439976E-01 
    6.1846546817524151E-01 
    6.0704648885895929E-01 
    5.9130217785187966E-01 
    5.6360278802678077E-01 
    4.1684801719158837E-01 
    8.3029719594264617E-01 
    8.2387587982403732E-01 
    8.0352698396092526E-01 
    7.7421616750071598E-01 
    7.4347973567491921E-01 
    7.1496985282607783E-01 
    6.8944555671378493E-01 
    6.6708626275011529E-01 
    6.4775605772502876E-01 
    6.3156158308899535E-01 
    6.1855558877008165E-01 
    6.0885744278610476E-01 
    6.0127561759476567E-01 
    5.9081424331206167E-01 
    5.6744027360316063E-01 
    4.3199138742126963E-01 
    7.9081774625751078E-01 
    7.8785503846996274E-01 
    7.7290475651146151E-01 
    7.4854659834300308E-01 
    7.2137486293154707E-01 
    6.9506938461446910E-01 
    6.7119824324524746E-01 
    6.5008826195297331E-01 
    6.3184138074859941E-01 
    6.1656778738547069E-01 
    6.0471364019418106E-01 
    5.9685078303014150E-01 
    5.9277823603276614E-01 
    5.8821595994669340E-01 
    5.7078636283955198E-01 
    4.4649190216130419E-01 
    7.4844258290402399E-01 
    7.4877244512683505E-01 
    7.3895682701103338E-01 
    7.1935962560718991E-01 
    6.9600481919827506E-01 
    6.7239346194096228E-01 
    6.5023925337818911E-01 
    6.3065485226155515E-01 
    6.1376029025066003E-01 
    5.9951937249696940E-01 
    5.8840585974593052E-01 
    5.8183978792422264E-01 
    5.8090443075517462E-01 
    5.8264534742056961E-01 
    5.7276306546392686E-01 
    4.6088600301304755E-01 
    7.0283453218144587E-01 
    7.0626596311001144E-01 
    7.0128434298336328E-01 
    6.8613534273743426E-01 
    6.6663345430952148E-01 
    6.4624055141576187E-01 
    6.2675959890581234E-01 
    6.0888509445034211E-01 
    5.9335276755570376E-01 
    5.8035828665953126E-01 
    5.7025190833657280E-01 
    5.6425441391109099E-01 
    5.6502023600653728E-01 
    5.7288981644394010E-01 
    5.7227435757848599E-01 
    4.7546059068467839E-01 
    6.5259086878391181E-01 
    6.5908031366752085E-01 
    6.5908833591629212E-01 
    6.4850575734661853E-01 
    6.3264759848632046E-01 
    6.1528595834650412E-01 
    5.9846707182112691E-01 
    5.8321311590804681E-01 
    5.6976149122112496E-01 
    5.5839859563520367E-01 
    5.4967811037228498E-01 
    5.4481448623494166E-01 
    5.4606807964716131E-01 
    5.5765781499425182E-01 
    5.6846816939209166E-01 
    4.8910422204579318E-01 
    5.9783532073686840E-01 
    6.0666743046767291E-01 
    6.1106466576467300E-01 
    6.0524133757389653E-01 
    5.9377486039476490E-01 
    5.7991233529050590E-01 
    5.6614616691936925E-01 
    5.5323624431961893E-01 
    5.4176472709628443E-01 
    5.3205609296805823E-01 
    5.2507541739527153E-01 
    5.2184584685254420E-01 
    5.2437603845518976E-01 
    5.3728014027631799E-01 
    5.5794670128646229E-01 
    5.0016651923976752E-01 
    5.4076032117267459E-01 
    5.5178754284051945E-01 
    5.5917787005776931E-01 
    5.5764944120962234E-01 
    5.4991032214418301E-01 
    5.3869448068370296E-01 
    5.2605902376042490E-01 
    5.1423833066706159E-01 
    5.0327180943691252E-01 
    4.9383517443214253E-01 
    4.8456424772368945E-01 
    4.8208143058739611E-01 
    4.8979221181829741E-01 
    5.0925392610494280E-01 
    5.4210363688540653E-01 
    5.0717114007568576E-01 
    3.7790842995572582E-01 
    4.2104648610581819E-01 
    4.4812036699105301E-01 
    4.5626331364132305E-01 
    4.5059181487402961E-01 
    4.3576207642694770E-01 
    4.1086576110209277E-01 
    3.7266004566736072E-01 
    3.1279662527102803E-01 
    2.6668241171576368E-01 
    2.6969588451249682E-01 
    2.6978317778297339E-01 
    3.1776744433469190E-01 
    3.9761352461360960E-01 
    4.9951269173254004E-01 
    5.0914088196727714E-01 
    1.0769205783798518E-02 
    5.6140476111082631E-02 
    8.1711751650027711E-02 
    9.6578263748552134E-02 
    6.8119091597409434E-02 
    5.2072628009412820E-02 
    2.7753342065454351E-02 
    8.7761829605567786E-03 
    4.1928304076808828E-03 
    3.4486675868993091E-04 
    1.3242868508647073E-03 
    3.5221426218470542E-04 
    6.7946445321260627E-03 
    1.5836411531191297E-01 
    3.2520041687249118E-01 
    4.5793151363183465E-01 
