# vtk DataFile Version 2.0
Pressure Field Data 
ASCII 
DATASET UNSTRUCTURED_GRID 

POINTS 289 double 

    0.0000000000000000E+00     0.0000000000000000E+00     0.0000000000000000E+00 
    1.0000000000000000E+00     0.0000000000000000E+00     0.0000000000000000E+00 
    1.0000000000000000E+00     1.0000000000000000E+00     0.0000000000000000E+00 
    0.0000000000000000E+00     1.0000000000000000E+00     0.0000000000000000E+00 
    6.2499999999872928E-02     0.0000000000000000E+00     0.0000000000000000E+00 
    1.2499999999977310E-01     0.0000000000000000E+00     0.0000000000000000E+00 
    1.8749999999959341E-01     0.0000000000000000E+00     0.0000000000000000E+00 
    2.4999999999941089E-01     0.0000000000000000E+00     0.0000000000000000E+00 
    3.1249999999922851E-01     0.0000000000000000E+00     0.0000000000000000E+00 
    3.7499999999904610E-01     0.0000000000000000E+00     0.0000000000000000E+00 
    4.3749999999886358E-01     0.0000000000000000E+00     0.0000000000000000E+00 
    4.9999999999869210E-01     0.0000000000000000E+00     0.0000000000000000E+00 
    5.6249999999884603E-01     0.0000000000000000E+00     0.0000000000000000E+00 
    6.2499999999901090E-01     0.0000000000000000E+00     0.0000000000000000E+00 
    6.8749999999917577E-01     0.0000000000000000E+00     0.0000000000000000E+00 
    7.4999999999934064E-01     0.0000000000000000E+00     0.0000000000000000E+00 
    8.1249999999950551E-01     0.0000000000000000E+00     0.0000000000000000E+00 
    8.7499999999967026E-01     0.0000000000000000E+00     0.0000000000000000E+00 
    9.3749999999983513E-01     0.0000000000000000E+00     0.0000000000000000E+00 
    1.0000000000000000E+00     6.2499999999872928E-02     0.0000000000000000E+00 
    1.0000000000000000E+00     1.2499999999977310E-01     0.0000000000000000E+00 
    1.0000000000000000E+00     1.8749999999959341E-01     0.0000000000000000E+00 
    1.0000000000000000E+00     2.4999999999941089E-01     0.0000000000000000E+00 
    1.0000000000000000E+00     3.1249999999922851E-01     0.0000000000000000E+00 
    1.0000000000000000E+00     3.7499999999904610E-01     0.0000000000000000E+00 
    1.0000000000000000E+00     4.3749999999886358E-01     0.0000000000000000E+00 
    1.0000000000000000E+00     4.9999999999869210E-01     0.0000000000000000E+00 
    1.0000000000000000E+00     5.6249999999884603E-01     0.0000000000000000E+00 
    1.0000000000000000E+00     6.2499999999901090E-01     0.0000000000000000E+00 
    1.0000000000000000E+00     6.8749999999917577E-01     0.0000000000000000E+00 
    1.0000000000000000E+00     7.4999999999934064E-01     0.0000000000000000E+00 
    1.0000000000000000E+00     8.1249999999950551E-01     0.0000000000000000E+00 
    1.0000000000000000E+00     8.7499999999967026E-01     0.0000000000000000E+00 
    1.0000000000000000E+00     9.3749999999983513E-01     0.0000000000000000E+00 
    9.3749999999973976E-01     1.0000000000000000E+00     0.0000000000000000E+00 
    8.7499999999950118E-01     1.0000000000000000E+00     0.0000000000000000E+00 
    8.1249999999991318E-01     1.0000000000000000E+00     0.0000000000000000E+00 
    7.5000000000034706E-01     1.0000000000000000E+00     0.0000000000000000E+00 
    6.8750000000078049E-01     1.0000000000000000E+00     0.0000000000000000E+00 
    6.2500000000121403E-01     1.0000000000000000E+00     0.0000000000000000E+00 
    5.6250000000164757E-01     1.0000000000000000E+00     0.0000000000000000E+00 
    5.0000000000205946E-01     1.0000000000000000E+00     0.0000000000000000E+00 
    4.3750000000182099E-01     1.0000000000000000E+00     0.0000000000000000E+00 
    3.7500000000156092E-01     1.0000000000000000E+00     0.0000000000000000E+00 
    3.1250000000130068E-01     1.0000000000000000E+00     0.0000000000000000E+00 
    2.5000000000104050E-01     1.0000000000000000E+00     0.0000000000000000E+00 
    1.8750000000078040E-01     1.0000000000000000E+00     0.0000000000000000E+00 
    1.2500000000052031E-01     1.0000000000000000E+00     0.0000000000000000E+00 
    6.2500000000260125E-02     1.0000000000000000E+00     0.0000000000000000E+00 
    0.0000000000000000E+00     9.3749999999973976E-01     0.0000000000000000E+00 
    0.0000000000000000E+00     8.7499999999950118E-01     0.0000000000000000E+00 
    0.0000000000000000E+00     8.1249999999991318E-01     0.0000000000000000E+00 
    0.0000000000000000E+00     7.5000000000034706E-01     0.0000000000000000E+00 
    0.0000000000000000E+00     6.8750000000078049E-01     0.0000000000000000E+00 
    0.0000000000000000E+00     6.2500000000121403E-01     0.0000000000000000E+00 
    0.0000000000000000E+00     5.6250000000164757E-01     0.0000000000000000E+00 
    0.0000000000000000E+00     5.0000000000205946E-01     0.0000000000000000E+00 
    0.0000000000000000E+00     4.3750000000182099E-01     0.0000000000000000E+00 
    0.0000000000000000E+00     3.7500000000156092E-01     0.0000000000000000E+00 
    0.0000000000000000E+00     3.1250000000130068E-01     0.0000000000000000E+00 
    0.0000000000000000E+00     2.5000000000104050E-01     0.0000000000000000E+00 
    0.0000000000000000E+00     1.8750000000078040E-01     0.0000000000000000E+00 
    0.0000000000000000E+00     1.2500000000052031E-01     0.0000000000000000E+00 
    0.0000000000000000E+00     6.2500000000260125E-02     0.0000000000000000E+00 
    6.2499999999897131E-02     6.2500000000235922E-02     0.0000000000000000E+00 
    6.2499999999921327E-02     1.2500000000047351E-01     0.0000000000000000E+00 
    6.2499999999945530E-02     1.8750000000070621E-01     0.0000000000000000E+00 
    6.2499999999969733E-02     2.5000000000093858E-01     0.0000000000000000E+00 
    6.2499999999993928E-02     3.1250000000117117E-01     0.0000000000000000E+00 
    6.2500000000018124E-02     3.7500000000140382E-01     0.0000000000000000E+00 
    6.2500000000042327E-02     4.3750000000163619E-01     0.0000000000000000E+00 
    6.2500000000066530E-02     5.0000000000184897E-01     0.0000000000000000E+00 
    6.2500000000090733E-02     5.6250000000147260E-01     0.0000000000000000E+00 
    6.2500000000114922E-02     6.2500000000107636E-01     0.0000000000000000E+00 
    6.2500000000139125E-02     6.8750000000068034E-01     0.0000000000000000E+00 
    6.2500000000163328E-02     7.5000000000028411E-01     0.0000000000000000E+00 
    6.2500000000187531E-02     8.1249999999988787E-01     0.0000000000000000E+00 
    6.2500000000211720E-02     8.7499999999951172E-01     0.0000000000000000E+00 
    6.2500000000235922E-02     9.3749999999974565E-01     0.0000000000000000E+00 
    1.2499999999981980E-01     6.2500000000211733E-02     0.0000000000000000E+00 
    1.2499999999986650E-01     1.2500000000042691E-01     0.0000000000000000E+00 
    1.2499999999991319E-01     1.8750000000063199E-01     0.0000000000000000E+00 
    1.2499999999995989E-01     2.5000000000083678E-01     0.0000000000000000E+00 
    1.2500000000000661E-01     3.1250000000104172E-01     0.0000000000000000E+00 
    1.2500000000005329E-01     3.7500000000124661E-01     0.0000000000000000E+00 
    1.2500000000010000E-01     4.3750000000145117E-01     0.0000000000000000E+00 
    1.2500000000014669E-01     5.0000000000163858E-01     0.0000000000000000E+00 
    1.2500000000019340E-01     5.6250000000129741E-01     0.0000000000000000E+00 
    1.2500000000024011E-01     6.2500000000093847E-01     0.0000000000000000E+00 
    1.2500000000028680E-01     6.8750000000057998E-01     0.0000000000000000E+00 
    1.2500000000033351E-01     7.5000000000022127E-01     0.0000000000000000E+00 
    1.2500000000038020E-01     8.1249999999986211E-01     0.0000000000000000E+00 
    1.2500000000042691E-01     8.7499999999952238E-01     0.0000000000000000E+00 
    1.2500000000047359E-01     9.3749999999975164E-01     0.0000000000000000E+00 
    1.8749999999966760E-01     6.2500000000187531E-02     0.0000000000000000E+00 
    1.8749999999974179E-01     1.2500000000038020E-01     0.0000000000000000E+00 
    1.8749999999981601E-01     1.8750000000055780E-01     0.0000000000000000E+00 
    1.8749999999989009E-01     2.5000000000073502E-01     0.0000000000000000E+00 
    1.8749999999996431E-01     3.1250000000091221E-01     0.0000000000000000E+00 
    1.8750000000003850E-01     3.7500000000108941E-01     0.0000000000000000E+00 
    1.8750000000011269E-01     4.3750000000126649E-01     0.0000000000000000E+00 
    1.8750000000018691E-01     5.0000000000142808E-01     0.0000000000000000E+00 
    1.8750000000026110E-01     5.6250000000112244E-01     0.0000000000000000E+00 
    1.8750000000033529E-01     6.2500000000080080E-01     0.0000000000000000E+00 
    1.8750000000040951E-01     6.8750000000047962E-01     0.0000000000000000E+00 
    1.8750000000048361E-01     7.5000000000015843E-01     0.0000000000000000E+00 
    1.8750000000055780E-01     8.1249999999983680E-01     0.0000000000000000E+00 
    1.8750000000063199E-01     8.7499999999953304E-01     0.0000000000000000E+00 
    1.8750000000070621E-01     9.3749999999975764E-01     0.0000000000000000E+00 
    2.4999999999951281E-01     6.2500000000163314E-02     0.0000000000000000E+00 
    2.4999999999961461E-01     1.2500000000033351E-01     0.0000000000000000E+00 
    2.4999999999971650E-01     1.8750000000048361E-01     0.0000000000000000E+00 
    2.4999999999981831E-01     2.5000000000063310E-01     0.0000000000000000E+00 
    2.4999999999992020E-01     3.1250000000078260E-01     0.0000000000000000E+00 
    2.5000000000002198E-01     3.7500000000093209E-01     0.0000000000000000E+00 
    2.5000000000012390E-01     4.3750000000108180E-01     0.0000000000000000E+00 
    2.5000000000022571E-01     5.0000000000121769E-01     0.0000000000000000E+00 
    2.5000000000032763E-01     5.6250000000094724E-01     0.0000000000000000E+00 
    2.5000000000042938E-01     6.2500000000066314E-01     0.0000000000000000E+00 
    2.5000000000053119E-01     6.8750000000037925E-01     0.0000000000000000E+00 
[...]
CELL_DATA 256 
SCALARS Pressure double 1 
LOOKUP_TABLE default 

    7.4261371655274855E-01 
    6.9210598992800665E-01 
    6.5927672495325862E-01 
    6.2915160349404187E-01 
    5.9836462424117964E-01 
    5.6611413241720954E-01 
    5.3218004587373224E-01 
    4.9664851343485183E-01 
    4.5983593143316182E-01 
    4.2233323623410679E-01 
    3.8513379883534249E-01 
    3.4980495401239026E-01 
    3.1859875046167979E-01 
    2.9426778271952198E-01 
    2.7844078663365662E-01 
    2.7076415567273204E-01 
    7.2864854085961273E-01 
    6.9345762631775076E-01 
    6.6176377421196131E-01 
    6.3189310694319567E-01 
    6.0131884616578068E-01 
    5.6926853090919949E-01 
    5.3551582464574121E-01 
    5.0012522718704167E-01 
    4.6338199159212895E-01 
    4.2583197081670210E-01 
    3.8840563040110132E-01 
    3.5259760948506014E-01 
    3.2061613365351349E-01 
    2.9529556191478329E-01 
    2.7857717765264556E-01 
    2.7032129134908411E-01 
    7.1792739383172310E-01 
    6.9265450153076791E-01 
    6.6348240551848114E-01 
    6.3428572266430028E-01 
    6.0405984021680270E-01 
    5.7226195996559948E-01 
    5.3871159274361091E-01 
    5.0346476431981602E-01 
    4.6677354102964141E-01 
    4.2912942579347790E-01 
    3.9138478216555639E-01 
    3.5494468410251828E-01 
    3.2196931665370215E-01 
    2.9540550623139900E-01 
    2.7763501288322062E-01 
    2.6884214866870126E-01 
    7.0948249638956062E-01 
    6.9075181214783443E-01 
    6.6447201854190208E-01 
    6.3630877112546291E-01 
    6.0658423356015001E-01 
    5.7510200166353309E-01 
    5.4177827760849173E-01 
    5.0668031141724490E-01 
    4.7003073069302637E-01 
    4.3225961981860445E-01 
    3.9412515941415538E-01 
    3.5691891513862922E-01 
    3.2273167324087759E-01 
    2.9463253210774726E-01 
    2.7555096252504557E-01 
    2.6614797346640451E-01 
    7.0266618890313792E-01 
    6.8833669068243697E-01 
    6.6486381869009237E-01 
    6.3797003563262633E-01 
    6.0889034844738854E-01 
    5.7779552100918685E-01 
    5.4472977938893641E-01 
    5.0979065286041536E-01 
    4.7317934098860637E-01 
    4.3526135360351159E-01 
    3.9668570979999551E-01 
    3.5860126119550728E-01 
    3.2298944096717869E-01 
    2.9302322503989064E-01 
    2.7226723222977317E-01 
    2.6206798503839984E-01 
    6.9708841659789289E-01 
    6.8575684963926486E-01 
    6.6480958872251372E-01 
    6.3930306574909701E-01 
    6.1098411156163579E-01 
    5.8034863491384492E-01 
    5.4757944437379247E-01 
    5.1281740244798912E-01 
    4.7624994033095419E-01 
    4.3817794771605861E-01 
    3.9912978096577295E-01 
    3.6008023474150774E-01 
    3.2284353714150155E-01 
    2.9063993172166575E-01 
    2.6772647343672434E-01 
    2.5640993907814125E-01 
    6.9249645882455224E-01 
    6.8322859954921378E-01 
    6.6446235385145425E-01 
    6.4036568527793414E-01 
    6.1288729223227245E-01 
    5.8277294736874929E-01 
    5.5033998299887199E-01 
    5.1578080593257702E-01 
    4.7927372982817756E-01 
    4.4105546329183554E-01 
    4.0152495583568676E-01 
    3.6145279333975894E-01 
    3.2241290603709055E-01 
    2.8757138592686449E-01 
    2.6188147836598280E-01 
    2.4895110970444789E-01 
    6.8871026747815189E-01 
    6.8088251192886806E-01 
    6.6395812897736151E-01 
    6.4122678572845082E-01 
    6.1463234877560602E-01 
    5.8508618496348874E-01 
    5.5302567300689998E-01 
    5.1869848362241644E-01 
    4.8227874255486236E-01 
    4.4393830488438724E-01 
    4.0394104860306018E-01 
    3.6282558742215698E-01 
    3.2184011528057105E-01 
    2.8394430545372784E-01 
    2.5471082376985837E-01 
    2.3943728144993529E-01 
    6.8560227306281851E-01 
    6.7879501166787004E-01 
    6.6340856127344128E-01 
    6.4195712039276465E-01 
    6.1625676625049075E-01 
    5.8730980352239348E-01 
    5.5565164672455336E-01 
    5.2158546777422943E-01 
    4.8528617989673423E-01 
    4.4686361145329451E-01 
    4.0644410905025824E-01 
    3.6431186670779586E-01 
    3.2129530898277503E-01 
    2.7993563982200048E-01 
    2.4622199390950258E-01 
    2.2754421321642371E-01 
    6.8307915481135228E-01 
    6.7700621991593168E-01 
    6.6289815236961647E-01 
    6.4262204395285927E-01 
    6.1780132689309342E-01 
    5.8946881518942118E-01 
    5.5823441884661784E-01 
    5.2445535951200639E-01 
    4.8831264363646920E-01 
    4.4986060956075613E-01 
    4.0909174960410200E-01 
    3.6602480985868507E-01 
    3.2097467432413346E-01 
    2.7578833753484877E-01 
    2.3647240622862645E-01 
    2.1283436137127815E-01 
    6.8107110985881203E-01 
    6.7553750998913564E-01 
    6.6249505200896763E-01 
    6.4328428101037016E-01 
    6.1931133025319263E-01 
    5.9159401282464341E-01 
    5.6079472316799828E-01 
    5.2732405135864124E-01 
    4.9137525148158873E-01 
    4.5295538281734088E-01 
    4.1193355505892515E-01 
    3.6807346010788505E-01 
    3.2109964276024544E-01 
    2.7183453388296491E-01 
    2.2562545084701058E-01 
    1.9473397075452639E-01 
    6.7952343280415384E-01 
    6.7440399357877301E-01 
    6.6225910056026949E-01 
    6.4400566471295118E-01 
    6.2083671262735263E-01 
    5.9372288932924566E-01 
    5.6336025497512454E-01 
    5.3021307818327101E-01 
    4.9449535412626444E-01 
    4.5617328211039515E-01 
    4.1500873950461320E-01 
    3.7055246050985013E-01 
    3.2190922894135926E-01 
    2.6850875851552719E-01 
    2.1400837149674085E-01 
    1.7244980963999629E-01 
    6.7840769755644381E-01 
    6.7363118054363502E-01 
    6.6225138366687042E-01 
    6.4485100973435683E-01 
    6.2243168037725916E-01 
    5.9589747786495284E-01 
    5.6596210728767449E-01 
    5.3314468952093619E-01 
    4.9768958728396950E-01 
    4.5953113832727471E-01 
    4.1833654015780092E-01 
    3.7351998306161066E-01 
    3.2362668557202273E-01 
    2.6637646790547265E-01 
    2.0228875544508887E-01 
    1.4482792323139701E-01 
    6.7766947043402381E-01 
    6.7321705514128216E-01 
    6.6251021408963007E-01 
    6.4586998382610938E-01 
    6.2413943547029938E-01 
    5.9814653612908075E-01 
    5.6860949674288719E-01 
    5.3609274118311756E-01 
    5.0088574593764823E-01 
    4.6292071393961892E-01 
    4.2180020977006027E-01 
    3.7686366327419696E-01 
    3.2626897342118627E-01 
    2.6592382968750417E-01 
    1.9156619794613877E-01 
    1.1003033849273215E-01 
    6.7714134684015870E-01 
    6.7300631012584411E-01 
    6.6292427290590350E-01 
    6.4698528220270213E-01 
    6.2589390361962782E-01 
    6.0041252224064623E-01 
    5.7125354954961838E-01 
    5.3901415862243063E-01 
    5.0403382272913189E-01 
    4.6629497973436601E-01 
    4.2539775327548651E-01 
    3.8061500868199383E-01 
    3.2986241180350528E-01 
    2.6758843910783497E-01 
    1.8353459564952410E-01 
    6.4526406203821107E-02 
    6.7695697737305027E-01 
    6.7315172219464503E-01 
    6.6364501639310791E-01 
    6.4832904175080963E-01 
    6.2780371624954512E-01 
    6.0279682508032062E-01 
    5.7401673575452650E-01 
    5.4207862637410620E-01 
    5.0735500226098085E-01 
    4.6988465533184359E-01 
    4.2929927233827120E-01 
    3.8487263781400805E-01 
    3.3457259554866703E-01 
    2.7243597407742182E-01 
    1.8318207066529063E-01 
    0.0000000000000000E+00 

SCALARS Saturarion double 1 
LOOKUP_TABLE default 

    1.0000000000000007E+00 
    9.7356864604051419E-01 
    9.2596833236875487E-01 
    8.6468803210750178E-01 
    8.1297673369096646E-01 
    7.6811176594682462E-01 
    7.2985676970466751E-01 
    6.9717058784880748E-01 
    6.6859655172715915E-01 
    6.4268105271962561E-01 
    6.1803843021255811E-01 
    5.9321855075196595E-01 
    5.6634153846526114E-01 
    5.3494801771691880E-01 
    4.5406116013120335E-01 
    9.5840770408290962E-02 
    9.8977660134453660E-01 
    9.6472456943493035E-01 
    9.1487560491584241E-01 
    8.5680589388548423E-01 
    8.0750358238417341E-01 
    7.6456856406249896E-01 
    7.2733078855145195E-01 
    6.9502290887821272E-01 
    6.6666607350483098E-01 
    6.4106483741694109E-01 
    6.1706997075037362E-01 
    5.9326306592923539E-01 
    5.6755404327278336E-01 
    5.3714871818955068E-01 
    4.6043902152287491E-01 
    1.2849769187479146E-01 
    9.7367879240764288E-01 
    9.4881001482747174E-01 
    8.9896924718217419E-01 
    8.4315742652027881E-01 
    7.9674623100298936E-01 
    7.5704046912490153E-01 
    7.2200448211011770E-01 
    6.9061717612856255E-01 
    6.6252909267826843E-01 
    6.3720426731682478E-01 
    6.1397432999197177E-01 
    5.9158412710470643E-01 
    5.6790096069783325E-01 
    5.3965765579888114E-01 
    4.7041297130972576E-01 
    1.6570453406710006E-01 
    9.4552303864116449E-01 
    9.2478394048491885E-01 
    8.7974737627371724E-01 
    8.2816761982301101E-01 
    7.8286296545003919E-01 
    7.4522894259753913E-01 
    7.1266597101810736E-01 
    6.8351465864753946E-01 
    6.5694314513771779E-01 
    6.3279236413936868E-01 
    6.1052380392892436E-01 
    5.8936010515448012E-01 
    5.6756166080497716E-01 
    5.4186159551422441E-01 
    4.8018305917339327E-01 
    2.0425286842298337E-01 
    9.1180084001237549E-01 
    8.9391371838183398E-01 
    8.5424200909043024E-01 
    8.0795065670375199E-01 
    7.6526317345070949E-01 
    7.2917957850087523E-01 
    6.9871483406135404E-01 
    6.7211884473308636E-01 
    6.4828312338130678E-01 
    6.2656447205330223E-01 
    6.0644116909795465E-01 
    5.8707790559468531E-01 
    5.6699590792394450E-01 
    5.4355591072669029E-01 
    4.8933585534762097E-01 
    2.3352679136400584E-01 
    8.7519979542140847E-01 
    8.6046941721718617E-01 
    8.2631278107037520E-01 
    7.8506318301712530E-01 
    7.4600331081668680E-01 
    7.1188821370542144E-01 
    6.8259674433131967E-01 
    6.5770868528087489E-01 
    6.3625541690241616E-01 
    6.1723329452138542E-01 
    5.9987159741439255E-01 
    5.8343807083582133E-01 
    5.6610249952646907E-01 
    5.4489318815785615E-01 
    4.9693219795677940E-01 
    2.5912515207322445E-01 
    8.3623668812944962E-01 
    8.2525634461174258E-01 
    7.9703265404964774E-01 
    7.6083173301196627E-01 
    7.2556180432464268E-01 
    6.9394908687743340E-01 
    6.6645249764511605E-01 
    6.4266339917858950E-01 
    6.2250663274308826E-01 
    6.0544589635450607E-01 
    5.9072765430844187E-01 
    5.7739838376827823E-01 
    5.6382752687297044E-01 
    5.4606054731447418E-01 
    5.0419797011294110E-01 
    2.8407372641502371E-01 
    7.9482725785313979E-01 
    7.8800814424993204E-01 
    7.6637390315297083E-01 
    7.3557971515282849E-01 
    7.0370800463777139E-01 
    6.7449949811116949E-01 
    6.4871791610374263E-01 
    6.2649253267940563E-01 
    6.0755787732682265E-01 
    5.9188240461674235E-01 
    5.7919174510334770E-01 
    5.6891420083654576E-01 
    5.5935517682568814E-01 
    5.4638567317168774E-01 
    5.1111392870025318E-01 
    3.0909562944105645E-01 
    7.5124097355234942E-01 
    7.4832155621402696E-01 
    7.3290429174221416E-01 
    7.0777058107125346E-01 
    6.7989361928171932E-01 
    6.5321547823077364E-01 
    6.2931539589132146E-01 
    6.0835566914584283E-01 
    5.9038278952397472E-01 
    5.7565403913455526E-01 
    5.6465117126595266E-01 
    5.5735476521610838E-01 
    5.5224174384265401E-01 
    5.4489481628270497E-01 
    5.1739128832949255E-01 
    3.3225462331712691E-01 
    7.0543515802371104E-01 
    7.0605894548528469E-01 
    6.9630024718561079E-01 
    6.7648919243163164E-01 
    6.5296404278205977E-01 
    6.2946291752015082E-01 
    6.0761078916017108E-01 
    5.8821883803090247E-01 
    5.7135756291797690E-01 
    5.5740134380879980E-01 
    5.4723232087727935E-01 
    5.4198987714141111E-01 
    5.4142245802275801E-01 
    5.4080553601770176E-01 
    5.2204772228044649E-01 
    3.5448989469356890E-01 
    6.5708994889590544E-01 
    6.6090079245272271E-01 
    6.5630440572544857E-01 
    6.4146253369332173E-01 
    6.2241788561156630E-01 
    6.0275106515850518E-01 
    5.8401061602469162E-01 
    5.6653532376287852E-01 
    5.5113960246624838E-01 
    5.3843740728337230E-01 
    5.2909557691101083E-01 
    5.2432211376767413E-01 
    5.2618323392673882E-01 
    5.3280712105219541E-01 
    5.2476315422291986E-01 
    3.7662976833446055E-01 
    6.0585063582636378E-01 
    6.1238536901420693E-01 
    6.1287677429220444E-01 
    6.0320774894928353E-01 
    5.8861508535205809E-01 
    5.7256361879009765E-01 
    5.5674695484162307E-01 
    5.4220214127772604E-01 
    5.2942411264709821E-01 
    5.1865528900198987E-01 
    5.1022934410369436E-01 
    5.0562039615928345E-01 
    5.0766202446284825E-01 
    5.1928362784054183E-01 
    5.2184363014941682E-01 
    3.9817030002910819E-01 
    5.5566027854351685E-01 
    5.6365741435771521E-01 
    5.6788480940113550E-01 
    5.6288067087398130E-01 
    5.5239502706005250E-01 
    5.3915325863700192E-01 
    5.2595116422591504E-01 
    5.1354399026526254E-01 
    5.0128329669166372E-01 
    4.9035763220382750E-01 
    4.8332445781114114E-01 
    4.8026487449458488E-01 
    4.8381881285846923E-01 
    4.9942237742462314E-01 
    5.1520072069703282E-01 
    4.1700519622491716E-01 
    4.7809645970689624E-01 
    4.9536433412016156E-01 
    5.0704155326367673E-01 
    5.0888951287560125E-01 
    5.0073182733069355E-01 
    4.8822185047702821E-01 
    4.7249982190737744E-01 
    4.5357643030499711E-01 
    4.1959032260750517E-01 
    3.7295184119737168E-01 
    3.2753689232909383E-01 
    3.3869824218673977E-01 
    3.7610919030946882E-01 
    4.4049710666458497E-01 
    4.9397107052133415E-01 
    4.3012932332722237E-01 
    1.5590229172109088E-01 
    2.3558611270921509E-01 
    2.8302779636669539E-01 
    2.9381101583815378E-01 
    2.7795511305768311E-01 
    2.2724177812854948E-01 
    1.9341264519823731E-01 
    1.2559893132277961E-01 
    6.3923359845702424E-02 
    2.7072530319333384E-02 
    6.8890596532891982E-03 
    1.4102644684687542E-02 
    6.5512029241512074E-02 
    1.9932268825898850E-01 
    4.1937918483961389E-01 
    4.3384949910317050E-01 
    1.0044038036893832E-06 
    6.2768565160666327E-04 
    1.4784501840322702E-03 
    7.3493182214185023E-04 
    1.3594755162801759E-03 
    6.0467208641236275E-05 
    1.0588694194031884E-04 
    5.6744626657643685E-06 
    6.1540376172379962E-06 
    5.4732547356814240E-06 
    1.0683846188289445E-06 
    1.7931372573264954E-06 
    1.2695457663875623E-04 
    3.0686713185352626E-02 
    2.4562257032183180E-01 
    3.8528179273518282E-01 
