# vtk DataFile Version 2.0
Pressure Field Data 
ASCII 
DATASET UNSTRUCTURED_GRID 

POINTS 289 double 

    0.0000000000000000E+00     0.0000000000000000E+00     0.0000000000000000E+00 
    1.0000000000000000E+00     0.0000000000000000E+00     0.0000000000000000E+00 
    1.0000000000000000E+00     1.0000000000000000E+00     0.0000000000000000E+00 
    0.0000000000000000E+00     1.0000000000000000E+00     0.0000000000000000E+00 
    6.2499999999872928E-02     0.0000000000000000E+00     0.0000000000000000E+00 
    1.2499999999977310E-01     0.0000000000000000E+00     0.0000000000000000E+00 
    1.8749999999959341E-01     0.0000000000000000E+00     0.0000000000000000E+00 
    2.4999999999941089E-01     0.0000000000000000E+00     0.0000000000000000E+00 
    3.1249999999922851E-01     0.0000000000000000E+00     0.0000000000000000E+00 
    3.7499999999904610E-01     0.0000000000000000E+00     0.0000000000000000E+00 
    4.3749999999886358E-01     0.0000000000000000E+00     0.0000000000000000E+00 
    4.9999999999869210E-01     0.0000000000000000E+00     0.0000000000000000E+00 
    5.6249999999884603E-01     0.0000000000000000E+00     0.0000000000000000E+00 
    6.2499999999901090E-01     0.0000000000000000E+00     0.0000000000000000E+00 
    6.8749999999917577E-01     0.0000000000000000E+00     0.0000000000000000E+00 
    7.4999999999934064E-01     0.0000000000000000E+00     0.0000000000000000E+00 
    8.1249999999950551E-01     0.0000000000000000E+00     0.0000000000000000E+00 
    8.7499999999967026E-01     0.0000000000000000E+00     0.0000000000000000E+00 
    9.3749999999983513E-01     0.0000000000000000E+00     0.0000000000000000E+00 
    1.0000000000000000E+00     6.2499999999872928E-02     0.0000000000000000E+00 
    1.0000000000000000E+00     1.2499999999977310E-01     0.0000000000000000E+00 
    1.0000000000000000E+00     1.8749999999959341E-01     0.0000000000000000E+00 
    1.0000000000000000E+00     2.4999999999941089E-01     0.0000000000000000E+00 
    1.0000000000000000E+00     3.1249999999922851E-01     0.0000000000000000E+00 
    1.0000000000000000E+00     3.7499999999904610E-01     0.0000000000000000E+00 
    1.0000000000000000E+00     4.3749999999886358E-01     0.0000000000000000E+00 
    1.0000000000000000E+00     4.9999999999869210E-01     0.0000000000000000E+00 
    1.0000000000000000E+00     5.6249999999884603E-01     0.0000000000000000E+00 
    1.0000000000000000E+00     6.2499999999901090E-01     0.0000000000000000E+00 
    1.0000000000000000E+00     6.8749999999917577E-01     0.0000000000000000E+00 
    1.0000000000000000E+00     7.4999999999934064E-01     0.0000000000000000E+00 
    1.0000000000000000E+00     8.1249999999950551E-01     0.0000000000000000E+00 
    1.0000000000000000E+00     8.7499999999967026E-01     0.0000000000000000E+00 
    1.0000000000000000E+00     9.3749999999983513E-01     0.0000000000000000E+00 
    9.3749999999973976E-01     1.0000000000000000E+00     0.0000000000000000E+00 
    8.7499999999950118E-01     1.0000000000000000E+00     0.0000000000000000E+00 
    8.1249999999991318E-01     1.0000000000000000E+00     0.0000000000000000E+00 
    7.5000000000034706E-01     1.0000000000000000E+00     0.0000000000000000E+00 
    6.8750000000078049E-01     1.0000000000000000E+00     0.0000000000000000E+00 
    6.2500000000121403E-01     1.0000000000000000E+00     0.0000000000000000E+00 
    5.6250000000164757E-01     1.0000000000000000E+00     0.0000000000000000E+00 
    5.0000000000205946E-01     1.0000000000000000E+00     0.0000000000000000E+00 
    4.3750000000182099E-01     1.0000000000000000E+00     0.0000000000000000E+00 
    3.7500000000156092E-01     1.0000000000000000E+00     0.0000000000000000E+00 
    3.1250000000130068E-01     1.0000000000000000E+00     0.0000000000000000E+00 
    2.5000000000104050E-01     1.0000000000000000E+00     0.0000000000000000E+00 
    1.8750000000078040E-01     1.0000000000000000E+00     0.0000000000000000E+00 
    1.2500000000052031E-01     1.0000000000000000E+00     0.0000000000000000E+00 
    6.2500000000260125E-02     1.0000000000000000E+00     0.0000000000000000E+00 
    0.0000000000000000E+00     9.3749999999973976E-01     0.0000000000000000E+00 
    0.0000000000000000E+00     8.7499999999950118E-01     0.0000000000000000E+00 
    0.0000000000000000E+00     8.1249999999991318E-01     0.0000000000000000E+00 
    0.0000000000000000E+00     7.5000000000034706E-01     0.0000000000000000E+00 
    0.0000000000000000E+00     6.8750000000078049E-01     0.0000000000000000E+00 
    0.0000000000000000E+00     6.2500000000121403E-01     0.0000000000000000E+00 
    0.0000000000000000E+00     5.6250000000164757E-01     0.0000000000000000E+00 
    0.0000000000000000E+00     5.0000000000205946E-01     0.0000000000000000E+00 
    0.0000000000000000E+00     4.3750000000182099E-01     0.0000000000000000E+00 
    0.0000000000000000E+00     3.7500000000156092E-01     0.0000000000000000E+00 
    0.0000000000000000E+00     3.1250000000130068E-01     0.0000000000000000E+00 
    0.0000000000000000E+00     2.5000000000104050E-01     0.0000000000000000E+00 
    0.0000000000000000E+00     1.8750000000078040E-01     0.0000000000000000E+00 
    0.0000000000000000E+00     1.2500000000052031E-01     0.0000000000000000E+00 
    0.0000000000000000E+00     6.2500000000260125E-02     0.0000000000000000E+00 
    6.2499999999897131E-02     6.2500000000235922E-02     0.0000000000000000E+00 
    6.2499999999921327E-02     1.2500000000047351E-01     0.0000000000000000E+00 
    6.2499999999945530E-02     1.8750000000070621E-01     0.0000000000000000E+00 
    6.2499999999969733E-02     2.5000000000093858E-01     0.0000000000000000E+00 
    6.2499999999993928E-02     3.1250000000117117E-01     0.0000000000000000E+00 
    6.2500000000018124E-02     3.7500000000140382E-01     0.0000000000000000E+00 
    6.2500000000042327E-02     4.3750000000163619E-01     0.0000000000000000E+00 
    6.2500000000066530E-02     5.0000000000184897E-01     0.0000000000000000E+00 
    6.2500000000090733E-02     5.6250000000147260E-01     0.0000000000000000E+00 
    6.2500000000114922E-02     6.2500000000107636E-01     0.0000000000000000E+00 
    6.2500000000139125E-02     6.8750000000068034E-01     0.0000000000000000E+00 
    6.2500000000163328E-02     7.5000000000028411E-01     0.0000000000000000E+00 
    6.2500000000187531E-02     8.1249999999988787E-01     0.0000000000000000E+00 
    6.2500000000211720E-02     8.7499999999951172E-01     0.0000000000000000E+00 
    6.2500000000235922E-02     9.3749999999974565E-01     0.0000000000000000E+00 
    1.2499999999981980E-01     6.2500000000211733E-02     0.0000000000000000E+00 
    1.2499999999986650E-01     1.2500000000042691E-01     0.0000000000000000E+00 
    1.2499999999991319E-01     1.8750000000063199E-01     0.0000000000000000E+00 
    1.2499999999995989E-01     2.5000000000083678E-01     0.0000000000000000E+00 
    1.2500000000000661E-01     3.1250000000104172E-01     0.0000000000000000E+00 
    1.2500000000005329E-01     3.7500000000124661E-01     0.0000000000000000E+00 
    1.2500000000010000E-01     4.3750000000145117E-01     0.0000000000000000E+00 
    1.2500000000014669E-01     5.0000000000163858E-01     0.0000000000000000E+00 
    1.2500000000019340E-01     5.6250000000129741E-01     0.0000000000000000E+00 
    1.2500000000024011E-01     6.2500000000093847E-01     0.0000000000000000E+00 
    1.2500000000028680E-01     6.8750000000057998E-01     0.0000000000000000E+00 
    1.2500000000033351E-01     7.5000000000022127E-01     0.0000000000000000E+00 
    1.2500000000038020E-01     8.1249999999986211E-01     0.0000000000000000E+00 
    1.2500000000042691E-01     8.7499999999952238E-01     0.0000000000000000E+00 
    1.2500000000047359E-01     9.3749999999975164E-01     0.0000000000000000E+00 
    1.8749999999966760E-01     6.2500000000187531E-02     0.0000000000000000E+00 
    1.8749999999974179E-01     1.2500000000038020E-01     0.0000000000000000E+00 
    1.8749999999981601E-01     1.8750000000055780E-01     0.0000000000000000E+00 
    1.8749999999989009E-01     2.5000000000073502E-01     0.0000000000000000E+00 
    1.8749999999996431E-01     3.1250000000091221E-01     0.0000000000000000E+00 
    1.8750000000003850E-01     3.7500000000108941E-01     0.0000000000000000E+00 
    1.8750000000011269E-01     4.3750000000126649E-01     0.0000000000000000E+00 
    1.8750000000018691E-01     5.0000000000142808E-01     0.0000000000000000E+00 
    1.8750000000026110E-01     5.6250000000112244E-01     0.0000000000000000E+00 
    1.8750000000033529E-01     6.2500000000080080E-01     0.0000000000000000E+00 
    1.8750000000040951E-01     6.8750000000047962E-01     0.0000000000000000E+00 
    1.8750000000048361E-01     7.5000000000015843E-01     0.0000000000000000E+00 
    1.8750000000055780E-01     8.1249999999983680E-01     0.0000000000000000E+00 
    1.8750000000063199E-01     8.7499999999953304E-01     0.0000000000000000E+00 
    1.8750000000070621E-01     9.3749999999975764E-01     0.0000000000000000E+00 
    2.4999999999951281E-01     6.2500000000163314E-02     0.0000000000000000E+00 
    2.4999999999961461E-01     1.2500000000033351E-01     0.0000000000000000E+00 
    2.4999999999971650E-01     1.8750000000048361E-01     0.0000000000000000E+00 
    2.4999999999981831E-01     2.5000000000063310E-01     0.0000000000000000E+00 
    2.4999999999992020E-01     3.1250000000078260E-01     0.0000000000000000E+00 
    2.5000000000002198E-01     3.7500000000093209E-01     0.0000000000000000E+00 
    2.5000000000012390E-01     4.3750000000108180E-01     0.0000000000000000E+00 
    2.5000000000022571E-01     5.0000000000121769E-01     0.0000000000000000E+00 
    2.5000000000032763E-01     5.6250000000094724E-01     0.0000000000000000E+00 
    2.5000000000042938E-01     6.2500000000066314E-01     0.0000000000000000E+00 
    2.5000000000053119E-01     6.8750000000037925E-01     0.0000000000000000E+00 
[...]
CELL_DATA 256 
SCALARS Pressure double 1 
LOOKUP_TABLE default 

    8.5666271344315492E-01 
    8.0502057173076025E-01 
    7.7042850272608565E-01 
    7.3797163773298480E-01 
    7.0434385724582338E-01 
    6.6880856015638912E-01 
    6.3122145516400452E-01 
    5.9174826356847343E-01 
    5.5078664183043402E-01 
    5.0901780222023985E-01 
    4.6756447899950299E-01 
    4.2822542601425773E-01 
    3.9356621718307561E-01 
    3.6571845579092138E-01 
    3.4407933048198341E-01 
    3.3402176614624635E-01 
    8.4272173319519539E-01 
    8.0649097593536967E-01 
    7.7308649981481814E-01 
    7.4092730598642231E-01 
    7.0755911339060051E-01 
    6.7227197759729729E-01 
    6.3490551207834256E-01 
    5.9559869999483250E-01 
    5.5471674861454845E-01 
    5.1289451205258618E-01 
    4.7118480814607738E-01 
    4.3130331363072910E-01 
    3.9579834593979307E-01 
    3.6702080923579133E-01 
    3.4442849518789337E-01 
    3.3360221708762378E-01 
    8.3199901576449331E-01 
    8.0576528554441251E-01 
    7.7493679129768422E-01 
    7.4349303032059155E-01 
    7.1051800741235804E-01 
    6.7553370285292813E-01 
    6.3841377331859228E-01 
    5.9927930556012743E-01 
    5.5845850937711061E-01 
    5.1652904862185722E-01 
    4.7445748509569258E-01 
    4.3385520750710937E-01 
    3.9723430782324748E-01 
    3.6721104312564068E-01 
    3.4349915797911734E-01 
    3.3206475381637013E-01 
    8.2348916617995116E-01 
    8.0388782205848319E-01 
    7.7601411405627696E-01 
    7.4565278858703632E-01 
    7.1322410686896975E-01 
    6.7860359431535755E-01 
    6.4175533746781732E-01 
    6.0280180348859613E-01 
    5.6203480850686893E-01 
    5.1996329996217427E-01 
    4.7744756368203717E-01 
    4.3596546956039794E-01 
    3.9795872570665969E-01 
    3.6631374899301417E-01 
    3.4123489845098115E-01 
    3.2922249179755031E-01 
    8.1653832052372932E-01 
    8.0143584944554958E-01 
    7.7644502176728214E-01 
    7.4741473578832118E-01 
    7.1568247232415028E-01 
    6.8149641625567925E-01 
    6.4494904614139925E-01 
    6.0618778293332254E-01 
    5.6547507500570682E-01 
    5.2324366666216016E-01 
    4.8022619579343007E-01 
    4.3773075292837577E-01 
    3.9807595295500647E-01 
    3.6438298703730360E-01 
    3.3759298450817110E-01 
    3.2488766260555529E-01 
    8.1078258821675420E-01 
    7.9876722949018808E-01 
    7.7638509906328423E-01 
    7.4881541584433409E-01 
    7.1790545017326124E-01 
    6.8422843478440831E-01 
    6.4801880665112754E-01 
    6.0946689007335264E-01 
    5.6881507660296859E-01 
    5.2641893959205499E-01 
    4.8286665811906460E-01 
    4.3925633988735185E-01 
    3.9770819090215070E-01 
    3.6150324149015861E-01 
    3.3252975172816190E-01 
    3.1882987117798184E-01 
    8.0598911878831891E-01 
    7.9611389101819285E-01 
    7.7599794689581381E-01 
    7.4991928794704144E-01 
    7.1991965063722863E-01 
    6.8681860558200203E-01 
    6.5098799010460429E-01 
    6.1266986911444621E-01 
    5.7209336692103563E-01 
    5.2954016200992937E-01 
    4.8544428864838779E-01 
    4.4065454366270312E-01 
    3.9699640507171396E-01 
    3.5777939384637608E-01 
    3.2595458074765671E-01 
    3.1068886546060182E-01 
    8.0199201456249836E-01 
    7.9362083936010697E-01 
    7.7543016188409419E-01 
    7.5080118542576546E-01 
    7.2176103219983778E-01 
    6.8928949282828333E-01 
    6.5387829929860231E-01 
    6.1582366221071405E-01 
    5.7534710845201753E-01 
    5.3266025267465922E-01 
    4.8803888632136300E-01 
    4.4204898395260039E-01 
    3.9611093933449276E-01 
    3.5336251378616468E-01 
    3.1774993085979697E-01 
    2.9990551780500829E-01 
    7.9867425366322597E-01 
    7.9137582311171661E-01 
    7.7480204668697228E-01 
    7.5153780181356244E-01 
    7.2347193202084270E-01 
    6.9166679307679724E-01 
    6.5670906103016158E-01 
    6.1894973745666837E-01 
    5.7860810280727981E-01 
    5.3582991082615272E-01 
    4.9073114011268204E-01 
    4.4357208943748871E-01 
    3.9525580308380298E-01 
    3.4846446501980116E-01 
    3.0785259160854722E-01 
    2.8583951855639889E-01 
    7.9595047339704728E-01 
    7.8942794267922833E-01 
    7.7420613163591812E-01 
    7.5220183475152003E-01 
    7.2510014136707157E-01 
    6.9398070785670762E-01 
    6.5950005283925905E-01 
    6.2206711383510727E-01 
    5.8190435825191467E-01 
    5.3909543474980071E-01 
    4.9359823623430960E-01 
    4.4536032984756596E-01 
    3.9466853126668017E-01 
    3.4338608004429727E-01 
    2.9632208565764229E-01 
    2.6790897340434988E-01 
    7.9376079995636317E-01 
    7.8780958807911294E-01 
    7.7372155146801436E-01 
    7.5286640591399645E-01 
    7.2670084287713332E-01 
    6.9627042269101969E-01 
    6.6227808945208788E-01 
    6.2519749104206135E-01 
    5.8526081575574540E-01 
    5.4249405794944205E-01 
    4.9670513945635003E-01 
    4.4754508916175884E-01 
    3.9461440279786331E-01 
    3.3854761487114421E-01 
    2.8340432962926748E-01 
    2.4546845826247679E-01 
    7.9207005255621898E-01 
    7.8655674236075712E-01 
    7.7342665848623871E-01 
    7.5360713196430718E-01 
    7.2833522333894307E-01 
    6.9858532138512286E-01 
    6.6508000438340265E-01 
    6.2836272059961684E-01 
    5.8868825644619649E-01 
    5.4603457541775280E-01 
    5.0007656603585604E-01 
    4.5021677731223764E-01 
    3.9534739357551119E-01 
    3.3447433759594841E-01 
    2.6956363640839859E-01 
    2.1762438525102384E-01 
    7.9084505457645049E-01 
    7.8569962247995961E-01 
    7.7338987285958594E-01 
    7.5449095437235214E-01 
    7.3005573968730475E-01 
    7.0096711293064384E-01 
    6.6792965862400533E-01 
    6.3153803614762127E-01 
    5.9207925514962334E-01 
    5.4954881370137743E-01 
    5.0352044370938409E-01 
    4.5322324464145902E-01 
    3.9690830777826491E-01 
    3.3160074918535182E-01 
    2.5541521578993054E-01 
    1.8294115098898031E-01 
    7.8988314583626029E-01 
    7.8512200705905921E-01 
    7.7356842657595137E-01 
    7.5548436504447836E-01 
    7.3178302318170585E-01 
    7.0330763251151218E-01 
    6.7072172104840355E-01 
    6.3462446781842330E-01 
    5.9534296440891399E-01 
    5.5296877200362504E-01 
    5.0705678710910573E-01 
    4.5663999136324485E-01 
    3.9941673902435587E-01 
    3.3031385834770532E-01 
    2.4164845294239284E-01 
    1.3861111672293761E-01 
    7.8922994011100356E-01 
    7.8479469972909732E-01 
    7.7391894785755511E-01 
    7.5656895533431923E-01 
    7.3351749918502951E-01 
    7.0561162815440415E-01 
    6.7350596689520303E-01 
    6.3776830017113850E-01 
    5.9876389829569299E-01 
    5.5663961650050731E-01 
    5.1098694409447187E-01 
    4.6072971954513908E-01 
    4.0334708915072270E-01 
    3.3227503713440465E-01 
    2.3140722891985205E-01 
    7.9871589891789177E-02 
    7.8904717429118909E-01 
    7.8497235857925840E-01 
    7.7470624708902946E-01 
    7.5801563840352815E-01 
    7.3556073910572306E-01 
    7.0817892476937438E-01 
    6.7653865740356922E-01 
    6.4118865263331315E-01 
    6.0251993959980221E-01 
    5.6069408361134387E-01 
    5.1534932155094093E-01 
    4.6544656781374677E-01 
    4.0853873050972478E-01 
    3.3811912481980289E-01 
    2.3247673245888323E-01 
    0.0000000000000000E+00 

SCALARS Saturarion double 1 
LOOKUP_TABLE default 

    1.0000000000000011E+00 
    9.6744520846961357E-01 
    9.1077729393862472E-01 
    8.4100984138093504E-01 
    7.8179447959769932E-01 
    7.3232005680448586E-01 
    6.9163667106948801E-01 
    6.5750737019268890E-01 
    6.2753669738776130E-01 
    5.9982090862725590E-01 
    5.7308798170136754E-01 
    5.4648950445822653E-01 
    5.1771081523721885E-01 
    4.5631533931678814E-01 
    1.5984479946791483E-01 
    1.0000060753917223E-06 
    9.8677333767692388E-01 
    9.5592034269048842E-01 
    8.9658579783997816E-01 
    8.3168867122513113E-01 
    7.7643616974641083E-01 
    7.2903268256038767E-01 
    6.8891897984859152E-01 
    6.5478843271640219E-01 
    6.2501065519742183E-01 
    5.9788621876354164E-01 
    5.7207870691599272E-01 
    5.4649691515130572E-01 
    5.1878086288950820E-01 
    4.6065786432762357E-01 
    1.8331262920357613E-01 
    1.2551366069224478E-05 
    9.6600188827983535E-01 
    9.3594935889077291E-01 
    8.7711160953235867E-01 
    8.1596535444681728E-01 
    7.6558357253044196E-01 
    7.2181261760690629E-01 
    6.8321646287263971E-01 
    6.4927061555438415E-01 
    6.1964914540977845E-01 
    5.9335617868676549E-01 
    5.6906986446436858E-01 
    5.4518924330750351E-01 
    5.1926820358036052E-01 
    4.6746362297290150E-01 
    2.1430980990552428E-01 
    1.1353179836468967E-04 
    9.2956167513330978E-01 
    9.0532496824564679E-01 
    8.5359135915750728E-01 
    7.9695553982666478E-01 
    7.4918846913558257E-01 
    7.0938823638164494E-01 
    6.7412955879021730E-01 
    6.4247789418318646E-01 
    6.1415699082487496E-01 
    5.8893433106869131E-01 
    5.6575867387948786E-01 
    5.4335143908931238E-01 
    5.1966463826015352E-01 
    4.7395458942720536E-01 
    2.5373778472989023E-01 
    7.9089349808970357E-04 
    8.8843021147145296E-01 
    8.6800398986675575E-01 
    8.2323321447910458E-01 
    7.7305679220597023E-01 
    7.2895936039106113E-01 
    6.9212499314280118E-01 
    6.6051126592300946E-01 
    6.3242133157252789E-01 
    6.0706146190473587E-01 
    5.8394324041591772E-01 
    5.6248236145416919E-01 
    5.4170274993297107E-01 
    5.1992344182183581E-01 
    4.8003074825590114E-01 
    2.9555133314171034E-01 
    3.1559907781237720E-03 
    8.4559425576647917E-01 
    8.2905678427926555E-01 
    7.9146035600666675E-01 
    7.4777176420684188E-01 
    7.0771396865830449E-01 
    6.7327910912700972E-01 
    6.4392686465383109E-01 
    6.1882622754542482E-01 
    5.9657282410510182E-01 
    5.7611036575833929E-01 
    5.5696933634893275E-01 
    5.3869916296531084E-01 
    5.1969157029126700E-01 
    4.8493707795633983E-01 
    3.3295201175542122E-01 
    1.1858641789113193E-02 
    8.0125380740211194E-01 
    7.8935442485640683E-01 
    7.5919947126891352E-01 
    7.2145634323363761E-01 
    6.8541552109203818E-01 
    6.5375503341174135E-01 
    6.2677971601047999E-01 
    6.0359545928027203E-01 
    5.8355206288915751E-01 
    5.6566000245417991E-01 
    5.4919431698812149E-01 
    5.3360983975839060E-01 
    5.1787641629395131E-01 
    4.8914810059091196E-01 
    3.6175944870856064E-01 
    3.2859102632721231E-02 
    7.5552476011769210E-01 
    7.4844842412832246E-01 
    7.2595865988262287E-01 
    6.9422283798107898E-01 
    6.6190280807059287E-01 
    6.3294962139646893E-01 
    6.0788581902716832E-01 
    5.8652869270727137E-01 
    5.6839516092918352E-01 
    5.5297466432412512E-01 
    5.3929537469109334E-01 
    5.2670019478625030E-01 
    5.1431825257672648E-01 
    4.9241227206664390E-01 
    3.8826306012537720E-01 
    7.4187091233105337E-02 
    7.0851526690388322E-01 
    7.0571684852791561E-01 
    6.9010005992336576E-01 
    6.6466543926387500E-01 
    6.3689073319213396E-01 
    6.1073600184510357E-01 
    5.8738534989196911E-01 
    5.6706136266769958E-01 
    5.5032122669484207E-01 
    5.3704228333721293E-01 
    5.2644084778937317E-01 
    5.1733990798625062E-01 
    5.0874925061661602E-01 
    4.9359499388033956E-01 
    4.0849842571881151E-01 
    1.1974161656099479E-01 
    6.6020399906383287E-01 
    6.6112166440058306E-01 
    6.5160342730684673E-01 
    6.3212071363077882E-01 
    6.0934912389024232E-01 
    5.8675844449194903E-01 
    5.6541744738044797E-01 
    5.4649176241304853E-01 
    5.3116583710852394E-01 
    5.1950277555282509E-01 
    5.1067752400582378E-01 
    5.0473055608075401E-01 
    5.0066351947423171E-01 
    4.9259955053792920E-01 
    4.2603383548704432E-01 
    1.6350904030645427E-01 
    6.1109677032580190E-01 
    6.1507046797210896E-01 
    6.1099828987717175E-01 
    5.9714959701530212E-01 
    5.7933216824082878E-01 
    5.6085247307962338E-01 
    5.4305474032386802E-01 
    5.2643425665404875E-01 
    5.1215271562905862E-01 
    5.0066247751300197E-01 
    4.9196939253934008E-01 
    4.8757486325727145E-01 
    4.8831907622480891E-01 
    4.8825633786319317E-01 
    4.4076313159012864E-01 
    2.0446513361049953E-01 
    5.6382252923760579E-01 
    5.6977853329869688E-01 
    5.7038218123315998E-01 
    5.6146770804819313E-01 
    5.4732022038414219E-01 
    5.3236058092934335E-01 
    5.1845247883239742E-01 
    5.0440671032973261E-01 
    4.8925084000221253E-01 
    4.7503375868860992E-01 
    4.6293742432404950E-01 
    4.5861048344457539E-01 
    4.6488521719489034E-01 
    4.7635548051715304E-01 
    4.5094757034552296E-01 
    2.4280495629060553E-01 
    5.1052834658523349E-01 
    5.2091164923559286E-01 
    5.2529035637031718E-01 
    5.2097958353044727E-01 
    5.0867115937687002E-01 
    4.9422768825799168E-01 
    4.7999748295360600E-01 
    4.6237245645033426E-01 
    4.2549764713865118E-01 
    3.6353616994698235E-01 
    3.0936534749918676E-01 
    3.0519012032534948E-01 
    3.6198506913448969E-01 
    4.3384896968258391E-01 
    4.4467379299669224E-01 
    2.7820636747307204E-01 
    3.2534526693273669E-01 
    3.9148385645754097E-01 
    4.2242039301248402E-01 
    4.2450231702850993E-01 
    3.9815871060614000E-01 
    3.2937803687791750E-01 
    2.6292804616681015E-01 
    1.9748298665259675E-01 
    9.6739182239286722E-02 
    2.2490874480874275E-02 
    5.9677590323304617E-03 
    5.9148363534071262E-03 
    8.5251009909629055E-02 
    2.6475396588559208E-01 
    4.0006182184699757E-01 
    2.9938256352235237E-01 
    4.2376660758922449E-03 
    4.8508194720892302E-02 
    7.3612953737367287E-02 
    7.1657236954883768E-02 
    4.1137445661021975E-02 
    7.8401787590904812E-03 
    9.7077545398704295E-04 
    8.3521103974491250E-05 
    2.5450012083688324E-05 
    6.3865521424633484E-06 
    1.1092277597688636E-06 
    1.1834570147563728E-06 
    4.6478980295079826E-04 
    5.7979669455636491E-02 
    3.0163516222266340E-01 
    3.0703616448296955E-01 
    1.0000260753411461E-06 
    2.0855317304153377E-05 
    3.2598053854092055E-06 
    3.5336570870793378E-06 
    1.0173699292574847E-05 
    1.5816043156809617E-06 
    1.0092617745673779E-06 
    1.0002075659833303E-06 
    1.0000402824161657E-06 
    1.0000009753099753E-06 
    1.0000000101695904E-06 
    1.0000000223040281E-06 
    1.0555003096466909E-06 
    2.5482918863147810E-04 
    1.6964575837898507E-01 
    2.7594964696474544E-01 
