# vtk DataFile Version 2.0
Pressure Field Data 
ASCII 
DATASET UNSTRUCTURED_GRID 

POINTS 289 double 

    0.0000000000000000E+00     0.0000000000000000E+00     0.0000000000000000E+00 
    1.0000000000000000E+00     0.0000000000000000E+00     0.0000000000000000E+00 
    1.0000000000000000E+00     1.0000000000000000E+00     0.0000000000000000E+00 
    0.0000000000000000E+00     1.0000000000000000E+00     0.0000000000000000E+00 
    6.2499999999872928E-02     0.0000000000000000E+00     0.0000000000000000E+00 
    1.2499999999977310E-01     0.0000000000000000E+00     0.0000000000000000E+00 
    1.8749999999959341E-01     0.0000000000000000E+00     0.0000000000000000E+00 
    2.4999999999941089E-01     0.0000000000000000E+00     0.0000000000000000E+00 
    3.1249999999922851E-01     0.0000000000000000E+00     0.0000000000000000E+00 
    3.7499999999904610E-01     0.0000000000000000E+00     0.0000000000000000E+00 
    4.3749999999886358E-01     0.0000000000000000E+00     0.0000000000000000E+00 
    4.9999999999869210E-01     0.0000000000000000E+00     0.0000000000000000E+00 
    5.6249999999884603E-01     0.0000000000000000E+00     0.0000000000000000E+00 
    6.2499999999901090E-01     0.0000000000000000E+00     0.0000000000000000E+00 
    6.8749999999917577E-01     0.0000000000000000E+00     0.0000000000000000E+00 
    7.4999999999934064E-01     0.0000000000000000E+00     0.0000000000000000E+00 
    8.1249999999950551E-01     0.0000000000000000E+00     0.0000000000000000E+00 
    8.7499999999967026E-01     0.0000000000000000E+00     0.0000000000000000E+00 
    9.3749999999983513E-01     0.0000000000000000E+00     0.0000000000000000E+00 
    1.0000000000000000E+00     6.2499999999872928E-02     0.0000000000000000E+00 
    1.0000000000000000E+00     1.2499999999977310E-01     0.0000000000000000E+00 
    1.0000000000000000E+00     1.8749999999959341E-01     0.0000000000000000E+00 
    1.0000000000000000E+00     2.4999999999941089E-01     0.0000000000000000E+00 
    1.0000000000000000E+00     3.1249999999922851E-01     0.0000000000000000E+00 
    1.0000000000000000E+00     3.7499999999904610E-01     0.0000000000000000E+00 
    1.0000000000000000E+00     4.3749999999886358E-01     0.0000000000000000E+00 
    1.0000000000000000E+00     4.9999999999869210E-01     0.0000000000000000E+00 
    1.0000000000000000E+00     5.6249999999884603E-01     0.0000000000000000E+00 
    1.0000000000000000E+00     6.2499999999901090E-01     0.0000000000000000E+00 
    1.0000000000000000E+00     6.8749999999917577E-01     0.0000000000000000E+00 
    1.0000000000000000E+00     7.4999999999934064E-01     0.0000000000000000E+00 
    1.0000000000000000E+00     8.1249999999950551E-01     0.0000000000000000E+00 
    1.0000000000000000E+00     8.7499999999967026E-01     0.0000000000000000E+00 
    1.0000000000000000E+00     9.3749999999983513E-01     0.0000000000000000E+00 
    9.3749999999973976E-01     1.0000000000000000E+00     0.0000000000000000E+00 
    8.7499999999950118E-01     1.0000000000000000E+00     0.0000000000000000E+00 
    8.1249999999991318E-01     1.0000000000000000E+00     0.0000000000000000E+00 
    7.5000000000034706E-01     1.0000000000000000E+00     0.0000000000000000E+00 
    6.8750000000078049E-01     1.0000000000000000E+00     0.0000000000000000E+00 
    6.2500000000121403E-01     1.0000000000000000E+00     0.0000000000000000E+00 
    5.6250000000164757E-01     1.0000000000000000E+00     0.0000000000000000E+00 
    5.0000000000205946E-01     1.0000000000000000E+00     0.0000000000000000E+00 
    4.3750000000182099E-01     1.0000000000000000E+00     0.0000000000000000E+00 
    3.7500000000156092E-01     1.0000000000000000E+00     0.0000000000000000E+00 
    3.1250000000130068E-01     1.0000000000000000E+00     0.0000000000000000E+00 
    2.5000000000104050E-01     1.0000000000000000E+00     0.0000000000000000E+00 
    1.8750000000078040E-01     1.0000000000000000E+00     0.0000000000000000E+00 
    1.2500000000052031E-01     1.0000000000000000E+00     0.0000000000000000E+00 
    6.2500000000260125E-02     1.0000000000000000E+00     0.0000000000000000E+00 
    0.0000000000000000E+00     9.3749999999973976E-01     0.0000000000000000E+00 
    0.0000000000000000E+00     8.7499999999950118E-01     0.0000000000000000E+00 
    0.0000000000000000E+00     8.1249999999991318E-01     0.0000000000000000E+00 
    0.0000000000000000E+00     7.5000000000034706E-01     0.0000000000000000E+00 
    0.0000000000000000E+00     6.8750000000078049E-01     0.0000000000000000E+00 
    0.0000000000000000E+00     6.2500000000121403E-01     0.0000000000000000E+00 
    0.0000000000000000E+00     5.6250000000164757E-01     0.0000000000000000E+00 
    0.0000000000000000E+00     5.0000000000205946E-01     0.0000000000000000E+00 
    0.0000000000000000E+00     4.3750000000182099E-01     0.0000000000000000E+00 
    0.0000000000000000E+00     3.7500000000156092E-01     0.0000000000000000E+00 
    0.0000000000000000E+00     3.1250000000130068E-01     0.0000000000000000E+00 
    0.0000000000000000E+00     2.5000000000104050E-01     0.0000000000000000E+00 
    0.0000000000000000E+00     1.8750000000078040E-01     0.0000000000000000E+00 
    0.0000000000000000E+00     1.2500000000052031E-01     0.0000000000000000E+00 
    0.0000000000000000E+00     6.2500000000260125E-02     0.0000000000000000E+00 
    6.2499999999897131E-02     6.2500000000235922E-02     0.0000000000000000E+00 
    6.2499999999921327E-02     1.2500000000047351E-01     0.0000000000000000E+00 
    6.2499999999945530E-02     1.8750000000070621E-01     0.0000000000000000E+00 
    6.2499999999969733E-02     2.5000000000093858E-01     0.0000000000000000E+00 
    6.2499999999993928E-02     3.1250000000117117E-01     0.0000000000000000E+00 
    6.2500000000018124E-02     3.7500000000140382E-01     0.0000000000000000E+00 
    6.2500000000042327E-02     4.3750000000163619E-01     0.0000000000000000E+00 
    6.2500000000066530E-02     5.0000000000184897E-01     0.0000000000000000E+00 
    6.2500000000090733E-02     5.6250000000147260E-01     0.0000000000000000E+00 
    6.2500000000114922E-02     6.2500000000107636E-01     0.0000000000000000E+00 
    6.2500000000139125E-02     6.8750000000068034E-01     0.0000000000000000E+00 
    6.2500000000163328E-02     7.5000000000028411E-01     0.0000000000000000E+00 
    6.2500000000187531E-02     8.1249999999988787E-01     0.0000000000000000E+00 
    6.2500000000211720E-02     8.7499999999951172E-01     0.0000000000000000E+00 
    6.2500000000235922E-02     9.3749999999974565E-01     0.0000000000000000E+00 
    1.2499999999981980E-01     6.2500000000211733E-02     0.0000000000000000E+00 
    1.2499999999986650E-01     1.2500000000042691E-01     0.0000000000000000E+00 
    1.2499999999991319E-01     1.8750000000063199E-01     0.0000000000000000E+00 
    1.2499999999995989E-01     2.5000000000083678E-01     0.0000000000000000E+00 
    1.2500000000000661E-01     3.1250000000104172E-01     0.0000000000000000E+00 
    1.2500000000005329E-01     3.7500000000124661E-01     0.0000000000000000E+00 
    1.2500000000010000E-01     4.3750000000145117E-01     0.0000000000000000E+00 
    1.2500000000014669E-01     5.0000000000163858E-01     0.0000000000000000E+00 
    1.2500000000019340E-01     5.6250000000129741E-01     0.0000000000000000E+00 
    1.2500000000024011E-01     6.2500000000093847E-01     0.0000000000000000E+00 
    1.2500000000028680E-01     6.8750000000057998E-01     0.0000000000000000E+00 
    1.2500000000033351E-01     7.5000000000022127E-01     0.0000000000000000E+00 
    1.2500000000038020E-01     8.1249999999986211E-01     0.0000000000000000E+00 
    1.2500000000042691E-01     8.7499999999952238E-01     0.0000000000000000E+00 
    1.2500000000047359E-01     9.3749999999975164E-01     0.0000000000000000E+00 
    1.8749999999966760E-01     6.2500000000187531E-02     0.0000000000000000E+00 
    1.8749999999974179E-01     1.2500000000038020E-01     0.0000000000000000E+00 
    1.8749999999981601E-01     1.8750000000055780E-01     0.0000000000000000E+00 
    1.8749999999989009E-01     2.5000000000073502E-01     0.0000000000000000E+00 
    1.8749999999996431E-01     3.1250000000091221E-01     0.0000000000000000E+00 
    1.8750000000003850E-01     3.7500000000108941E-01     0.0000000000000000E+00 
    1.8750000000011269E-01     4.3750000000126649E-01     0.0000000000000000E+00 
    1.8750000000018691E-01     5.0000000000142808E-01     0.0000000000000000E+00 
    1.8750000000026110E-01     5.6250000000112244E-01     0.0000000000000000E+00 
    1.8750000000033529E-01     6.2500000000080080E-01     0.0000000000000000E+00 
    1.8750000000040951E-01     6.8750000000047962E-01     0.0000000000000000E+00 
    1.8750000000048361E-01     7.5000000000015843E-01     0.0000000000000000E+00 
    1.8750000000055780E-01     8.1249999999983680E-01     0.0000000000000000E+00 
    1.8750000000063199E-01     8.7499999999953304E-01     0.0000000000000000E+00 
    1.8750000000070621E-01     9.3749999999975764E-01     0.0000000000000000E+00 
    2.4999999999951281E-01     6.2500000000163314E-02     0.0000000000000000E+00 
    2.4999999999961461E-01     1.2500000000033351E-01     0.0000000000000000E+00 
    2.4999999999971650E-01     1.8750000000048361E-01     0.0000000000000000E+00 
    2.4999999999981831E-01     2.5000000000063310E-01     0.0000000000000000E+00 
    2.4999999999992020E-01     3.1250000000078260E-01     0.0000000000000000E+00 
    2.5000000000002198E-01     3.7500000000093209E-01     0.0000000000000000E+00 
    2.5000000000012390E-01     4.3750000000108180E-01     0.0000000000000000E+00 
    2.5000000000022571E-01     5.0000000000121769E-01     0.0000000000000000E+00 
    2.5000000000032763E-01     5.6250000000094724E-01     0.0000000000000000E+00 
    2.5000000000042938E-01     6.2500000000066314E-01     0.0000000000000000E+00 
    2.5000000000053119E-01     6.8750000000037925E-01     0.0000000000000000E+00 
[...]
CELL_DATA 256 
SCALARS Pressure double 1 
LOOKUP_TABLE default 

    6.7190655073041639E-01 
    6.2222083687250973E-01 
    5.9068828096538606E-01 
    5.6228468756458638E-01 
    5.3358718788207737E-01 
    5.0373909820841256E-01 
    4.7247268216204447E-01 
    4.3982667854721880E-01 
    4.0606678143410685E-01 
    3.7171679985249029E-01 
    3.3766966998697723E-01 
    3.0533817911848776E-01 
    2.7674012130648290E-01 
    2.5430242629168154E-01 
    2.4002080432948111E-01 
    2.3314748742004454E-01 
    6.5791747615560603E-01 
    6.2348155770379343E-01 
    5.9304403307640263E-01 
    5.6486187352560535E-01 
    5.3634618572069859E-01 
    5.0666782798066423E-01 
    4.7555511455292071E-01 
    4.4302856439770261E-01 
    4.0932607465314580E-01 
    3.7493051051783882E-01 
    3.4067727443650697E-01 
    3.0791320978328990E-01 
    2.7861753010301693E-01 
    2.5527643428527708E-01 
    2.4013772209219916E-01 
    2.3273323984157043E-01 
    6.4718350836523852E-01 
    6.2261219024030878E-01 
    5.9465580470731350E-01 
    5.6711524608746933E-01 
    5.3891893961533721E-01 
    5.0946324673909382E-01 
    4.7852371167753482E-01 
    4.4611736814284075E-01 
    4.1245457492743176E-01 
    3.7797008445338687E-01 
    3.4342859195993536E-01 
    3.1009568836926193E-01 
    2.7990823398073333E-01 
    2.5544698639343583E-01 
    2.3930538191071940E-01 
    2.3141400128984671E-01 
    6.3876037275816300E-01 
    6.2067369502831538E-01 
    5.9556592211236259E-01 
    5.6902216572783881E-01 
    5.4129716096810554E-01 
    5.1212919781714195E-01 
    4.8138854958903293E-01 
    4.4910715012621261E-01 
    4.1547261774338712E-01 
    3.8086687866738195E-01 
    3.4597094985968657E-01 
    3.1194891390174834E-01 
    2.8067700103265036E-01 
    2.5484520508666825E-01 
    2.3748041884457977E-01 
    2.2905728043389897E-01 
    6.3200881876437021E-01 
    6.1825991452035012E-01 
    5.9590813994344427E-01 
    5.7059119195857233E-01 
    5.4347665217035368E-01 
    5.1466783512510772E-01 
    4.8415941250987699E-01 
    4.5201412964833371E-01 
    4.1840389608418083E-01 
    3.8365612687090495E-01 
    3.4835628684551928E-01 
    3.1354293221745377E-01 
    2.8099856346179258E-01 
    2.5350995371367591E-01 
    2.3461474551750447E-01 
    2.2552104510993320E-01 
    6.2652498890102648E-01 
    6.1571447104509325E-01 
    5.9583316176282808E-01 
    5.7185527224799337E-01 
    5.4546142777064222E-01 
    5.1708104019950496E-01 
    4.8684393798606374E-01 
    4.5485403810429259E-01 
    4.2127369331456094E-01 
    3.8637613711762420E-01 
    3.5064131685682404E-01 
    3.1495547132694823E-01 
    2.8096014231556199E-01 
    2.5149446439009598E-01 
    2.3065837031574607E-01 
    2.2063704396220937E-01 
    6.2204249539881051E-01 
    6.1324433791603050E-01 
    5.9548806654305042E-01 
    5.7286777022727076E-01 
    5.4727019259486109E-01 
    5.1937759924498461E-01 
    4.8945066250441349E-01 
    4.5764100988034223E-01 
    4.2410611235187584E-01 
    3.8906611697116666E-01 
    3.5288674396026398E-01 
    3.1627342669855768E-01 
    2.8066544408079847E-01 
    2.4887381679222159E-01 
    2.2556890906258370E-01 
    2.1421404221292531E-01 
    6.1837279163957459E-01 
    6.1097092148493604E-01 
    5.9500149369121180E-01 
    5.7369240097364727E-01 
    5.4893234150890091E-01 
    5.2157334087791796E-01 
    4.9199149132642822E-01 
    4.6038842756393389E-01 
    4.2692249268712223E-01 
    3.9176236368110323E-01 
    3.5515379397348290E-01 
    3.1759254184425650E-01 
    2.8023999922816623E-01 
    2.4575535176210470E-01 
    2.1932160645792481E-01 
    2.0602760808789927E-01 
    6.1538063830249967E-01 
    6.0896224387924958E-01 
    5.9447832830597902E-01 
    5.7439508065925504E-01 
    5.5048208579421565E-01 
    5.2368755215664908E-01 
    4.9448019273215726E-01 
    4.6310953843437064E-01 
    4.2974016324888697E-01 
    3.9449486637600117E-01 
    3.5749845263000146E-01 
    3.1901251409419651E-01 
    2.7983348982986872E-01 
    2.4229045608124353E-01 
    2.1191725224452954E-01 
    1.9579288920910948E-01 
    6.1296702772388800E-01 
    6.0725229971781081E-01 
    5.9399800294800720E-01 
    5.7503670148380115E-01 
    5.5195592343474797E-01 
    5.2574194444937983E-01 
    4.9693201299839801E-01 
    4.6581785066802717E-01 
    4.3257442536241586E-01 
    3.9728773878914070E-01 
    3.5996826224227080E-01 
    3.2063026119254223E-01 
    2.7961705366881068E-01 
    2.3868763982471677E-01 
    2.0339872243392670E-01 
    1.8312878768367868E-01 
    6.1105782648420659E-01 
    6.0585727518589572E-01 
    5.9362325778705749E-01 
    5.7567428919831654E-01 
    5.5339288811748866E-01 
    5.2776209113273154E-01 
    4.9936540870848795E-01 
    4.6852886165290891E-01 
    4.3544104810868978E-01 
    4.0016220860009355E-01 
    3.6260303784439696E-01 
    3.2253611413186073E-01 
    2.7978021887966564E-01 
    2.3523059971504262E-01 
    1.9389763039156513E-01 
    1.6753412178202326E-01 
    6.0959278803345418E-01 
    6.0478475806205290E-01 
    5.9340603497056577E-01 
    5.7636121658513473E-01 
    5.5483346532501920E-01 
    5.2977759878455821E-01 
    5.0180408605100491E-01 
    4.7126182089904889E-01 
    4.3835767016197741E-01 
    4.0313822466453653E-01 
    3.6543581585612139E-01 
    3.2480993758009247E-01 
    2.8052545588719646E-01 
    2.3229506401157915E-01 
    1.8369324163571110E-01 
    1.4830471083682312E-01 
    6.0852951082345541E-01 
    6.0404321098083058E-01 
    5.9339254161784394E-01 
    5.7714942595334107E-01 
    5.5632000736331955E-01 
    5.3182178469941599E-01 
    5.0427622917082959E-01 
    4.7403985409861354E-01 
    4.4134275604238610E-01 
    4.0623384566842491E-01 
    3.6849189587657427E-01 
    3.2751393937938833E-01 
    2.8205048628849966E-01 
    2.3037133379242644E-01 
    1.7335346513900871E-01 
    1.2439996202502539E-01 
    6.0784227520488532E-01 
    6.0364800319323852E-01 
    5.9362928106572121E-01 
    5.7809266643500334E-01 
    5.5789783626420519E-01 
    5.3392860206919068E-01 
    5.0680996622334629E-01 
    4.7688471426291734E-01 
    4.4440793134803991E-01 
    4.0944859450474969E-01 
    3.7176796874771179E-01 
    3.3066418881031417E-01 
    2.8449382116713928E-01 
    2.3003944767043177E-01 
    1.6401793715806270E-01 
    9.4303135841186131E-02 
    6.0740992715183484E-01 
    6.0353095294858528E-01 
    5.9410183826675822E-01 
    5.7919674392402853E-01 
    5.5956581888889534E-01 
    5.3607590251096060E-01 
    5.0936000196163678E-01 
    4.7974797330236124E-01 
    4.4749765619729603E-01 
    4.1271026393537996E-01 
    3.7515800058186627E-01 
    3.3410725613206693E-01 
    2.8775285425832980E-01 
    2.3163381245382914E-01 
    1.5742474583673327E-01 
    5.5370396848170772E-02 
    6.0725912642117297E-01 
    6.0371318108472827E-01 
    5.9483337011166126E-01 
    5.8049258573803797E-01 
    5.6135679147778883E-01 
    5.3828738768091433E-01 
    5.1192846153458771E-01 
    4.8262928508888397E-01 
    4.5063935291115920E-01 
    4.1607873364297021E-01 
    3.7875244462323870E-01 
    3.3796570782889529E-01 
    2.9203316653297390E-01 
    2.3572391439768547E-01 
    1.5686454302426348E-01 
    0.0000000000000000E+00 

SCALARS Saturarion double 1 
LOOKUP_TABLE default 

    1.0000000000000004E+00 
    9.7783471672270361E-01 
    9.3720899319200501E-01 
    8.8200892266912478E-01 
    8.3585157810789379E-01 
    7.9516954309104126E-01 
    7.5960151120138775E-01 
    7.2858580013957552E-01 
    7.0115859025214111E-01 
    6.7627504335194977E-01 
    6.5286132900380534E-01 
    6.2962153851999492E-01 
    6.0453131785351399E-01 
    5.7395355626580691E-01 
    5.2480309066369091E-01 
    2.7814934918983775E-01 
    9.9175546999370057E-01 
    9.7078146269639431E-01 
    9.2818606838733819E-01 
    8.7552741033913228E-01 
    8.3068405260975153E-01 
    7.9143522544550238E-01 
    7.5693238063904689E-01 
    7.2653365717421059E-01 
    6.9952028732851956E-01 
    6.7499058824444491E-01 
    6.5209207142895320E-01 
    6.2967190360301362E-01 
    6.0566830451837184E-01 
    5.7609899505571704E-01 
    5.2928473339781090E-01 
    3.0294103278206341E-01 
    9.7872381859794588E-01 
    9.5767410208666570E-01 
    9.1483144257204274E-01 
    8.6383003546862902E-01 
    8.2051423284180180E-01 
    7.8364648560064187E-01 
    7.5133837397451131E-01 
    7.2230996553732918E-01 
    6.9602998690341933E-01 
    6.7197164277361698E-01 
    6.4962707262666264E-01 
    6.2813816843288772E-01 
    6.0581487640130394E-01 
    5.7856125084760412E-01 
    5.3520298160311419E-01 
    3.2559772994280956E-01 
    9.5600395445384823E-01 
    9.3822680072812192E-01 
    8.9844448795222875E-01 
    8.5146137450223525E-01 
    8.0888204238373651E-01 
    7.7299920486253715E-01 
    7.4221115878273014E-01 
    7.1501821874735849E-01 
    6.9031326575419594E-01 
    6.6765315932298619E-01 
    6.4644155475468879E-01 
    6.2605381598203957E-01 
    6.0523488622888943E-01 
    5.8051217666009614E-01 
    5.4101060616284025E-01 
    3.4758393372291230E-01 
    9.2801587258607021E-01 
    9.1219980572713244E-01 
    8.7656757593173884E-01 
    8.3421038912378109E-01 
    7.9372694466403604E-01 
    7.5866411193433070E-01 
    7.2899179519413027E-01 
    7.0342678737739384E-01 
    6.8085216617687827E-01 
    6.6046730781933349E-01 
    6.4162704664145009E-01 
    6.2341105960116117E-01 
    6.0442126547882558E-01 
    5.8190436001355028E-01 
    5.4604766095082446E-01 
    3.6580351972316244E-01 
    8.9636799043658166E-01 
    8.8312592283821756E-01 
    8.5206690541109065E-01 
    8.1365359691719263E-01 
    7.7619815797293523E-01 
    7.4287701364412961E-01 
    7.1404910330794902E-01 
    6.8947830858119563E-01 
    6.6840877252818398E-01 
    6.5006995097535825E-01 
    6.3381422348891192E-01 
    6.1880559942254132E-01 
    6.0298869450477055E-01 
    5.8297284426386842E-01 
    5.5075597776258378E-01 
    3.8227805730463355E-01 
    8.6194212846620377E-01 
    8.5185531070509957E-01 
    8.2565602686525608E-01 
    7.9134507784206454E-01 
    7.5724590067366671E-01 
    7.2632559147668196E-01 
    6.9915835441217744E-01 
    6.7537508940446178E-01 
    6.5502657382721508E-01 
    6.3791011559670430E-01 
    6.2368244248711457E-01 
    6.1162344105744793E-01 
    5.9986568714648580E-01 
    5.8371749881665258E-01 
    5.5485289514854963E-01 
    3.9850681753964012E-01 
    8.2455381414170603E-01 
    8.1805408994077256E-01 
    7.9745406551003795E-01 
    7.6784819435503604E-01 
    7.3688513895199492E-01 
    7.0822257876816475E-01 
    6.8260855313022628E-01 
    6.6021892949493288E-01 
    6.4090378051104080E-01 
    6.2476435088598437E-01 
    6.1183258632532544E-01 
    6.0213613142220979E-01 
    5.9432435634743042E-01 
    5.8339910990887556E-01 
    5.5908126590330365E-01 
    4.1487517933487233E-01 
    7.8433452239091372E-01 
    7.8137307611402396E-01 
    7.6631723021712861E-01 
    7.4179287904877100E-01 
    7.1446685251588293E-01 
    6.8805747241804927E-01 
    6.6414503343263043E-01 
    6.4303274291816515E-01 
    6.2479686896720166E-01 
    6.0956141808778974E-01 
    5.9780433898852037E-01 
    5.9007797645986793E-01 
    5.8599160561361685E-01 
    5.8102228581472781E-01 
    5.6269760552879944E-01 
    4.3046155078012738E-01 
    7.4132867617204734E-01 
    7.4170779572474865E-01 
    7.3188125621054789E-01 
    7.1221180065301271E-01 
    6.8878134027998583E-01 
    6.6514052327053874E-01 
    6.4301736230668105E-01 
    6.2347823226317145E-01 
    6.0658287888789120E-01 
    5.9231915010486735E-01 
    5.8124258579769417E-01 
    5.7484222316375633E-01 
    5.7412154726821829E-01 
    5.7568386439118002E-01 
    5.6485723858360259E-01 
    4.4583221049119565E-01 
    6.9518455997409534E-01 
    6.9869162500451587E-01 
    6.9375642554690276E-01 
    6.7860630744809858E-01 
    6.5910921462745842E-01 
    6.3878080031050988E-01 
    6.1943475878836518E-01 
    6.0168124615393404E-01 
    5.8616379974222366E-01 
    5.7311751628843488E-01 
    5.6298444498261546E-01 
    5.5705552442890627E-01 
    5.5807575830343581E-01 
    5.6608267811575919E-01 
    5.6476245746513098E-01 
    4.6136895819106044E-01 
    6.4454522907068290E-01 
    6.5110276780458032E-01 
    6.5118978597648369E-01 
    6.4067525726791719E-01 
    6.2492618236828590E-01 
    6.0776524911151542E-01 
    5.9122480784918818E-01 
    5.7618334938130289E-01 
    5.6276192110113710E-01 
    5.5137272386749925E-01 
    5.4267030100501701E-01 
    5.3778068167616755E-01 
    5.3907330352607452E-01 
    5.5087439833253971E-01 
    5.6016642603168632E-01 
    4.7576658590925153E-01 
    5.9022685206223069E-01 
    5.9894694918592983E-01 
    6.0331703927435432E-01 
    5.9763021674312322E-01 
    5.8635750262369701E-01 
    5.7270952536937592E-01 
    5.5921662013826623E-01 
    5.4657988593140017E-01 
    5.3518464197795279E-01 
    5.2537550489706952E-01 
    5.1830570794310560E-01 
    5.1502244400576180E-01 
    5.1755999559192445E-01 
    5.3055046237314452E-01 
    5.5003819787932628E-01 
    4.8766239793183630E-01 
    5.3236839909488898E-01 
    5.4403355951877252E-01 
    5.5135136600559598E-01 
    5.5010476181700474E-01 
    5.4220701923936321E-01 
    5.3081939189752048E-01 
    5.1799411543106777E-01 
    5.0659426917038686E-01 
    4.9568530901568569E-01 
    4.8416014954785380E-01 
    4.7261851080358530E-01 
    4.7094834501159327E-01 
    4.7875340882772882E-01 
    5.0080456063046352E-01 
    5.3587105282284164E-01 
    4.9588131664460489E-01 
    3.4291151083031812E-01 
    4.0013442910840458E-01 
    4.3098528562523430E-01 
    4.4017280123763497E-01 
    4.3166993631700940E-01 
    4.1297558139087298E-01 
    3.7651231988270317E-01 
    3.1850638021283928E-01 
    2.7885302035385473E-01 
    2.3425807625185799E-01 
    2.3200719085803995E-01 
    2.2013245026356434E-01 
    2.6432541850586622E-01 
    3.7962090283396582E-01 
    4.8792412846474659E-01 
    4.9695129244920772E-01 
    3.6590621099476116E-03 
    3.6663098106318098E-02 
    6.0493971281362406E-02 
    6.8230421526542323E-02 
    4.8981713479929939E-02 
    2.9072447457247092E-02 
    1.4433586435892314E-02 
    2.1476583616276434E-03 
    1.5900305665662549E-03 
    5.6524188309832072E-05 
    4.0114823468468904E-04 
    5.9305961542357301E-05 
    2.0423436003244961E-03 
    1.3040268526773865E-01 
    3.1261797788669299E-01 
    4.4612021856785816E-01 
