# vtk DataFile Version 2.0
Pressure Field Data 
ASCII 
DATASET UNSTRUCTURED_GRID 

POINTS 289 double 

    0.0000000000000000E+00     0.0000000000000000E+00     0.0000000000000000E+00 
    1.0000000000000000E+00     0.0000000000000000E+00     0.0000000000000000E+00 
    1.0000000000000000E+00     1.0000000000000000E+00     0.0000000000000000E+00 
    0.0000000000000000E+00     1.0000000000000000E+00     0.0000000000000000E+00 
    6.2499999999872928E-02     0.0000000000000000E+00     0.0000000000000000E+00 
    1.2499999999977310E-01     0.0000000000000000E+00     0.0000000000000000E+00 
    1.8749999999959341E-01     0.0000000000000000E+00     0.0000000000000000E+00 
    2.4999999999941089E-01     0.0000000000000000E+00     0.0000000000000000E+00 
    3.1249999999922851E-01     0.0000000000000000E+00     0.0000000000000000E+00 
    3.7499999999904610E-01     0.0000000000000000E+00     0.0000000000000000E+00 
    4.3749999999886358E-01     0.0000000000000000E+00     0.0000000000000000E+00 
    4.9999999999869210E-01     0.0000000000000000E+00     0.0000000000000000E+00 
    5.6249999999884603E-01     0.0000000000000000E+00     0.0000000000000000E+00 
    6.2499999999901090E-01     0.0000000000000000E+00     0.0000000000000000E+00 
    6.8749999999917577E-01     0.0000000000000000E+00     0.0000000000000000E+00 
    7.4999999999934064E-01     0.0000000000000000E+00     0.0000000000000000E+00 
    8.1249999999950551E-01     0.0000000000000000E+00     0.0000000000000000E+00 
    8.7499999999967026E-01     0.0000000000000000E+00     0.0000000000000000E+00 
    9.3749999999983513E-01     0.0000000000000000E+00     0.0000000000000000E+00 
    1.0000000000000000E+00     6.2499999999872928E-02     0.0000000000000000E+00 
    1.0000000000000000E+00     1.2499999999977310E-01     0.0000000000000000E+00 
    1.0000000000000000E+00     1.8749999999959341E-01     0.0000000000000000E+00 
    1.0000000000000000E+00     2.4999999999941089E-01     0.0000000000000000E+00 
    1.0000000000000000E+00     3.1249999999922851E-01     0.0000000000000000E+00 
    1.0000000000000000E+00     3.7499999999904610E-01     0.0000000000000000E+00 
    1.0000000000000000E+00     4.3749999999886358E-01     0.0000000000000000E+00 
    1.0000000000000000E+00     4.9999999999869210E-01     0.0000000000000000E+00 
    1.0000000000000000E+00     5.6249999999884603E-01     0.0000000000000000E+00 
    1.0000000000000000E+00     6.2499999999901090E-01     0.0000000000000000E+00 
    1.0000000000000000E+00     6.8749999999917577E-01     0.0000000000000000E+00 
    1.0000000000000000E+00     7.4999999999934064E-01     0.0000000000000000E+00 
    1.0000000000000000E+00     8.1249999999950551E-01     0.0000000000000000E+00 
    1.0000000000000000E+00     8.7499999999967026E-01     0.0000000000000000E+00 
    1.0000000000000000E+00     9.3749999999983513E-01     0.0000000000000000E+00 
    9.3749999999973976E-01     1.0000000000000000E+00     0.0000000000000000E+00 
    8.7499999999950118E-01     1.0000000000000000E+00     0.0000000000000000E+00 
    8.1249999999991318E-01     1.0000000000000000E+00     0.0000000000000000E+00 
    7.5000000000034706E-01     1.0000000000000000E+00     0.0000000000000000E+00 
    6.8750000000078049E-01     1.0000000000000000E+00     0.0000000000000000E+00 
    6.2500000000121403E-01     1.0000000000000000E+00     0.0000000000000000E+00 
    5.6250000000164757E-01     1.0000000000000000E+00     0.0000000000000000E+00 
    5.0000000000205946E-01     1.0000000000000000E+00     0.0000000000000000E+00 
    4.3750000000182099E-01     1.0000000000000000E+00     0.0000000000000000E+00 
    3.7500000000156092E-01     1.0000000000000000E+00     0.0000000000000000E+00 
    3.1250000000130068E-01     1.0000000000000000E+00     0.0000000000000000E+00 
    2.5000000000104050E-01     1.0000000000000000E+00     0.0000000000000000E+00 
    1.8750000000078040E-01     1.0000000000000000E+00     0.0000000000000000E+00 
    1.2500000000052031E-01     1.0000000000000000E+00     0.0000000000000000E+00 
    6.2500000000260125E-02     1.0000000000000000E+00     0.0000000000000000E+00 
    0.0000000000000000E+00     9.3749999999973976E-01     0.0000000000000000E+00 
    0.0000000000000000E+00     8.7499999999950118E-01     0.0000000000000000E+00 
    0.0000000000000000E+00     8.1249999999991318E-01     0.0000000000000000E+00 
    0.0000000000000000E+00     7.5000000000034706E-01     0.0000000000000000E+00 
    0.0000000000000000E+00     6.8750000000078049E-01     0.0000000000000000E+00 
    0.0000000000000000E+00     6.2500000000121403E-01     0.0000000000000000E+00 
    0.0000000000000000E+00     5.6250000000164757E-01     0.0000000000000000E+00 
    0.0000000000000000E+00     5.0000000000205946E-01     0.0000000000000000E+00 
    0.0000000000000000E+00     4.3750000000182099E-01     0.0000000000000000E+00 
    0.0000000000000000E+00     3.7500000000156092E-01     0.0000000000000000E+00 
    0.0000000000000000E+00     3.1250000000130068E-01     0.0000000000000000E+00 
    0.0000000000000000E+00     2.5000000000104050E-01     0.0000000000000000E+00 
    0.0000000000000000E+00     1.8750000000078040E-01     0.0000000000000000E+00 
    0.0000000000000000E+00     1.2500000000052031E-01     0.0000000000000000E+00 
    0.0000000000000000E+00     6.2500000000260125E-02     0.0000000000000000E+00 
    6.2499999999897131E-02     6.2500000000235922E-02     0.0000000000000000E+00 
    6.2499999999921327E-02     1.2500000000047351E-01     0.0000000000000000E+00 
    6.2499999999945530E-02     1.8750000000070621E-01     0.0000000000000000E+00 
    6.2499999999969733E-02     2.5000000000093858E-01     0.0000000000000000E+00 
    6.2499999999993928E-02     3.1250000000117117E-01     0.0000000000000000E+00 
    6.2500000000018124E-02     3.7500000000140382E-01     0.0000000000000000E+00 
    6.2500000000042327E-02     4.3750000000163619E-01     0.0000000000000000E+00 
    6.2500000000066530E-02     5.0000000000184897E-01     0.0000000000000000E+00 
    6.2500000000090733E-02     5.6250000000147260E-01     0.0000000000000000E+00 
    6.2500000000114922E-02     6.2500000000107636E-01     0.0000000000000000E+00 
    6.2500000000139125E-02     6.8750000000068034E-01     0.0000000000000000E+00 
    6.2500000000163328E-02     7.5000000000028411E-01     0.0000000000000000E+00 
    6.2500000000187531E-02     8.1249999999988787E-01     0.0000000000000000E+00 
    6.2500000000211720E-02     8.7499999999951172E-01     0.0000000000000000E+00 
    6.2500000000235922E-02     9.3749999999974565E-01     0.0000000000000000E+00 
    1.2499999999981980E-01     6.2500000000211733E-02     0.0000000000000000E+00 
    1.2499999999986650E-01     1.2500000000042691E-01     0.0000000000000000E+00 
    1.2499999999991319E-01     1.8750000000063199E-01     0.0000000000000000E+00 
    1.2499999999995989E-01     2.5000000000083678E-01     0.0000000000000000E+00 
    1.2500000000000661E-01     3.1250000000104172E-01     0.0000000000000000E+00 
    1.2500000000005329E-01     3.7500000000124661E-01     0.0000000000000000E+00 
    1.2500000000010000E-01     4.3750000000145117E-01     0.0000000000000000E+00 
    1.2500000000014669E-01     5.0000000000163858E-01     0.0000000000000000E+00 
    1.2500000000019340E-01     5.6250000000129741E-01     0.0000000000000000E+00 
    1.2500000000024011E-01     6.2500000000093847E-01     0.0000000000000000E+00 
    1.2500000000028680E-01     6.8750000000057998E-01     0.0000000000000000E+00 
    1.2500000000033351E-01     7.5000000000022127E-01     0.0000000000000000E+00 
    1.2500000000038020E-01     8.1249999999986211E-01     0.0000000000000000E+00 
    1.2500000000042691E-01     8.7499999999952238E-01     0.0000000000000000E+00 
    1.2500000000047359E-01     9.3749999999975164E-01     0.0000000000000000E+00 
    1.8749999999966760E-01     6.2500000000187531E-02     0.0000000000000000E+00 
    1.8749999999974179E-01     1.2500000000038020E-01     0.0000000000000000E+00 
    1.8749999999981601E-01     1.8750000000055780E-01     0.0000000000000000E+00 
    1.8749999999989009E-01     2.5000000000073502E-01     0.0000000000000000E+00 
    1.8749999999996431E-01     3.1250000000091221E-01     0.0000000000000000E+00 
    1.8750000000003850E-01     3.7500000000108941E-01     0.0000000000000000E+00 
    1.8750000000011269E-01     4.3750000000126649E-01     0.0000000000000000E+00 
    1.8750000000018691E-01     5.0000000000142808E-01     0.0000000000000000E+00 
    1.8750000000026110E-01     5.6250000000112244E-01     0.0000000000000000E+00 
    1.8750000000033529E-01     6.2500000000080080E-01     0.0000000000000000E+00 
    1.8750000000040951E-01     6.8750000000047962E-01     0.0000000000000000E+00 
    1.8750000000048361E-01     7.5000000000015843E-01     0.0000000000000000E+00 
    1.8750000000055780E-01     8.1249999999983680E-01     0.0000000000000000E+00 
    1.8750000000063199E-01     8.7499999999953304E-01     0.0000000000000000E+00 
    1.8750000000070621E-01     9.3749999999975764E-01     0.0000000000000000E+00 
    2.4999999999951281E-01     6.2500000000163314E-02     0.0000000000000000E+00 
    2.4999999999961461E-01     1.2500000000033351E-01     0.0000000000000000E+00 
    2.4999999999971650E-01     1.8750000000048361E-01     0.0000000000000000E+00 
    2.4999999999981831E-01     2.5000000000063310E-01     0.0000000000000000E+00 
    2.4999999999992020E-01     3.1250000000078260E-01     0.0000000000000000E+00 
    2.5000000000002198E-01     3.7500000000093209E-01     0.0000000000000000E+00 
    2.5000000000012390E-01     4.3750000000108180E-01     0.0000000000000000E+00 
    2.5000000000022571E-01     5.0000000000121769E-01     0.0000000000000000E+00 
    2.5000000000032763E-01     5.6250000000094724E-01     0.0000000000000000E+00 
    2.5000000000042938E-01     6.2500000000066314E-01     0.0000000000000000E+00 
    2.5000000000053119E-01     6.8750000000037925E-01     0.0000000000000000E+00 
[...]
CELL_DATA 256 
SCALARS Pressure double 1 
LOOKUP_TABLE default 

    8.2045698950411239E-01 
    7.6914727560996454E-01 
    7.3506886458511134E-01 
    7.0329137708531053E-01 
    6.7049300660728972E-01 
    6.3591541406808882E-01 
    5.9938616398910127E-01 
    5.6104482046749315E-01 
    5.2126816582457547E-01 
    4.8071664412006226E-01 
    4.4047704445416441E-01 
    4.0227699100669340E-01 
    3.6863866384804644E-01 
    3.4223938378445146E-01 
    3.2286813870724645E-01 
    3.1376819822294527E-01 
    8.0650974336517711E-01 
    7.7058349816368066E-01 
    7.3767777149815916E-01 
    7.0618549085872540E-01 
    6.7363269725586050E-01 
    6.3928941090408220E-01 
    6.0297030927462869E-01 
    5.6478900592110759E-01 
    5.2508955545137004E-01 
    4.8448627135047273E-01 
    4.4399848002786768E-01 
    4.0527188788651763E-01 
    3.7078884161478864E-01 
    3.4338274330429797E-01 
    3.2313407849502063E-01 
    3.1337146571410635E-01 
    7.9578939930353343E-01 
    7.6983638805704513E-01 
    7.3949094634820955E-01 
    7.0870231537954109E-01 
    6.7652934001957110E-01 
    6.4247422460589942E-01 
    6.0638961566379801E-01 
    5.6837323941058393E-01 
    5.2873271083701534E-01 
    4.8802590875084823E-01 
    4.4718874317847512E-01 
    4.0776581389307370E-01 
    3.7218673073759517E-01 
    3.4346684972896124E-01 
    3.2221722948684473E-01 
    3.1193912834646126E-01 
    7.8730214273513444E-01 
    7.6795385475962474E-01 
    7.4054454074214271E-01 
    7.1082416243495805E-01 
    6.7918448168081635E-01 
    6.4547949680936434E-01 
    6.0965407272684913E-01 
    5.7180951263023228E-01 
    5.3221910574704034E-01 
    4.9137475337034986E-01 
    4.5010987240015399E-01 
    4.0984034507933315E-01 
    3.7291506941819769E-01 
    3.4254244245239951E-01 
    3.2006293253251766E-01 
    3.0926490708764726E-01 
    7.8039526929267611E-01 
    7.6551613747369829E-01 
    7.4096653591468808E-01 
    7.1255870609832417E-01 
    6.8160073847234148E-01 
    6.4831765963962229E-01 
    6.1278139839131252E-01 
    5.7511880486963651E-01 
    5.3557700382098983E-01 
    4.9457672784422829E-01 
    4.5282954377674745E-01 
    4.1158765502472999E-01 
    3.7307234693098373E-01 
    3.4066718803486656E-01 
    3.1658669332652672E-01 
    3.0508932284731205E-01 
    7.7469649081806136E-01 
    7.6287754938441699E-01 
    7.4091101021584749E-01 
    7.1394113628087030E-01 
    6.8378786303769445E-01 
    6.5100149531167839E-01 
    6.1579251447066108E-01 
    5.7832894092330378E-01 
    5.3884109184176376E-01 
    4.9767896876972295E-01 
    4.5541803831819955E-01 
    4.1310817459122218E-01 
    3.7277432418581175E-01 
    3.3790985667422840E-01 
    3.1168236120190662E-01 
    2.9909574436831698E-01 
    7.6996703621748275E-01 
    7.6026516365045016E-01 
    7.4053823584143696E-01 
    7.1503378946121299E-01 
    6.8577054131550841E-01 
    6.5354718803186196E-01 
    6.1870754090591629E-01 
    5.8146804475947511E-01 
    5.4204828732478327E-01 
    5.0073109347697853E-01 
    4.5794822706258648E-01 
    4.1450970436733731E-01 
    3.7215509670512076E-01 
    3.3436313562649089E-01 
    3.0524908050840771E-01 
    2.9091663292805636E-01 
    7.6603655579075836E-01 
    7.5781969778209957E-01 
    7.3999182976270328E-01 
    7.1590970646087793E-01 
    6.8758320045613508E-01 
    6.5597538429066993E-01 
    6.2154604365502353E-01 
    5.8456060172708224E-01 
    5.4523331499706973E-01 
    5.0378342284760491E-01 
    4.6049692005409942E-01 
    4.1591090408029846E-01 
    3.7137600006887433E-01 
    3.3016731314101172E-01 
    2.9723453459016530E-01 
    2.8017961440526123E-01 
    7.6278503187585389E-01 
    7.5562588507130979E-01 
    7.3938981419929262E-01 
    7.1664364844911332E-01 
    6.8926597727877426E-01 
    6.5831017935361658E-01 
    6.2432654734870108E-01 
    5.8762633675451559E-01 
    5.4842430044667334E-01 
    5.0688173690967808E-01 
    4.6314052248624354E-01 
    4.1743935397059512E-01 
    3.7063020776382899E-01 
    3.2552631110940150E-01 
    2.8765378674948655E-01 
    2.6651434555279491E-01 
    7.6012461252466224E-01 
    7.5373020672519020E-01 
    7.3882233414926224E-01 
    7.1730567077736973E-01 
    6.9086342442627624E-01 
    6.6057975799506907E-01 
    6.2706852251677681E-01 
    5.9068259003634682E-01 
    5.5164455972288340E-01 
    5.1006552051534160E-01 
    4.6595057537472628E-01 
    4.1922659112070570E-01 
    3.7014138631899912E-01 
    3.2072168271658913E-01 
    2.7658748295262325E-01 
    2.4945149821432039E-01 
    7.5799152519227331E-01 
    7.5216116568656677E-01 
    7.3836500986151110E-01 
    7.1796534956938529E-01 
    6.9242617607193957E-01 
    6.6281967412755738E-01 
    6.2979780378865458E-01 
    5.9375031121536082E-01 
    5.5491711793750664E-01 
    5.1336791716614882E-01 
    4.6898789275288261E-01 
    4.2140097807446053E-01 
    3.7016266393362618E-01 
    3.1614487788251611E-01 
    2.6425251674854855E-01 
    2.2835027767335900E-01 
    7.5634330663069926E-01 
    7.5094767063638557E-01 
    7.3809099023802727E-01 
    7.1869492014854275E-01 
    6.9401021731438184E-01 
    6.6507364230749233E-01 
    6.3255114135096202E-01 
    5.9685692142477986E-01 
    5.5826198677625727E-01 
    5.1680595498750248E-01 
    4.7228503507289921E-01 
    4.2406563801226055E-01 
    3.7095914595224749E-01 
    3.1231087694707460E-01 
    2.5108990295753075E-01 
    2.0234378412292753E-01 
    7.5515450783643912E-01 
    7.5012505902081061E-01 
    7.3807214349448358E-01 
    7.1956545887564372E-01 
    6.9566817476624110E-01 
    6.6738194044685029E-01 
    6.3536243757454935E-01 
    6.0001981652748482E-01 
    5.6165909494912403E-01 
    5.2031325356610414E-01 
    4.7574663658565169E-01 
    4.2716015802199603E-01 
    3.7263857674887485E-01 
    3.0969517291924259E-01 
    2.3773789152489908E-01 
    1.7009530336304537E-01 
    7.5428209660647050E-01 
    7.4962557765811255E-01 
    7.3830347966603083E-01 
    7.2058801603120826E-01 
    6.9738259126798818E-01 
    6.6967283024309343E-01 
    6.3813183076057978E-01 
    6.0313702334679653E-01 
    5.6499596528452722E-01 
    5.2376818317677631E-01 
    4.7924026382590007E-01 
    4.3051361596408744E-01 
    3.7511935034974259E-01 
    3.0861936475267870E-01 
    2.2496931549571206E-01 
    1.2909703932102842E-01 
    7.5367777534361879E-01 
    7.4934586428043803E-01 
    7.3868289986701663E-01 
    7.2169203735723320E-01 
    6.9911868674989430E-01 
    6.7192354679882949E-01 
    6.4083616013153855E-01 
    6.0622901476589808E-01 
    5.6837830290316815E-01 
    5.2737736483600428E-01 
    4.8303055406534312E-01 
    4.3440540427169516E-01 
    3.7887010199099097E-01 
    3.1045999436755156E-01 
    2.1539255262287160E-01 
    7.4886158560527272E-02 
    7.5349573303670858E-01 
    7.4951228401020253E-01 
    7.3944701881100727E-01 
    7.2310695465104524E-01 
    7.0112088453639909E-01 
    6.7441197032755118E-01 
    6.4374787629546637E-01 
    6.0952965250421620E-01 
    5.7201736612825371E-01 
    5.3132530504726938E-01 
    4.8727518657466290E-01 
    4.3897341914821669E-01 
    3.8392008491405466E-01 
    3.1606165255701524E-01 
    2.1596739384517677E-01 
    0.0000000000000000E+00 

SCALARS Saturarion double 1 
LOOKUP_TABLE default 

    1.0000000000000011E+00 
    9.6925743915812335E-01 
    9.1516318450182599E-01 
    8.4790625797353847E-01 
    7.9082974930250238E-01 
    7.4254033842239531E-01 
    7.0242261464576827E-01 
    6.6865270229227580E-01 
    6.3912424495071607E-01 
    6.1199996132066437E-01 
    5.8586669486580223E-01 
    5.5963147443399164E-01 
    5.3209855281558005E-01 
    4.8854960417255100E-01 
    2.7150821975917905E-01 
    2.5992529393809385E-04 
    9.8768110016558419E-01 
    9.5853688694506456E-01 
    9.0189502353883533E-01 
    8.3893353636244794E-01 
    7.8539163957215685E-01 
    7.3920441581489460E-01 
    6.9981955991672173E-01 
    6.6614225271004912E-01 
    6.3676271045309074E-01 
    6.1011644281233512E-01 
    5.8485109593737350E-01 
    5.5968901966433493E-01 
    5.3321338883888836E-01 
    4.9153486942330504E-01 
    3.0110290659883771E-01 
    1.8505207999227888E-03 
    9.6832845036851745E-01 
    9.3976654301838736E-01 
    8.8346337894584348E-01 
    8.2373687098582216E-01 
    7.7450844919754369E-01 
    7.3194130597894669E-01 
    6.9433286051642451E-01 
    6.6101874867069832E-01 
    6.3171960512258396E-01 
    6.0565275351421011E-01 
    5.8171247140451998E-01 
    5.5828936093962422E-01 
    5.3361261700166074E-01 
    4.9571366679384254E-01 
    3.3496138444913592E-01 
    7.4895203764217119E-03 
    9.3438443917512892E-01 
    9.1109189247164202E-01 
    8.6125594626226143E-01 
    8.0592164376587383E-01 
    7.5874211000611558E-01 
    7.1958949930873173E-01 
    6.8513885662108076E-01 
    6.5413824723873015E-01 
    6.2619136144057297E-01 
    6.0118868116266078E-01 
    5.7829504778751195E-01 
    5.5632232223914269E-01 
    5.3357416117970802E-01 
    5.0010452700246100E-01 
    3.6535470134110692E-01 
    2.3215227942957110E-02 
    8.9533480202033133E-01 
    8.7562761205556972E-01 
    8.3227193093547847E-01 
    7.8302177040679677E-01 
    7.3917680173248246E-01 
    7.0253605295074550E-01 
    6.7127554579115711E-01 
    6.4360622517287358E-01 
    6.1864316540719377E-01 
    5.9588607749806144E-01 
    5.7481343197438106E-01 
    5.5446079056667974E-01 
    5.3341314832707842E-01 
    5.0378476992094423E-01 
    3.8952953700555498E-01 
    4.6815475636036677E-02 
    8.5425862620383652E-01 
    8.3821046887939699E-01 
    8.0150002607998438E-01 
    7.5835428932902438E-01 
    7.1847462178802246E-01 
    6.8405352681185516E-01 
    6.5466461305140078E-01 
    6.2964064859303592E-01 
    6.0768835871144289E-01 
    5.8770122606157837E-01 
    5.6909774873731411E-01 
    5.5136228162260081E-01 
    5.3296468823157994E-01 
    5.0718664808745428E-01 
    4.0869967754940617E-01 
    7.9104845569537272E-02 
    8.1137092838900671E-01 
    7.9970166944513865E-01 
    7.7000806465971894E-01 
    7.3260471662136184E-01 
    6.9668789783563745E-01 
    6.6491922594359321E-01 
    6.3770303730617683E-01 
    6.1433905862865268E-01 
    5.9434962932634294E-01 
    5.7682959515676635E-01 
    5.6095390221771768E-01 
    5.4605220192268389E-01 
    5.3105318582062178E-01 
    5.0957737057889829E-01 
    4.2461907245078512E-01 
    1.1886975283930594E-01 
    7.6677422315062937E-01 
    7.5975071046781628E-01 
    7.3744615790038459E-01 
    7.0589926233298039E-01 
    6.7358589042396178E-01 
    6.4443530241763447E-01 
    6.1910140767861777E-01 
    5.9747311192568187E-01 
    5.7910519207945987E-01 
    5.6369820982244478E-01 
    5.5050273303339692E-01 
    5.3873213634898642E-01 
    5.2726058174265045E-01 
    5.1128897109122085E-01 
    4.3973556697855432E-01 
    1.6216111813317746E-01 
    7.2063945283465958E-01 
    7.1779684915312192E-01 
    7.0219687964576627E-01 
    6.7675711394510107E-01 
    6.4881485128388661E-01 
    6.2242961952608822E-01 
    5.9893232061576185E-01 
    5.7837857205371512E-01 
    5.6109313931976512E-01 
    5.4733025061501395E-01 
    5.3685773800781056E-01 
    5.2869110214330728E-01 
    5.2133318220902580E-01 
    5.1082980119020971E-01 
    4.5299805568937307E-01 
    1.9923410584180692E-01 
    6.7290016978114686E-01 
    6.7373871602989421E-01 
    6.6411145423975537E-01 
    6.4442578235981196E-01 
    6.2129786167330858E-01 
    5.9840445646795637E-01 
    5.7697815089563464E-01 
    5.5783838714117273E-01 
    5.4173838166992061E-01 
    5.2932390855342437E-01 
    5.2041605741445707E-01 
    5.1510463618051072E-01 
    5.1244692529932190E-01 
    5.0810897024732282E-01 
    4.6403642957929830E-01 
    2.3329859143944492E-01 
    6.2368176548667886E-01 
    6.2765173241276706E-01 
    6.2339415133075593E-01 
    6.0916693541657474E-01 
    5.9094754059013099E-01 
    5.7210109973440115E-01 
    5.5402186545795329E-01 
    5.3719060922829487E-01 
    5.2262282775117952E-01 
    5.1099586155795074E-01 
    5.0237971391290348E-01 
    4.9796503816674831E-01 
    4.9931129016825293E-01 
    5.0245006780012225E-01 
    4.7312507890905214E-01 
    2.6629515879733534E-01 
    5.7481616014046522E-01 
    5.8095551004971557E-01 
    5.8158683885848617E-01 
    5.7265461885406488E-01 
    5.5851702324320385E-01 
    5.4293571602538115E-01 
    5.2845683528851739E-01 
    5.1519598120925658E-01 
    5.0188049627570175E-01 
    4.8953765470127591E-01 
    4.7940515662453703E-01 
    4.7470849856162117E-01 
    4.7970460053539760E-01 
    4.9147430331148151E-01 
    4.7894515809895583E-01 
    2.9801760568869046E-01 
    5.2499712496710860E-01 
    5.3416002150882391E-01 
    5.3814114544673286E-01 
    5.3337128981540227E-01 
    5.2183897634748144E-01 
    5.0757345187645531E-01 
    4.9408184807164429E-01 
    4.8093488912608046E-01 
    4.6458246183957808E-01 
    4.3693950797845188E-01 
    4.0704497732921796E-01 
    3.9154369527091565E-01 
    4.0900664481425519E-01 
    4.5505660873360276E-01 
    4.7244256648720578E-01 
    3.2714084923299674E-01 
    3.8862491155046991E-01 
    4.2960224403963615E-01 
    4.5292741572242579E-01 
    4.5599016826269129E-01 
    4.4267100448813790E-01 
    4.0830476959042294E-01 
    3.4236049031951771E-01 
    2.7533335340625981E-01 
    2.1551808862747454E-01 
    1.2394045336232415E-01 
    6.7552623622065502E-02 
    6.2360975707969286E-02 
    1.3689121922107081E-01 
    3.2148497825697225E-01 
    4.3496134599593650E-01 
    3.4568495105604952E-01 
    2.5595174369295141E-02 
    9.5064592148211349E-02 
    1.2372300226979241E-01 
    1.3361188352509684E-01 
    1.0319250719079504E-01 
    4.6984539267704621E-02 
    9.3554868075313401E-03 
    9.0402693047691312E-04 
    2.5945931715308941E-04 
    2.2982592938711454E-05 
    9.0564145004672351E-06 
    2.6173088862308124E-06 
    1.5896648074331995E-03 
    7.5038590427031385E-02 
    3.4136409206567431E-01 
    3.5214919322902444E-01 
    1.0003373862038591E-06 
    5.8953659165176540E-05 
    4.2539255221216112E-06 
    3.6980001436326533E-06 
    1.8833207638097336E-05 
    1.1263170876953130E-05 
    1.4056327869995796E-06 
    1.0073627201147454E-06 
    1.0006659285895016E-06 
    1.0000598758387847E-06 
    1.0000038229773960E-06 
    1.0000009364275949E-06 
    1.2222315489518467E-06 
    1.9431956726517960E-03 
    1.9940017217420838E-01 
    3.1638385719216366E-01 
