# vtk DataFile Version 2.0
Pressure Field Data 
ASCII 
DATASET UNSTRUCTURED_GRID 

POINTS 289 double 

    0.0000000000000000E+00     0.0000000000000000E+00     0.0000000000000000E+00 
    1.0000000000000000E+00     0.0000000000000000E+00     0.0000000000000000E+00 
    1.0000000000000000E+00     1.0000000000000000E+00     0.0000000000000000E+00 
    0.0000000000000000E+00     1.0000000000000000E+00     0.0000000000000000E+00 
    6.2499999999872928E-02     0.0000000000000000E+00     0.0000000000000000E+00 
    1.2499999999977310E-01     0.0000000000000000E+00     0.0000000000000000E+00 
    1.8749999999959341E-01     0.0000000000000000E+00     0.0000000000000000E+00 
    2.4999999999941089E-01     0.0000000000000000E+00     0.0000000000000000E+00 
    3.1249999999922851E-01     0.0000000000000000E+00     0.0000000000000000E+00 
    3.7499999999904610E-01     0.0000000000000000E+00     0.0000000000000000E+00 
    4.3749999999886358E-01     0.0000000000000000E+00     0.0000000000000000E+00 
    4.9999999999869210E-01     0.0000000000000000E+00     0.0000000000000000E+00 
    5.6249999999884603E-01     0.0000000000000000E+00     0.0000000000000000E+00 
    6.2499999999901090E-01     0.0000000000000000E+00     0.0000000000000000E+00 
    6.8749999999917577E-01     0.0000000000000000E+00     0.0000000000000000E+00 
    7.4999999999934064E-01     0.0000000000000000E+00     0.0000000000000000E+00 
    8.1249999999950551E-01     0.0000000000000000E+00     0.0000000000000000E+00 
    8.7499999999967026E-01     0.0000000000000000E+00     0.0000000000000000E+00 
    9.3749999999983513E-01     0.0000000000000000E+00     0.0000000000000000E+00 
    1.0000000000000000E+00     6.2499999999872928E-02     0.0000000000000000E+00 
    1.0000000000000000E+00     1.2499999999977310E-01     0.0000000000000000E+00 
    1.0000000000000000E+00     1.8749999999959341E-01     0.0000000000000000E+00 
    1.0000000000000000E+00     2.4999999999941089E-01     0.0000000000000000E+00 
    1.0000000000000000E+00     3.1249999999922851E-01     0.0000000000000000E+00 
    1.0000000000000000E+00     3.7499999999904610E-01     0.0000000000000000E+00 
    1.0000000000000000E+00     4.3749999999886358E-01     0.0000000000000000E+00 
    1.0000000000000000E+00     4.9999999999869210E-01     0.0000000000000000E+00 
    1.0000000000000000E+00     5.6249999999884603E-01     0.0000000000000000E+00 
    1.0000000000000000E+00     6.2499999999901090E-01     0.0000000000000000E+00 
    1.0000000000000000E+00     6.8749999999917577E-01     0.0000000000000000E+00 
    1.0000000000000000E+00     7.4999999999934064E-01     0.0000000000000000E+00 
    1.0000000000000000E+00     8.1249999999950551E-01     0.0000000000000000E+00 
    1.0000000000000000E+00     8.7499999999967026E-01     0.0000000000000000E+00 
    1.0000000000000000E+00     9.3749999999983513E-01     0.0000000000000000E+00 
    9.3749999999973976E-01     1.0000000000000000E+00     0.0000000000000000E+00 
    8.7499999999950118E-01     1.0000000000000000E+00     0.0000000000000000E+00 
    8.1249999999991318E-01     1.0000000000000000E+00     0.0000000000000000E+00 
    7.5000000000034706E-01     1.0000000000000000E+00     0.0000000000000000E+00 
    6.8750000000078049E-01     1.0000000000000000E+00     0.0000000000000000E+00 
    6.2500000000121403E-01     1.0000000000000000E+00     0.0000000000000000E+00 
    5.6250000000164757E-01     1.0000000000000000E+00     0.0000000000000000E+00 
    5.0000000000205946E-01     1.0000000000000000E+00     0.0000000000000000E+00 
    4.3750000000182099E-01     1.0000000000000000E+00     0.0000000000000000E+00 
    3.7500000000156092E-01     1.0000000000000000E+00     0.0000000000000000E+00 
    3.1250000000130068E-01     1.0000000000000000E+00     0.0000000000000000E+00 
    2.5000000000104050E-01     1.0000000000000000E+00     0.0000000000000000E+00 
    1.8750000000078040E-01     1.0000000000000000E+00     0.0000000000000000E+00 
    1.2500000000052031E-01     1.0000000000000000E+00     0.0000000000000000E+00 
    6.2500000000260125E-02     1.0000000000000000E+00     0.0000000000000000E+00 
    0.0000000000000000E+00     9.3749999999973976E-01     0.0000000000000000E+00 
    0.0000000000000000E+00     8.7499999999950118E-01     0.0000000000000000E+00 
    0.0000000000000000E+00     8.1249999999991318E-01     0.0000000000000000E+00 
    0.0000000000000000E+00     7.5000000000034706E-01     0.0000000000000000E+00 
    0.0000000000000000E+00     6.8750000000078049E-01     0.0000000000000000E+00 
    0.0000000000000000E+00     6.2500000000121403E-01     0.0000000000000000E+00 
    0.0000000000000000E+00     5.6250000000164757E-01     0.0000000000000000E+00 
    0.0000000000000000E+00     5.0000000000205946E-01     0.0000000000000000E+00 
    0.0000000000000000E+00     4.3750000000182099E-01     0.0000000000000000E+00 
    0.0000000000000000E+00     3.7500000000156092E-01     0.0000000000000000E+00 
    0.0000000000000000E+00     3.1250000000130068E-01     0.0000000000000000E+00 
    0.0000000000000000E+00     2.5000000000104050E-01     0.0000000000000000E+00 
    0.0000000000000000E+00     1.8750000000078040E-01     0.0000000000000000E+00 
    0.0000000000000000E+00     1.2500000000052031E-01     0.0000000000000000E+00 
    0.0000000000000000E+00     6.2500000000260125E-02     0.0000000000000000E+00 
    6.2499999999897131E-02     6.2500000000235922E-02     0.0000000000000000E+00 
    6.2499999999921327E-02     1.2500000000047351E-01     0.0000000000000000E+00 
    6.2499999999945530E-02     1.8750000000070621E-01     0.0000000000000000E+00 
    6.2499999999969733E-02     2.5000000000093858E-01     0.0000000000000000E+00 
    6.2499999999993928E-02     3.1250000000117117E-01     0.0000000000000000E+00 
    6.2500000000018124E-02     3.7500000000140382E-01     0.0000000000000000E+00 
    6.2500000000042327E-02     4.3750000000163619E-01     0.0000000000000000E+00 
    6.2500000000066530E-02     5.0000000000184897E-01     0.0000000000000000E+00 
    6.2500000000090733E-02     5.6250000000147260E-01     0.0000000000000000E+00 
    6.2500000000114922E-02     6.2500000000107636E-01     0.0000000000000000E+00 
    6.2500000000139125E-02     6.8750000000068034E-01     0.0000000000000000E+00 
    6.2500000000163328E-02     7.5000000000028411E-01     0.0000000000000000E+00 
    6.2500000000187531E-02     8.1249999999988787E-01     0.0000000000000000E+00 
    6.2500000000211720E-02     8.7499999999951172E-01     0.0000000000000000E+00 
    6.2500000000235922E-02     9.3749999999974565E-01     0.0000000000000000E+00 
    1.2499999999981980E-01     6.2500000000211733E-02     0.0000000000000000E+00 
    1.2499999999986650E-01     1.2500000000042691E-01     0.0000000000000000E+00 
    1.2499999999991319E-01     1.8750000000063199E-01     0.0000000000000000E+00 
    1.2499999999995989E-01     2.5000000000083678E-01     0.0000000000000000E+00 
    1.2500000000000661E-01     3.1250000000104172E-01     0.0000000000000000E+00 
    1.2500000000005329E-01     3.7500000000124661E-01     0.0000000000000000E+00 
    1.2500000000010000E-01     4.3750000000145117E-01     0.0000000000000000E+00 
    1.2500000000014669E-01     5.0000000000163858E-01     0.0000000000000000E+00 
    1.2500000000019340E-01     5.6250000000129741E-01     0.0000000000000000E+00 
    1.2500000000024011E-01     6.2500000000093847E-01     0.0000000000000000E+00 
    1.2500000000028680E-01     6.8750000000057998E-01     0.0000000000000000E+00 
    1.2500000000033351E-01     7.5000000000022127E-01     0.0000000000000000E+00 
    1.2500000000038020E-01     8.1249999999986211E-01     0.0000000000000000E+00 
    1.2500000000042691E-01     8.7499999999952238E-01     0.0000000000000000E+00 
    1.2500000000047359E-01     9.3749999999975164E-01     0.0000000000000000E+00 
    1.8749999999966760E-01     6.2500000000187531E-02     0.0000000000000000E+00 
    1.8749999999974179E-01     1.2500000000038020E-01     0.0000000000000000E+00 
    1.8749999999981601E-01     1.8750000000055780E-01     0.0000000000000000E+00 
    1.8749999999989009E-01     2.5000000000073502E-01     0.0000000000000000E+00 
    1.8749999999996431E-01     3.1250000000091221E-01     0.0000000000000000E+00 
    1.8750000000003850E-01     3.7500000000108941E-01     0.0000000000000000E+00 
    1.8750000000011269E-01     4.3750000000126649E-01     0.0000000000000000E+00 
    1.8750000000018691E-01     5.0000000000142808E-01     0.0000000000000000E+00 
    1.8750000000026110E-01     5.6250000000112244E-01     0.0000000000000000E+00 
    1.8750000000033529E-01     6.2500000000080080E-01     0.0000000000000000E+00 
    1.8750000000040951E-01     6.8750000000047962E-01     0.0000000000000000E+00 
    1.8750000000048361E-01     7.5000000000015843E-01     0.0000000000000000E+00 
    1.8750000000055780E-01     8.1249999999983680E-01     0.0000000000000000E+00 
    1.8750000000063199E-01     8.7499999999953304E-01     0.0000000000000000E+00 
    1.8750000000070621E-01     9.3749999999975764E-01     0.0000000000000000E+00 
    2.4999999999951281E-01     6.2500000000163314E-02     0.0000000000000000E+00 
    2.4999999999961461E-01     1.2500000000033351E-01     0.0000000000000000E+00 
    2.4999999999971650E-01     1.8750000000048361E-01     0.0000000000000000E+00 
    2.4999999999981831E-01     2.5000000000063310E-01     0.0000000000000000E+00 
    2.4999999999992020E-01     3.1250000000078260E-01     0.0000000000000000E+00 
    2.5000000000002198E-01     3.7500000000093209E-01     0.0000000000000000E+00 
    2.5000000000012390E-01     4.3750000000108180E-01     0.0000000000000000E+00 
    2.5000000000022571E-01     5.0000000000121769E-01     0.0000000000000000E+00 
    2.5000000000032763E-01     5.6250000000094724E-01     0.0000000000000000E+00 
    2.5000000000042938E-01     6.2500000000066314E-01     0.0000000000000000E+00 
    2.5000000000053119E-01     6.8750000000037925E-01     0.0000000000000000E+00 
[...]
CELL_DATA 256 
SCALARS Pressure double 1 
LOOKUP_TABLE default 

    1.1352177565834520E+00 
    1.0747437311146613E+00 
    1.0277473985154200E+00 
    9.7932931560334679E-01 
    9.2538084554185573E-01 
    8.6055330898671545E-01 
    7.8217074958213040E-01 
    7.0601751961045756E-01 
    6.3604560757044359E-01 
    5.6877944609238784E-01 
    5.0491917784561635E-01 
    4.4619067898963505E-01 
    3.9538419089082938E-01 
    3.5602265967302826E-01 
    3.3116620733190888E-01 
    3.2119297116842249E-01 
    1.1212301675324929E+00 
    1.0768788595654974E+00 
    1.0313346868396065E+00 
    9.8358106147614144E-01 
    9.3053987911229463E-01 
    8.6660890153544812E-01 
    7.8896080455388673E-01 
    7.1300384866505817E-01 
    6.4268581781032741E-01 
    5.7505866993698307E-01 
    5.1063349234584265E-01 
    4.5102245708520139E-01 
    3.9894755354987410E-01 
    3.5801135432503661E-01 
    3.3161575542469846E-01 
    3.2074436529787237E-01 
    1.1098249693340927E+00 
    1.0762557834140365E+00 
    1.0335820585117919E+00 
    9.8688307353011184E-01 
    9.3487337607136134E-01 
    8.7161715172677745E-01 
    7.9481871180698249E-01 
    7.1964675826608371E-01 
    6.4912301539509654E-01 
    5.8111611024760113E-01 
    5.1602606669446016E-01 
    4.5534011489689019E-01 
    4.0171216864310705E-01 
    3.5888360120434448E-01 
    3.3076036287353877E-01 
    3.1913229786413538E-01 
    1.0997195431178539E+00 
    1.0737605929974059E+00 
    1.0344997210905744E+00 
    9.8926616548756174E-01 
    9.3837172206837727E-01 
    8.7567230970843490E-01 
    7.9988651177078396E-01 
    7.2591697671287914E-01 
    6.5535475791052000E-01 
    5.8698537828788333E-01 
    5.2116140119603338E-01 
    4.5923498769109522E-01 
    4.0377206540665761E-01 
    3.5867956954709840E-01 
    3.2851759876800413E-01 
    3.1613080080317835E-01 
    1.0904390757216198E+00 
    1.0699768792527951E+00 
    1.0342654012456456E+00 
    9.9084723453131096E-01 
    9.4103334483270562E-01 
    8.7883054890642021E-01 
    8.0434335706353932E-01 
    7.3181968066326353E-01 
    6.6139510650817512E-01 
    5.9270923833321765E-01 
    5.2611328438306948E-01 
    4.6281131500961015E-01 
    4.0523938092258821E-01 
    3.5745581652708952E-01 
    3.2480560061988062E-01 
    3.1150958409183432E-01 
    1.0820305919016298E+00 
    1.0655350761462530E+00 
    1.0331996527951754E+00 
    9.9177596519958933E-01 
    9.4281368083121597E-01 
    8.8108838960974323E-01 
    8.0841716766188576E-01 
    7.3739500288153692E-01 
    6.6727059664415211E-01 
    5.9833329962652515E-01 
    5.3095830086137130E-01 
    4.6618275029305162E-01 
    4.0624641298933439E-01 
    3.5529278237752487E-01 
    3.1954620963840080E-01 
    3.0501905990365891E-01 
    1.0745494983993336E+00 
    1.0609051484755425E+00 
    1.0315917503085539E+00 
    9.9213940662759281E-01 
    9.4368142973865898E-01 
    8.8255104210176560E-01 
    8.1236251313156405E-01 
    7.4271375033227183E-01 
    6.7301320550289578E-01 
    6.0389895712733510E-01 
    5.3577007929700482E-01 
    4.6946804256073854E-01 
    4.0694641709307516E-01 
    3.5230241985666844E-01 
    3.1266619975147658E-01 
    2.9636027391299030E-01 
    1.0680383707158541E+00 
    1.0564323968714824E+00 
    1.0296787577775013E+00 
    9.9184640698431814E-01 
    9.4365199030015967E-01 
    8.8362020841844002E-01 
    8.1630901113224463E-01 
    7.4786192503621185E-01 
    6.7866015866448570E-01 
    6.0945005314274658E-01 
    5.4062287211982563E-01 
    4.7279418332149747E-01 
    4.0752080709051092E-01 
    3.4864638477378379E-01 
    3.0411384395551427E-01 
    2.8517531649999589E-01 
    1.0623682078288732E+00 
    1.0522288430763842E+00 
    1.0274155248276340E+00 
    9.9064925208418708E-01 
    9.4292631732395649E-01 
    8.8482854900772046E-01 
    8.2020850948244817E-01 
    7.5291625044368526E-01 
    6.8426352344489494E-01 
    6.1503553175560266E-01 
    5.4559096262689011E-01 
    4.7629147917649844E-01 
    4.0818097149988802E-01 
    3.4455445346630625E-01 
    2.9387990944068870E-01 
    2.7100833888070824E-01 
    1.0566721209022010E+00 
    1.0475693008429445E+00 
    1.0242402242551554E+00 
    9.8860963712548500E-01 
    9.4228822903851661E-01 
    8.8653407610845092E-01 
    8.2405165380373147E-01 
    7.5793703658517309E-01 
    6.8986981327208419E-01 
    6.2069887344824937E-01 
    5.5074316250095889E-01 
    4.8009501465526422E-01 
    4.0917468079625630E-01 
    3.4035519977464868E-01 
    2.8204699359224661E-01 
    2.5327142085413945E-01 
    1.0511709351733323E+00 
    1.0426737892179896E+00 
    1.0207679100196043E+00 
    9.8682133592666310E-01 
    9.4239481231912325E-01 
    8.8868499891954833E-01 
    8.2794683098603694E-01 
    7.6297633838807921E-01 
    6.9551548942644903E-01 
    6.2647441764123579E-01 
    5.5613528920453215E-01 
    4.8432600796270431E-01 
    4.1076592856848854E-01 
    3.3648768403738355E-01 
    2.6884978234385087E-01 
    2.3118445455848174E-01 
    1.0469924301239100E+00 
    1.0389271634832584E+00 
    1.0183765715216682E+00 
    9.8604961015580295E-01 
    9.4322199085607472E-01 
    8.9118826667329665E-01 
    8.3198774628798156E-01 
    7.6808889551587400E-01 
    7.0123750377767136E-01 
    6.3239306266271400E-01 
    5.6180945438692276E-01 
    4.8908270006545224E-01 
    4.1321877635676657E-01 
    3.3352030457273280E-01 
    2.5479243031219190E-01 
    2.0369898401340975E-01 
    1.0440330568275864E+00 
    1.0363194173349828E+00 
    1.0169306572771379E+00 
    9.8603344764967760E-01 
    9.4466126417610563E-01 
    8.9410689436692203E-01 
    8.3625344776284460E-01 
    7.7333510420803842E-01 
    7.0707938883076016E-01 
    6.3848347758066026E-01 
    5.6779299042819298E-01 
    4.9443228653726506E-01 
    4.1677330577183413E-01 
    3.3215351065126864E-01 
    2.4084452634188225E-01 
    1.6936396131024192E-01 
    1.0421048446949566E+00 
    1.0347417698834991E+00 
    1.0163965205973688E+00 
    9.8679263885190860E-01 
    9.4674212783566614E-01 
    8.9749206037005269E-01 
    8.4080964723360896E-01 
    7.7876868090653129E-01 
    7.1307536993571030E-01 
    6.4476296982784764E-01 
    5.7409624398046999E-01 
    5.0040739653748167E-01 
    4.2160899250619754E-01 
    3.3317734682308286E-01 
    2.2877555969171490E-01 
    1.2613609438785731E-01 
    1.0410707303744078E+00 
    1.0341247781883125E+00 
    1.0167596637362011E+00 
    9.8834300245685169E-01 
    9.4949338028191077E-01 
    9.0138902537374843E-01 
    8.4571026395104643E-01 
    7.8443150533130646E-01 
    7.1924885302939301E-01 
    6.5123887261339697E-01 
    5.8071169525217237E-01 
    5.0699159644001912E-01 
    4.2778125736089223E-01 
    3.3730776974189552E-01 
    2.2170219742439148E-01 
    7.1094467081231003E-02 
    1.0407859667642991E+00 
    1.0343969054011610E+00 
    1.0180088514195589E+00 
    9.9070500062790101E-01 
    9.5294822877378160E-01 
    9.0584305520096353E-01 
    8.5100620353619327E-01 
    7.9036394050662628E-01 
    7.2562392111127139E-01 
    6.5791667553472055E-01 
    5.8761870759337664E-01 
    5.1412245597018669E-01 
    4.3518268602638788E-01 
    3.4481686520913402E-01 
    2.2501687825985975E-01 
    0.0000000000000000E+00 

SCALARS Saturarion double 1 
LOOKUP_TABLE default 

    9.9999999992568589E-01 
    9.1643467483166519E-01 
    8.0791688535805262E-01 
    6.7718902688533367E-01 
    5.8876854952223823E-01 
    4.5590186312534903E-01 
    8.9576531632501635E-02 
    1.0000005606087273E-06 
    1.0000000000005971E-06 
    9.9999999999999995E-07 
    9.9999999999999995E-07 
    9.9999999999999995E-07 
    9.9999999999999995E-07 
    9.9999999999999995E-07 
    9.9999999999999995E-07 
    9.9999999999999995E-07 
    9.5662192427005255E-01 
    8.8206871010526955E-01 
    7.7868430334036787E-01 
    6.6575470161847117E-01 
    5.7813603196603214E-01 
    4.4354028675630014E-01 
    7.8396722487271753E-02 
    3.7212093078482184E-06 
    1.0000012841686874E-06 
    1.0000000000005689E-06 
    9.9999999999999995E-07 
    9.9999999999999995E-07 
    9.9999999999999995E-07 
    9.9999999999999995E-07 
    9.9999999999999995E-07 
    9.9999999999999995E-07 
    8.8311444728177213E-01 
    8.2695434856765082E-01 
    7.3449105410845572E-01 
    6.4514304641171549E-01 
    5.6280324498834677E-01 
    4.2397392535922335E-01 
    5.8945216829969151E-02 
    1.0802365346035340E-05 
    1.0000077013519380E-06 
    1.0000000000023503E-06 
    9.9999999999999995E-07 
    9.9999999999999995E-07 
    9.9999999999999995E-07 
    9.9999999999999995E-07 
    9.9999999999999995E-07 
    9.9999999999999995E-07 
    7.8874953582515350E-01 
    7.4895880693038963E-01 
    6.8078883543899693E-01 
    6.1889801060395844E-01 
    5.4850213120693558E-01 
    4.0047877840984619E-01 
    3.9432396225001026E-02 
    8.2064658899952776E-06 
    1.0000105178854604E-06 
    9.9999999999999995E-07 
    9.9999999999999995E-07 
    9.9999999999999995E-07 
    9.9999999999999995E-07 
    9.9999999999999995E-07 
    9.9999999999999995E-07 
    9.9999999999999995E-07 
    7.1234076639747201E-01 
    6.8488389511847647E-01 
    6.3606438509959717E-01 
    5.9012697019479665E-01 
    5.2972813839170829E-01 
    3.5619205570002749E-01 
    1.7133879316138054E-02 
    5.8791271560569079E-06 
    1.0000035272749777E-06 
    9.9999999999999974E-07 
    9.9999999999999995E-07 
    9.9999999999999995E-07 
    9.9999999999999995E-07 
    9.9999999999999995E-07 
    9.9999999999999995E-07 
    9.9999999999999995E-07 
    6.4830631354211909E-01 
    6.3138500667786712E-01 
    5.9647119729096720E-01 
    5.5851045216734330E-01 
    5.0051283803448576E-01 
    2.7419860617528635E-01 
    3.4581373195084679E-03 
    1.3850193493638319E-06 
    1.0000000991363604E-06 
    1.0000000000000002E-06 
    9.9999999999999995E-07 
    9.9999999999999995E-07 
    9.9999999999999995E-07 
    9.9999999999999995E-07 
    9.9999999999999995E-07 
    9.9999999999999995E-07 
    5.9571631390872870E-01 
    5.8688386951102156E-01 
    5.6012174596018127E-01 
    5.2509243413828577E-01 
    4.5328259354901823E-01 
    1.5628281082875675E-01 
    2.0776081828180403E-04 
    1.0136127141481851E-06 
    1.0000000000149520E-06 
    9.9999999999999995E-07 
    9.9999999999999995E-07 
    9.9999999999999995E-07 
    9.9999999999999995E-07 
    9.9999999999999995E-07 
    9.9999999999999995E-07 
    9.9999999999999995E-07 
    5.5315889757389725E-01 
    5.4793605394600575E-01 
    5.2575605116451951E-01 
    4.8729673876166912E-01 
    3.4721880602928157E-01 
    3.4459107098193290E-02 
    5.1433710211940988E-05 
    1.0002556474738797E-06 
    1.0000000000000016E-06 
    9.9999999999999995E-07 
    9.9999999999999995E-07 
    9.9999999999999995E-07 
    9.9999999999999995E-07 
    9.9999999999999995E-07 
    9.9999999999999995E-07 
    9.9999999999999995E-07 
    5.0506949647733657E-01 
    5.0039294580130056E-01 
    4.7883166933561760E-01 
    3.9480425752155768E-01 
    1.3512132198718363E-01 
    4.2547884373529503E-04 
    1.0380914325005936E-06 
    1.0000000010045992E-06 
    9.9999999999999995E-07 
    9.9999999999999995E-07 
    9.9999999999999995E-07 
    9.9999999999999995E-07 
    9.9999999999999995E-07 
    9.9999999999999995E-07 
    9.9999999999999995E-07 
    9.9999999999999995E-07 
    3.7623498895870766E-01 
    3.8003782052030344E-01 
    3.0256842136051360E-01 
    1.1326951382602857E-01 
    1.8656198392555093E-03 
    1.0937080800677729E-06 
    1.0000000260338159E-06 
    1.0000000000000042E-06 
    9.9999999999999995E-07 
    9.9999999999999995E-07 
    9.9999999999999995E-07 
    9.9999999999999995E-07 
    9.9999999999999995E-07 
    9.9999999999999995E-07 
    9.9999999999999995E-07 
    9.9999999999999995E-07 
    3.0499549324501170E-02 
    3.9380976838629109E-02 
    9.4248218799573517E-03 
    3.3632275095675913E-04 
    1.1351385897289532E-06 
    1.0000000611564706E-06 
    1.0000000000000116E-06 
    9.9999999999999995E-07 
    9.9999999999999995E-07 
    9.9999999999999995E-07 
    9.9999999999999995E-07 
    9.9999999999999995E-07 
    9.9999999999999995E-07 
    9.9999999999999995E-07 
    9.9999999999999995E-07 
    9.9999999999999995E-07 
    1.0000023531581069E-06 
    1.3663347710947167E-06 
    3.4731407425753294E-06 
    1.0255466635678735E-06 
    1.0000000250458869E-06 
    1.0000000000000139E-06 
    9.9999999999999995E-07 
    9.9999999999999995E-07 
    9.9999999999999995E-07 
    9.9999999999999995E-07 
    9.9999999999999995E-07 
    9.9999999999999995E-07 
    9.9999999999999995E-07 
    9.9999999999999995E-07 
    9.9999999999999995E-07 
    9.9999999999999995E-07 
    1.0000000000008152E-06 
    1.0000000722761061E-06 
    1.0000002761684074E-06 
    1.0000000000000434E-06 
    1.0000000000000012E-06 
    9.9999999999999995E-07 
    9.9999999999999995E-07 
    9.9999999999999995E-07 
    9.9999999999999995E-07 
    9.9999999999999995E-07 
    9.9999999999999995E-07 
    9.9999999999999995E-07 
    9.9999999999999995E-07 
    9.9999999999999995E-07 
    9.9999999999999995E-07 
    9.9999999999999995E-07 
    9.9999999999999995E-07 
    1.0000000000000167E-06 
    1.0000000000000103E-06 
    9.9999999999999995E-07 
    9.9999999999999995E-07 
    9.9999999999999995E-07 
    9.9999999999999995E-07 
    9.9999999999999995E-07 
    9.9999999999999995E-07 
    9.9999999999999995E-07 
    9.9999999999999995E-07 
    9.9999999999999995E-07 
    9.9999999999999995E-07 
    9.9999999999999995E-07 
    9.9999999999999995E-07 
    9.9999999999999995E-07 
    9.9999999999999995E-07 
    9.9999999999999995E-07 
    9.9999999999999995E-07 
    9.9999999999999995E-07 
    9.9999999999999995E-07 
    9.9999999999999995E-07 
    9.9999999999999995E-07 
    9.9999999999999995E-07 
    9.9999999999999995E-07 
    9.9999999999999995E-07 
    9.9999999999999995E-07 
    9.9999999999999995E-07 
    9.9999999999999995E-07 
    9.9999999999999995E-07 
    9.9999999999999995E-07 
    9.9999999999999995E-07 
    9.9999999999999995E-07 
    9.9999999999999995E-07 
    9.9999999999999995E-07 
    9.9999999999999995E-07 
    9.9999999999999995E-07 
    9.9999999999999995E-07 
    9.9999999999999995E-07 
    9.9999999999999995E-07 
    9.9999999999999995E-07 
    9.9999999999999995E-07 
    9.9999999999999995E-07 
    9.9999999999999995E-07 
    9.9999999999999995E-07 
    9.9999999999999995E-07 
    9.9999999999999995E-07 
    1.0000001532918359E-06 
