# vtk DataFile Version 2.0
Pressure Field Data 
ASCII 
DATASET UNSTRUCTURED_GRID 

POINTS 289 double 

    0.0000000000000000E+00     0.0000000000000000E+00     0.0000000000000000E+00 
    1.0000000000000000E+00     0.0000000000000000E+00     0.0000000000000000E+00 
    1.0000000000000000E+00     1.0000000000000000E+00     0.0000000000000000E+00 
    0.0000000000000000E+00     1.0000000000000000E+00     0.0000000000000000E+00 
    6.2499999999872928E-02     0.0000000000000000E+00     0.0000000000000000E+00 
    1.2499999999977310E-01     0.0000000000000000E+00     0.0000000000000000E+00 
    1.8749999999959341E-01     0.0000000000000000E+00     0.0000000000000000E+00 
    2.4999999999941089E-01     0.0000000000000000E+00     0.0000000000000000E+00 
    3.1249999999922851E-01     0.0000000000000000E+00     0.0000000000000000E+00 
    3.7499999999904610E-01     0.0000000000000000E+00     0.0000000000000000E+00 
    4.3749999999886358E-01     0.0000000000000000E+00     0.0000000000000000E+00 
    4.9999999999869210E-01     0.0000000000000000E+00     0.0000000000000000E+00 
    5.6249999999884603E-01     0.0000000000000000E+00     0.0000000000000000E+00 
    6.2499999999901090E-01     0.0000000000000000E+00     0.0000000000000000E+00 
    6.8749999999917577E-01     0.0000000000000000E+00     0.0000000000000000E+00 
    7.4999999999934064E-01     0.0000000000000000E+00     0.0000000000000000E+00 
    8.1249999999950551E-01     0.0000000000000000E+00     0.0000000000000000E+00 
    8.7499999999967026E-01     0.0000000000000000E+00     0.0000000000000000E+00 
    9.3749999999983513E-01     0.0000000000000000E+00     0.0000000000000000E+00 
    1.0000000000000000E+00     6.2499999999872928E-02     0.0000000000000000E+00 
    1.0000000000000000E+00     1.2499999999977310E-01     0.0000000000000000E+00 
    1.0000000000000000E+00     1.8749999999959341E-01     0.0000000000000000E+00 
    1.0000000000000000E+00     2.4999999999941089E-01     0.0000000000000000E+00 
    1.0000000000000000E+00     3.1249999999922851E-01     0.0000000000000000E+00 
    1.0000000000000000E+00     3.7499999999904610E-01     0.0000000000000000E+00 
    1.0000000000000000E+00     4.3749999999886358E-01     0.0000000000000000E+00 
    1.0000000000000000E+00     4.9999999999869210E-01     0.0000000000000000E+00 
    1.0000000000000000E+00     5.6249999999884603E-01     0.0000000000000000E+00 
    1.0000000000000000E+00     6.2499999999901090E-01     0.0000000000000000E+00 
    1.0000000000000000E+00     6.8749999999917577E-01     0.0000000000000000E+00 
    1.0000000000000000E+00     7.4999999999934064E-01     0.0000000000000000E+00 
    1.0000000000000000E+00     8.1249999999950551E-01     0.0000000000000000E+00 
    1.0000000000000000E+00     8.7499999999967026E-01     0.0000000000000000E+00 
    1.0000000000000000E+00     9.3749999999983513E-01     0.0000000000000000E+00 
    9.3749999999973976E-01     1.0000000000000000E+00     0.0000000000000000E+00 
    8.7499999999950118E-01     1.0000000000000000E+00     0.0000000000000000E+00 
    8.1249999999991318E-01     1.0000000000000000E+00     0.0000000000000000E+00 
    7.5000000000034706E-01     1.0000000000000000E+00     0.0000000000000000E+00 
    6.8750000000078049E-01     1.0000000000000000E+00     0.0000000000000000E+00 
    6.2500000000121403E-01     1.0000000000000000E+00     0.0000000000000000E+00 
    5.6250000000164757E-01     1.0000000000000000E+00     0.0000000000000000E+00 
    5.0000000000205946E-01     1.0000000000000000E+00     0.0000000000000000E+00 
    4.3750000000182099E-01     1.0000000000000000E+00     0.0000000000000000E+00 
    3.7500000000156092E-01     1.0000000000000000E+00     0.0000000000000000E+00 
    3.1250000000130068E-01     1.0000000000000000E+00     0.0000000000000000E+00 
    2.5000000000104050E-01     1.0000000000000000E+00     0.0000000000000000E+00 
    1.8750000000078040E-01     1.0000000000000000E+00     0.0000000000000000E+00 
    1.2500000000052031E-01     1.0000000000000000E+00     0.0000000000000000E+00 
    6.2500000000260125E-02     1.0000000000000000E+00     0.0000000000000000E+00 
    0.0000000000000000E+00     9.3749999999973976E-01     0.0000000000000000E+00 
    0.0000000000000000E+00     8.7499999999950118E-01     0.0000000000000000E+00 
    0.0000000000000000E+00     8.1249999999991318E-01     0.0000000000000000E+00 
    0.0000000000000000E+00     7.5000000000034706E-01     0.0000000000000000E+00 
    0.0000000000000000E+00     6.8750000000078049E-01     0.0000000000000000E+00 
    0.0000000000000000E+00     6.2500000000121403E-01     0.0000000000000000E+00 
    0.0000000000000000E+00     5.6250000000164757E-01     0.0000000000000000E+00 
    0.0000000000000000E+00     5.0000000000205946E-01     0.0000000000000000E+00 
    0.0000000000000000E+00     4.3750000000182099E-01     0.0000000000000000E+00 
    0.0000000000000000E+00     3.7500000000156092E-01     0.0000000000000000E+00 
    0.0000000000000000E+00     3.1250000000130068E-01     0.0000000000000000E+00 
    0.0000000000000000E+00     2.5000000000104050E-01     0.0000000000000000E+00 
    0.0000000000000000E+00     1.8750000000078040E-01     0.0000000000000000E+00 
    0.0000000000000000E+00     1.2500000000052031E-01     0.0000000000000000E+00 
    0.0000000000000000E+00     6.2500000000260125E-02     0.0000000000000000E+00 
    6.2499999999897131E-02     6.2500000000235922E-02     0.0000000000000000E+00 
    6.2499999999921327E-02     1.2500000000047351E-01     0.0000000000000000E+00 
    6.2499999999945530E-02     1.8750000000070621E-01     0.0000000000000000E+00 
    6.2499999999969733E-02     2.5000000000093858E-01     0.0000000000000000E+00 
    6.2499999999993928E-02     3.1250000000117117E-01     0.0000000000000000E+00 
    6.2500000000018124E-02     3.7500000000140382E-01     0.0000000000000000E+00 
    6.2500000000042327E-02     4.3750000000163619E-01     0.0000000000000000E+00 
    6.2500000000066530E-02     5.0000000000184897E-01     0.0000000000000000E+00 
    6.2500000000090733E-02     5.6250000000147260E-01     0.0000000000000000E+00 
    6.2500000000114922E-02     6.2500000000107636E-01     0.0000000000000000E+00 
    6.2500000000139125E-02     6.8750000000068034E-01     0.0000000000000000E+00 
    6.2500000000163328E-02     7.5000000000028411E-01     0.0000000000000000E+00 
    6.2500000000187531E-02     8.1249999999988787E-01     0.0000000000000000E+00 
    6.2500000000211720E-02     8.7499999999951172E-01     0.0000000000000000E+00 
    6.2500000000235922E-02     9.3749999999974565E-01     0.0000000000000000E+00 
    1.2499999999981980E-01     6.2500000000211733E-02     0.0000000000000000E+00 
    1.2499999999986650E-01     1.2500000000042691E-01     0.0000000000000000E+00 
    1.2499999999991319E-01     1.8750000000063199E-01     0.0000000000000000E+00 
    1.2499999999995989E-01     2.5000000000083678E-01     0.0000000000000000E+00 
    1.2500000000000661E-01     3.1250000000104172E-01     0.0000000000000000E+00 
    1.2500000000005329E-01     3.7500000000124661E-01     0.0000000000000000E+00 
    1.2500000000010000E-01     4.3750000000145117E-01     0.0000000000000000E+00 
    1.2500000000014669E-01     5.0000000000163858E-01     0.0000000000000000E+00 
    1.2500000000019340E-01     5.6250000000129741E-01     0.0000000000000000E+00 
    1.2500000000024011E-01     6.2500000000093847E-01     0.0000000000000000E+00 
    1.2500000000028680E-01     6.8750000000057998E-01     0.0000000000000000E+00 
    1.2500000000033351E-01     7.5000000000022127E-01     0.0000000000000000E+00 
    1.2500000000038020E-01     8.1249999999986211E-01     0.0000000000000000E+00 
    1.2500000000042691E-01     8.7499999999952238E-01     0.0000000000000000E+00 
    1.2500000000047359E-01     9.3749999999975164E-01     0.0000000000000000E+00 
    1.8749999999966760E-01     6.2500000000187531E-02     0.0000000000000000E+00 
    1.8749999999974179E-01     1.2500000000038020E-01     0.0000000000000000E+00 
    1.8749999999981601E-01     1.8750000000055780E-01     0.0000000000000000E+00 
    1.8749999999989009E-01     2.5000000000073502E-01     0.0000000000000000E+00 
    1.8749999999996431E-01     3.1250000000091221E-01     0.0000000000000000E+00 
    1.8750000000003850E-01     3.7500000000108941E-01     0.0000000000000000E+00 
    1.8750000000011269E-01     4.3750000000126649E-01     0.0000000000000000E+00 
    1.8750000000018691E-01     5.0000000000142808E-01     0.0000000000000000E+00 
    1.8750000000026110E-01     5.6250000000112244E-01     0.0000000000000000E+00 
    1.8750000000033529E-01     6.2500000000080080E-01     0.0000000000000000E+00 
    1.8750000000040951E-01     6.8750000000047962E-01     0.0000000000000000E+00 
    1.8750000000048361E-01     7.5000000000015843E-01     0.0000000000000000E+00 
    1.8750000000055780E-01     8.1249999999983680E-01     0.0000000000000000E+00 
    1.8750000000063199E-01     8.7499999999953304E-01     0.0000000000000000E+00 
    1.8750000000070621E-01     9.3749999999975764E-01     0.0000000000000000E+00 
    2.4999999999951281E-01     6.2500000000163314E-02     0.0000000000000000E+00 
    2.4999999999961461E-01     1.2500000000033351E-01     0.0000000000000000E+00 
    2.4999999999971650E-01     1.8750000000048361E-01     0.0000000000000000E+00 
    2.4999999999981831E-01     2.5000000000063310E-01     0.0000000000000000E+00 
    2.4999999999992020E-01     3.1250000000078260E-01     0.0000000000000000E+00 
    2.5000000000002198E-01     3.7500000000093209E-01     0.0000000000000000E+00 
    2.5000000000012390E-01     4.3750000000108180E-01     0.0000000000000000E+00 
    2.5000000000022571E-01     5.0000000000121769E-01     0.0000000000000000E+00 
    2.5000000000032763E-01     5.6250000000094724E-01     0.0000000000000000E+00 
    2.5000000000042938E-01     6.2500000000066314E-01     0.0000000000000000E+00 
    2.5000000000053119E-01     6.8750000000037925E-01     0.0000000000000000E+00 
[...]
CELL_DATA 256 
SCALARS Pressure double 1 
LOOKUP_TABLE default 

    6.4129569334822190E-01 
    5.9196961869643394E-01 
    5.6101077034388180E-01 
    5.3337676871937723E-01 
    5.0562413923291194E-01 
    4.7687658364816377E-01 
    4.4685080784765807E-01 
    4.1556463287960027E-01 
    3.8325688184818030E-01 
    3.5041582622707812E-01 
    3.1788290382676826E-01 
    2.8699288464782058E-01 
    2.5965377478917434E-01 
    2.3815751708324870E-01 
    2.2445500101177324E-01 
    2.1795580891900951E-01 
    6.2729578102536365E-01 
    5.9318980296737733E-01 
    5.6330688389172145E-01 
    5.3587772230866226E-01 
    5.0829141743352557E-01 
    4.7969867418309003E-01 
    4.4981291346862318E-01 
    4.1863531977064450E-01 
    3.8637838626727289E-01 
    3.5349147729721819E-01 
    3.2076164485674197E-01 
    2.8946118005796151E-01 
    2.6146091152184781E-01 
    2.3910733740468004E-01 
    2.2458143138153747E-01 
    2.1757515729574972E-01 
    6.1655496487213268E-01 
    5.9229008686138829E-01 
    5.6486904391256132E-01 
    5.3806450135526041E-01 
    5.1078213095594072E-01 
    4.8239733939058560E-01 
    4.5267104244842671E-01 
    4.2160277714588962E-01 
    3.8937943205300624E-01 
    3.5640499605620340E-01 
    3.2340020457402852E-01 
    2.9156080439074200E-01 
    2.6271659673841391E-01 
    2.3930257319763307E-01 
    2.2381772127592930E-01 
    2.1635277896999186E-01 
    6.0813867098000629E-01 
    5.9033379199758917E-01 
    5.6574102313161556E-01 
    5.3991418829775029E-01 
    5.1308622300797135E-01 
    4.8497437896043222E-01 
    4.5543396605806713E-01 
    4.2448063995623853E-01 
    3.9228019734193692E-01 
    3.5918693426142734E-01 
    3.2584364253561304E-01 
    2.9335126385792132E-01 
    2.6348163601771996E-01 
    2.3877215212446981E-01 
    2.2212313262684241E-01 
    2.1416357564502950E-01 
    6.0141230493139619E-01 
    5.8791784678939185E-01 
    5.6605766296052185E-01 
    5.4143593241472621E-01 
    5.1519901672615731E-01 
    4.8743013477961256E-01 
    4.5810922656579567E-01 
    4.2728333475568792E-01 
    3.9510308557391072E-01 
    3.6187102589737352E-01 
    3.2814125248719733E-01 
    2.9489829869812939E-01 
    2.6382577211260871E-01 
    2.3755220884000194E-01 
    2.1945209607760302E-01 
    2.1087317166616257E-01 
    5.9596747238807823E-01 
    5.8538496547908803E-01 
    5.6596967046456448E-01 
    5.4266286866166047E-01 
    5.1712430180897218E-01 
    4.8976512646462905E-01 
    4.6070203912596575E-01 
    4.3002380018671543E-01 
    3.9787071696084703E-01 
    3.6449289548309355E-01 
    3.3034645548008129E-01 
    2.9627504151373052E-01 
    2.6383041830841614E-01 
    2.3569133491557290E-01 
    2.1575608426825307E-01 
    2.0632324005278915E-01 
    5.9153202271120919E-01 
    5.8293865082554674E-01 
    5.6562227393463771E-01 
    5.4364697532529149E-01 
    5.1887965134133052E-01 
    4.9198695880265597E-01 
    4.6321919973463149E-01 
    4.3271371904843270E-01 
    4.0060416722559311E-01 
    3.6708817012537254E-01 
    3.3251580173283046E-01 
    2.9756344553325109E-01 
    2.6359302483173397E-01 
    2.3325896587388992E-01 
    2.1099403235949646E-01 
    2.0033335941435065E-01 
    5.8791385886446823E-01 
    5.8069684227431073E-01 
    5.6514149995977092E-01 
    5.4445003959555338E-01 
    5.2049313181298940E-01 
    4.9411038483815556E-01 
    4.6567129078768776E-01 
    4.3536477392606948E-01 
    4.0332240873258451E-01 
    3.6968964805356741E-01 
    3.3470565281628800E-01 
    2.9885351609172778E-01 
    2.6323230850702117E-01 
    2.3035544507006134E-01 
    2.0514173724980431E-01 
    1.9269202340010574E-01 
    5.8497470077685487E-01 
    5.7872441515637263E-01 
    5.6462969493830539E-01 
    5.4513620311301436E-01 
    5.2199780025405595E-01 
    4.9615352426178977E-01 
    4.6807059935361578E-01 
    4.3798886065742815E-01 
    4.0604160364377345E-01 
    3.7232504654947574E-01 
    3.3696729459318303E-01 
    3.0023818603606045E-01 
    2.6288988855399875E-01 
    2.2712305151211004E-01 
    1.9819717385289359E-01 
    1.8312923742146670E-01 
    5.8261299299466018E-01 
    5.7705292402186215E-01 
    5.6416441119007599E-01 
    5.4576500008824669E-01 
    5.2342903861754708E-01 
    4.9813656693153635E-01 
    4.7043026855053038E-01 
    4.4059792012564364E-01 
    4.0877665639836391E-01 
    3.7501776097556455E-01 
    3.3934472728532183E-01 
    3.0180726355375231E-01 
    2.6272710540724054E-01 
    2.2375899325028470E-01 
    1.9019946235361146E-01 
    1.7128661961918007E-01 
    5.8075267066250102E-01 
    5.7569662541641797E-01 
    5.6380661679749777E-01 
    5.4639204079443116E-01 
    5.2482456531642774E-01 
    5.0008301354235940E-01 
    4.7276559956012049E-01 
    4.4320497626498062E-01 
    4.1154293648378504E-01 
    3.7778919515025960E-01 
    3.4187521341728949E-01 
    3.0364408417103866E-01 
    2.6292171192679148E-01 
    2.2052731637906783E-01 
    1.8126481221530782E-01 
    1.5669063681476303E-01 
    5.7933196100389150E-01 
    5.7466127636098308E-01 
    5.6360634257544906E-01 
    5.4706904820788282E-01 
    5.2622322412167122E-01 
    5.0201957595996882E-01 
    4.7509544558823408E-01 
    4.4582519930150211E-01 
    4.1435708367108509E-01 
    3.8065959508526676E-01 
    3.4458916645690718E-01 
    3.0582141581688227E-01 
    2.6366231052211220E-01 
    2.1778897056417565E-01 
    1.7167231938522232E-01 
    1.3868658929044858E-01 
    5.7830363373402871E-01 
    5.7395095151338871E-01 
    5.6360596367970450E-01 
    5.4784459347447434E-01 
    5.2766464170083061E-01 
    5.0397589148912658E-01 
    4.7744144232900076E-01 
    4.4847570697294653E-01 
    4.1723621422350315E-01 
    3.8364833807352139E-01 
    3.4750976213905949E-01 
    3.0839552286325461E-01 
    2.6513270812641060E-01 
    2.1600149652288742E-01 
    1.6195350136653730E-01 
    1.1629347741383000E-01 
    5.7764002454343000E-01 
    5.7357785357939617E-01 
    5.6384848866942783E-01 
    5.4876959285581450E-01 
    5.2919377595676587E-01 
    5.0598614713310708E-01 
    4.7982692415648870E-01 
    4.5117176449767732E-01 
    4.2019505901026372E-01 
    3.8677117654626142E-01 
    3.5064597855176055E-01 
    3.1139204043172064E-01 
    2.6748085644756142E-01 
    2.1571769943395824E-01 
    1.5315918246763882E-01 
    8.8041234131283827E-02 
    5.7725894781534026E-01 
    5.7350505099678484E-01 
    5.6434126498992931E-01 
    5.4986985698351265E-01 
    5.3083429241479851E-01 
    5.0805961210963679E-01 
    4.8224386329329555E-01 
    4.5388465914952092E-01 
    4.2317655938596782E-01 
    3.8996476217037468E-01 
    3.5392947722618834E-01 
    3.1471788736005002E-01 
    2.7066666053996152E-01 
    2.1732960860577372E-01 
    1.4707473305957211E-01 
    5.1611808240681345E-02 
    5.7713111982518350E-01 
    5.7370553134559532E-01 
    5.6507047329732341E-01 
    5.5114751316779675E-01 
    5.3259575900436185E-01 
    5.1021080108250139E-01 
    4.8470479683053935E-01 
    4.5661956119917452E-01 
    4.2616110550853742E-01 
    3.9320991738639499E-01 
    3.5740420088982400E-01 
    3.1844005692663108E-01 
    2.7475277877219390E-01 
    2.2114548282632721E-01 
    1.4657044232335620E-01 
    0.0000000000000000E+00 

SCALARS Saturarion double 1 
LOOKUP_TABLE default 

    1.0000000000000002E+00 
    9.7971644714650186E-01 
    9.4234909368017550E-01 
    8.8995770998408652E-01 
    8.4629232053416736E-01 
    8.0766749423138529E-01 
    7.7356898192918166E-01 
    7.4354868116401462E-01 
    7.1680856036248530E-01 
    6.9244762258759818E-01 
    6.6952508871705874E-01 
    6.4687767133952323E-01 
    6.2262327133558693E-01 
    5.9304293001948782E-01 
    5.4953496405592039E-01 
    3.4507258178775957E-01 
    9.9259587150089024E-01 
    9.7342669880319255E-01 
    9.3419671368053347E-01 
    8.8417207028981126E-01 
    8.4140218439992587E-01 
    8.0391312535720305E-01 
    7.7080544830945541E-01 
    7.4145667866132192E-01 
    7.1521526955050008E-01 
    6.9126761848286045E-01 
    6.6885812677328915E-01 
    6.4696476424606253E-01 
    6.2371763337881880E-01 
    5.9514314351750064E-01 
    5.5311298691234811E-01 
    3.6391863645151723E-01 
    9.8086867245201270E-01 
    9.6154525384605305E-01 
    9.2197741156223068E-01 
    8.7346087134877826E-01 
    8.3169675158110368E-01 
    7.9610944627512825E-01 
    7.6502729857816476E-01 
    7.3713472420247472E-01 
    7.1181996842191153E-01 
    6.8852028056597425E-01 
    6.6672739664016634E-01 
    6.4566342461026416E-01 
    6.2387310004413410E-01 
    5.9751025592847473E-01 
    5.5824786152568195E-01 
    3.8165703467192225E-01 
    9.6043766880432602E-01 
    9.4408833882273879E-01 
    9.0683864185372787E-01 
    8.6216983110957468E-01 
    8.2111520296678298E-01 
    7.8618399972873276E-01 
    7.5618783795428657E-01 
    7.2983167103911162E-01 
    7.0601441561691647E-01 
    6.8418580114655514E-01 
    6.6366346405147392E-01 
    6.4377125463759688E-01 
    6.2335256187033083E-01 
    5.9932494389408275E-01 
    5.6329930055006783E-01 
    3.9910266052156207E-01 
    9.3506910674308730E-01 
    9.2030287807025091E-01 
    8.8660700164041106E-01 
    8.4628051842283702E-01 
    8.0716995091818056E-01 
    7.7283199290105331E-01 
    7.4358387715715435E-01 
    7.1843734253450675E-01 
    6.9639844552535857E-01 
    6.7665786341506151E-01 
    6.5851663003326999E-01 
    6.4097287976274786E-01 
    6.2252429458674396E-01 
    6.0059641740931424E-01 
    5.6774721594692568E-01 
    4.1392914206761844E-01 
    9.0581686406061290E-01 
    8.9330362954022158E-01 
    8.6378700973097566E-01 
    8.2696219730634990E-01 
    7.9056163205215124E-01 
    7.5781808258560013E-01 
    7.2932258725208932E-01 
    7.0497089642634725E-01 
    6.8410154113863442E-01 
    6.6603284045121336E-01 
    6.5021345343195414E-01 
    6.3586393466566815E-01 
    6.2082358875410282E-01 
    6.0153632278488989E-01 
    5.7150058178138829E-01 
    4.2755110621165959E-01 
    8.7359862010641065E-01 
    8.6398150853795286E-01 
    8.3888934148132610E-01 
    8.0571606367472781E-01 
    7.7237967589987366E-01 
    7.4193052128611003E-01 
    7.1506465133761643E-01 
    6.9145735433683342E-01 
    6.7115598518572062E-01 
    6.5401915411190359E-01 
    6.3984853590762103E-01 
    6.2815121194026946E-01 
    6.1719077620206508E-01 
    6.0203306771073972E-01 
    5.7518056054168165E-01 
    4.4104695539482902E-01 
    8.3828585740416273E-01 
    8.3198475122493543E-01 
    8.1201717244798388E-01 
    7.8316135545612364E-01 
    7.5278008130009422E-01 
    7.2451426715764478E-01 
    6.9914346068482625E-01 
    6.7684990459993422E-01 
    6.5751966598237988E-01 
    6.4127219593751739E-01 
    6.2816954439037387E-01 
    6.1842667152090014E-01 
    6.1110243969753264E-01 
    6.0128934171058768E-01 
    5.7888573752418548E-01 
    4.5472580837817173E-01 
    7.9988673491079521E-01 
    7.9692812262918422E-01 
    7.8214838335804326E-01 
    7.5805567647010463E-01 
    7.3113447405169651E-01 
    7.0501262675348642E-01 
    6.8123171313752395E-01 
    6.6013661655309153E-01 
    6.4187353117898038E-01 
    6.2656336484619191E-01 
    6.1460286651733198E-01 
    6.0654627237435821E-01 
    6.0242135622714754E-01 
    5.9836624660716997E-01 
    5.8200680949697903E-01 
    4.6787990839755850E-01 
    7.5843897264909965E-01 
    7.5870129469054637E-01 
    7.4891692458992221E-01 
    7.2944783825445014E-01 
    7.0623855480059061E-01 
    6.8272149449708019E-01 
    6.6056553861558986E-01 
    6.4091093449500058E-01 
    6.2397453305180528E-01 
    6.0975849689353157E-01 
    5.9863453688081347E-01 
    5.9187476874707179E-01 
    5.9061632859026747E-01 
    5.9249201470982493E-01 
    5.8365480658074109E-01 
    4.8100180155350963E-01 
    7.1362796978108944E-01 
    7.1694930808328294E-01 
    7.1191347953728501E-01 
    6.9679318657205902E-01 
    6.7733751441082657E-01 
    6.5693412512239757E-01 
    6.3732648577194062E-01 
    6.1925463009311432E-01 
    6.0360328708385513E-01 
    5.9065339390163385E-01 
    5.8064205780722888E-01 
    5.7460363047321550E-01 
    5.7504584961898608E-01 
    5.8260087069430022E-01 
    5.8193358405907136E-01 
    4.9463746288698229E-01 
    6.6403376485165233E-01 
    6.7040194113944040E-01 
    6.7030009198417528E-01 
    6.5965698000475559E-01 
    6.4373209575996404E-01 
    6.2621753648817002E-01 
    6.0909336549344906E-01 
    5.9346034160824845E-01 
    5.7977302981858703E-01 
    5.6843806127967700E-01 
    5.5982919957561428E-01 
    5.5502265192026101E-01 
    5.5625634686431324E-01 
    5.6749355072929952E-01 
    5.7881716015122942E-01 
    5.0683966830439209E-01 
    6.0897014904177071E-01 
    6.1789110863475971E-01 
    6.2230307078942126E-01 
    6.1631008787864183E-01 
    6.0461673392115911E-01 
    5.9051324153834805E-01 
    5.7645715237537964E-01 
    5.6310803275856358E-01 
    5.5120777996901216E-01 
    5.4146019569195014E-01 
    5.3469195401416791E-01 
    5.3153445813105404E-01 
    5.3415499716614245E-01 
    5.4711606722361283E-01 
    5.6765525407089379E-01 
    5.1646578177108038E-01 
    5.5190937439898291E-01 
    5.6231803625823407E-01 
    5.6990552997650890E-01 
    5.6818119715608750E-01 
    5.6058062179392543E-01 
    5.4967857775341566E-01 
    5.3759357452129353E-01 
    5.2560785217123795E-01 
    5.1380297616156501E-01 
    5.0476750553781735E-01 
    4.9844274612713563E-01 
    4.9615061127715088E-01 
    5.0212527540571028E-01 
    5.2009962399588461E-01 
    5.5244623474971732E-01 
    5.2244007597924036E-01 
    4.1783222575831025E-01 
    4.4667823823131581E-01 
    4.6912864033409879E-01 
    4.7606758963846973E-01 
    4.7229548426023821E-01 
    4.6077934974586837E-01 
    4.4307891232594782E-01 
    4.2180380213424185E-01 
    3.8958216302099508E-01 
    3.3308205163009208E-01 
    3.0798453602754672E-01 
    3.3343791209835449E-01 
    3.6177289275526769E-01 
    4.2584998708470362E-01 
    5.1457559074630121E-01 
    5.2356260095816176E-01 
    2.9687618517889317E-02 
    8.9656842115762539E-02 
    1.1287763355263376E-01 
    1.3682443876543116E-01 
    9.9900839001247271E-02 
    9.3120296327921973E-02 
    5.3402401775933535E-02 
    3.5215633521270030E-02 
    1.5628671415903121E-02 
    3.1955537120263865E-03 
    5.0027705485193794E-03 
    6.0468047644419614E-03 
    2.7140734477599463E-02 
    1.8309833791087249E-01 
    3.4340648148072755E-01 
    4.7305909551349151E-01 
