# vtk DataFile Version 2.0
Pressure Field Data 
ASCII 
DATASET UNSTRUCTURED_GRID 

POINTS 289 double 

    0.0000000000000000E+00     0.0000000000000000E+00     0.0000000000000000E+00 
    1.0000000000000000E+00     0.0000000000000000E+00     0.0000000000000000E+00 
    1.0000000000000000E+00     1.0000000000000000E+00     0.0000000000000000E+00 
    0.0000000000000000E+00     1.0000000000000000E+00     0.0000000000000000E+00 
    6.2499999999872928E-02     0.0000000000000000E+00     0.0000000000000000E+00 
    1.2499999999977310E-01     0.0000000000000000E+00     0.0000000000000000E+00 
    1.8749999999959341E-01     0.0000000000000000E+00     0.0000000000000000E+00 
    2.4999999999941089E-01     0.0000000000000000E+00     0.0000000000000000E+00 
    3.1249999999922851E-01     0.0000000000000000E+00     0.0000000000000000E+00 
    3.7499999999904610E-01     0.0000000000000000E+00     0.0000000000000000E+00 
    4.3749999999886358E-01     0.0000000000000000E+00     0.0000000000000000E+00 
    4.9999999999869210E-01     0.0000000000000000E+00     0.0000000000000000E+00 
    5.6249999999884603E-01     0.0000000000000000E+00     0.0000000000000000E+00 
    6.2499999999901090E-01     0.0000000000000000E+00     0.0000000000000000E+00 
    6.8749999999917577E-01     0.0000000000000000E+00     0.0000000000000000E+00 
    7.4999999999934064E-01     0.0000000000000000E+00     0.0000000000000000E+00 
    8.1249999999950551E-01     0.0000000000000000E+00     0.0000000000000000E+00 
    8.7499999999967026E-01     0.0000000000000000E+00     0.0000000000000000E+00 
    9.3749999999983513E-01     0.0000000000000000E+00     0.0000000000000000E+00 
    1.0000000000000000E+00     6.2499999999872928E-02     0.0000000000000000E+00 
    1.0000000000000000E+00     1.2499999999977310E-01     0.0000000000000000E+00 
    1.0000000000000000E+00     1.8749999999959341E-01     0.0000000000000000E+00 
    1.0000000000000000E+00     2.4999999999941089E-01     0.0000000000000000E+00 
    1.0000000000000000E+00     3.1249999999922851E-01     0.0000000000000000E+00 
    1.0000000000000000E+00     3.7499999999904610E-01     0.0000000000000000E+00 
    1.0000000000000000E+00     4.3749999999886358E-01     0.0000000000000000E+00 
    1.0000000000000000E+00     4.9999999999869210E-01     0.0000000000000000E+00 
    1.0000000000000000E+00     5.6249999999884603E-01     0.0000000000000000E+00 
    1.0000000000000000E+00     6.2499999999901090E-01     0.0000000000000000E+00 
    1.0000000000000000E+00     6.8749999999917577E-01     0.0000000000000000E+00 
    1.0000000000000000E+00     7.4999999999934064E-01     0.0000000000000000E+00 
    1.0000000000000000E+00     8.1249999999950551E-01     0.0000000000000000E+00 
    1.0000000000000000E+00     8.7499999999967026E-01     0.0000000000000000E+00 
    1.0000000000000000E+00     9.3749999999983513E-01     0.0000000000000000E+00 
    9.3749999999973976E-01     1.0000000000000000E+00     0.0000000000000000E+00 
    8.7499999999950118E-01     1.0000000000000000E+00     0.0000000000000000E+00 
    8.1249999999991318E-01     1.0000000000000000E+00     0.0000000000000000E+00 
    7.5000000000034706E-01     1.0000000000000000E+00     0.0000000000000000E+00 
    6.8750000000078049E-01     1.0000000000000000E+00     0.0000000000000000E+00 
    6.2500000000121403E-01     1.0000000000000000E+00     0.0000000000000000E+00 
    5.6250000000164757E-01     1.0000000000000000E+00     0.0000000000000000E+00 
    5.0000000000205946E-01     1.0000000000000000E+00     0.0000000000000000E+00 
    4.3750000000182099E-01     1.0000000000000000E+00     0.0000000000000000E+00 
    3.7500000000156092E-01     1.0000000000000000E+00     0.0000000000000000E+00 
    3.1250000000130068E-01     1.0000000000000000E+00     0.0000000000000000E+00 
    2.5000000000104050E-01     1.0000000000000000E+00     0.0000000000000000E+00 
    1.8750000000078040E-01     1.0000000000000000E+00     0.0000000000000000E+00 
    1.2500000000052031E-01     1.0000000000000000E+00     0.0000000000000000E+00 
    6.2500000000260125E-02     1.0000000000000000E+00     0.0000000000000000E+00 
    0.0000000000000000E+00     9.3749999999973976E-01     0.0000000000000000E+00 
    0.0000000000000000E+00     8.7499999999950118E-01     0.0000000000000000E+00 
    0.0000000000000000E+00     8.1249999999991318E-01     0.0000000000000000E+00 
    0.0000000000000000E+00     7.5000000000034706E-01     0.0000000000000000E+00 
    0.0000000000000000E+00     6.8750000000078049E-01     0.0000000000000000E+00 
    0.0000000000000000E+00     6.2500000000121403E-01     0.0000000000000000E+00 
    0.0000000000000000E+00     5.6250000000164757E-01     0.0000000000000000E+00 
    0.0000000000000000E+00     5.0000000000205946E-01     0.0000000000000000E+00 
    0.0000000000000000E+00     4.3750000000182099E-01     0.0000000000000000E+00 
    0.0000000000000000E+00     3.7500000000156092E-01     0.0000000000000000E+00 
    0.0000000000000000E+00     3.1250000000130068E-01     0.0000000000000000E+00 
    0.0000000000000000E+00     2.5000000000104050E-01     0.0000000000000000E+00 
    0.0000000000000000E+00     1.8750000000078040E-01     0.0000000000000000E+00 
    0.0000000000000000E+00     1.2500000000052031E-01     0.0000000000000000E+00 
    0.0000000000000000E+00     6.2500000000260125E-02     0.0000000000000000E+00 
    6.2499999999897131E-02     6.2500000000235922E-02     0.0000000000000000E+00 
    6.2499999999921327E-02     1.2500000000047351E-01     0.0000000000000000E+00 
    6.2499999999945530E-02     1.8750000000070621E-01     0.0000000000000000E+00 
    6.2499999999969733E-02     2.5000000000093858E-01     0.0000000000000000E+00 
    6.2499999999993928E-02     3.1250000000117117E-01     0.0000000000000000E+00 
    6.2500000000018124E-02     3.7500000000140382E-01     0.0000000000000000E+00 
    6.2500000000042327E-02     4.3750000000163619E-01     0.0000000000000000E+00 
    6.2500000000066530E-02     5.0000000000184897E-01     0.0000000000000000E+00 
    6.2500000000090733E-02     5.6250000000147260E-01     0.0000000000000000E+00 
    6.2500000000114922E-02     6.2500000000107636E-01     0.0000000000000000E+00 
    6.2500000000139125E-02     6.8750000000068034E-01     0.0000000000000000E+00 
    6.2500000000163328E-02     7.5000000000028411E-01     0.0000000000000000E+00 
    6.2500000000187531E-02     8.1249999999988787E-01     0.0000000000000000E+00 
    6.2500000000211720E-02     8.7499999999951172E-01     0.0000000000000000E+00 
    6.2500000000235922E-02     9.3749999999974565E-01     0.0000000000000000E+00 
    1.2499999999981980E-01     6.2500000000211733E-02     0.0000000000000000E+00 
    1.2499999999986650E-01     1.2500000000042691E-01     0.0000000000000000E+00 
    1.2499999999991319E-01     1.8750000000063199E-01     0.0000000000000000E+00 
    1.2499999999995989E-01     2.5000000000083678E-01     0.0000000000000000E+00 
    1.2500000000000661E-01     3.1250000000104172E-01     0.0000000000000000E+00 
    1.2500000000005329E-01     3.7500000000124661E-01     0.0000000000000000E+00 
    1.2500000000010000E-01     4.3750000000145117E-01     0.0000000000000000E+00 
    1.2500000000014669E-01     5.0000000000163858E-01     0.0000000000000000E+00 
    1.2500000000019340E-01     5.6250000000129741E-01     0.0000000000000000E+00 
    1.2500000000024011E-01     6.2500000000093847E-01     0.0000000000000000E+00 
    1.2500000000028680E-01     6.8750000000057998E-01     0.0000000000000000E+00 
    1.2500000000033351E-01     7.5000000000022127E-01     0.0000000000000000E+00 
    1.2500000000038020E-01     8.1249999999986211E-01     0.0000000000000000E+00 
    1.2500000000042691E-01     8.7499999999952238E-01     0.0000000000000000E+00 
    1.2500000000047359E-01     9.3749999999975164E-01     0.0000000000000000E+00 
    1.8749999999966760E-01     6.2500000000187531E-02     0.0000000000000000E+00 
    1.8749999999974179E-01     1.2500000000038020E-01     0.0000000000000000E+00 
    1.8749999999981601E-01     1.8750000000055780E-01     0.0000000000000000E+00 
    1.8749999999989009E-01     2.5000000000073502E-01     0.0000000000000000E+00 
    1.8749999999996431E-01     3.1250000000091221E-01     0.0000000000000000E+00 
    1.8750000000003850E-01     3.7500000000108941E-01     0.0000000000000000E+00 
    1.8750000000011269E-01     4.3750000000126649E-01     0.0000000000000000E+00 
    1.8750000000018691E-01     5.0000000000142808E-01     0.0000000000000000E+00 
    1.8750000000026110E-01     5.6250000000112244E-01     0.0000000000000000E+00 
    1.8750000000033529E-01     6.2500000000080080E-01     0.0000000000000000E+00 
    1.8750000000040951E-01     6.8750000000047962E-01     0.0000000000000000E+00 
    1.8750000000048361E-01     7.5000000000015843E-01     0.0000000000000000E+00 
    1.8750000000055780E-01     8.1249999999983680E-01     0.0000000000000000E+00 
    1.8750000000063199E-01     8.7499999999953304E-01     0.0000000000000000E+00 
    1.8750000000070621E-01     9.3749999999975764E-01     0.0000000000000000E+00 
    2.4999999999951281E-01     6.2500000000163314E-02     0.0000000000000000E+00 
    2.4999999999961461E-01     1.2500000000033351E-01     0.0000000000000000E+00 
    2.4999999999971650E-01     1.8750000000048361E-01     0.0000000000000000E+00 
    2.4999999999981831E-01     2.5000000000063310E-01     0.0000000000000000E+00 
    2.4999999999992020E-01     3.1250000000078260E-01     0.0000000000000000E+00 
    2.5000000000002198E-01     3.7500000000093209E-01     0.0000000000000000E+00 
    2.5000000000012390E-01     4.3750000000108180E-01     0.0000000000000000E+00 
    2.5000000000022571E-01     5.0000000000121769E-01     0.0000000000000000E+00 
    2.5000000000032763E-01     5.6250000000094724E-01     0.0000000000000000E+00 
    2.5000000000042938E-01     6.2500000000066314E-01     0.0000000000000000E+00 
    2.5000000000053119E-01     6.8750000000037925E-01     0.0000000000000000E+00 
[...]
CELL_DATA 256 
SCALARS Pressure double 1 
LOOKUP_TABLE default 

    7.0205966514960627E-01 
    6.5202557421141916E-01 
    6.1994042806863270E-01 
    5.9079937307410091E-01 
    5.6120233822505294E-01 
    5.3031577179624767E-01 
    4.9789209804353091E-01 
    4.6399067565652791E-01 
    4.2889834909626401E-01 
    3.9316606817368310E-01 
    3.5772839592944006E-01 
    3.2406465374854643E-01 
    2.9429426397529318E-01 
    2.7098993339589389E-01 
    2.5610650180891714E-01 
    2.4887096284816027E-01 
    6.8808100335049105E-01 
    6.5332526872400076E-01 
    6.2235293523221191E-01 
    5.9344817619321699E-01 
    5.6404660097624304E-01 
    5.3334288049569845E-01 
    5.0108490234070746E-01 
    4.6731260191102358E-01 
    4.3228370813964229E-01 
    3.9650629983852587E-01 
    3.6085462106254573E-01 
    3.2673857580710286E-01 
    2.9623651388649980E-01 
    2.7198654878192419E-01 
    2.5622026078365551E-01 
    2.4843083642353056E-01 
    6.7735318336412409E-01 
    6.5248476989333848E-01 
    6.2401152540441485E-01 
    5.9576322674304716E-01 
    5.6669402434599880E-01 
    5.3622557583287289E-01 
    5.0415302789409266E-01 
    4.7051127640593937E-01 
    4.3552834834276938E-01 
    3.9966133733987175E-01 
    3.6370987168815450E-01 
    3.2899797669088982E-01 
    2.9755896367858031E-01 
    2.7213124472927530E-01 
    2.5532603420989086E-01 
    2.4702251539745138E-01 
    6.6892220769665089E-01 
    6.5056266551099762E-01 
    6.2495724212339754E-01 
    5.9772254846757311E-01 
    5.6913835722200556E-01 
    5.3896950470031613E-01 
    5.0710721919875978E-01 
    4.7360055133443835E-01 
    4.3865242712809721E-01 
    4.0266336321788881E-01 
    3.6634404310709734E-01 
    3.3091032383999824E-01 
    2.9833047272520868E-01 
    2.7145700241750415E-01 
    2.5337579652026504E-01 
    2.4450303094252873E-01 
    6.6214483224778886E-01 
    6.4814989332240813E-01 
    6.2532279104476540E-01 
    5.9933432381931318E-01 
    5.7137631247516885E-01 
    5.4157877809145871E-01 
    5.0995912251441733E-01 
    4.7659784732068944E-01 
    4.4168049408351934E-01 
    4.0554893949781723E-01 
    3.6881188005367427E-01 
    3.3255044615508944E-01 
    2.9863109820148809E-01 
    2.7000615796268329E-01 
    2.5031938434451051E-01 
    2.4072229417119104E-01 
    6.5662247262369500E-01 
    6.4559143766833149E-01 
    6.2525914443046071E-01 
    6.0063165127613394E-01 
    5.7341258941966278E-01 
    5.4405692430465002E-01 
    5.1271867307097097E-01 
    4.7952132788271395E-01 
    4.4464009692095974E-01 
    4.0835858883002529E-01 
    3.7117305678125873E-01 
    3.3400093403836212E-01 
    2.9855434071033732E-01 
    2.6783638688034117E-01 
    2.4610475032644227E-01 
    2.3550217627487480E-01 
    6.5209443295571112E-01 
    6.4309794334461157E-01 
    6.2491560188585460E-01 
    6.0166969229911271E-01 
    5.7526729691177070E-01 
    5.4641394621223727E-01 
    5.1539597352289923E-01 
    4.8238743877408874E-01 
    4.4755824444568792E-01 
    4.1113459817470421E-01 
    3.7349162725353013E-01 
    3.3535350207584591E-01 
    2.9821084953326443E-01 
    2.6502883997897558E-01 
    2.4068760287845142E-01 
    2.2863902790785398E-01 
    6.4837563121274766E-01 
    6.4079441201095411E-01 
    6.2442367825901113E-01 
    6.0251437917898021E-01 
    5.7697137476918214E-01 
    5.4866665465128650E-01 
    5.1800382717101179E-01 
    4.8521101991947313E-01 
    4.5045878102075992E-01 
    4.1391657775227780E-01 
    3.7583280111151185E-01 
    3.3670924834212484E-01 
    2.9773389618735902E-01 
    2.6169892761793628E-01 
    2.3404384770905207E-01 
    2.1989598100620483E-01 
    6.4533395338158106E-01 
    6.3875214828168458E-01 
    6.2389090519912316E-01 
    6.0323368862500160E-01 
    5.7856065012117375E-01 
    5.5083553143260489E-01 
    5.2055668362866125E-01 
    4.8800589687380314E-01 
    4.5336024307810929E-01 
    4.1673694342179973E-01 
    3.7825667568004295E-01 
    3.3817436755781716E-01 
    2.9728257609009240E-01 
    2.5800778473619301E-01 
    2.2617477260587682E-01 
    2.0897060710485332E-01 
    6.4287282615386054E-01 
    6.3700751959831470E-01 
    6.2339857132745347E-01 
    6.0389030080362882E-01 
    5.8007363803004308E-01 
    5.5294408892006064E-01 
    5.2307064763482980E-01 
    4.9078562906333290E-01 
    4.5627807446089108E-01 
    4.1962086608382260E-01 
    3.8081404083535397E-01 
    3.3985313155375885E-01 
    2.9703990825858506E-01 
    2.5417817005202914E-01 
    2.1712848774166124E-01 
    1.9545773491926577E-01 
    6.4091994344102776E-01 
    6.3557854912238498E-01 
    6.2301115701501131E-01 
    6.0454332820433365E-01 
    5.8155220617052861E-01 
    5.5502068894757572E-01 
    5.2556561435141491E-01 
    4.9356587083393183E-01 
    4.5922813438760002E-01 
    4.2259012865098294E-01 
    3.8354703087599085E-01 
    3.4184384758041170E-01 
    2.9721096157307536E-01 
    2.5051352314080894E-01 
    2.0704805532891674E-01 
    1.7882804425046878E-01 
    6.3941700371157917E-01 
    6.3447505629602385E-01 
    6.2278274468473571E-01 
    6.0524892273672604E-01 
    5.8304102863121443E-01 
    5.5709928606586812E-01 
    5.2806763735742734E-01 
    4.9636647669497741E-01 
    4.6222915570866324E-01 
    4.2566602166684386E-01 
    3.8649008495820830E-01 
    3.4423353052623068E-01 
    2.9801797803434132E-01 
    2.4741290111916062E-01 
    1.9622364283794966E-01 
    1.5833587432453167E-01 
    6.3832770611126355E-01 
    6.3371156975454057E-01 
    6.2276429958475010E-01 
    6.0606379172777858E-01 
    5.8458838298759130E-01 
    5.5921896408463334E-01 
    5.3060758741945713E-01 
    4.9921063010394168E-01 
    4.6529997218348151E-01 
    4.2886631660209390E-01 
    3.8966572243349140E-01 
    3.4708561805937460E-01 
    2.9967753456956908E-01 
    2.4540591017357383E-01 
    1.8526906703188112E-01 
    1.3289742927920548E-01 
    6.3762104978590295E-01 
    6.3330075527409280E-01 
    6.2300094051457555E-01 
    6.0704167285287258E-01 
    5.8624169700486006E-01 
    5.6141645183377242E-01 
    5.3321259253934927E-01 
    5.0211209495236009E-01 
    4.6843412931327838E-01 
    4.3216774478767128E-01 
    3.9303852766479785E-01 
    3.5037217779682683E-01 
    3.0229573264980503E-01 
    2.4505281715811594E-01 
    1.7532389286732003E-01 
    1.0088250206256041E-01 
    6.3714040404617356E-01 
    6.3313439869429000E-01 
    6.2344149429487250E-01 
    6.0815405073371709E-01 
    5.8796360269893144E-01 
    5.6364417743310169E-01 
    5.3583338142598136E-01 
    5.0502221370610445E-01 
    4.7156997717729576E-01 
    4.3549339685896865E-01 
    3.9651328159512089E-01 
    3.5394370000831493E-01 
    3.0572325641964992E-01 
    2.4662128195202307E-01 
    1.6800508170836692E-01 
    5.9234944478397250E-02 
    6.3696853625941019E-01 
    6.3329308952876995E-01 
    6.2416262669561595E-01 
    6.0946871544552761E-01 
    5.8980771238751450E-01 
    5.6593992857412878E-01 
    5.3850812656547831E-01 
    5.0799927519509180E-01 
    4.7479837192630420E-01 
    4.3896052070445812E-01 
    4.0022933711332032E-01 
    3.5794715533130878E-01 
    3.1018940293203545E-01 
    2.5101393214525197E-01 
    1.6737482968643108E-01 
    0.0000000000000000E+00 

SCALARS Saturarion double 1 
LOOKUP_TABLE default 

    1.0000000000000007E+00 
    9.7602773356766526E-01 
    9.3237899309555372E-01 
    8.7456691663398289E-01 
    8.2603733310524230E-01 
    7.8349395560251966E-01 
    7.4667731652360880E-01 
    7.1486020006294593E-01 
    6.8689066583455571E-01 
    6.6156288941781771E-01 
    6.3766251465114265E-01 
    6.1378665933284993E-01 
    5.8785990715708969E-01 
    5.5679297658135252E-01 
    4.9835620472665937E-01 
    2.0374560715243575E-01 
    9.9092932549380741E-01 
    9.6822523881305234E-01 
    9.2249350969667365E-01 
    8.6745822891201552E-01 
    8.2068997645841180E-01 
    7.7982576099738021E-01 
    7.4408855592938894E-01 
    7.1280203149619947E-01 
    6.8515787378895865E-01 
    6.6014573124601394E-01 
    6.3679521187193366E-01 
    6.1382074323610747E-01 
    5.8904086176576542E-01 
    5.5894071282347346E-01 
    5.0364718733112979E-01 
    2.3523968914196561E-01 
    9.7661720863933743E-01 
    9.5393259538101871E-01 
    9.0805301143278705E-01 
    8.5488439503919433E-01 
    8.1020027049399146E-01 
    7.7212522599512046E-01 
    7.3864762405715190E-01 
    7.0857437867472306E-01 
    6.8145707070473183E-01 
    6.5678456612040526E-01 
    6.3401372790481414E-01 
    6.1215025050820848E-01 
    5.8925384173104012E-01 
    5.6143473959149770E-01 
    5.1063217317619591E-01 
    2.6420726566456415E-01 
    9.5163504584292979E-01 
    9.3255313435915677E-01 
    8.9047138737097087E-01 
    8.4143494643597416E-01 
    7.9758334910673168E-01 
    7.6090431410541404E-01 
    7.2936958176414568E-01 
    7.0134953317332149E-01 
    6.7581168903910116E-01 
    6.5244006160768520E-01 
    6.3069664007960469E-01 
    6.0994366541444112E-01 
    5.8873024154505726E-01 
    5.6349066276026949E-01 
    5.1748685513621073E-01 
    2.9220573057619958E-01 
    9.2117304794071642E-01 
    9.0443445258235655E-01 
    8.6704015518955024E-01 
    8.2290075625887460E-01 
    7.8133795358392288E-01 
    7.4575628424819762E-01 
    7.1573441117737790E-01 
    6.8974486395285828E-01 
    6.6662976389321216E-01 
    6.4564373037489964E-01 
    6.2620209888218070E-01 
    6.0744788885867917E-01 
    5.8799385402809579E-01 
    5.6499966883678410E-01 
    5.2386899026227585E-01 
    3.1461905536162404E-01 
    8.8735102020083589E-01 
    8.7345524769179539E-01 
    8.4101758641847635E-01 
    8.0127816223705550E-01 
    7.6302579778421675E-01 
    7.2929695300141661E-01 
    7.0022739350781804E-01 
    6.7548928398644725E-01 
    6.5424700497091282E-01 
    6.3563490895445007E-01 
    6.1892703757529888E-01 
    6.0329690857287543E-01 
    5.8680466933131226E-01 
    5.6618356893350319E-01 
    5.2952977277646818E-01 
    3.3457508309878664E-01 
    8.5092464851117666E-01 
    8.4043183829631463E-01 
    8.1329819897119437E-01 
    7.7808393290115752E-01 
    7.4341314435273653E-01 
    7.1214382786200148E-01 
    6.8476961753893595E-01 
    6.6091117296720525E-01 
    6.4060340672142391E-01 
    6.2353044415797310E-01 
    6.0916998772946218E-01 
    5.9663903890246150E-01 
    5.8410026425113182E-01 
    5.6712505002923752E-01 
    5.3464336060042605E-01 
    3.5397719142694350E-01 
    8.1171692564113040E-01 
    8.0506415101275908E-01 
    7.8396898136391280E-01 
    7.5379043497909204E-01 
    7.2238915689689587E-01 
    6.9343903048686284E-01 
    6.6768176967944981E-01 
    6.4529044495174359E-01 
    6.2608270378750286E-01 
    6.1011921851395046E-01 
    5.9733748238461193E-01 
    5.8752195297025678E-01 
    5.7905550091806046E-01 
    5.6712981150547626E-01 
    5.3970748523558487E-01 
    3.7348417093005737E-01 
    7.6995076624083192E-01 
    7.6700230960438476E-01 
    7.5175981178029827E-01 
    7.2693143552368156E-01 
    6.9932437681093762E-01 
    6.7274604755903067E-01 
    6.4878647578328230E-01 
    6.2769925550751382E-01 
    6.0953477852003790E-01 
    5.9445023300766875E-01 
    5.8296588742996036E-01 
    5.7550840057505825E-01 
    5.7118646144535390E-01 
    5.6519668326813177E-01 
    5.4398479332854544E-01 
    3.9177129541259698E-01 
    7.2563985132309916E-01 
    7.2612803092274825E-01 
    7.1631345144394432E-01 
    6.9654517244195790E-01 
    6.7302434908849884E-01 
    6.4939663388735669E-01 
    6.2736703088492740E-01 
    6.0789602856047709E-01 
    5.9099538503994109E-01 
    5.7674492579485837E-01 
    5.6587409058074323E-01 
    5.5994330527615643E-01 
    5.5955129874616005E-01 
    5.6041005466167615E-01 
    5.4710825933977458E-01 
    4.0961835966611448E-01 
    6.7841619109253171E-01 
    6.8207300867909337E-01 
    6.7727230442311026E-01 
    6.6219994292667084E-01 
    6.4283088887125728E-01 
    6.2276033834445788E-01 
    6.0370394230300783E-01 
    5.8609884172361160E-01 
    5.7058331126024953E-01 
    5.5752589207100234E-01 
    5.4749516006496535E-01 
    5.4192798443630175E-01 
    5.4349954580644599E-01 
    5.5136630595701219E-01 
    5.4794392134133929E-01 
    4.2758441787372120E-01 
    6.2717358818519353E-01 
    6.3379667581795063E-01 
    6.3407167006208887E-01 
    6.2383506887239171E-01 
    6.0852696190263655E-01 
    5.9195451945502675E-01 
    5.7588371042285202E-01 
    5.6101610616629904E-01 
    5.4770163190345855E-01 
    5.3653973507642094E-01 
    5.2796839619045832E-01 
    5.2310007015449700E-01 
    5.2463685524114934E-01 
    5.3663236216776411E-01 
    5.4342056218211487E-01 
    4.4459629377882187E-01 
    5.7440777178709912E-01 
    5.8276094008857093E-01 
    5.8707378430459634E-01 
    5.8174418679305173E-01 
    5.7094744643854389E-01 
    5.5776366452200687E-01 
    5.4463437817599281E-01 
    5.3217059361556074E-01 
    5.2075705804224204E-01 
    5.1064253192857945E-01 
    5.0322054354089873E-01 
    5.0009994467714103E-01 
    5.0311048945124992E-01 
    5.1656379640603756E-01 
    5.3533016642257159E-01 
    4.5910571729280131E-01 
    5.1162787115957775E-01 
    5.2515326793036698E-01 
    5.3307205745080510E-01 
    5.3300835000854396E-01 
    5.2482828915495150E-01 
    5.1343465440751679E-01 
    5.0030705361596695E-01 
    4.8856801781194609E-01 
    4.7432629925608161E-01 
    4.5413053027760947E-01 
    4.3903885912962254E-01 
    4.3393866986471125E-01 
    4.4278695008942448E-01 
    4.7726479715011838E-01 
    5.1852448827297781E-01 
    4.6922292335606808E-01 
    2.5698397914123838E-01 
    3.3878850630822549E-01 
    3.8301784624691187E-01 
    3.9117497350708841E-01 
    3.7427932228323191E-01 
    3.3351386116899895E-01 
    2.8779099115069900E-01 
    2.3709636661086161E-01 
    2.0941956786806309E-01 
    1.5665270734642511E-01 
    1.2002064839422728E-01 
    1.0609904873670971E-01 
    1.4300915819235971E-01 
    2.8484159761220823E-01 
    4.5752685808393539E-01 
    4.7045674998884651E-01 
    1.1558153351258639E-04 
    9.6334566940257382E-03 
    2.1171134954547133E-02 
    2.0541758148161011E-02 
    1.7126085807554415E-02 
    3.4417560503120686E-03 
    1.9023183675991589E-03 
    7.4584976377606630E-05 
    1.4661864602305238E-04 
    1.3073921614952235E-05 
    9.1309874544379354E-06 
    1.0055983833741464E-05 
    1.8981809464143848E-04 
    8.1429282434188371E-02 
    2.8475258201652281E-01 
    4.2070461722428620E-01 
